Generated by trjconv : CNT in water t= 471.00000
33518
    1C        C    1   2.844   2.773   4.747
    1C        C    2   2.897   2.717   4.865
    1C        C    3   2.841   2.774   4.980
    1C        C    4   2.853   2.783   4.259
    1C        C    5   2.902   2.735   4.383
    1C        C    6   2.846   2.775   4.506
    1C        C    7   3.020   2.651   4.627
    1C        C    8   2.900   2.725   4.626
    1C        C    9   3.081   2.611   4.747
    1C        C   10   3.010   2.633   4.867
    1C        C   11   3.185   2.494   4.980
    1C        C   12   3.064   2.563   4.976
    1C        C   13   2.853   2.779   3.771
    1C        C   14   2.906   2.732   3.893
    1C        C   15   2.856   2.780   4.015
    1C        C   16   3.023   2.653   4.140
    1C        C   17   2.907   2.734   4.139
    1C        C   18   3.084   2.621   4.263
    1C        C   19   3.020   2.657   4.383
    1C        C   20   3.212   2.565   4.504
    1C        C   21   3.081   2.616   4.504
    1C        C   22   3.282   2.547   4.626
    1C        C   23   3.210   2.551   4.747
    1C        C   24   3.413   2.479   4.865
    1C        C   25   3.272   2.501   4.866
    1C        C   26   3.490   2.490   4.981
    1C        C   27   2.855   2.775   3.283
    1C        C   28   2.909   2.730   3.405
    1C        C   29   2.857   2.775   3.528
    1C        C   30   3.023   2.646   3.651
    1C        C   31   2.909   2.729   3.651
    1C        C   32   3.082   2.609   3.774
    1C        C   33   3.019   2.646   3.895
    1C        C   34   3.214   2.563   4.017
    1C        C   35   3.083   2.616   4.017
    1C        C   36   3.282   2.542   4.139
    1C        C   37   3.216   2.570   4.260
    1C        C   38   3.420   2.515   4.383
    1C        C   39   3.282   2.546   4.383
    1C        C   40   3.491   2.506   4.504
    1C        C   41   3.418   2.509   4.626
    1C        C   42   3.631   2.483   4.745
    1C        C   43   3.489   2.480   4.744
    1C        C   44   3.705   2.486   4.866
    1C        C   45   3.629   2.478   4.983
    1C        C   46   2.840   2.757   2.793
    1C        C   47   2.899   2.718   2.915
    1C        C   48   2.850   2.768   3.038
    1C        C   49   3.022   2.647   3.161
    1C        C   50   2.905   2.726   3.160
    1C        C   51   3.085   2.614   3.284
    1C        C   52   3.026   2.650   3.407
    1C        C   53   3.217   2.560   3.526
    1C        C   54   3.086   2.612   3.529
    1C        C   55   3.280   2.534   3.650
    1C        C   56   3.213   2.555   3.773
    1C        C   57   3.419   2.513   3.894
    1C        C   58   3.279   2.535   3.895
    1C        C   59   3.490   2.505   4.015
    1C        C   60   3.420   2.509   4.138
    1C        C   61   3.630   2.503   4.260
    1C        C   62   3.489   2.498   4.261
    1C        C   63   3.704   2.504   4.380
    1C        C   64   3.632   2.503   4.502
    1C        C   65   3.837   2.545   4.623
    1C        C   66   3.701   2.504   4.624
    1C        C   67   3.906   2.563   4.745
    1C        C   68   3.841   2.523   4.864
    1C        C   69   4.047   2.593   4.983
    1C        C   70   3.923   2.529   4.977
    1C        C   71   2.825   2.734   2.308
    1C        C   72   2.884   2.693   2.429
    1C        C   73   2.831   2.745   2.549
    1C        C   74   3.011   2.630   2.673
    1C        C   75   2.893   2.708   2.671
    1C        C   76   3.076   2.601   2.795
    1C        C   77   3.015   2.637   2.917
    1C        C   78   3.210   2.549   3.037
    1C        C   79   3.081   2.608   3.039
    1C        C   80   3.278   2.535   3.160
    1C        C   81   3.213   2.554   3.284
    1C        C   82   3.421   2.501   3.403
    1C        C   83   3.282   2.530   3.405
    1C        C   84   3.488   2.498   3.526
    1C        C   85   3.418   2.503   3.649
    1C        C   86   3.630   2.503   3.770
    1C        C   87   3.489   2.503   3.771
    1C        C   88   3.701   2.510   3.892
    1C        C   89   3.632   2.504   4.015
    1C        C   90   3.838   2.547   4.137
    1C        C   91   3.701   2.514   4.138
    1C        C   92   3.908   2.570   4.258
    1C        C   93   3.839   2.544   4.379
    1C        C   94   4.031   2.634   4.501
    1C        C   95   3.905   2.571   4.502
    1C        C   96   4.093   2.670   4.622
    1C        C   97   4.033   2.626   4.743
    1C        C   98   4.191   2.767   4.864
    1C        C   99   4.097   2.658   4.865
    1C        C  100   4.208   2.847   4.977
    1C        C  101   2.821   2.729   2.070
    1C        C  102   2.995   2.596   2.191
    1C        C  103   2.877   2.679   2.188
    1C        C  104   3.066   2.575   2.312
    1C        C  105   3.006   2.620   2.431
    1C        C  106   3.203   2.537   2.551
    1C        C  107   3.071   2.589   2.552
    1C        C  108   3.272   2.515   2.672
    1C        C  109   3.206   2.545   2.794
    1C        C  110   3.415   2.503   2.913
    1C        C  111   3.275   2.522   2.914
    1C        C  112   3.487   2.497   3.035
    1C        C  113   3.416   2.507   3.157
    1C        C  114   3.629   2.500   3.280
    1C        C  115   3.487   2.495   3.278
    1C        C  116   3.697   2.508   3.403
    1C        C  117   3.630   2.498   3.527
    1C        C  118   3.838   2.540   3.646
    1C        C  119   3.702   2.504   3.648
    1C        C  120   3.901   2.572   3.769
    1C        C  121   3.837   2.548   3.892
    1C        C  122   4.027   2.641   4.014
    1C        C  123   3.903   2.573   4.015
    1C        C  124   4.092   2.672   4.136
    1C        C  125   4.033   2.636   4.259
    1C        C  126   4.198   2.769   4.378
    1C        C  127   4.092   2.676   4.380
    1C        C  128   4.242   2.822   4.501
    1C        C  129   4.194   2.769   4.622
    1C        C  130   4.329   2.935   4.743
    1C        C  131   4.243   2.822   4.744
    1C        C  132   4.355   3.005   4.863
    1C        C  133   4.284   2.963   4.976
    1C        C  134   3.172   2.463   2.084
    1C        C  135   3.040   2.509   2.087
    1C        C  136   3.261   2.481   2.190
    1C        C  137   3.197   2.519   2.310
    1C        C  138   3.408   2.480   2.427
    1C        C  139   3.269   2.505   2.431
    1C        C  140   3.482   2.484   2.547
    1C        C  141   3.411   2.493   2.669
    1C        C  142   3.625   2.494   2.791
    1C        C  143   3.484   2.490   2.790
    1C        C  144   3.696   2.507   2.913
    1C        C  145   3.628   2.499   3.036
    1C        C  146   3.838   2.535   3.154
    1C        C  147   3.699   2.506   3.157
    1C        C  148   3.902   2.560   3.277
    1C        C  149   3.835   2.539   3.399
    1C        C  150   4.028   2.625   3.524
    1C        C  151   3.901   2.563   3.522
    1C        C  152   4.088   2.664   3.645
    1C        C  153   4.030   2.630   3.769
    1C        C  154   4.197   2.762   3.890
    1C        C  155   4.088   2.673   3.891
    1C        C  156   4.251   2.810   4.012
    1C        C  157   4.203   2.759   4.135
    1C        C  158   4.342   2.923   4.257
    1C        C  159   4.254   2.812   4.255
    1C        C  160   4.379   2.986   4.378
    1C        C  161   4.331   2.932   4.499
    1C        C  162   4.439   3.116   4.618
    1C        C  163   4.371   2.992   4.621
    1C        C  164   4.466   3.185   4.738
    1C        C  165   4.429   3.125   4.860
    1C        C  166   4.514   3.323   4.973
    1C        C  167   4.484   3.187   4.973
    1C        C  168   3.478   2.436   2.073
    1C        C  169   3.400   2.458   2.187
    1C        C  170   3.619   2.464   2.309
    1C        C  171   3.477   2.458   2.306
    1C        C  172   3.695   2.480   2.426
    1C        C  173   3.623   2.487   2.548
    1C        C  174   3.833   2.530   2.667
    1C        C  175   3.695   2.499   2.669
    1C        C  176   3.901   2.557   2.788
    1C        C  177   3.835   2.535   2.911
    1C        C  178   4.029   2.624   3.032
    1C        C  179   3.906   2.555   3.032
    1C        C  180   4.086   2.664   3.156
    1C        C  181   4.029   2.623   3.278
    1C        C  182   4.197   2.752   3.399
    1C        C  183   4.088   2.661   3.401
    1C        C  184   4.244   2.806   3.521
    1C        C  185   4.195   2.756   3.644
    1C        C  186   4.338   2.914   3.766
    1C        C  187   4.247   2.806   3.766
    1C        C  188   4.377   2.976   3.887
    1C        C  189   4.339   2.920   4.011
    1C        C  190   4.450   3.102   4.129
    1C        C  191   4.378   2.981   4.133
    1C        C  192   4.473   3.169   4.251
    1C        C  193   4.446   3.111   4.377
    1C        C  194   4.508   3.317   4.492
    1C        C  195   4.473   3.180   4.497
    1C        C  196   4.521   3.389   4.613
    1C        C  197   4.511   3.320   4.736
    1C        C  198   4.559   3.536   4.848
    1C        C  199   4.533   3.396   4.855
    1C        C  200   4.580   3.621   4.961
    1C        C  201   3.616   2.413   2.074
    1C        C  202   3.825   2.512   2.183
    1C        C  203   3.692   2.459   2.187
    1C        C  204   3.897   2.542   2.302
    1C        C  205   3.833   2.512   2.424
    1C        C  206   4.020   2.621   2.542
    1C        C  207   3.897   2.552   2.543
    1C        C  208   4.081   2.658   2.664
    1C        C  209   4.024   2.627   2.789
    1C        C  210   4.198   2.750   2.909
    1C        C  211   4.090   2.659   2.910
    1C        C  212   4.252   2.797   3.031
    1C        C  213   4.199   2.749   3.152
    1C        C  214   4.335   2.909   3.272
    1C        C  215   4.245   2.800   3.276
    1C        C  216   4.371   2.970   3.395
    1C        C  217   4.330   2.918   3.520
    1C        C  218   4.433   3.101   3.640
    1C        C  219   4.372   2.974   3.643
    1C        C  220   4.464   3.168   3.761
    1C        C  221   4.434   3.105   3.884
    1C        C  222   4.501   3.307   4.006
    1C        C  223   4.469   3.169   4.006
    1C        C  224   4.512   3.379   4.127
    1C        C  225   4.506   3.306   4.248
    1C        C  226   4.518   3.523   4.366
    1C        C  227   4.520   3.382   4.367
    1C        C  228   4.520   3.597   4.486
    1C        C  229   4.528   3.530   4.610
    1C        C  230   4.512   3.747   4.729
    1C        C  231   4.543   3.608   4.726
    1C        C  232   4.503   3.824   4.846
    1C        C  233   4.547   3.757   4.961
    1C        C  234   4.019   2.605   2.064
    1C        C  235   3.896   2.541   2.065
    1C        C  236   4.083   2.650   2.180
    1C        C  237   4.022   2.611   2.301
    1C        C  238   4.202   2.732   2.425
    1C        C  239   4.086   2.649   2.420
    1C        C  240   4.252   2.787   2.545
    1C        C  241   4.194   2.743   2.666
    1C        C  242   4.341   2.902   2.782
    1C        C  243   4.249   2.795   2.785
    1C        C  244   4.380   2.961   2.905
    1C        C  245   4.343   2.904   3.029
    1C        C  246   4.443   3.092   3.150
    1C        C  247   4.383   2.964   3.151
    1C        C  248   4.459   3.162   3.272
    1C        C  249   4.432   3.097   3.394
    1C        C  250   4.489   3.302   3.515
    1C        C  251   4.456   3.165   3.516
    1C        C  252   4.508   3.372   3.636
    1C        C  253   4.503   3.304   3.760
    1C        C  254   4.522   3.514   3.877
    1C        C  255   4.517   3.373   3.882
    1C        C  256   4.515   3.587   3.998
    1C        C  257   4.517   3.520   4.122
    1C        C  258   4.495   3.733   4.240
    1C        C  259   4.512   3.593   4.243
    1C        C  260   4.479   3.805   4.361
    1C        C  261   4.493   3.736   4.483
    1C        C  262   4.430   3.938   4.605
    1C        C  263   4.485   3.808   4.604
    1C        C  264   4.399   4.008   4.724
    1C        C  265   4.438   3.950   4.847
    1C        C  266   4.322   4.130   4.958
    1C        C  267   4.399   4.015   4.964
    1C        C  268   4.259   2.778   2.064
    1C        C  269   4.194   2.738   2.181
    1C        C  270   4.346   2.888   2.298
    1C        C  271   4.251   2.783   2.302
    1C        C  272   4.384   2.955   2.417
    1C        C  273   4.340   2.898   2.538
    1C        C  274   4.445   3.085   2.658
    1C        C  275   4.379   2.960   2.659
    1C        C  276   4.468   3.152   2.780
    1C        C  277   4.440   3.089   2.903
    1C        C  278   4.503   3.290   3.026
    1C        C  279   4.467   3.154   3.026
    1C        C  280   4.508   3.366   3.145
    1C        C  281   4.496   3.298   3.269
    1C        C  282   4.510   3.509   3.389
    1C        C  283   4.507   3.368   3.391
    1C        C  284   4.509   3.580   3.511
    1C        C  285   4.514   3.513   3.636
    1C        C  286   4.493   3.726   3.753
    1C        C  287   4.517   3.587   3.756
    1C        C  288   4.481   3.795   3.876
    1C        C  289   4.495   3.727   3.999
    1C        C  290   4.437   3.936   4.115
    1C        C  291   4.481   3.802   4.118
    1C        C  292   4.405   4.001   4.237
    1C        C  293   4.432   3.938   4.361
    1C        C  294   4.326   4.122   4.480
    1C        C  295   4.400   4.002   4.483
    1C        C  296   4.285   4.186   4.599
    1C        C  297   4.329   4.132   4.721
    1C        C  298   4.198   4.310   4.841
    1C        C  299   4.288   4.198   4.840
    1C        C  300   4.164   4.394   4.951
    1C        C  301   4.346   2.887   2.059
    1C        C  302   4.465   3.069   2.176
    1C        C  303   4.396   2.944   2.177
    1C        C  304   4.481   3.145   2.295
    1C        C  305   4.451   3.079   2.416
    1C        C  306   4.502   3.288   2.537
    1C        C  307   4.476   3.150   2.536
    1C        C  308   4.513   3.359   2.658
    1C        C  309   4.503   3.289   2.780
    1C        C  310   4.519   3.499   2.900
    1C        C  311   4.518   3.358   2.903
    1C        C  312   4.516   3.576   3.019
    1C        C  313   4.510   3.507   3.142
    1C        C  314   4.489   3.717   3.265
    1C        C  315   4.505   3.577   3.264
    1C        C  316   4.476   3.788   3.386
    1C        C  317   4.489   3.719   3.509
    1C        C  318   4.427   3.926   3.626
    1C        C  319   4.472   3.791   3.629
    1C        C  320   4.397   3.988   3.749
    1C        C  321   4.432   3.927   3.872
    1C        C  322   4.321   4.111   3.992
    1C        C  323   4.404   3.997   3.992
    1C        C  324   4.282   4.171   4.114
    1C        C  325   4.322   4.115   4.237
    1C        C  326   4.181   4.277   4.355
    1C        C  327   4.277   4.174   4.357
    1C        C  328   4.132   4.333   4.475
    1C        C  329   4.189   4.290   4.597
    1C        C  330   4.024   4.429   4.714
    1C        C  331   4.140   4.347   4.716
    1C        C  332   3.966   4.485   4.830
    1C        C  333   4.048   4.473   4.943
    1C        C  334   4.551   3.270   2.060
    1C        C  335   4.531   3.131   2.065
    1C        C  336   4.539   3.352   2.172
    1C        C  337   4.518   3.283   2.294
    1C        C  338   4.525   3.498   2.412
    1C        C  339   4.519   3.357   2.414
    1C        C  340   4.525   3.571   2.533
    1C        C  341   4.523   3.500   2.655
    1C        C  342   4.495   3.710   2.776
    1C        C  343   4.518   3.570   2.778
    1C        C  344   4.475   3.780   2.897
    1C        C  345   4.495   3.715   3.021
    1C        C  346   4.427   3.919   3.138
    1C        C  347   4.472   3.785   3.142
    1C        C  348   4.392   3.982   3.259
    1C        C  349   4.426   3.921   3.382
    1C        C  350   4.319   4.105   3.501
    1C        C  351   4.399   3.989   3.503
    1C        C  352   4.275   4.162   3.622
    1C        C  353   4.320   4.106   3.744
    1C        C  354   4.180   4.263   3.868
    1C        C  355   4.276   4.159   3.867
    1C        C  356   4.126   4.311   3.989
    1C        C  357   4.179   4.268   4.112
    1C        C  358   4.012   4.404   4.232
    1C        C  359   4.127   4.322   4.232
    1C        C  360   3.949   4.439   4.353
    1C        C  361   4.015   4.411   4.475
    1C        C  362   3.830   4.522   4.595
    1C        C  363   3.958   4.463   4.594
    1C        C  364   3.763   4.552   4.716
    1C        C  365   3.836   4.539   4.836
    1C        C  366   3.627   4.599   4.951
    1C        C  367   3.764   4.573   4.951
    1C        C  368   4.505   3.566   2.052
    1C        C  369   4.519   3.492   2.170
    1C        C  370   4.500   3.707   2.287
    1C        C  371   4.519   3.567   2.289
    1C        C  372   4.487   3.778   2.408
    1C        C  373   4.508   3.711   2.531
    1C        C  374   4.429   3.909   2.649
    1C        C  375   4.483   3.779   2.653
    1C        C  376   4.394   3.972   2.770
    1C        C  377   4.427   3.912   2.894
    1C        C  378   4.329   4.102   3.011
    1C        C  379   4.404   3.983   3.014
    1C        C  380   4.279   4.159   3.130
    1C        C  381   4.317   4.101   3.254
    1C        C  382   4.175   4.255   3.377
    1C        C  383   4.277   4.158   3.377
    1C        C  384   4.123   4.305   3.499
    1C        C  385   4.175   4.263   3.623
    1C        C  386   4.005   4.385   3.746
    1C        C  387   4.123   4.308   3.746
    1C        C  388   3.944   4.425   3.867
    1C        C  389   4.009   4.390   3.987
    1C        C  390   3.819   4.486   4.109
    1C        C  391   3.949   4.432   4.108
    1C        C  392   3.753   4.518   4.230
    1C        C  393   3.822   4.500   4.353
    1C        C  394   3.618   4.554   4.476
    1C        C  395   3.758   4.532   4.474
    1C        C  396   3.545   4.571   4.596
    1C        C  397   3.624   4.576   4.713
    1C        C  398   3.413   4.558   4.841
    1C        C  399   3.552   4.581   4.835
    1C        C  400   3.343   4.524   4.957
    1C        C  401   4.502   3.705   2.050
    1C        C  402   4.450   3.917   2.168
    1C        C  403   4.488   3.781   2.167
    1C        C  404   4.413   3.980   2.288
    1C        C  405   4.441   3.911   2.408
    1C        C  406   4.325   4.094   2.527
    1C        C  407   4.404   3.977   2.528
    1C        C  408   4.279   4.150   2.648
    1C        C  409   4.323   4.095   2.770
    1C        C  410   4.179   4.253   2.888
    1C        C  411   4.283   4.158   2.889
    1C        C  412   4.120   4.296   3.010
    1C        C  413   4.176   4.255   3.133
    1C        C  414   4.003   4.379   3.255
    1C        C  415   4.122   4.303   3.255
    1C        C  416   3.942   4.411   3.378
    1C        C  417   4.006   4.384   3.501
    1C        C  418   3.817   4.481   3.620
    1C        C  419   3.946   4.422   3.623
    1C        C  420   3.750   4.505   3.742
    1C        C  421   3.816   4.484   3.865
    1C        C  422   3.612   4.540   3.987
    1C        C  423   3.750   4.508   3.988
    1C        C  424   3.543   4.551   4.110
    1C        C  425   3.614   4.541   4.232
    1C        C  426   3.404   4.553   4.356
    1C        C  427   3.545   4.554   4.355
    1C        C  428   3.333   4.554   4.478
    1C        C  429   3.404   4.563   4.600
    1C        C  430   3.196   4.522   4.724
    1C        C  431   3.336   4.549   4.723
    1C        C  432   3.125   4.495   4.844
    1C        C  433   3.207   4.493   4.957
    1C        C  434   4.384   4.124   2.049
    1C        C  435   4.450   4.000   2.055
    1C        C  436   4.306   4.165   2.162
    1C        C  437   4.334   4.098   2.284
    1C        C  438   4.188   4.257   2.403
    1C        C  439   4.283   4.152   2.404
    1C        C  440   4.126   4.298   2.523
    1C        C  441   4.178   4.249   2.646
    1C        C  442   4.004   4.373   2.764
    1C        C  443   4.125   4.299   2.766
    1C        C  444   3.942   4.408   2.886
    1C        C  445   4.003   4.376   3.010
    1C        C  446   3.811   4.466   3.130
    1C        C  447   3.942   4.412   3.132
    1C        C  448   3.747   4.490   3.253
    1C        C  449   3.814   4.471   3.376
    1C        C  450   3.611   4.528   3.497
    1C        C  451   3.749   4.501   3.498
    1C        C  452   3.541   4.540   3.619
    1C        C  453   3.612   4.534   3.742
    1C        C  454   3.401   4.545   3.867
    1C        C  455   3.542   4.544   3.864
    1C        C  456   3.330   4.538   3.989
    1C        C  457   3.402   4.543   4.110
    1C        C  458   3.196   4.512   4.240
    1C        C  459   3.334   4.539   4.234
    1C        C  460   3.128   4.492   4.362
    1C        C  461   3.196   4.519   4.483
    1C        C  462   2.998   4.443   4.604
    1C        C  463   3.124   4.507   4.603
    1C        C  464   2.931   4.407   4.723
    1C        C  465   2.989   4.452   4.845
    1C        C  466   2.805   4.336   4.962
    1C        C  467   2.910   4.429   4.963
    1C        C  468   4.125   4.290   2.044
    1C        C  469   4.193   4.253   2.161
    1C        C  470   4.010   4.371   2.279
    1C        C  471   4.133   4.300   2.281
    1C        C  472   3.944   4.403   2.400
    1C        C  473   4.005   4.370   2.523
    1C        C  474   3.812   4.465   2.645
    1C        C  475   3.942   4.411   2.643
    1C        C  476   3.746   4.494   2.766
    1C        C  477   3.815   4.468   2.887
    1C        C  478   3.607   4.521   3.012
    1C        C  479   3.745   4.490   3.008
    1C        C  480   3.537   4.535   3.134
    1C        C  481   3.609   4.522   3.255
    1C        C  482   3.396   4.537   3.379
    1C        C  483   3.537   4.532   3.376
    1C        C  484   3.327   4.535   3.503
    1C        C  485   3.400   4.541   3.624
    1C        C  486   3.192   4.503   3.746
    1C        C  487   3.329   4.537   3.746
    1C        C  488   3.128   4.482   3.871
    1C        C  489   3.193   4.507   3.993
    1C        C  490   3.004   4.423   4.118
    1C        C  491   3.128   4.490   4.118
    1C        C  492   2.940   4.390   4.239
    1C        C  493   3.001   4.428   4.361
    1C        C  494   2.835   4.301   4.483
    1C        C  495   2.942   4.394   4.484
    1C        C  496   2.783   4.254   4.605
    1C        C  497   2.826   4.311   4.726
    1C        C  498   2.673   4.163   4.846
    1C        C  499   2.757   4.276   4.845
    1C        C  500   2.600   4.117   4.957
    1C        C  501   4.006   4.362   2.042
    1C        C  502   3.814   4.463   2.160
    1C        C  503   3.941   4.402   2.160
    1C        C  504   3.743   4.480   2.280
    1C        C  505   3.812   4.455   2.401
    1C        C  506   3.605   4.503   2.523
    1C        C  507   3.743   4.475   2.522
    1C        C  508   3.533   4.516   2.644
    1C        C  509   3.607   4.519   2.765
    1C        C  510   3.398   4.531   2.887
    1C        C  511   3.539   4.526   2.889
    1C        C  512   3.326   4.530   3.009
    1C        C  513   3.396   4.541   3.131
    1C        C  514   3.191   4.499   3.257
    1C        C  515   3.328   4.535   3.255
    1C        C  516   3.126   4.472   3.379
    1C        C  517   3.191   4.500   3.502
    1C        C  518   2.997   4.417   3.626
    1C        C  519   3.124   4.479   3.625
    1C        C  520   2.943   4.375   3.750
    1C        C  521   3.002   4.416   3.872
    1C        C  522   2.839   4.289   4.000
    1C        C  523   2.944   4.384   3.996
    1C        C  524   2.794   4.233   4.121
    1C        C  525   2.838   4.292   4.242
    1C        C  526   2.700   4.131   4.366
    1C        C  527   2.785   4.244   4.364
    1C        C  528   2.658   4.076   4.489
    1C        C  529   2.695   4.143   4.607
    1C        C  530   2.586   3.961   4.731
    1C        C  531   2.646   4.090   4.728
    1C        C  532   2.547   3.900   4.854
    1C        C  533   2.527   3.998   4.957
    1C        C  534   3.619   4.562   2.042
    1C        C  535   3.749   4.508   2.044
    1C        C  536   3.536   4.538   2.155
    1C        C  537   3.604   4.509   2.277
    1C        C  538   3.395   4.523   2.401
    1C        C  539   3.536   4.513   2.400
    1C        C  540   3.321   4.516   2.521
    1C        C  541   3.392   4.514   2.643
    1C        C  542   3.187   4.487   2.767
    1C        C  543   3.325   4.515   2.767
    1C        C  544   3.123   4.467   2.891
    1C        C  545   3.190   4.491   3.013
    1C        C  546   3.001   4.402   3.135
    1C        C  547   3.123   4.473   3.136
    1C        C  548   2.945   4.365   3.260
    1C        C  549   3.001   4.406   3.383
    1C        C  550   2.834   4.279   3.507
    1C        C  551   2.938   4.374   3.505
    1C        C  552   2.788   4.230   3.631
    1C        C  553   2.839   4.280   3.753
    1C        C  554   2.710   4.119   3.876
    1C        C  555   2.790   4.236   3.878
    1C        C  556   2.672   4.059   3.997
    1C        C  557   2.710   4.119   4.119
    1C        C  558   2.610   3.939   4.248
    1C        C  559   2.675   4.064   4.244
    1C        C  560   2.572   3.878   4.370
    1C        C  561   2.598   3.948   4.490
    1C        C  562   2.533   3.749   4.615
    1C        C  563   2.566   3.886   4.613
    1C        C  564   2.518   3.682   4.738
    1C        C  565   2.522   3.759   4.857
    1C        C  566   2.515   3.547   4.980
    1C        C  567   2.527   3.685   4.976
    1C        C  568   3.328   4.477   2.042
    1C        C  569   3.395   4.515   2.158
    1C        C  570   3.183   4.486   2.279
    1C        C  571   3.322   4.515   2.280
    1C        C  572   3.116   4.463   2.401
    1C        C  573   3.184   4.481   2.524
    1C        C  574   2.987   4.406   2.648
    1C        C  575   3.115   4.466   2.647
    1C        C  576   2.935   4.361   2.771
    1C        C  577   3.002   4.394   2.891
    1C        C  578   2.833   4.269   3.017
    1C        C  579   2.942   4.359   3.014
    1C        C  580   2.787   4.219   3.141
    1C        C  581   2.836   4.275   3.261
    1C        C  582   2.707   4.110   3.385
    1C        C  583   2.787   4.227   3.384
    1C        C  584   2.669   4.054   3.509
    1C        C  585   2.704   4.116   3.631
    1C        C  586   2.606   3.932   3.756
    1C        C  587   2.670   4.058   3.755
    1C        C  588   2.578   3.869   3.880
    1C        C  589   2.609   3.933   4.003
    1C        C  590   2.537   3.738   4.130
    1C        C  591   2.581   3.872   4.127
    1C        C  592   2.518   3.670   4.252
    1C        C  593   2.529   3.743   4.373
    1C        C  594   2.504   3.534   4.498
    1C        C  595   2.518   3.675   4.496
    1C        C  596   2.510   3.464   4.621
    1C        C  597   2.515   3.540   4.740
    1C        C  598   2.529   3.329   4.861
    1C        C  599   2.523   3.470   4.863
    1C        C  600   2.539   3.252   4.978
    1C        C  601   3.193   4.446   2.041
    1C        C  602   2.982   4.401   2.159
    1C        C  603   3.119   4.444   2.160
    1C        C  604   2.925   4.363   2.284
    1C        C  605   2.988   4.404   2.403
    1C        C  606   2.824   4.271   2.528
    1C        C  607   2.929   4.365   2.526
    1C        C  608   2.777   4.218   2.650
    1C        C  609   2.830   4.266   2.771
    1C        C  610   2.693   4.109   2.895
    1C        C  611   2.779   4.222   2.895
    1C        C  612   2.659   4.052   3.019
    1C        C  613   2.700   4.108   3.143
    1C        C  614   2.592   3.926   3.266
    1C        C  615   2.662   4.049   3.266
    1C        C  616   2.574   3.864   3.392
    1C        C  617   2.604   3.928   3.513
    1C        C  618   2.538   3.728   3.638
    1C        C  619   2.575   3.865   3.636
    1C        C  620   2.518   3.664   3.762
    1C        C  621   2.532   3.736   3.883
    1C        C  622   2.506   3.528   4.012
    1C        C  623   2.522   3.669   4.007
    1C        C  624   2.511   3.456   4.133
    1C        C  625   2.511   3.529   4.254
    1C        C  626   2.533   3.322   4.379
    1C        C  627   2.508   3.461   4.378
    1C        C  628   2.546   3.252   4.501
    1C        C  629   2.529   3.324   4.622
    1C        C  630   2.594   3.120   4.744
    1C        C  631   2.545   3.254   4.743
    1C        C  632   2.617   3.051   4.866
    1C        C  633   2.566   3.115   4.983
    1C        C  634   2.785   4.302   2.051
    1C        C  635   2.891   4.393   2.049
    1C        C  636   2.757   4.228   2.167
    1C        C  637   2.814   4.275   2.287
    1C        C  638   2.681   4.110   2.410
    1C        C  639   2.766   4.222   2.409
    1C        C  640   2.645   4.048   2.532
    1C        C  641   2.687   4.109   2.652
    1C        C  642   2.596   3.917   2.778
    1C        C  643   2.653   4.046   2.774
    1C        C  644   2.567   3.855   2.901
    1C        C  645   2.596   3.926   3.020
    1C        C  646   2.530   3.725   3.147
    1C        C  647   2.569   3.861   3.143
    1C        C  648   2.515   3.659   3.271
    1C        C  649   2.535   3.728   3.392
    1C        C  650   2.506   3.520   3.519
    1C        C  651   2.523   3.660   3.516
    1C        C  652   2.513   3.453   3.644
    1C        C  653   2.511   3.523   3.766
    1C        C  654   2.531   3.316   3.890
    1C        C  655   2.511   3.456   3.890
    1C        C  656   2.548   3.246   4.012
    1C        C  657   2.530   3.316   4.133
    1C        C  658   2.602   3.121   4.260
    1C        C  659   2.548   3.251   4.257
    1C        C  660   2.631   3.057   4.383
    1C        C  661   2.592   3.119   4.503
    1C        C  662   2.711   2.940   4.626
    1C        C  663   2.625   3.053   4.624
    1C        C  664   2.748   2.878   4.747
    1C        C  665   2.700   2.934   4.868
    1C        C  666   2.745   2.875   4.987
    1C        C  667   2.682   4.026   2.053
    1C        C  668   2.689   4.104   2.169
    1C        C  669   2.590   3.914   2.292
    1C        C  670   2.648   4.044   2.290
    1C        C  671   2.562   3.849   2.414
    1C        C  672   2.588   3.918   2.534
    1C        C  673   2.523   3.717   2.658
    1C        C  674   2.564   3.852   2.656
    1C        C  675   2.513   3.649   2.782
    1C        C  676   2.530   3.719   2.904
    1C        C  677   2.508   3.510   3.032
    1C        C  678   2.520   3.651   3.027
    1C        C  679   2.508   3.443   3.156
    1C        C  680   2.506   3.518   3.276
    1C        C  681   2.526   3.308   3.400
    1C        C  682   2.502   3.447   3.398
    1C        C  683   2.549   3.242   3.523
    1C        C  684   2.533   3.313   3.644
    1C        C  685   2.599   3.116   3.771
    1C        C  686   2.547   3.247   3.768
    1C        C  687   2.630   3.050   3.892
    1C        C  688   2.596   3.113   4.013
    1C        C  689   2.710   2.939   4.137
    1C        C  690   2.629   3.055   4.138
    1C        C  691   2.758   2.888   4.260
    1C        C  692   2.714   2.943   4.382
    1C        C  693   2.756   2.884   4.504
    1C        C  694   2.626   3.898   2.058
    1C        C  695   2.530   3.703   2.177
    1C        C  696   2.577   3.837   2.174
    1C        C  697   2.506   3.635   2.298
    1C        C  698   2.525   3.712   2.415
    1C        C  699   2.491   3.505   2.543
    1C        C  700   2.512   3.644   2.538
    1C        C  701   2.496   3.434   2.665
    1C        C  702   2.501   3.509   2.784
    1C        C  703   2.527   3.302   2.912
    1C        C  704   2.505   3.442   2.909
    1C        C  705   2.541   3.232   3.034
    1C        C  706   2.527   3.303   3.155
    1C        C  707   2.597   3.107   3.281
    1C        C  708   2.544   3.237   3.279
    1C        C  709   2.632   3.046   3.404
    1C        C  710   2.600   3.110   3.526
    1C        C  711   2.710   2.933   3.647
    1C        C  712   2.630   3.049   3.650
    1C        C  713   2.759   2.885   3.771
    1C        C  714   2.716   2.938   3.894
    1C        C  715   2.759   2.883   4.017
    1C        C  716   2.444   3.503   2.067
    1C        C  717   2.498   3.632   2.061
    1C        C  718   2.462   3.419   2.181
    1C        C  719   2.477   3.495   2.300
    1C        C  720   2.517   3.290   2.426
    1C        C  721   2.488   3.428   2.424
    1C        C  722   2.537   3.223   2.548
    1C        C  723   2.519   3.294   2.669
    1C        C  724   2.592   3.097   2.793
    1C        C  725   2.540   3.228   2.792
    1C        C  726   2.623   3.035   2.916
    1C        C  727   2.585   3.097   3.037
    1C        C  728   2.706   2.925   3.159
    1C        C  729   2.622   3.039   3.159
    1C        C  730   2.758   2.878   3.282
    1C        C  731   2.714   2.931   3.405
    1C        C  732   2.756   2.875   3.527
    1C        C  733   2.483   3.194   2.075
    1C        C  734   2.486   3.278   2.187
    1C        C  735   2.583   3.083   2.303
    1C        C  736   2.522   3.212   2.308
    1C        C  737   2.619   3.024   2.426
    1C        C  738   2.589   3.091   2.546
    1C        C  739   2.699   2.915   2.669
    1C        C  740   2.620   3.032   2.671
    1C        C  741   2.745   2.861   2.792
    1C        C  742   2.703   2.919   2.914
    1C        C  743   2.750   2.868   3.037
    1C        C  744   2.546   3.071   2.070
    1C        C  745   2.685   2.896   2.184
    1C        C  746   2.611   3.016   2.182
    1C        C  747   2.732   2.842   2.306
    1C        C  748   2.696   2.906   2.427
    1C        C  749   2.737   2.849   2.550
    1C        C  750   2.739   2.841   2.067
    1C        C  751   3.651   2.290   2.000
    1C        O  752   3.670   2.175   2.048
    1C        O  753   3.640   2.287   1.860
    1C        C  754   4.607   3.051   1.967
    1C        O  755   4.577   3.044   1.845
    1C        O  756   4.744   3.026   1.987
    1C        C  757   4.471   4.221   1.979
    1C        O  758   4.585   4.255   2.021
    1C        O  759   4.441   4.271   1.852
    1C        C  760   3.584   4.646   1.925
    1C        O  761   3.595   4.771   1.928
    1C        O  762   3.591   4.598   1.793
    1C        C  763   2.866   4.512   1.963
    1C        O  764   2.924   4.530   1.852
    1C        O  765   2.759   4.599   1.987
    1C        C  766   2.325   3.494   1.978
    1C        O  767   2.329   3.435   1.867
    1C        O  768   2.209   3.572   1.984
    1C        C  769   4.668   3.588   5.075
    1C        O  770   4.622   3.564   5.190
    1C        O  771   4.805   3.618   5.074
    1C        C  772   4.265   4.416   5.057
    1C        O  773   4.235   4.416   5.179
    1C        O  774   4.366   4.511   5.036
    1C        C  775   4.133   2.553   5.097
    1C        O  776   4.221   2.464   5.085
    1C        O  777   4.121   2.618   5.220
    1C        C  778   2.879   4.547   5.046
    1C        O  779   2.856   4.661   4.997
    1C        O  780   2.894   4.544   5.185
    1C        C  781   2.479   3.049   5.083
    1C        O  782   2.355   3.069   5.082
    1C        O  783   2.520   3.028   5.215
    1C        C  784   2.417   3.988   5.056
    1C        O  785   2.310   4.054   5.062
    1C        O  786   2.454   3.943   5.183
    1C        C  787   2.950   2.425   2.005
    1C        O  788   2.921   2.466   1.889
    1C        O  789   2.879   2.318   2.058
    1C        C  790   3.195   2.370   5.060
    1C        O  791   3.101   2.285   5.062
    1C        O  792   3.252   2.373   5.188
    1C        H  793   4.294   3.017   5.069
    1C        H  794   4.130   2.847   5.050
    1C        H  795   4.501   3.126   5.059
    1C        H  796   4.489   3.380   5.060
    1C        H  797   4.598   3.817   5.033
    1C        H  798   4.431   3.987   5.063
    1C        H  799   4.270   4.154   5.049
    1C        H  800   4.043   4.559   5.007
    1C        H  801   3.810   4.574   5.048
    1C        H  802   3.587   4.663   5.027
    1C        H  803   3.388   4.550   5.051
    1C        H  804   3.173   4.442   5.044
    1C        H  805   3.907   2.460   5.057
    1C        H  806   3.669   2.419   5.063
    1C        H  807   3.000   2.555   5.062
    1C        H  808   3.439   2.523   5.069
    1C        H  809   2.839   2.712   5.067
    1C        H  810   2.745   2.934   5.076
    1C        H  811   2.555   3.302   5.071
    1C        H  812   2.462   3.502   5.061
    1C        H  813   2.603   3.721   5.042
    1C        H  814   2.563   4.195   5.021
    1C        H  815   2.774   4.293   5.054
    1C        H  816   2.762   2.912   1.990
    1C        H  817   2.831   2.673   1.980
    1C        H  818   3.215   2.450   1.986
    1C        H  819   3.433   2.441   1.976
    1C        H  820   3.833   2.569   1.983
    1C        H  821   4.083   2.568   1.987
    1C        H  822   4.256   2.717   1.976
    1C        H  823   4.341   2.944   1.969
    1C        H  824   4.616   3.303   1.981
    1C        H  825   4.495   3.514   1.959
    1C        H  826   4.504   3.760   1.957
    1C        H  827   3.799   4.502   1.950
    1C        H  828   3.992   4.428   1.959
    1C        H  829   4.170   4.267   1.950
    1C        H  830   4.541   3.990   2.000
    1C        H  831   2.643   3.841   1.969
    1C        H  832   2.668   4.078   1.960
    1C        H  833   2.708   4.314   1.978
    1C        H  834   3.380   4.475   1.948
    1C        H  835   3.152   4.405   1.951
    1C        H  836   2.504   3.002   2.001
    1C        H  837   2.422   3.224   1.992
    1C        H  838   2.502   3.684   1.968
    2V3OU   H29  839   2.815   3.541   5.256
    2V3OU   C27  840   2.780   3.498   5.354
    2V3OU   H27  841   2.728   3.568   5.423
    2V3OU   H28  842   2.717   3.409   5.328
    2V3OU   O11  843   2.908   3.477   5.415
    2V3OU   C15  844   2.923   3.399   5.527
    2V3OU   C13  845   3.052   3.374   5.580
    2V3OU   C14  846   3.080   3.268   5.667
    2V3OU   C16  847   2.974   3.187   5.707
    2V3OU    H6  848   2.996   3.099   5.770
    2V3OU   C12  849   3.219   3.227   5.697
    2V3OU    O2  850   3.246   3.134   5.777
    2V3OU   C10  851   3.327   3.310   5.643
    2V3OU    C8  852   3.460   3.274   5.663
    2V3OU   O10  853   3.489   3.151   5.714
    2V3OU   H26  854   3.405   3.113   5.742
    2V3OU    C6  855   3.566   3.354   5.611
    2V3OU    C5  856   3.542   3.467   5.534
    2V3OU    C4  857   3.704   3.297   5.611
    2V3OU    H4  858   3.728   3.235   5.703
    2V3OU    H5  859   3.709   3.226   5.523
    2V3OU    C2  860   3.820   3.396   5.601
    2V3OU    O6  861   3.815   3.481   5.716
    2V3OU   H21  862   3.766   3.559   5.686
    2V3OU    C3  863   3.782   3.491   5.487
    2V3OU    H2  864   3.863   3.569   5.485
    2V3OU    H3  865   3.787   3.439   5.388
    2V3OU   C25  866   3.955   3.324   5.588
    2V3OU    O7  867   4.011   3.289   5.484
    2V3OU   C26  868   4.031   3.289   5.715
    2V3OU   H22  869   4.073   3.386   5.752
    2V3OU   H23  870   4.121   3.227   5.692
    2V3OU    O8  871   3.966   3.215   5.816
    2V3OU   H24  872   3.934   3.270   5.890
    2V3OU    C1  873   3.648   3.563   5.490
    2V3OU    H1  874   3.631   3.619   5.394
    2V3OU    O3  875   3.659   3.654   5.600
    2V3OU   C19  876   3.619   3.791   5.588
    2V3OU    H9  877   3.521   3.803   5.534
    2V3OU    O4  878   3.712   3.859   5.506
    2V3OU   C20  879   3.845   3.877   5.554
    2V3OU   H10  880   3.895   3.776   5.558
    2V3OU   C24  881   3.611   3.854   5.728
    2V3OU   H16  882   3.545   3.788   5.791
    2V3OU   H17  883   3.565   3.956   5.723
    2V3OU   C23  884   3.752   3.874   5.784
    2V3OU   H15  885   3.798   3.770   5.790
    2V3OU    N1  886   3.737   3.953   5.905
    2V3OU   H19  887   3.798   3.919   5.976
    2V3OU   H20  888   3.645   3.942   5.941
    2V3OU   C21  889   3.848   3.950   5.688
    2V3OU   H11  890   3.955   3.934   5.720
    2V3OU    O5  891   3.828   4.090   5.696
    2V3OU   H18  892   3.783   4.097   5.782
    2V3OU   C22  893   3.910   3.951   5.438
    2V3OU   H12  894   3.858   4.048   5.419
    2V3OU   H13  895   3.907   3.887   5.346
    2V3OU   H14  896   4.019   3.964   5.459
    2V3OU   C11  897   3.159   3.470   5.549
    2V3OU    O1  898   3.131   3.585   5.510
    2V3OU    C9  899   3.299   3.424   5.563
    2V3OU    C7  900   3.404   3.501   5.516
    2V3OU    O9  901   3.385   3.615   5.441
    2V3OU   H25  902   3.288   3.622   5.446
    2V3OU   C17  903   2.821   3.315   5.577
    2V3OU    H7  904   2.719   3.338   5.546
    2V3OU   C18  905   2.844   3.211   5.666
    2V3OU    H8  906   2.756   3.158   5.707
    3SOL     OW  907   3.958   3.056   3.970
    3SOL    HW1  908   3.921   3.028   3.881
    3SOL    HW2  909   3.933   3.151   3.988
    4SOL     OW  910   6.571   6.423   0.984
    4SOL    HW1  911   6.651   6.481   1.003
    4SOL    HW2  912   6.527   6.398   1.070
    5SOL     OW  913   4.800   2.130   0.408
    5SOL    HW1  914   4.849   2.080   0.337
    5SOL    HW2  915   4.865   2.188   0.458
    6SOL     OW  916   4.936   0.958   2.909
    6SOL    HW1  917   4.838   0.953   2.890
    6SOL    HW2  918   4.986   0.959   2.822
    7SOL     OW  919   1.673   3.890   4.020
    7SOL    HW1  920   1.740   3.961   3.998
    7SOL    HW2  921   1.719   3.802   4.033
    8SOL     OW  922   1.463   3.295   4.928
    8SOL    HW1  923   1.456   3.270   5.024
    8SOL    HW2  924   1.544   3.253   4.888
    9SOL     OW  925   6.998   0.950   6.637
    9SOL    HW1  926   6.944   0.971   6.555
    9SOL    HW2  927   6.966   1.006   6.713
   10SOL     OW  928   5.199   4.768   1.833
   10SOL    HW1  929   5.256   4.831   1.779
   10SOL    HW2  930   5.120   4.817   1.868
   11SOL     OW  931   2.048   2.262   0.402
   11SOL    HW1  932   2.109   2.186   0.427
   11SOL    HW2  933   2.044   2.270   0.303
   12SOL     OW  934   3.395   4.948   2.963
   12SOL    HW1  935   3.341   4.929   3.046
   12SOL    HW2  936   3.345   4.917   2.883
   13SOL     OW  937   5.811   5.680   1.115
   13SOL    HW1  938   5.755   5.644   1.189
   13SOL    HW2  939   5.776   5.646   1.027
   14SOL     OW  940   4.104   5.920   5.477
   14SOL    HW1  941   4.036   5.947   5.546
   14SOL    HW2  942   4.165   5.997   5.458
   15SOL     OW  943   0.623   6.494   6.086
   15SOL    HW1  944   0.558   6.439   6.033
   15SOL    HW2  945   0.609   6.591   6.065
   16SOL     OW  946   1.975   4.230   4.885
   16SOL    HW1  947   1.972   4.131   4.867
   16SOL    HW2  948   2.026   4.247   4.968
   17SOL     OW  949   6.417   1.458   5.595
   17SOL    HW1  950   6.330   1.501   5.572
   17SOL    HW2  951   6.462   1.428   5.511
   18SOL     OW  952   2.373   0.895   6.561
   18SOL    HW1  953   2.346   0.879   6.656
   18SOL    HW2  954   2.361   0.811   6.508
   19SOL     OW  955   2.851   6.922   3.296
   19SOL    HW1  956   2.771   6.905   3.354
   19SOL    HW2  957   2.874   7.019   3.297
   20SOL     OW  958   6.577   1.888   5.703
   20SOL    HW1  959   6.552   1.861   5.610
   20SOL    HW2  960   6.496   1.884   5.762
   21SOL     OW  961   2.700   4.642   3.092
   21SOL    HW1  962   2.781   4.664   3.037
   21SOL    HW2  963   2.729   4.617   3.184
   22SOL     OW  964   1.284   0.667   6.927
   22SOL    HW1  965   1.224   0.702   6.855
   22SOL    HW2  966   1.244   0.585   6.967
   23SOL     OW  967   5.998   4.684   1.492
   23SOL    HW1  968   6.053   4.636   1.424
   23SOL    HW2  969   5.921   4.729   1.448
   24SOL     OW  970   4.591   1.079   0.546
   24SOL    HW1  971   4.676   1.090   0.495
   24SOL    HW2  972   4.568   0.981   0.552
   25SOL     OW  973   1.834   1.537   4.531
   25SOL    HW1  974   1.880   1.464   4.582
   25SOL    HW2  975   1.895   1.616   4.522
   26SOL     OW  976   0.723   2.997   6.611
   26SOL    HW1  977   0.745   2.941   6.531
   26SOL    HW2  978   0.625   3.017   6.611
   27SOL     OW  979   6.016   0.640   1.569
   27SOL    HW1  980   6.087   0.579   1.604
   27SOL    HW2  981   5.945   0.586   1.525
   28SOL     OW  982   2.211   0.800   5.463
   28SOL    HW1  983   2.248   0.885   5.425
   28SOL    HW2  984   2.114   0.792   5.440
   29SOL     OW  985   0.250   6.908   0.970
   29SOL    HW1  986   0.241   6.881   0.874
   29SOL    HW2  987   0.275   7.004   0.976
   30SOL     OW  988   4.899   0.291   5.003
   30SOL    HW1  989   4.890   0.350   5.083
   30SOL    HW2  990   4.994   0.291   4.972
   31SOL     OW  991   1.126   3.173   5.128
   31SOL    HW1  992   1.183   3.120   5.066
   31SOL    HW2  993   1.030   3.168   5.098
   32SOL     OW  994   3.237   0.530   1.363
   32SOL    HW1  995   3.222   0.458   1.295
   32SOL    HW2  996   3.332   0.560   1.359
   33SOL     OW  997   1.431   5.709   5.989
   33SOL    HW1  998   1.416   5.700   6.087
   33SOL    HW2  999   1.488   5.790   5.972
   34SOL     OW 1000   2.568   5.078   5.098
   34SOL    HW1 1001   2.645   5.033   5.144
   34SOL    HW2 1002   2.547   5.164   5.144
   35SOL     OW 1003   2.237   3.353   6.892
   35SOL    HW1 1004   2.294   3.435   6.901
   35SOL    HW2 1005   2.291   3.280   6.849
   36SOL     OW 1006   3.781   1.053   4.197
   36SOL    HW1 1007   3.742   1.075   4.107
   36SOL    HW2 1008   3.790   0.954   4.206
   37SOL     OW 1009   2.990   0.388   3.964
   37SOL    HW1 1010   2.992   0.313   3.897
   37SOL    HW2 1011   2.917   0.371   4.030
   38SOL     OW 1012   1.036   4.037   2.754
   38SOL    HW1 1013   1.046   4.055   2.852
   38SOL    HW2 1014   1.112   3.981   2.722
   39SOL     OW 1015   0.225   4.943   0.723
   39SOL    HW1 1016   0.230   5.039   0.696
   39SOL    HW2 1017   0.276   4.887   0.658
   40SOL     OW 1018   4.833   1.795   0.826
   40SOL    HW1 1019   4.809   1.720   0.764
   40SOL    HW2 1020   4.901   1.854   0.783
   41SOL     OW 1021   5.220   4.061   1.567
   41SOL    HW1 1022   5.171   4.104   1.643
   41SOL    HW2 1023   5.236   3.964   1.590
   42SOL     OW 1024   2.651   4.729   6.603
   42SOL    HW1 1025   2.652   4.675   6.519
   42SOL    HW2 1026   2.566   4.781   6.609
   43SOL     OW 1027   3.819   6.974   5.059
   43SOL    HW1 1028   3.798   0.039   5.097
   43SOL    HW2 1029   3.917   6.958   5.064
   44SOL     OW 1030   6.875   1.213   5.713
   44SOL    HW1 1031   6.899   1.194   5.617
   44SOL    HW2 1032   6.775   1.221   5.721
   45SOL     OW 1033   2.481   5.033   5.937
   45SOL    HW1 1034   2.469   4.933   5.934
   45SOL    HW2 1035   2.408   5.074   5.992
   46SOL     OW 1036   0.656   3.188   4.339
   46SOL    HW1 1037   0.607   3.211   4.255
   46SOL    HW2 1038   0.746   3.150   4.316
   47SOL     OW 1039   6.586   3.495   0.637
   47SOL    HW1 1040   6.560   3.446   0.554
   47SOL    HW2 1041   6.667   3.551   0.618
   48SOL     OW 1042   5.856   3.560   0.995
   48SOL    HW1 1043   5.872   3.547   0.897
   48SOL    HW2 1044   5.757   3.558   1.012
   49SOL     OW 1045   3.236   3.739   6.791
   49SOL    HW1 1046   3.217   3.645   6.820
   49SOL    HW2 1047   3.150   3.787   6.775
   50SOL     OW 1048   6.534   2.445   0.402
   50SOL    HW1 1049   6.493   2.374   0.346
   50SOL    HW2 1050   6.496   2.440   0.495
   51SOL     OW 1051   2.060   5.326   3.180
   51SOL    HW1 1052   2.129   5.396   3.201
   51SOL    HW2 1053   2.031   5.335   3.085
   52SOL     OW 1054   6.117   3.359   1.854
   52SOL    HW1 1055   6.140   3.396   1.944
   52SOL    HW2 1056   6.119   3.259   1.857
   53SOL     OW 1057   4.166   0.863   1.735
   53SOL    HW1 1058   4.156   0.838   1.638
   53SOL    HW2 1059   4.165   0.780   1.790
   54SOL     OW 1060   5.277   0.214   6.878
   54SOL    HW1 1061   5.294   0.130   6.827
   54SOL    HW2 1062   5.360   0.241   6.927
   55SOL     OW 1063   1.316   3.471   6.067
   55SOL    HW1 1064   1.335   3.459   6.164
   55SOL    HW2 1065   1.245   3.540   6.055
   56SOL     OW 1066   0.622   2.447   6.564
   56SOL    HW1 1067   0.531   2.437   6.604
   56SOL    HW2 1068   0.670   2.522   6.609
   57SOL     OW 1069   4.327   6.209   0.193
   57SOL    HW1 1070   4.284   6.119   0.191
   57SOL    HW2 1071   4.345   6.235   0.288
   58SOL     OW 1072   0.420   0.298   0.308
   58SOL    HW1 1073   0.465   0.357   0.376
   58SOL    HW2 1074   0.490   0.249   0.256
   59SOL     OW 1075   5.104   3.105   5.580
   59SOL    HW1 1076   5.090   3.006   5.587
   59SOL    HW2 1077   5.119   3.129   5.484
   60SOL     OW 1078   5.343   1.988   2.122
   60SOL    HW1 1079   5.410   1.953   2.058
   60SOL    HW2 1080   5.250   1.971   2.087
   61SOL     OW 1081   0.724   5.764   4.325
   61SOL    HW1 1082   0.782   5.846   4.325
   61SOL    HW2 1083   0.722   5.725   4.233
   62SOL     OW 1084   6.039   2.775   2.581
   62SOL    HW1 1085   5.948   2.733   2.576
   62SOL    HW2 1086   6.069   2.799   2.489
   63SOL     OW 1087   4.110   6.914   6.049
   63SOL    HW1 1088   4.055   6.923   6.132
   63SOL    HW2 1089   4.049   6.913   5.969
   64SOL     OW 1090   0.847   4.004   4.914
   64SOL    HW1 1091   0.927   3.976   4.861
   64SOL    HW2 1092   0.830   3.937   4.986
   65SOL     OW 1093   0.524   6.215   4.993
   65SOL    HW1 1094   0.466   6.169   5.060
   65SOL    HW2 1095   0.480   6.300   4.964
   66SOL     OW 1096   3.769   1.027   2.421
   66SOL    HW1 1097   3.767   1.083   2.504
   66SOL    HW2 1098   3.694   1.054   2.361
   67SOL     OW 1099   0.202   2.806   1.315
   67SOL    HW1 1100   0.271   2.878   1.305
   67SOL    HW2 1101   0.150   2.798   1.230
   68SOL     OW 1102   6.601   1.760   6.157
   68SOL    HW1 1103   6.693   1.722   6.143
   68SOL    HW2 1104   6.536   1.712   6.099
   69SOL     OW 1105   1.155   5.992   6.291
   69SOL    HW1 1106   1.115   6.021   6.205
   69SOL    HW2 1107   1.084   5.987   6.362
   70SOL     OW 1108   5.137   3.554   3.734
   70SOL    HW1 1109   5.095   3.599   3.655
   70SOL    HW2 1110   5.085   3.472   3.757
   71SOL     OW 1111   5.306   2.214   4.258
   71SOL    HW1 1112   5.322   2.115   4.257
   71SOL    HW2 1113   5.328   2.252   4.168
   72SOL     OW 1114   0.547   0.604   2.692
   72SOL    HW1 1115   0.629   0.547   2.698
   72SOL    HW2 1116   0.466   0.548   2.710
   73SOL     OW 1117   3.093   0.832   0.650
   73SOL    HW1 1118   3.171   0.777   0.620
   73SOL    HW2 1119   3.123   0.926   0.667
   74SOL     OW 1120   2.360   2.788   1.309
   74SOL    HW1 1121   2.268   2.765   1.277
   74SOL    HW2 1122   2.354   2.830   1.400
   75SOL     OW 1123   3.333   3.288   1.055
   75SOL    HW1 1124   3.244   3.257   1.021
   75SOL    HW2 1125   3.386   3.209   1.085
   76SOL     OW 1126   3.494   4.475   5.305
   76SOL    HW1 1127   3.498   4.403   5.236
   76SOL    HW2 1128   3.472   4.436   5.394
   77SOL     OW 1129   0.345   5.563   4.515
   77SOL    HW1 1130   0.293   5.586   4.598
   77SOL    HW2 1131   0.282   5.544   4.440
   78SOL     OW 1132   5.011   1.966   1.416
   78SOL    HW1 1133   4.950   1.992   1.491
   78SOL    HW2 1134   4.982   2.012   1.332
   79SOL     OW 1135   0.863   4.677   3.359
   79SOL    HW1 1136   0.872   4.577   3.354
   79SOL    HW2 1137   0.768   4.701   3.379
   80SOL     OW 1138   3.581   1.049   5.472
   80SOL    HW1 1139   3.505   1.107   5.444
   80SOL    HW2 1140   3.654   1.106   5.511
   81SOL     OW 1141   4.601   5.188   1.818
   81SOL    HW1 1142   4.568   5.123   1.888
   81SOL    HW2 1143   4.655   5.259   1.862
   82SOL     OW 1144   2.778   6.195   2.141
   82SOL    HW1 1145   2.861   6.144   2.164
   82SOL    HW2 1146   2.712   6.133   2.099
   83SOL     OW 1147   5.550   1.521   4.585
   83SOL    HW1 1148   5.474   1.542   4.523
   83SOL    HW2 1149   5.636   1.520   4.534
   84SOL     OW 1150   5.444   2.258   2.154
   84SOL    HW1 1151   5.399   2.170   2.161
   84SOL    HW2 1152   5.543   2.245   2.147
   85SOL     OW 1153   2.633   6.404   3.997
   85SOL    HW1 1154   2.631   6.495   4.038
   85SOL    HW2 1155   2.584   6.406   3.910
   86SOL     OW 1156   5.623   0.276   0.209
   86SOL    HW1 1157   5.657   0.213   0.279
   86SOL    HW2 1158   5.591   0.360   0.253
   87SOL     OW 1159   2.361   4.117   6.040
   87SOL    HW1 1160   2.353   4.036   5.981
   87SOL    HW2 1161   2.315   4.194   5.996
   88SOL     OW 1162   3.019   3.033   1.452
   88SOL    HW1 1163   2.970   2.967   1.395
   88SOL    HW2 1164   3.109   3.052   1.411
   89SOL     OW 1165   3.228   4.107   4.005
   89SOL    HW1 1166   3.316   4.150   4.025
   89SOL    HW2 1167   3.213   4.106   3.906
   90SOL     OW 1168   4.941   3.514   1.792
   90SOL    HW1 1169   4.918   3.422   1.826
   90SOL    HW2 1170   4.862   3.553   1.745
   91SOL     OW 1171   4.154   5.464   5.731
   91SOL    HW1 1172   4.209   5.454   5.814
   91SOL    HW2 1173   4.194   5.534   5.673
   92SOL     OW 1174   5.191   3.572   6.717
   92SOL    HW1 1175   5.095   3.568   6.748
   92SOL    HW2 1176   5.193   3.576   6.617
   93SOL     OW 1177   3.022   3.731   1.931
   93SOL    HW1 1178   3.017   3.673   1.849
   93SOL    HW2 1179   3.061   3.819   1.906
   94SOL     OW 1180   3.322   2.088   4.554
   94SOL    HW1 1181   3.421   2.083   4.542
   94SOL    HW2 1182   3.301   2.101   4.650
   95SOL     OW 1183   0.547   0.304   3.952
   95SOL    HW1 1184   0.478   0.333   3.886
   95SOL    HW2 1185   0.538   0.206   3.969
   96SOL     OW 1186   6.425   4.996   0.058
   96SOL    HW1 1187   6.391   5.047   0.137
   96SOL    HW2 1188   6.356   4.996   7.012
   97SOL     OW 1189   2.033   4.338   5.328
   97SOL    HW1 1190   2.001   4.274   5.397
   97SOL    HW2 1191   2.080   4.288   5.255
   98SOL     OW 1192   1.681   2.241   3.013
   98SOL    HW1 1193   1.712   2.159   3.061
   98SOL    HW2 1194   1.592   2.223   2.971
   99SOL     OW 1195   3.520   4.011   5.380
   99SOL    HW1 1196   3.505   3.973   5.289
   99SOL    HW2 1197   3.584   3.952   5.430
  100SOL     OW 1198   6.491   0.593   5.059
  100SOL    HW1 1199   6.531   0.669   5.110
  100SOL    HW2 1200   6.481   0.618   4.963
  101SOL     OW 1201   5.804   3.959   2.272
  101SOL    HW1 1202   5.784   4.010   2.355
  101SOL    HW2 1203   5.867   4.011   2.214
  102SOL     OW 1204   4.584   0.118   0.213
  102SOL    HW1 1205   4.586   0.054   0.289
  102SOL    HW2 1206   4.570   0.211   0.248
  103SOL     OW 1207   2.506   1.095   2.275
  103SOL    HW1 1208   2.532   1.083   2.180
  103SOL    HW2 1209   2.500   1.193   2.296
  104SOL     OW 1210   6.442   4.835   2.013
  104SOL    HW1 1211   6.430   4.836   1.914
  104SOL    HW2 1212   6.540   4.827   2.035
  105SOL     OW 1213   6.526   0.841   5.759
  105SOL    HW1 1214   6.587   0.770   5.795
  105SOL    HW2 1215   6.431   0.810   5.764
  106SOL     OW 1216   4.684   4.075   1.432
  106SOL    HW1 1217   4.633   4.154   1.397
  106SOL    HW2 1218   4.764   4.059   1.376
  107SOL     OW 1219   5.395   0.281   1.553
  107SOL    HW1 1220   5.401   0.182   1.540
  107SOL    HW2 1221   5.379   0.302   1.649
  108SOL     OW 1222   2.693   0.854   4.394
  108SOL    HW1 1223   2.715   0.929   4.457
  108SOL    HW2 1224   2.594   0.840   4.392
  109SOL     OW 1225   1.598   1.235   4.182
  109SOL    HW1 1226   1.609   1.321   4.131
  109SOL    HW2 1227   1.569   1.163   4.119
  110SOL     OW 1228   3.272   4.115   5.839
  110SOL    HW1 1229   3.211   4.098   5.762
  110SOL    HW2 1230   3.258   4.045   5.909
  111SOL     OW 1231   6.374   2.949   1.375
  111SOL    HW1 1232   6.465   2.914   1.396
  111SOL    HW2 1233   6.361   3.037   1.420
  112SOL     OW 1234   5.167   6.325   6.262
  112SOL    HW1 1235   5.262   6.299   6.279
  112SOL    HW2 1236   5.164   6.404   6.201
  113SOL     OW 1237   0.434   5.473   2.898
  113SOL    HW1 1238   0.450   5.464   2.799
  113SOL    HW2 1239   0.366   5.544   2.914
  114SOL     OW 1240   6.630   2.594   2.554
  114SOL    HW1 1241   6.593   2.678   2.513
  114SOL    HW2 1242   6.725   2.582   2.526
  115SOL     OW 1243   5.471   0.131   3.264
  115SOL    HW1 1244   5.481   0.150   3.167
  115SOL    HW2 1245   5.488   0.215   3.316
  116SOL     OW 1246   0.556   4.994   0.388
  116SOL    HW1 1247   0.552   4.990   0.288
  116SOL    HW2 1248   0.545   5.089   0.419
  117SOL     OW 1249   2.246   2.571   6.983
  117SOL    HW1 1250   2.180   2.544   6.914
  117SOL    HW2 1251   2.332   2.597   6.939
  118SOL     OW 1252   0.256   2.141   2.948
  118SOL    HW1 1253   0.311   2.098   2.876
  118SOL    HW2 1254   0.244   2.075   3.023
  119SOL     OW 1255   6.152   0.162   5.995
  119SOL    HW1 1256   6.109   0.094   5.935
  119SOL    HW2 1257   6.243   0.130   6.021
  120SOL     OW 1258   5.326   2.471   4.938
  120SOL    HW1 1259   5.405   2.527   4.964
  120SOL    HW2 1260   5.288   2.504   4.852
  121SOL     OW 1261   0.861   5.125   6.664
  121SOL    HW1 1262   0.890   5.202   6.720
  121SOL    HW2 1263   0.939   5.065   6.647
  122SOL     OW 1264   6.666   4.846   6.552
  122SOL    HW1 1265   6.717   4.802   6.478
  122SOL    HW2 1266   6.648   4.779   6.625
  123SOL     OW 1267   0.836   2.473   1.993
  123SOL    HW1 1268   0.788   2.556   1.963
  123SOL    HW2 1269   0.775   2.394   1.987
  124SOL     OW 1270   1.784   3.160   0.093
  124SOL    HW1 1271   1.870   3.213   0.090
  124SOL    HW2 1272   1.770   3.114   0.005
  125SOL     OW 1273   4.483   3.353   0.513
  125SOL    HW1 1274   4.552   3.315   0.452
  125SOL    HW2 1275   4.458   3.445   0.482
  126SOL     OW 1276   4.001   3.251   4.494
  126SOL    HW1 1277   3.980   3.224   4.588
  126SOL    HW2 1278   3.980   3.176   4.432
  127SOL     OW 1279   0.285   5.298   5.986
  127SOL    HW1 1280   0.226   5.374   6.012
  127SOL    HW2 1281   0.380   5.320   6.008
  128SOL     OW 1282   4.765   3.725   7.014
  128SOL    HW1 1283   4.794   3.630   7.002
  128SOL    HW2 1284   4.698   3.731   0.063
  129SOL     OW 1285   1.611   5.653   2.112
  129SOL    HW1 1286   1.522   5.654   2.067
  129SOL    HW2 1287   1.598   5.633   2.210
  130SOL     OW 1288   6.348   3.089   3.612
  130SOL    HW1 1289   6.340   3.088   3.512
  130SOL    HW2 1290   6.260   3.064   3.653
  131SOL     OW 1291   0.314   2.643   3.508
  131SOL    HW1 1292   0.359   2.672   3.424
  131SOL    HW2 1293   0.271   2.553   3.494
  132SOL     OW 1294   3.365   2.941   1.555
  132SOL    HW1 1295   3.455   2.897   1.551
  132SOL    HW2 1296   3.322   2.920   1.643
  133SOL     OW 1297   5.765   6.638   6.438
  133SOL    HW1 1298   5.771   6.646   6.537
  133SOL    HW2 1299   5.801   6.721   6.395
  134SOL     OW 1300   5.976   1.519   1.600
  134SOL    HW1 1301   5.998   1.422   1.608
  134SOL    HW2 1302   5.896   1.540   1.656
  135SOL     OW 1303   4.793   2.967   3.804
  135SOL    HW1 1304   4.813   3.030   3.729
  135SOL    HW2 1305   4.786   2.874   3.768
  136SOL     OW 1306   3.374   0.385   6.203
  136SOL    HW1 1307   3.336   0.309   6.150
  136SOL    HW2 1308   3.326   0.391   6.291
  137SOL     OW 1309   3.206   3.370   6.082
  137SOL    HW1 1310   3.213   3.327   6.172
  137SOL    HW2 1311   3.286   3.427   6.066
  138SOL     OW 1312   1.066   5.316   6.172
  138SOL    HW1 1313   0.971   5.343   6.182
  138SOL    HW2 1314   1.096   5.336   6.078
  139SOL     OW 1315   2.177   6.702   0.816
  139SOL    HW1 1316   2.099   6.680   0.758
  139SOL    HW2 1317   2.245   6.754   0.764
  140SOL     OW 1318   3.519   0.479   0.887
  140SOL    HW1 1319   3.476   0.418   0.821
  140SOL    HW2 1320   3.488   0.456   0.979
  141SOL     OW 1321   0.243   3.001   0.519
  141SOL    HW1 1322   0.261   2.904   0.534
  141SOL    HW2 1323   0.324   3.044   0.479
  142SOL     OW 1324   1.836   4.235   1.281
  142SOL    HW1 1325   1.793   4.158   1.233
  142SOL    HW2 1326   1.935   4.224   1.279
  143SOL     OW 1327   4.756   6.619   2.151
  143SOL    HW1 1328   4.718   6.546   2.208
  143SOL    HW2 1329   4.800   6.687   2.209
  144SOL     OW 1330   3.064   5.515   3.814
  144SOL    HW1 1331   2.980   5.482   3.771
  144SOL    HW2 1332   3.040   5.578   3.889
  145SOL     OW 1333   6.986   4.441   2.917
  145SOL    HW1 1334   6.991   4.487   3.006
  145SOL    HW2 1335   6.906   4.381   2.915
  146SOL     OW 1336   5.105   0.604   5.930
  146SOL    HW1 1337   5.159   0.643   6.005
  146SOL    HW2 1338   5.130   0.508   5.917
  147SOL     OW 1339   4.707   1.079   4.925
  147SOL    HW1 1340   4.804   1.073   4.905
  147SOL    HW2 1341   4.694   1.121   5.015
  148SOL     OW 1342   1.483   5.842   1.719
  148SOL    HW1 1343   1.543   5.893   1.780
  148SOL    HW2 1344   1.388   5.860   1.742
  149SOL     OW 1345   2.260   2.150   4.878
  149SOL    HW1 1346   2.322   2.198   4.816
  149SOL    HW2 1347   2.312   2.101   4.947
  150SOL     OW 1348   4.375   1.580   5.208
  150SOL    HW1 1349   4.387   1.550   5.113
  150SOL    HW2 1350   4.452   1.547   5.263
  151SOL     OW 1351   4.215   2.966   1.232
  151SOL    HW1 1352   4.183   2.903   1.160
  151SOL    HW2 1353   4.184   2.934   1.321
  152SOL     OW 1354   0.439   2.226   0.641
  152SOL    HW1 1355   0.479   2.141   0.674
  152SOL    HW2 1356   0.511   2.290   0.617
  153SOL     OW 1357   2.746   1.256   3.442
  153SOL    HW1 1358   2.784   1.207   3.364
  153SOL    HW2 1359   2.780   1.350   3.443
  154SOL     OW 1360   6.733   1.603   2.855
  154SOL    HW1 1361   6.760   1.622   2.950
  154SOL    HW2 1362   6.689   1.685   2.817
  155SOL     OW 1363   0.792   6.400   2.604
  155SOL    HW1 1364   0.818   6.416   2.699
  155SOL    HW2 1365   0.857   6.446   2.543
  156SOL     OW 1366   5.739   2.769   0.506
  156SOL    HW1 1367   5.792   2.847   0.540
  156SOL    HW2 1368   5.661   2.802   0.453
  157SOL     OW 1369   4.801   5.646   0.605
  157SOL    HW1 1370   4.778   5.551   0.626
  157SOL    HW2 1371   4.870   5.678   0.670
  158SOL     OW 1372   0.174   3.074   3.787
  158SOL    HW1 1373   0.151   3.009   3.859
  158SOL    HW2 1374   0.247   3.135   3.821
  159SOL     OW 1375   6.015   5.298   0.324
  159SOL    HW1 1376   6.048   5.210   0.358
  159SOL    HW2 1377   5.945   5.282   0.254
  160SOL     OW 1378   6.490   0.007   1.810
  160SOL    HW1 1379   6.556   7.008   1.739
  160SOL    HW2 1380   6.482   6.956   1.875
  161SOL     OW 1381   0.521   6.373   0.906
  161SOL    HW1 1382   0.436   6.335   0.943
  161SOL    HW2 1383   0.566   6.430   0.975
  162SOL     OW 1384   4.608   6.775   6.569
  162SOL    HW1 1385   4.531   6.836   6.587
  162SOL    HW2 1386   4.658   6.806   6.488
  163SOL     OW 1387   0.589   3.707   2.495
  163SOL    HW1 1388   0.628   3.617   2.476
  163SOL    HW2 1389   0.492   3.697   2.519
  164SOL     OW 1390   2.793   2.145   4.130
  164SOL    HW1 1391   2.793   2.190   4.041
  164SOL    HW2 1392   2.887   2.124   4.157
  165SOL     OW 1393   0.345   5.860   3.559
  165SOL    HW1 1394   0.413   5.816   3.501
  165SOL    HW2 1395   0.369   5.846   3.655
  166SOL     OW 1396   6.370   3.776   2.605
  166SOL    HW1 1397   6.332   3.713   2.672
  166SOL    HW2 1398   6.303   3.794   2.533
  167SOL     OW 1399   2.451   1.983   0.079
  167SOL    HW1 1400   2.458   1.897   0.129
  167SOL    HW2 1401   2.429   2.057   0.143
  168SOL     OW 1402   3.916   3.945   1.479
  168SOL    HW1 1403   3.998   3.888   1.481
  168SOL    HW2 1404   3.836   3.889   1.458
  169SOL     OW 1405   4.869   2.255   0.656
  169SOL    HW1 1406   4.895   2.289   0.746
  169SOL    HW2 1407   4.784   2.297   0.627
  170SOL     OW 1408   6.868   5.908   2.312
  170SOL    HW1 1409   6.931   5.847   2.264
  170SOL    HW2 1410   6.918   5.987   2.348
  171SOL     OW 1411   3.462   3.066   1.123
  171SOL    HW1 1412   3.515   3.046   1.040
  171SOL    HW2 1413   3.469   2.988   1.186
  172SOL     OW 1414   0.696   2.177   6.577
  172SOL    HW1 1415   0.623   2.230   6.534
  172SOL    HW2 1416   0.702   2.087   6.533
  173SOL     OW 1417   6.612   1.564   4.516
  173SOL    HW1 1418   6.711   1.573   4.525
  173SOL    HW2 1419   6.584   1.472   4.544
  174SOL     OW 1420   5.388   4.890   5.374
  174SOL    HW1 1421   5.486   4.888   5.355
  174SOL    HW2 1422   5.353   4.982   5.357
  175SOL     OW 1423   0.548   0.089   1.743
  175SOL    HW1 1424   0.472   0.044   1.696
  175SOL    HW2 1425   0.548   0.186   1.720
  176SOL     OW 1426   6.032   4.052   1.085
  176SOL    HW1 1427   5.961   3.982   1.071
  176SOL    HW2 1428   6.122   4.008   1.085
  177SOL     OW 1429   5.676   2.066   4.421
  177SOL    HW1 1430   5.751   2.103   4.366
  177SOL    HW2 1431   5.618   2.140   4.453
  178SOL     OW 1432   2.765   6.138   5.156
  178SOL    HW1 1433   2.802   6.228   5.136
  178SOL    HW2 1434   2.675   6.147   5.200
  179SOL     OW 1435   3.858   4.639   1.023
  179SOL    HW1 1436   3.871   4.551   1.069
  179SOL    HW2 1437   3.761   4.651   1.001
  180SOL     OW 1438   4.061   0.996   0.364
  180SOL    HW1 1439   4.089   1.086   0.330
  180SOL    HW2 1440   3.984   0.962   0.310
  181SOL     OW 1441   3.140   2.029   5.619
  181SOL    HW1 1442   3.135   2.107   5.681
  181SOL    HW2 1443   3.087   2.048   5.536
  182SOL     OW 1444   3.432   2.933   6.191
  182SOL    HW1 1445   3.467   2.966   6.279
  182SOL    HW2 1446   3.507   2.890   6.140
  183SOL     OW 1447   3.875   0.892   3.599
  183SOL    HW1 1448   3.796   0.914   3.543
  183SOL    HW2 1449   3.904   0.972   3.651
  184SOL     OW 1450   5.233   5.815   3.513
  184SOL    HW1 1451   5.299   5.841   3.584
  184SOL    HW2 1452   5.269   5.841   3.423
  185SOL     OW 1453   0.059   0.480   4.744
  185SOL    HW1 1454   0.070   0.527   4.832
  185SOL    HW2 1455   0.087   0.541   4.670
  186SOL     OW 1456   4.208   6.305   4.388
  186SOL    HW1 1457   4.241   6.283   4.296
  186SOL    HW2 1458   4.206   6.404   4.399
  187SOL     OW 1459   4.178   6.182   1.178
  187SOL    HW1 1460   4.253   6.232   1.222
  187SOL    HW2 1461   4.096   6.189   1.234
  188SOL     OW 1462   1.167   3.169   3.369
  188SOL    HW1 1463   1.217   3.255   3.356
  188SOL    HW2 1464   1.069   3.187   3.373
  189SOL     OW 1465   6.105   5.210   5.937
  189SOL    HW1 1466   6.110   5.301   5.895
  189SOL    HW2 1467   6.188   5.194   5.991
  190SOL     OW 1468   6.007   1.161   0.326
  190SOL    HW1 1469   6.034   1.224   0.252
  190SOL    HW2 1470   5.959   1.083   0.287
  191SOL     OW 1471   0.146   0.743   5.263
  191SOL    HW1 1472   0.170   0.673   5.332
  191SOL    HW2 1473   0.097   0.818   5.308
  192SOL     OW 1474   0.317   5.392   0.961
  192SOL    HW1 1475   0.233   5.338   0.970
  192SOL    HW2 1476   0.343   5.397   0.864
  193SOL     OW 1477   2.455   6.568   0.365
  193SOL    HW1 1478   2.403   6.639   0.317
  193SOL    HW2 1479   2.460   6.589   0.462
  194SOL     OW 1480   3.984   6.657   1.761
  194SOL    HW1 1481   3.979   6.716   1.681
  194SOL    HW2 1482   3.963   6.710   1.843
  195SOL     OW 1483   3.445   1.317   0.840
  195SOL    HW1 1484   3.461   1.333   0.743
  195SOL    HW2 1485   3.513   1.366   0.894
  196SOL     OW 1486   3.134   2.276   7.016
  196SOL    HW1 1487   3.145   2.344   0.063
  196SOL    HW2 1488   3.219   2.223   7.008
  197SOL     OW 1489   2.144   6.468   0.583
  197SOL    HW1 1490   2.203   6.533   0.631
  197SOL    HW2 1491   2.050   6.502   0.584
  198SOL     OW 1492   4.188   0.713   6.771
  198SOL    HW1 1493   4.244   0.706   6.854
  198SOL    HW2 1494   4.234   0.770   6.704
  199SOL     OW 1495   0.216   0.153   2.431
  199SOL    HW1 1496   0.218   0.138   2.332
  199SOL    HW2 1497   0.124   0.136   2.466
  200SOL     OW 1498   0.298   4.348   3.073
  200SOL    HW1 1499   0.255   4.437   3.058
  200SOL    HW2 1500   0.365   4.331   3.000
  201SOL     OW 1501   4.027   1.293   6.823
  201SOL    HW1 1502   4.104   1.232   6.808
  201SOL    HW2 1503   3.942   1.247   6.796
  202SOL     OW 1504   3.365   0.584   2.609
  202SOL    HW1 1505   3.417   0.523   2.549
  202SOL    HW2 1506   3.426   0.656   2.644
  203SOL     OW 1507   5.542   2.471   0.006
  203SOL    HW1 1508   5.610   2.399   0.019
  203SOL    HW2 1509   5.453   2.430   7.013
  204SOL     OW 1510   2.871   5.936   1.178
  204SOL    HW1 1511   2.789   5.957   1.125
  204SOL    HW2 1512   2.920   5.861   1.135
  205SOL     OW 1513   6.414   0.558   0.031
  205SOL    HW1 1514   6.485   0.501   0.072
  205SOL    HW2 1515   6.327   0.509   0.032
  206SOL     OW 1516   0.706   4.328   1.499
  206SOL    HW1 1517   0.755   4.372   1.575
  206SOL    HW2 1518   0.668   4.241   1.528
  207SOL     OW 1519   4.703   0.999   5.490
  207SOL    HW1 1520   4.787   1.034   5.447
  207SOL    HW2 1521   4.626   1.011   5.428
  208SOL     OW 1522   3.359   4.816   6.084
  208SOL    HW1 1523   3.369   4.841   5.987
  208SOL    HW2 1524   3.302   4.734   6.091
  209SOL     OW 1525   6.287   5.433   5.539
  209SOL    HW1 1526   6.310   5.344   5.578
  209SOL    HW2 1527   6.188   5.445   5.536
  210SOL     OW 1528   3.832   2.057   2.228
  210SOL    HW1 1529   3.787   2.120   2.165
  210SOL    HW2 1530   3.905   2.008   2.179
  211SOL     OW 1531   1.258   1.987   2.138
  211SOL    HW1 1532   1.182   2.048   2.116
  211SOL    HW2 1533   1.236   1.936   2.221
  212SOL     OW 1534   1.177   5.253   4.219
  212SOL    HW1 1535   1.186   5.164   4.174
  212SOL    HW2 1536   1.251   5.265   4.285
  213SOL     OW 1537   4.339   2.641   6.844
  213SOL    HW1 1538   4.414   2.589   6.804
  213SOL    HW2 1539   4.355   2.739   6.829
  214SOL     OW 1540   1.332   0.033   2.586
  214SOL    HW1 1541   1.401   7.002   2.541
  214SOL    HW2 1542   1.332   0.012   2.684
  215SOL     OW 1543   3.189   3.599   2.205
  215SOL    HW1 1544   3.163   3.695   2.213
  215SOL    HW2 1545   3.157   3.564   2.116
  216SOL     OW 1546   1.078   6.374   5.819
  216SOL    HW1 1547   0.997   6.315   5.822
  216SOL    HW2 1548   1.134   6.358   5.899
  217SOL     OW 1549   0.209   2.927   3.500
  217SOL    HW1 1550   0.111   2.924   3.522
  217SOL    HW2 1551   0.251   2.840   3.525
  218SOL     OW 1552   1.091   3.908   5.479
  218SOL    HW1 1553   1.041   3.851   5.413
  218SOL    HW2 1554   1.060   3.887   5.571
  219SOL     OW 1555   4.526   4.946   6.870
  219SOL    HW1 1556   4.563   4.954   6.778
  219SOL    HW2 1557   4.525   5.036   6.914
  220SOL     OW 1558   2.991   4.814   0.738
  220SOL    HW1 1559   2.949   4.827   0.648
  220SOL    HW2 1560   2.956   4.731   0.780
  221SOL     OW 1561   6.596   2.385   4.104
  221SOL    HW1 1562   6.499   2.366   4.090
  221SOL    HW2 1563   6.611   2.484   4.097
  222SOL     OW 1564   0.997   6.441   4.946
  222SOL    HW1 1565   0.931   6.511   4.972
  222SOL    HW2 1566   1.042   6.405   5.028
  223SOL     OW 1567   6.205   4.081   1.595
  223SOL    HW1 1568   6.273   4.142   1.638
  223SOL    HW2 1569   6.143   4.136   1.538
  224SOL     OW 1570   3.127   1.952   1.709
  224SOL    HW1 1571   3.094   2.042   1.738
  224SOL    HW2 1572   3.189   1.915   1.778
  225SOL     OW 1573   0.142   0.325   0.406
  225SOL    HW1 1574   0.183   0.255   0.347
  225SOL    HW2 1575   0.172   0.310   0.501
  226SOL     OW 1576   6.950   5.673   0.890
  226SOL    HW1 1577   6.888   5.742   0.853
  226SOL    HW2 1578   0.007   5.718   0.925
  227SOL     OW 1579   1.553   3.006   3.764
  227SOL    HW1 1580   1.568   3.012   3.863
  227SOL    HW2 1581   1.462   3.041   3.742
  228SOL     OW 1582   3.738   6.933   3.094
  228SOL    HW1 1583   3.752   6.993   3.173
  228SOL    HW2 1584   3.800   6.959   3.020
  229SOL     OW 1585   5.980   5.297   2.681
  229SOL    HW1 1586   5.917   5.350   2.623
  229SOL    HW2 1587   6.046   5.359   2.722
  230SOL     OW 1588   1.386   3.902   5.423
  230SOL    HW1 1589   1.367   3.995   5.456
  230SOL    HW2 1590   1.301   3.861   5.391
  231SOL     OW 1591   0.478   1.843   6.894
  231SOL    HW1 1592   0.509   1.929   6.932
  231SOL    HW2 1593   0.390   1.857   6.847
  232SOL     OW 1594   2.027   4.962   6.241
  232SOL    HW1 1595   2.005   4.865   6.231
  232SOL    HW2 1596   2.039   4.983   6.338
  233SOL     OW 1597   2.970   1.093   6.090
  233SOL    HW1 1598   2.942   1.164   6.026
  233SOL    HW2 1599   2.969   1.130   6.183
  234SOL     OW 1600   2.674   6.144   6.906
  234SOL    HW1 1601   2.758   6.197   6.911
  234SOL    HW2 1602   2.679   6.066   6.968
  235SOL     OW 1603   3.568   3.214   4.876
  235SOL    HW1 1604   3.646   3.156   4.855
  235SOL    HW2 1605   3.493   3.157   4.911
  236SOL     OW 1606   6.884   2.616   5.738
  236SOL    HW1 1607   6.886   2.700   5.792
  236SOL    HW2 1608   6.810   2.620   5.672
  237SOL     OW 1609   0.759   6.966   1.661
  237SOL    HW1 1610   0.685   7.025   1.692
  237SOL    HW2 1611   0.840   7.022   1.641
  238SOL     OW 1612   6.193   2.157   2.151
  238SOL    HW1 1613   6.121   2.221   2.125
  238SOL    HW2 1614   6.156   2.088   2.214
  239SOL     OW 1615   0.642   5.741   0.378
  239SOL    HW1 1616   0.577   5.779   0.312
  239SOL    HW2 1617   0.709   5.685   0.329
  240SOL     OW 1618   6.863   3.803   5.120
  240SOL    HW1 1619   6.765   3.810   5.102
  240SOL    HW2 1620   6.906   3.750   5.047
  241SOL     OW 1621   6.973   1.325   3.759
  241SOL    HW1 1622   0.017   1.358   3.695
  241SOL    HW2 1623   7.017   1.281   3.837
  242SOL     OW 1624   2.281   2.624   3.589
  242SOL    HW1 1625   2.375   2.592   3.579
  242SOL    HW2 1626   2.258   2.685   3.513
  243SOL     OW 1627   4.485   0.844   5.120
  243SOL    HW1 1628   4.415   0.782   5.155
  243SOL    HW2 1629   4.506   0.912   5.190
  244SOL     OW 1630   6.678   0.630   5.862
  244SOL    HW1 1631   6.715   0.591   5.778
  244SOL    HW2 1632   6.699   0.569   5.939
  245SOL     OW 1633   6.065   1.718   3.491
  245SOL    HW1 1634   6.086   1.631   3.536
  245SOL    HW2 1635   6.135   1.738   3.422
  246SOL     OW 1636   4.888   3.221   3.245
  246SOL    HW1 1637   4.924   3.158   3.177
  246SOL    HW2 1638   4.792   3.199   3.263
  247SOL     OW 1639   3.591   1.144   3.686
  247SOL    HW1 1640   3.649   1.220   3.656
  247SOL    HW2 1641   3.590   1.074   3.615
  248SOL     OW 1642   5.416   1.296   2.744
  248SOL    HW1 1643   5.444   1.385   2.782
  248SOL    HW2 1644   5.358   1.311   2.664
  249SOL     OW 1645   2.694   0.051   3.654
  249SOL    HW1 1646   2.769   7.010   3.658
  249SOL    HW2 1647   2.712   0.127   3.716
  250SOL     OW 1648   4.806   3.038   6.022
  250SOL    HW1 1649   4.815   2.982   5.940
  250SOL    HW2 1650   4.795   2.978   6.102
  251SOL     OW 1651   2.216   2.582   0.718
  251SOL    HW1 1652   2.176   2.669   0.689
  251SOL    HW2 1653   2.257   2.536   0.639
  252SOL     OW 1654   0.306   1.524   6.458
  252SOL    HW1 1655   0.306   1.462   6.379
  252SOL    HW2 1656   0.294   1.618   6.426
  253SOL     OW 1657   1.965   4.012   5.930
  253SOL    HW1 1658   2.064   4.002   5.914
  253SOL    HW2 1659   1.916   3.942   5.879
  254SOL     OW 1660   5.413   3.408   5.555
  254SOL    HW1 1661   5.389   3.500   5.587
  254SOL    HW2 1662   5.435   3.411   5.457
  255SOL     OW 1663   3.422   2.097   3.471
  255SOL    HW1 1664   3.514   2.131   3.488
  255SOL    HW2 1665   3.400   2.107   3.374
  256SOL     OW 1666   6.376   5.680   0.157
  256SOL    HW1 1667   6.332   5.769   0.143
  256SOL    HW2 1668   6.308   5.607   0.143
  257SOL     OW 1669   3.085   5.908   6.092
  257SOL    HW1 1670   3.055   5.818   6.125
  257SOL    HW2 1671   3.159   5.896   6.026
  258SOL     OW 1672   5.077   3.689   3.976
  258SOL    HW1 1673   5.108   3.784   3.974
  258SOL    HW2 1674   5.118   3.639   3.900
  259SOL     OW 1675   1.208   2.171   2.845
  259SOL    HW1 1676   1.304   2.169   2.818
  259SOL    HW2 1677   1.194   2.108   2.921
  260SOL     OW 1678   6.217   6.883   6.214
  260SOL    HW1 1679   6.128   6.887   6.168
  260SOL    HW2 1680   6.216   6.943   6.294
  261SOL     OW 1681   1.207   1.669   2.866
  261SOL    HW1 1682   1.133   1.704   2.923
  261SOL    HW2 1683   1.251   1.592   2.912
  262SOL     OW 1684   1.777   5.036   1.774
  262SOL    HW1 1685   1.687   5.044   1.730
  262SOL    HW2 1686   1.775   4.960   1.839
  263SOL     OW 1687   0.250   1.892   4.795
  263SOL    HW1 1688   0.345   1.889   4.764
  263SOL    HW2 1689   0.190   1.906   4.716
  264SOL     OW 1690   2.385   4.714   5.705
  264SOL    HW1 1691   2.412   4.708   5.801
  264SOL    HW2 1692   2.432   4.791   5.661
  265SOL     OW 1693   5.482   5.438   5.514
  265SOL    HW1 1694   5.434   5.447   5.601
  265SOL    HW2 1695   5.417   5.448   5.439
  266SOL     OW 1696   4.121   2.319   0.546
  266SOL    HW1 1697   4.022   2.304   0.546
  266SOL    HW2 1698   4.151   2.345   0.454
  267SOL     OW 1699   1.520   1.034   6.064
  267SOL    HW1 1700   1.462   0.977   6.123
  267SOL    HW2 1701   1.565   0.976   5.996
  268SOL     OW 1702   3.392   5.396   4.297
  268SOL    HW1 1703   3.424   5.399   4.392
  268SOL    HW2 1704   3.294   5.416   4.294
  269SOL     OW 1705   1.087   1.056   5.947
  269SOL    HW1 1706   1.033   1.099   5.875
  269SOL    HW2 1707   1.184   1.057   5.922
  270SOL     OW 1708   5.306   0.391   3.798
  270SOL    HW1 1709   5.275   0.303   3.834
  270SOL    HW2 1710   5.379   0.427   3.856
  271SOL     OW 1711   1.384   1.542   0.079
  271SOL    HW1 1712   1.431   1.474   0.022
  271SOL    HW2 1713   1.328   1.494   0.147
  272SOL     OW 1714   4.537   5.947   2.689
  272SOL    HW1 1715   4.579   6.009   2.623
  272SOL    HW2 1716   4.479   5.999   2.751
  273SOL     OW 1717   2.948   0.088   5.202
  273SOL    HW1 1718   2.890   0.170   5.213
  273SOL    HW2 1719   3.024   0.110   5.141
  274SOL     OW 1720   5.878   1.860   1.046
  274SOL    HW1 1721   5.976   1.876   1.060
  274SOL    HW2 1722   5.852   1.774   1.091
  275SOL     OW 1723   5.509   5.556   5.085
  275SOL    HW1 1724   5.512   5.651   5.115
  275SOL    HW2 1725   5.560   5.547   4.999
  276SOL     OW 1726   6.947   6.290   4.044
  276SOL    HW1 1727   7.009   6.214   4.066
  276SOL    HW2 1728   6.852   6.258   4.048
  277SOL     OW 1729   4.771   1.452   5.596
  277SOL    HW1 1730   4.712   1.515   5.545
  277SOL    HW2 1731   4.858   1.443   5.549
  278SOL     OW 1732   5.886   3.166   3.230
  278SOL    HW1 1733   5.879   3.180   3.131
  278SOL    HW2 1734   5.975   3.198   3.263
  279SOL     OW 1735   0.514   3.634   4.852
  279SOL    HW1 1736   0.587   3.688   4.811
  279SOL    HW2 1737   0.542   3.604   4.943
  280SOL     OW 1738   3.592   0.706   3.309
  280SOL    HW1 1739   3.657   0.768   3.264
  280SOL    HW2 1740   3.630   0.613   3.309
  281SOL     OW 1741   5.720   6.612   3.964
  281SOL    HW1 1742   5.633   6.661   3.964
  281SOL    HW2 1743   5.749   6.597   4.058
  282SOL     OW 1744   2.087   2.134   0.673
  282SOL    HW1 1745   2.128   2.076   0.602
  282SOL    HW2 1746   2.021   2.196   0.631
  283SOL     OW 1747   6.941   2.352   4.596
  283SOL    HW1 1748   6.848   2.327   4.625
  283SOL    HW2 1749   6.999   2.364   4.676
  284SOL     OW 1750   4.871   5.686   3.142
  284SOL    HW1 1751   4.806   5.637   3.084
  284SOL    HW2 1752   4.846   5.783   3.145
  285SOL     OW 1753   4.349   0.360   5.964
  285SOL    HW1 1754   4.362   0.454   5.994
  285SOL    HW2 1755   4.397   0.346   5.877
  286SOL     OW 1756   2.506   4.809   5.272
  286SOL    HW1 1757   2.489   4.905   5.292
  286SOL    HW2 1758   2.586   4.778   5.323
  287SOL     OW 1759   3.195   6.880   6.420
  287SOL    HW1 1760   3.200   6.963   6.476
  287SOL    HW2 1761   3.176   6.801   6.479
  288SOL     OW 1762   4.413   0.698   0.968
  288SOL    HW1 1763   4.344   0.641   1.015
  288SOL    HW2 1764   4.375   0.730   0.881
  289SOL     OW 1765   6.095   6.347   3.862
  289SOL    HW1 1766   6.085   6.435   3.909
  289SOL    HW2 1767   6.006   6.302   3.856
  290SOL     OW 1768   3.552   0.154   5.864
  290SOL    HW1 1769   3.643   0.165   5.905
  290SOL    HW2 1770   3.521   0.243   5.829
  291SOL     OW 1771   3.080   6.862   4.595
  291SOL    HW1 1772   3.061   6.889   4.501
  291SOL    HW2 1773   3.001   6.812   4.631
  292SOL     OW 1774   5.058   0.468   4.098
  292SOL    HW1 1775   5.054   0.381   4.147
  292SOL    HW2 1776   5.054   0.452   4.000
  293SOL     OW 1777   5.854   0.213   2.046
  293SOL    HW1 1778   5.910   0.294   2.030
  293SOL    HW2 1779   5.912   0.132   2.044
  294SOL     OW 1780   6.119   0.714   6.293
  294SOL    HW1 1781   6.066   0.780   6.346
  294SOL    HW2 1782   6.093   0.621   6.321
  295SOL     OW 1783   1.588   1.655   4.991
  295SOL    HW1 1784   1.629   1.595   5.060
  295SOL    HW2 1785   1.544   1.732   5.036
  296SOL     OW 1786   7.013   2.059   0.928
  296SOL    HW1 1787   6.944   2.047   0.999
  296SOL    HW2 1788   6.979   2.025   0.841
  297SOL     OW 1789   5.545   3.478   3.353
  297SOL    HW1 1790   5.482   3.411   3.314
  297SOL    HW2 1791   5.585   3.533   3.280
  298SOL     OW 1792   4.056   0.343   5.916
  298SOL    HW1 1793   4.142   0.318   5.959
  298SOL    HW2 1794   4.055   0.442   5.898
  299SOL     OW 1795   0.285   0.758   6.926
  299SOL    HW1 1796   0.317   0.791   7.015
  299SOL    HW2 1797   0.268   0.836   6.866
  300SOL     OW 1798   4.374   0.360   3.494
  300SOL    HW1 1799   4.318   0.294   3.544
  300SOL    HW2 1800   4.380   0.445   3.546
  301SOL     OW 1801   6.643   5.615   0.743
  301SOL    HW1 1802   6.677   5.705   0.715
  301SOL    HW2 1803   6.645   5.552   0.665
  302SOL     OW 1804   0.643   5.697   1.849
  302SOL    HW1 1805   0.655   5.783   1.898
  302SOL    HW2 1806   0.596   5.714   1.763
  303SOL     OW 1807   5.511   6.347   3.067
  303SOL    HW1 1808   5.486   6.366   2.972
  303SOL    HW2 1809   5.499   6.430   3.122
  304SOL     OW 1810   2.583   5.842   4.889
  304SOL    HW1 1811   2.652   5.799   4.831
  304SOL    HW2 1812   2.493   5.834   4.846
  305SOL     OW 1813   0.936   3.127   2.108
  305SOL    HW1 1814   0.942   3.203   2.044
  305SOL    HW2 1815   0.889   3.157   2.192
  306SOL     OW 1816   0.256   6.393   3.288
  306SOL    HW1 1817   0.233   6.452   3.365
  306SOL    HW2 1818   0.352   6.406   3.263
  307SOL     OW 1819   3.153   3.057   3.940
  307SOL    HW1 1820   3.146   3.086   4.035
  307SOL    HW2 1821   3.079   3.097   3.887
  308SOL     OW 1822   5.801   2.577   3.188
  308SOL    HW1 1823   5.807   2.488   3.144
  308SOL    HW2 1824   5.885   2.629   3.170
  309SOL     OW 1825   1.951   6.382   6.740
  309SOL    HW1 1826   1.857   6.351   6.750
  309SOL    HW2 1827   1.981   6.425   6.826
  310SOL     OW 1828   5.513   0.354   5.436
  310SOL    HW1 1829   5.563   0.364   5.522
  310SOL    HW2 1830   5.429   0.408   5.439
  311SOL     OW 1831   1.990   5.760   2.610
  311SOL    HW1 1832   1.967   5.846   2.564
  311SOL    HW2 1833   2.078   5.728   2.577
  312SOL     OW 1834   4.024   0.733   3.165
  312SOL    HW1 1835   4.010   0.743   3.264
  312SOL    HW2 1836   4.076   0.812   3.131
  313SOL     OW 1837   3.836   3.290   2.829
  313SOL    HW1 1838   3.841   3.191   2.842
  313SOL    HW2 1839   3.928   3.329   2.831
  314SOL     OW 1840   2.774   5.643   5.832
  314SOL    HW1 1841   2.737   5.550   5.840
  314SOL    HW2 1842   2.709   5.700   5.783
  315SOL     OW 1843   6.295   0.646   4.009
  315SOL    HW1 1844   6.381   0.616   3.967
  315SOL    HW2 1845   6.252   0.715   3.950
  316SOL     OW 1846   3.823   1.450   6.295
  316SOL    HW1 1847   3.820   1.367   6.349
  316SOL    HW2 1848   3.888   1.515   6.336
  317SOL     OW 1849   1.173   1.859   1.685
  317SOL    HW1 1850   1.075   1.882   1.689
  317SOL    HW2 1851   1.206   1.841   1.778
  318SOL     OW 1852   0.830   0.322   4.785
  318SOL    HW1 1853   0.759   0.259   4.752
  318SOL    HW2 1854   0.918   0.296   4.745
  319SOL     OW 1855   1.013   1.373   2.630
  319SOL    HW1 1856   0.934   1.434   2.628
  319SOL    HW2 1857   1.037   1.351   2.724
  320SOL     OW 1858   6.063   2.067   6.193
  320SOL    HW1 1859   6.051   2.158   6.153
  320SOL    HW2 1860   5.974   2.022   6.200
  321SOL     OW 1861   4.832   3.306   0.645
  321SOL    HW1 1862   4.817   3.325   0.547
  321SOL    HW2 1863   4.810   3.388   0.698
  322SOL     OW 1864   3.102   3.563   5.904
  322SOL    HW1 1865   3.087   3.473   5.944
  322SOL    HW2 1866   3.197   3.573   5.876
  323SOL     OW 1867   0.787   3.729   1.845
  323SOL    HW1 1868   0.845   3.736   1.764
  323SOL    HW2 1869   0.825   3.659   1.906
  324SOL     OW 1870   0.417   0.110   3.307
  324SOL    HW1 1871   0.351   0.180   3.281
  324SOL    HW2 1872   0.425   0.108   3.406
  325SOL     OW 1873   6.820   3.956   1.870
  325SOL    HW1 1874   6.798   3.901   1.951
  325SOL    HW2 1875   6.736   3.997   1.834
  326SOL     OW 1876   0.860   6.646   6.166
  326SOL    HW1 1877   0.925   6.597   6.224
  326SOL    HW2 1878   0.774   6.596   6.162
  327SOL     OW 1879   5.360   5.590   3.933
  327SOL    HW1 1880   5.368   5.608   4.031
  327SOL    HW2 1881   5.267   5.562   3.911
  328SOL     OW 1882   1.799   3.590   2.700
  328SOL    HW1 1883   1.886   3.542   2.708
  328SOL    HW2 1884   1.729   3.528   2.664
  329SOL     OW 1885   3.251   2.877   1.787
  329SOL    HW1 1886   3.311   2.847   1.861
  329SOL    HW2 1887   3.179   2.809   1.773
  330SOL     OW 1888   3.178   5.425   0.880
  330SOL    HW1 1889   3.211   5.441   0.973
  330SOL    HW2 1890   3.080   5.406   0.882
  331SOL     OW 1891   5.926   5.397   6.971
  331SOL    HW1 1892   5.937   5.363   6.878
  331SOL    HW2 1893   5.881   5.327   0.001
  332SOL     OW 1894   5.813   2.144   3.980
  332SOL    HW1 1895   5.867   2.227   3.965
  332SOL    HW2 1896   5.716   2.168   3.990
  333SOL     OW 1897   3.173   0.900   5.980
  333SOL    HW1 1898   3.109   0.970   6.010
  333SOL    HW2 1899   3.239   0.940   5.916
  334SOL     OW 1900   3.666   3.154   3.421
  334SOL    HW1 1901   3.578   3.172   3.464
  334SOL    HW2 1902   3.658   3.167   3.322
  335SOL     OW 1903   3.491   1.199   0.412
  335SOL    HW1 1904   3.522   1.185   0.318
  335SOL    HW2 1905   3.563   1.170   0.475
  336SOL     OW 1906   2.841   1.608   3.907
  336SOL    HW1 1907   2.874   1.519   3.937
  336SOL    HW2 1908   2.742   1.603   3.892
  337SOL     OW 1909   1.359   0.540   5.584
  337SOL    HW1 1910   1.459   0.542   5.587
  337SOL    HW2 1911   1.327   0.460   5.636
  338SOL     OW 1912   4.124   1.584   1.092
  338SOL    HW1 1913   4.106   1.672   1.137
  338SOL    HW2 1914   4.222   1.576   1.075
  339SOL     OW 1915   3.559   5.935   4.879
  339SOL    HW1 1916   3.552   6.000   4.955
  339SOL    HW2 1917   3.499   5.857   4.896
  340SOL     OW 1918   5.259   2.357   4.473
  340SOL    HW1 1919   5.267   2.313   4.384
  340SOL    HW2 1920   5.168   2.397   4.483
  341SOL     OW 1921   6.273   6.421   2.900
  341SOL    HW1 1922   6.363   6.449   2.933
  341SOL    HW2 1923   6.266   6.439   2.802
  342SOL     OW 1924   4.510   2.483   2.050
  342SOL    HW1 1925   4.467   2.429   1.978
  342SOL    HW2 1926   4.466   2.462   2.138
  343SOL     OW 1927   7.021   5.556   2.811
  343SOL    HW1 1928   6.971   5.577   2.895
  343SOL    HW2 1929   6.967   5.492   2.755
  344SOL     OW 1930   1.375   2.612   1.132
  344SOL    HW1 1931   1.381   2.515   1.157
  344SOL    HW2 1932   1.352   2.666   1.212
  345SOL     OW 1933   7.004   3.623   3.965
  345SOL    HW1 1934   0.049   3.693   3.978
  345SOL    HW2 1935   6.958   3.638   3.878
  346SOL     OW 1936   1.998   6.593   3.559
  346SOL    HW1 1937   1.947   6.533   3.498
  346SOL    HW2 1938   1.979   6.689   3.536
  347SOL     OW 1939   2.334   4.713   0.877
  347SOL    HW1 1940   2.258   4.700   0.941
  347SOL    HW2 1941   2.383   4.798   0.899
  348SOL     OW 1942   4.387   5.172   1.257
  348SOL    HW1 1943   4.364   5.264   1.288
  348SOL    HW2 1944   4.344   5.105   1.318
  349SOL     OW 1945   6.259   4.288   1.005
  349SOL    HW1 1946   6.314   4.371   1.003
  349SOL    HW2 1947   6.197   4.291   1.084
  350SOL     OW 1948   3.271   2.667   0.148
  350SOL    HW1 1949   3.276   2.715   0.061
  350SOL    HW2 1950   3.245   2.731   0.220
  351SOL     OW 1951   3.183   4.237   0.981
  351SOL    HW1 1952   3.275   4.210   1.008
  351SOL    HW2 1953   3.134   4.270   1.062
  352SOL     OW 1954   4.065   6.915   3.080
  352SOL    HW1 1955   4.001   6.896   3.154
  352SOL    HW2 1956   4.158   6.892   3.109
  353SOL     OW 1957   2.107   6.661   6.410
  353SOL    HW1 1958   2.090   6.758   6.391
  353SOL    HW2 1959   2.023   6.618   6.442
  354SOL     OW 1960   0.518   2.843   0.152
  354SOL    HW1 1961   0.438   2.819   0.207
  354SOL    HW2 1962   0.509   2.938   0.120
  355SOL     OW 1963   1.790   1.784   2.486
  355SOL    HW1 1964   1.700   1.747   2.465
  355SOL    HW2 1965   1.811   1.770   2.583
  356SOL     OW 1966   1.563   0.360   6.117
  356SOL    HW1 1967   1.474   0.386   6.153
  356SOL    HW2 1968   1.586   0.418   6.039
  357SOL     OW 1969   5.578   6.737   4.922
  357SOL    HW1 1970   5.614   6.802   4.856
  357SOL    HW2 1971   5.486   6.708   4.894
  358SOL     OW 1972   4.155   5.342   0.025
  358SOL    HW1 1973   4.213   5.420   0.050
  358SOL    HW2 1974   4.213   5.262   0.010
  359SOL     OW 1975   2.310   1.661   2.856
  359SOL    HW1 1976   2.371   1.598   2.904
  359SOL    HW2 1977   2.300   1.745   2.909
  360SOL     OW 1978   1.386   4.206   4.303
  360SOL    HW1 1979   1.444   4.259   4.241
  360SOL    HW2 1980   1.295   4.248   4.307
  361SOL     OW 1981   6.201   1.244   3.082
  361SOL    HW1 1982   6.127   1.237   3.015
  361SOL    HW2 1983   6.181   1.317   3.146
  362SOL     OW 1984   4.088   4.917   0.721
  362SOL    HW1 1985   4.175   4.893   0.766
  362SOL    HW2 1986   4.100   4.911   0.622
  363SOL     OW 1987   5.733   5.199   2.135
  363SOL    HW1 1988   5.830   5.187   2.155
  363SOL    HW2 1989   5.722   5.260   2.057
  364SOL     OW 1990   0.767   6.338   6.246
  364SOL    HW1 1991   0.728   6.360   6.336
  364SOL    HW2 1992   0.719   6.390   6.176
  365SOL     OW 1993   4.907   1.965   3.609
  365SOL    HW1 1994   4.962   1.898   3.558
  365SOL    HW2 1995   4.931   1.961   3.706
  366SOL     OW 1996   5.145   2.181   6.764
  366SOL    HW1 1997   5.199   2.158   6.683
  366SOL    HW2 1998   5.201   2.236   6.827
  367SOL     OW 1999   5.233   1.931   5.748
  367SOL    HW1 2000   5.296   1.888   5.683
  367SOL    HW2 2001   5.169   1.990   5.698
  368SOL     OW 2002   6.382   2.274   5.967
  368SOL    HW1 2003   6.453   2.206   5.947
  368SOL    HW2 2004   6.419   2.342   6.030
  369SOL     OW 2005   5.927   3.480   2.219
  369SOL    HW1 2006   5.878   3.414   2.163
  369SOL    HW2 2007   5.878   3.494   2.305
  370SOL     OW 2008   1.679   3.353   3.505
  370SOL    HW1 2009   1.776   3.368   3.485
  370SOL    HW2 2010   1.629   3.333   3.421
  371SOL     OW 2011   1.094   5.428   6.991
  371SOL    HW1 2012   1.108   5.402   0.061
  371SOL    HW2 2013   1.001   5.401   6.962
  372SOL     OW 2014   3.276   6.346   6.086
  372SOL    HW1 2015   3.178   6.353   6.070
  372SOL    HW2 2016   3.324   6.339   5.999
  373SOL     OW 2017   5.847   5.795   4.067
  373SOL    HW1 2018   5.875   5.704   4.036
  373SOL    HW2 2019   5.795   5.840   3.995
  374SOL     OW 2020   2.852   1.919   3.290
  374SOL    HW1 2021   2.829   1.969   3.374
  374SOL    HW2 2022   2.947   1.937   3.266
  375SOL     OW 2023   1.577   4.843   4.774
  375SOL    HW1 2024   1.613   4.919   4.829
  375SOL    HW2 2025   1.539   4.773   4.835
  376SOL     OW 2026   2.529   1.038   4.794
  376SOL    HW1 2027   2.501   0.948   4.825
  376SOL    HW2 2028   2.451   1.101   4.799
  377SOL     OW 2029   0.853   1.947   6.305
  377SOL    HW1 2030   0.880   2.035   6.345
  377SOL    HW2 2031   0.800   1.895   6.371
  378SOL     OW 2032   4.178   1.106   1.834
  378SOL    HW1 2033   4.225   1.161   1.766
  378SOL    HW2 2034   4.161   1.014   1.797
  379SOL     OW 2035   6.280   1.778   6.612
  379SOL    HW1 2036   6.349   1.781   6.540
  379SOL    HW2 2037   6.199   1.729   6.579
  380SOL     OW 2038   3.969   2.196   1.068
  380SOL    HW1 2039   4.065   2.194   1.040
  380SOL    HW2 2040   3.924   2.275   1.028
  381SOL     OW 2041   1.790   3.721   2.917
  381SOL    HW1 2042   1.880   3.736   2.957
  381SOL    HW2 2043   1.799   3.679   2.826
  382SOL     OW 2044   5.295   0.483   0.108
  382SOL    HW1 2045   5.211   0.430   0.105
  382SOL    HW2 2046   5.356   0.444   0.177
  383SOL     OW 2047   4.125   2.742   0.746
  383SOL    HW1 2048   4.162   2.744   0.653
  383SOL    HW2 2049   4.149   2.656   0.790
  384SOL     OW 2050   5.671   4.023   4.728
  384SOL    HW1 2051   5.579   3.984   4.715
  384SOL    HW2 2052   5.720   4.020   4.641
  385SOL     OW 2053   4.336   4.112   0.332
  385SOL    HW1 2054   4.399   4.049   0.287
  385SOL    HW2 2055   4.337   4.200   0.284
  386SOL     OW 2056   3.214   6.783   3.693
  386SOL    HW1 2057   3.186   6.799   3.598
  386SOL    HW2 2058   3.144   6.729   3.740
  387SOL     OW 2059   2.130   5.937   3.430
  387SOL    HW1 2060   2.050   5.898   3.475
  387SOL    HW2 2061   2.142   6.032   3.458
  388SOL     OW 2062   2.121   3.444   6.318
  388SOL    HW1 2063   2.080   3.510   6.256
  388SOL    HW2 2064   2.171   3.374   6.266
  389SOL     OW 2065   2.931   3.754   3.243
  389SOL    HW1 2066   2.999   3.681   3.258
  389SOL    HW2 2067   2.887   3.740   3.155
  390SOL     OW 2068   2.142   1.162   4.225
  390SOL    HW1 2069   2.183   1.143   4.136
  390SOL    HW2 2070   2.206   1.134   4.297
  391SOL     OW 2071   0.687   3.158   0.061
  391SOL    HW1 2072   0.734   3.088   0.007
  391SOL    HW2 2073   0.621   3.205   0.003
  392SOL     OW 2074   2.488   5.025   2.847
  392SOL    HW1 2075   2.497   5.109   2.794
  392SOL    HW2 2076   2.442   5.045   2.933
  393SOL     OW 2077   5.964   4.643   4.595
  393SOL    HW1 2078   5.951   4.563   4.536
  393SOL    HW2 2079   5.895   4.712   4.574
  394SOL     OW 2080   2.063   0.329   0.122
  394SOL    HW1 2081   1.990   0.263   0.102
  394SOL    HW2 2082   2.022   0.416   0.151
  395SOL     OW 2083   5.016   3.986   1.420
  395SOL    HW1 2084   5.086   4.046   1.460
  395SOL    HW2 2085   5.060   3.910   1.374
  396SOL     OW 2086   3.564   4.133   3.761
  396SOL    HW1 2087   3.575   4.194   3.682
  396SOL    HW2 2088   3.517   4.050   3.732
  397SOL     OW 2089   4.380   2.128   5.704
  397SOL    HW1 2090   4.461   2.175   5.669
  397SOL    HW2 2091   4.298   2.168   5.665
  398SOL     OW 2092   1.127   5.132   2.523
  398SOL    HW1 2093   1.110   5.105   2.428
  398SOL    HW2 2094   1.160   5.052   2.574
  399SOL     OW 2095   4.629   5.329   1.586
  399SOL    HW1 2096   4.720   5.298   1.559
  399SOL    HW2 2097   4.603   5.287   1.673
  400SOL     OW 2098   0.605   5.837   5.310
  400SOL    HW1 2099   0.538   5.764   5.324
  400SOL    HW2 2100   0.697   5.802   5.326
  401SOL     OW 2101   4.946   2.277   6.593
  401SOL    HW1 2102   4.869   2.311   6.647
  401SOL    HW2 2103   5.018   2.244   6.655
  402SOL     OW 2104   5.682   5.643   1.698
  402SOL    HW1 2105   5.584   5.645   1.682
  402SOL    HW2 2106   5.729   5.703   1.633
  403SOL     OW 2107   4.829   2.217   5.891
  403SOL    HW1 2108   4.835   2.314   5.869
  403SOL    HW2 2109   4.743   2.199   5.941
  404SOL     OW 2110   1.083   0.115   4.346
  404SOL    HW1 2111   1.169   0.065   4.357
  404SOL    HW2 2112   1.058   0.116   4.249
  405SOL     OW 2113   0.815   2.408   0.818
  405SOL    HW1 2114   0.821   2.505   0.840
  405SOL    HW2 2115   0.906   2.371   0.805
  406SOL     OW 2116   2.090   2.522   4.072
  406SOL    HW1 2117   2.027   2.590   4.110
  406SOL    HW2 2118   2.130   2.559   3.988
  407SOL     OW 2119   2.790   0.533   5.132
  407SOL    HW1 2120   2.765   0.624   5.166
  407SOL    HW2 2121   2.876   0.539   5.082
  408SOL     OW 2122   2.126   0.576   3.827
  408SOL    HW1 2123   2.129   0.665   3.872
  408SOL    HW2 2124   2.047   0.524   3.861
  409SOL     OW 2125   5.412   3.297   3.603
  409SOL    HW1 2126   5.473   3.318   3.527
  409SOL    HW2 2127   5.426   3.203   3.632
  410SOL     OW 2128   2.788   1.215   6.720
  410SOL    HW1 2129   2.835   1.190   6.636
  410SOL    HW2 2130   2.837   1.289   6.766
  411SOL     OW 2131   6.289   4.443   4.988
  411SOL    HW1 2132   6.287   4.522   5.050
  411SOL    HW2 2133   6.248   4.468   4.900
  412SOL     OW 2134   3.861   0.410   2.316
  412SOL    HW1 2135   3.921   0.333   2.291
  412SOL    HW2 2136   3.768   0.391   2.284
  413SOL     OW 2137   2.948   6.555   0.569
  413SOL    HW1 2138   3.028   6.606   0.536
  413SOL    HW2 2139   2.977   6.467   0.605
  414SOL     OW 2140   4.248   4.201   0.573
  414SOL    HW1 2141   4.278   4.160   0.487
  414SOL    HW2 2142   4.150   4.219   0.569
  415SOL     OW 2143   1.933   6.452   1.531
  415SOL    HW1 2144   1.950   6.492   1.621
  415SOL    HW2 2145   1.952   6.519   1.460
  416SOL     OW 2146   4.381   6.337   4.969
  416SOL    HW1 2147   4.440   6.356   5.047
  416SOL    HW2 2148   4.433   6.347   4.884
  417SOL     OW 2149   4.388   6.249   1.762
  417SOL    HW1 2150   4.372   6.245   1.861
  417SOL    HW2 2151   4.337   6.326   1.724
  418SOL     OW 2152   4.913   5.956   0.732
  418SOL    HW1 2153   4.943   5.867   0.698
  418SOL    HW2 2154   4.820   5.948   0.768
  419SOL     OW 2155   0.400   6.595   1.153
  419SOL    HW1 2156   0.499   6.603   1.144
  419SOL    HW2 2157   0.359   6.584   1.063
  420SOL     OW 2158   4.967   4.407   0.243
  420SOL    HW1 2159   4.898   4.474   0.270
  420SOL    HW2 2160   4.924   4.333   0.191
  421SOL     OW 2161   2.650   6.232   6.526
  421SOL    HW1 2162   2.622   6.326   6.510
  421SOL    HW2 2163   2.592   6.191   6.596
  422SOL     OW 2164   5.844   4.234   6.660
  422SOL    HW1 2165   5.755   4.204   6.626
  422SOL    HW2 2166   5.909   4.158   6.656
  423SOL     OW 2167   6.406   3.170   6.972
  423SOL    HW1 2168   6.327   3.108   6.969
  423SOL    HW2 2169   6.377   3.258   7.009
  424SOL     OW 2170   3.204   4.168   0.481
  424SOL    HW1 2171   3.280   4.227   0.509
  424SOL    HW2 2172   3.121   4.194   0.532
  425SOL     OW 2173   3.322   1.207   1.136
  425SOL    HW1 2174   3.270   1.230   1.054
  425SOL    HW2 2175   3.419   1.203   1.114
  426SOL     OW 2176   5.468   3.629   6.391
  426SOL    HW1 2177   5.381   3.664   6.426
  426SOL    HW2 2178   5.457   3.602   6.295
  427SOL     OW 2179   5.469   4.226   1.571
  427SOL    HW1 2180   5.548   4.165   1.578
  427SOL    HW2 2181   5.390   4.175   1.536
  428SOL     OW 2182   4.270   0.392   5.570
  428SOL    HW1 2183   4.339   0.366   5.503
  428SOL    HW2 2184   4.239   0.311   5.620
  429SOL     OW 2185   1.641   4.931   6.779
  429SOL    HW1 2186   1.673   4.961   6.690
  429SOL    HW2 2187   1.696   4.974   6.851
  430SOL     OW 2188   1.188   0.010   4.777
  430SOL    HW1 2189   1.249   0.048   4.845
  430SOL    HW2 2190   1.234   6.961   4.728
  431SOL     OW 2191   3.685   1.600   0.792
  431SOL    HW1 2192   3.739   1.654   0.856
  431SOL    HW2 2193   3.744   1.532   0.747
  432SOL     OW 2194   6.712   1.138   0.659
  432SOL    HW1 2195   6.724   1.236   0.671
  432SOL    HW2 2196   6.690   1.118   0.564
  433SOL     OW 2197   3.153   6.749   4.865
  433SOL    HW1 2198   3.151   6.779   4.770
  433SOL    HW2 2199   3.241   6.773   4.906
  434SOL     OW 2200   5.640   3.312   1.263
  434SOL    HW1 2201   5.574   3.386   1.271
  434SOL    HW2 2202   5.622   3.258   1.181
  435SOL     OW 2203   2.928   4.113   6.430
  435SOL    HW1 2204   2.933   4.213   6.428
  435SOL    HW2 2205   2.919   4.082   6.524
  436SOL     OW 2206   1.951   1.176   0.530
  436SOL    HW1 2207   1.881   1.247   0.528
  436SOL    HW2 2208   2.000   1.174   0.443
  437SOL     OW 2209   0.031   0.076   6.421
  437SOL    HW1 2210   0.041   7.014   6.375
  437SOL    HW2 2211   0.050   0.065   6.519
  438SOL     OW 2212   1.224   3.579   1.708
  438SOL    HW1 2213   1.159   3.505   1.694
  438SOL    HW2 2214   1.317   3.545   1.696
  439SOL     OW 2215   6.263   4.992   2.378
  439SOL    HW1 2216   6.323   4.935   2.434
  439SOL    HW2 2217   6.293   5.087   2.383
  440SOL     OW 2218   0.944   2.477   3.716
  440SOL    HW1 2219   1.020   2.469   3.651
  440SOL    HW2 2220   0.899   2.389   3.725
  441SOL     OW 2221   1.393   1.463   2.933
  441SOL    HW1 2222   1.491   1.449   2.922
  441SOL    HW2 2223   1.344   1.380   2.907
  442SOL     OW 2224   6.880   4.071   0.186
  442SOL    HW1 2225   6.808   4.139   0.173
  442SOL    HW2 2226   6.857   3.987   0.137
  443SOL     OW 2227   1.184   3.648   4.900
  443SOL    HW1 2228   1.276   3.610   4.907
  443SOL    HW2 2229   1.119   3.576   4.876
  444SOL     OW 2230   4.849   2.633   6.163
  444SOL    HW1 2231   4.807   2.564   6.222
  444SOL    HW2 2232   4.844   2.722   6.207
  445SOL     OW 2233   2.436   4.565   3.685
  445SOL    HW1 2234   2.483   4.612   3.611
  445SOL    HW2 2235   2.347   4.534   3.654
  446SOL     OW 2236   3.792   5.181   3.717
  446SOL    HW1 2237   3.870   5.185   3.779
  446SOL    HW2 2238   3.823   5.200   3.624
  447SOL     OW 2239   0.207   5.648   0.635
  447SOL    HW1 2240   0.178   5.656   0.731
  447SOL    HW2 2241   0.142   5.695   0.576
  448SOL     OW 2242   4.157   0.846   5.030
  448SOL    HW1 2243   4.180   0.839   5.127
  448SOL    HW2 2244   4.067   0.805   5.014
  449SOL     OW 2245   5.611   1.059   4.642
  449SOL    HW1 2246   5.529   1.023   4.686
  449SOL    HW2 2247   5.692   1.011   4.678
  450SOL     OW 2248   0.382   5.739   3.809
  450SOL    HW1 2249   0.315   5.688   3.755
  450SOL    HW2 2250   0.377   5.710   3.905
  451SOL     OW 2251   0.464   1.575   2.619
  451SOL    HW1 2252   0.384   1.629   2.647
  451SOL    HW2 2253   0.446   1.478   2.632
  452SOL     OW 2254   0.487   4.199   6.997
  452SOL    HW1 2255   0.477   4.138   0.050
  452SOL    HW2 2256   0.566   4.259   7.011
  453SOL     OW 2257   3.034   1.691   6.422
  453SOL    HW1 2258   2.966   1.689   6.496
  453SOL    HW2 2259   3.006   1.758   6.354
  454SOL     OW 2260   0.649   6.149   6.687
  454SOL    HW1 2261   0.743   6.161   6.720
  454SOL    HW2 2262   0.585   6.165   6.763
  455SOL     OW 2263   6.126   0.582   4.223
  455SOL    HW1 2264   6.038   0.620   4.196
  455SOL    HW2 2265   6.175   0.550   4.142
  456SOL     OW 2266   4.237   6.129   6.276
  456SOL    HW1 2267   4.254   6.056   6.342
  456SOL    HW2 2268   4.140   6.134   6.256
  457SOL     OW 2269   2.482   4.445   3.325
  457SOL    HW1 2270   2.414   4.394   3.378
  457SOL    HW2 2271   2.528   4.511   3.385
  458SOL     OW 2272   5.965   5.489   5.634
  458SOL    HW1 2273   5.879   5.439   5.638
  458SOL    HW2 2274   5.947   5.587   5.636
  459SOL     OW 2275   1.435   0.611   2.695
  459SOL    HW1 2276   1.443   0.538   2.627
  459SOL    HW2 2277   1.525   0.627   2.736
  460SOL     OW 2278   6.572   1.717   2.604
  460SOL    HW1 2279   6.595   1.741   2.509
  460SOL    HW2 2280   6.587   1.619   2.618
  461SOL     OW 2281   4.618   0.002   5.301
  461SOL    HW1 2282   4.646   6.949   5.245
  461SOL    HW2 2283   4.518   0.009   5.302
  462SOL     OW 2284   3.267   3.273   6.338
  462SOL    HW1 2285   3.353   3.316   6.365
  462SOL    HW2 2286   3.278   3.173   6.339
  463SOL     OW 2287   6.538   5.315   3.279
  463SOL    HW1 2288   6.517   5.235   3.223
  463SOL    HW2 2289   6.634   5.313   3.307
  464SOL     OW 2290   1.220   1.291   6.343
  464SOL    HW1 2291   1.139   1.286   6.402
  464SOL    HW2 2292   1.220   1.378   6.294
  465SOL     OW 2293   0.988   2.008   3.712
  465SOL    HW1 2294   1.044   2.080   3.754
  465SOL    HW2 2295   0.974   1.935   3.778
  466SOL     OW 2296   0.966   6.874   4.069
  466SOL    HW1 2297   0.940   6.823   4.150
  466SOL    HW2 2298   1.004   6.811   4.001
  467SOL     OW 2299   1.542   0.226   5.312
  467SOL    HW1 2300   1.612   0.162   5.278
  467SOL    HW2 2301   1.475   0.175   5.366
  468SOL     OW 2302   3.966   5.654   1.025
  468SOL    HW1 2303   4.037   5.630   0.960
  468SOL    HW2 2304   4.003   5.651   1.118
  469SOL     OW 2305   2.250   5.582   0.211
  469SOL    HW1 2306   2.329   5.597   0.270
  469SOL    HW2 2307   2.181   5.653   0.228
  470SOL     OW 2308   4.228   0.828   2.426
  470SOL    HW1 2309   4.278   0.850   2.509
  470SOL    HW2 2310   4.132   0.856   2.436
  471SOL     OW 2311   2.220   2.590   4.924
  471SOL    HW1 2312   2.227   2.684   4.958
  471SOL    HW2 2313   2.263   2.583   4.834
  472SOL     OW 2314   4.690   5.505   6.439
  472SOL    HW1 2315   4.620   5.472   6.376
  472SOL    HW2 2316   4.661   5.592   6.479
  473SOL     OW 2317   0.735   3.036   2.536
  473SOL    HW1 2318   0.654   3.060   2.483
  473SOL    HW2 2319   0.783   3.119   2.563
  474SOL     OW 2320   4.374   4.987   4.483
  474SOL    HW1 2321   4.298   4.929   4.451
  474SOL    HW2 2322   4.437   5.003   4.407
  475SOL     OW 2323   7.017   6.723   6.570
  475SOL    HW1 2324   0.014   6.782   6.493
  475SOL    HW2 2325   0.063   6.730   6.639
  476SOL     OW 2326   6.077   4.765   2.342
  476SOL    HW1 2327   6.168   4.790   2.309
  476SOL    HW2 2328   6.012   4.837   2.318
  477SOL     OW 2329   1.921   4.861   4.339
  477SOL    HW1 2330   1.916   4.850   4.438
  477SOL    HW2 2331   1.840   4.819   4.297
  478SOL     OW 2332   3.511   5.711   3.427
  478SOL    HW1 2333   3.416   5.686   3.449
  478SOL    HW2 2334   3.525   5.807   3.450
  479SOL     OW 2335   2.821   2.512   0.445
  479SOL    HW1 2336   2.899   2.575   0.439
  479SOL    HW2 2337   2.808   2.484   0.541
  480SOL     OW 2338   1.553   0.075   2.242
  480SOL    HW1 2339   1.629   0.053   2.180
  480SOL    HW2 2340   1.557   0.172   2.267
  481SOL     OW 2341   2.967   0.025   1.632
  481SOL    HW1 2342   2.894   6.982   1.626
  481SOL    HW2 2343   2.963   0.070   1.722
  482SOL     OW 2344   5.355   4.776   2.442
  482SOL    HW1 2345   5.364   4.788   2.343
  482SOL    HW2 2346   5.436   4.814   2.488
  483SOL     OW 2347   6.167   1.820   1.884
  483SOL    HW1 2348   6.242   1.857   1.939
  483SOL    HW2 2349   6.122   1.746   1.935
  484SOL     OW 2350   0.291   2.895   4.048
  484SOL    HW1 2351   0.243   2.981   4.068
  484SOL    HW2 2352   0.232   2.818   4.073
  485SOL     OW 2353   3.471   4.966   2.504
  485SOL    HW1 2354   3.450   5.022   2.423
  485SOL    HW2 2355   3.390   4.960   2.562
  486SOL     OW 2356   0.783   1.344   0.328
  486SOL    HW1 2357   0.840   1.412   0.374
  486SOL    HW2 2358   0.777   1.262   0.384
  487SOL     OW 2359   0.608   2.229   0.179
  487SOL    HW1 2360   0.607   2.324   0.211
  487SOL    HW2 2361   0.601   2.168   0.258
  488SOL     OW 2362   0.469   1.986   2.022
  488SOL    HW1 2363   0.490   2.082   2.004
  488SOL    HW2 2364   0.548   1.942   2.065
  489SOL     OW 2365   3.731   6.311   0.206
  489SOL    HW1 2366   3.816   6.357   0.231
  489SOL    HW2 2367   3.747   6.250   0.128
  490SOL     OW 2368   6.303   6.746   4.242
  490SOL    HW1 2369   6.324   6.746   4.144
  490SOL    HW2 2370   6.235   6.817   4.261
  491SOL     OW 2371   0.373   2.369   3.061
  491SOL    HW1 2372   0.361   2.347   3.158
  491SOL    HW2 2373   0.302   2.323   3.008
  492SOL     OW 2374   2.665   0.395   6.227
  492SOL    HW1 2375   2.715   0.367   6.144
  492SOL    HW2 2376   2.695   0.486   6.254
  493SOL     OW 2377   6.385   4.509   5.725
  493SOL    HW1 2378   6.458   4.462   5.675
  493SOL    HW2 2379   6.297   4.485   5.685
  494SOL     OW 2380   0.298   6.574   0.177
  494SOL    HW1 2381   0.279   6.480   0.146
  494SOL    HW2 2382   0.213   6.614   0.213
  495SOL     OW 2383   4.884   5.051   2.323
  495SOL    HW1 2384   4.812   5.070   2.390
  495SOL    HW2 2385   4.970   5.034   2.371
  496SOL     OW 2386   5.484   3.525   2.932
  496SOL    HW1 2387   5.529   3.539   3.020
  496SOL    HW2 2388   5.546   3.550   2.858
  497SOL     OW 2389   3.467   1.243   5.000
  497SOL    HW1 2390   3.515   1.183   5.064
  497SOL    HW2 2391   3.506   1.335   5.004
  498SOL     OW 2392   0.571   3.144   1.972
  498SOL    HW1 2393   0.521   3.077   2.028
  498SOL    HW2 2394   0.563   3.234   2.015
  499SOL     OW 2395   3.141   0.319   4.543
  499SOL    HW1 2396   3.077   0.380   4.497
  499SOL    HW2 2397   3.198   0.371   4.606
  500SOL     OW 2398   0.709   3.873   2.898
  500SOL    HW1 2399   0.769   3.834   2.968
  500SOL    HW2 2400   0.755   3.871   2.810
  501SOL     OW 2401   2.369   2.971   6.886
  501SOL    HW1 2402   2.279   2.949   6.923
  501SOL    HW2 2403   2.430   2.892   6.895
  502SOL     OW 2404   4.812   4.609   6.354
  502SOL    HW1 2405   4.727   4.654   6.381
  502SOL    HW2 2406   4.836   4.636   6.260
  503SOL     OW 2407   6.045   4.505   5.542
  503SOL    HW1 2408   6.140   4.480   5.526
  503SOL    HW2 2409   5.987   4.461   5.474
  504SOL     OW 2410   2.309   5.798   4.408
  504SOL    HW1 2411   2.364   5.717   4.430
  504SOL    HW2 2412   2.370   5.877   4.398
  505SOL     OW 2413   4.152   0.550   6.165
  505SOL    HW1 2414   4.127   0.592   6.077
  505SOL    HW2 2415   4.225   0.603   6.207
  506SOL     OW 2416   1.621   4.132   5.543
  506SOL    HW1 2417   1.539   4.092   5.583
  506SOL    HW2 2418   1.629   4.227   5.573
  507SOL     OW 2419   3.072   0.150   4.188
  507SOL    HW1 2420   2.999   0.181   4.127
  507SOL    HW2 2421   3.038   0.152   4.282
  508SOL     OW 2422   5.566   4.282   2.621
  508SOL    HW1 2423   5.474   4.244   2.622
  508SOL    HW2 2424   5.583   4.325   2.533
  509SOL     OW 2425   4.341   1.503   1.449
  509SOL    HW1 2426   4.440   1.515   1.441
  509SOL    HW2 2427   4.318   1.478   1.543
  510SOL     OW 2428   6.772   4.738   5.647
  510SOL    HW1 2429   6.748   4.714   5.740
  510SOL    HW2 2430   6.707   4.696   5.583
  511SOL     OW 2431   0.265   6.379   0.532
  511SOL    HW1 2432   0.337   6.415   0.592
  511SOL    HW2 2433   0.305   6.351   0.444
  512SOL     OW 2434   1.565   3.263   6.771
  512SOL    HW1 2435   1.495   3.330   6.796
  512SOL    HW2 2436   1.554   3.238   6.675
  513SOL     OW 2437   6.677   6.234   3.360
  513SOL    HW1 2438   6.736   6.279   3.427
  513SOL    HW2 2439   6.585   6.275   3.364
  514SOL     OW 2440   6.997   1.987   4.262
  514SOL    HW1 2441   6.956   2.069   4.302
  514SOL    HW2 2442   0.069   1.983   4.287
  515SOL     OW 2443   2.114   0.027   5.938
  515SOL    HW1 2444   2.047   0.084   5.986
  515SOL    HW2 2445   2.084   0.012   5.844
  516SOL     OW 2446   2.310   5.039   1.866
  516SOL    HW1 2447   2.376   5.100   1.910
  516SOL    HW2 2448   2.297   4.957   1.921
  517SOL     OW 2449   5.202   6.955   1.806
  517SOL    HW1 2450   5.251   6.869   1.795
  517SOL    HW2 2451   5.263   7.023   1.847
  518SOL     OW 2452   1.975   2.041   1.398
  518SOL    HW1 2453   2.013   2.112   1.457
  518SOL    HW2 2454   2.047   1.978   1.371
  519SOL     OW 2455   0.413   0.647   5.559
  519SOL    HW1 2456   0.337   0.664   5.622
  519SOL    HW2 2457   0.464   0.731   5.544
  520SOL     OW 2458   5.504   4.924   5.916
  520SOL    HW1 2459   5.500   4.825   5.930
  520SOL    HW2 2460   5.488   4.970   6.003
  521SOL     OW 2461   0.222   1.965   6.185
  521SOL    HW1 2462   0.235   1.867   6.202
  521SOL    HW2 2463   0.309   2.006   6.159
  522SOL     OW 2464   3.889   3.004   5.086
  522SOL    HW1 2465   3.971   2.949   5.102
  522SOL    HW2 2466   3.907   3.099   5.112
  523SOL     OW 2467   0.071   6.922   3.640
  523SOL    HW1 2468   0.132   7.000   3.624
  523SOL    HW2 2469   7.013   6.934   3.588
  524SOL     OW 2470   2.626   1.020   6.801
  524SOL    HW1 2471   2.695   1.091   6.785
  524SOL    HW2 2472   2.672   0.932   6.815
  525SOL     OW 2473   2.864   3.610   6.474
  525SOL    HW1 2474   2.952   3.588   6.432
  525SOL    HW2 2475   2.792   3.554   6.434
  526SOL     OW 2476   3.117   5.250   4.537
  526SOL    HW1 2477   3.069   5.307   4.603
  526SOL    HW2 2478   3.143   5.164   4.581
  527SOL     OW 2479   6.892   1.504   6.120
  527SOL    HW1 2480   6.959   1.573   6.146
  527SOL    HW2 2481   6.906   1.478   6.024
  528SOL     OW 2482   1.771   1.218   5.258
  528SOL    HW1 2483   1.787   1.314   5.282
  528SOL    HW2 2484   1.790   1.204   5.161
  529SOL     OW 2485   1.355   5.015   4.979
  529SOL    HW1 2486   1.272   5.056   4.944
  529SOL    HW2 2487   1.435   5.057   4.936
  530SOL     OW 2488   2.416   3.167   5.391
  530SOL    HW1 2489   2.411   3.263   5.363
  530SOL    HW2 2490   2.441   3.111   5.312
  531SOL     OW 2491   0.530   0.449   1.099
  531SOL    HW1 2492   0.529   0.352   1.121
  531SOL    HW2 2493   0.618   0.489   1.125
  532SOL     OW 2494   1.242   2.062   5.773
  532SOL    HW1 2495   1.229   2.042   5.870
  532SOL    HW2 2496   1.167   2.120   5.741
  533SOL     OW 2497   5.303   6.205   4.561
  533SOL    HW1 2498   5.373   6.170   4.624
  533SOL    HW2 2499   5.216   6.215   4.610
  534SOL     OW 2500   4.327   5.622   2.785
  534SOL    HW1 2501   4.301   5.712   2.819
  534SOL    HW2 2502   4.297   5.552   2.850
  535SOL     OW 2503   0.493   4.046   3.694
  535SOL    HW1 2504   0.531   4.075   3.606
  535SOL    HW2 2505   0.492   3.946   3.698
  536SOL     OW 2506   1.675   5.305   1.322
  536SOL    HW1 2507   1.610   5.267   1.387
  536SOL    HW2 2508   1.735   5.232   1.288
  537SOL     OW 2509   2.527   6.659   2.989
  537SOL    HW1 2510   2.597   6.632   2.923
  537SOL    HW2 2511   2.437   6.652   2.946
  538SOL     OW 2512   0.968   5.822   3.261
  538SOL    HW1 2513   1.051   5.774   3.289
  538SOL    HW2 2514   0.935   5.785   3.174
  539SOL     OW 2515   1.560   5.217   1.542
  539SOL    HW1 2516   1.559   5.123   1.577
  539SOL    HW2 2517   1.632   5.269   1.587
  540SOL     OW 2518   1.044   2.159   2.439
  540SOL    HW1 2519   0.992   2.229   2.489
  540SOL    HW2 2520   1.048   2.075   2.494
  541SOL     OW 2521   3.301   6.297   5.166
  541SOL    HW1 2522   3.337   6.390   5.176
  541SOL    HW2 2523   3.356   6.246   5.100
  542SOL     OW 2524   5.449   6.143   6.948
  542SOL    HW1 2525   5.429   6.201   0.002
  542SOL    HW2 2526   5.404   6.055   6.959
  543SOL     OW 2527   1.416   4.672   6.975
  543SOL    HW1 2528   1.389   4.768   6.975
  543SOL    HW2 2529   1.511   4.663   6.948
  544SOL     OW 2530   0.603   5.528   0.560
  544SOL    HW1 2531   0.614   5.605   0.498
  544SOL    HW2 2532   0.693   5.500   0.595
  545SOL     OW 2533   4.134   1.223   2.816
  545SOL    HW1 2534   4.158   1.289   2.887
  545SOL    HW2 2535   4.098   1.140   2.859
  546SOL     OW 2536   1.010   3.746   1.321
  546SOL    HW1 2537   0.936   3.787   1.373
  546SOL    HW2 2538   0.988   3.749   1.224
  547SOL     OW 2539   2.678   2.907   0.682
  547SOL    HW1 2540   2.581   2.912   0.708
  547SOL    HW2 2541   2.686   2.919   0.583
  548SOL     OW 2542   3.770   3.089   4.516
  548SOL    HW1 2543   3.763   3.053   4.423
  548SOL    HW2 2544   3.678   3.107   4.552
  549SOL     OW 2545   5.133   3.748   1.326
  549SOL    HW1 2546   5.192   3.704   1.393
  549SOL    HW2 2547   5.063   3.684   1.296
  550SOL     OW 2548   6.512   2.858   2.487
  550SOL    HW1 2549   6.426   2.830   2.529
  550SOL    HW2 2550   6.509   2.840   2.389
  551SOL     OW 2551   6.909   1.546   1.149
  551SOL    HW1 2552   6.916   1.641   1.118
  551SOL    HW2 2553   6.814   1.515   1.141
  552SOL     OW 2554   3.684   5.206   0.905
  552SOL    HW1 2555   3.688   5.124   0.962
  552SOL    HW2 2556   3.635   5.186   0.820
  553SOL     OW 2557   2.297   1.157   1.299
  553SOL    HW1 2558   2.362   1.211   1.351
  553SOL    HW2 2559   2.211   1.150   1.349
  554SOL     OW 2560   5.894   6.834   5.804
  554SOL    HW1 2561   5.828   6.851   5.730
  554SOL    HW2 2562   5.981   6.806   5.764
  555SOL     OW 2563   1.423   4.539   4.388
  555SOL    HW1 2564   1.451   4.545   4.292
  555SOL    HW2 2565   1.502   4.557   4.447
  556SOL     OW 2566   5.674   2.518   3.693
  556SOL    HW1 2567   5.752   2.480   3.741
  556SOL    HW2 2568   5.667   2.616   3.712
  557SOL     OW 2569   6.856   6.033   6.560
  557SOL    HW1 2570   6.763   6.008   6.586
  557SOL    HW2 2571   6.896   5.960   6.505
  558SOL     OW 2572   4.586   3.458   5.426
  558SOL    HW1 2573   4.508   3.398   5.411
  558SOL    HW2 2574   4.612   3.501   5.340
  559SOL     OW 2575   0.669   5.825   6.565
  559SOL    HW1 2576   0.637   5.750   6.507
  559SOL    HW2 2577   0.590   5.874   6.602
  560SOL     OW 2578   4.939   6.797   7.016
  560SOL    HW1 2579   4.996   6.830   0.065
  560SOL    HW2 2580   4.843   6.819   0.010
  561SOL     OW 2581   5.943   0.037   0.630
  561SOL    HW1 2582   5.989   0.032   0.541
  561SOL    HW2 2583   5.989   0.105   0.688
  562SOL     OW 2584   5.225   1.059   6.063
  562SOL    HW1 2585   5.317   1.071   6.026
  562SOL    HW2 2586   5.158   1.077   5.991
  563SOL     OW 2587   3.058   6.259   4.178
  563SOL    HW1 2588   3.149   6.219   4.183
  563SOL    HW2 2589   3.066   6.359   4.168
  564SOL     OW 2590   0.461   1.578   6.953
  564SOL    HW1 2591   0.475   1.677   6.947
  564SOL    HW2 2592   0.535   1.532   6.903
  565SOL     OW 2593   4.718   3.762   5.676
  565SOL    HW1 2594   4.702   3.717   5.763
  565SOL    HW2 2595   4.700   3.860   5.685
  566SOL     OW 2596   4.268   4.727   3.727
  566SOL    HW1 2597   4.330   4.676   3.667
  566SOL    HW2 2598   4.271   4.687   3.819
  567SOL     OW 2599   3.177   3.428   4.919
  567SOL    HW1 2600   3.089   3.403   4.880
  567SOL    HW2 2601   3.245   3.436   4.846
  568SOL     OW 2602   2.705   2.026   0.328
  568SOL    HW1 2603   2.774   2.073   0.273
  568SOL    HW2 2604   2.618   2.073   0.320
  569SOL     OW 2605   1.759   3.033   0.983
  569SOL    HW1 2606   1.748   3.053   1.080
  569SOL    HW2 2607   1.669   3.012   0.943
  570SOL     OW 2608   1.149   6.480   0.638
  570SOL    HW1 2609   1.183   6.432   0.557
  570SOL    HW2 2610   1.115   6.415   0.705
  571SOL     OW 2611   3.595   5.239   2.689
  571SOL    HW1 2612   3.643   5.152   2.675
  571SOL    HW2 2613   3.661   5.310   2.713
  572SOL     OW 2614   1.521   3.840   5.206
  572SOL    HW1 2615   1.475   3.866   5.291
  572SOL    HW2 2616   1.575   3.917   5.173
  573SOL     OW 2617   4.218   1.373   5.459
  573SOL    HW1 2618   4.279   1.295   5.444
  573SOL    HW2 2619   4.273   1.456   5.475
  574SOL     OW 2620   2.139   2.021   4.339
  574SOL    HW1 2621   2.085   2.080   4.399
  574SOL    HW2 2622   2.236   2.027   4.365
  575SOL     OW 2623   6.819   2.407   0.403
  575SOL    HW1 2624   6.730   2.431   0.442
  575SOL    HW2 2625   6.891   2.432   0.467
  576SOL     OW 2626   1.221   1.793   2.631
  576SOL    HW1 2627   1.250   1.889   2.624
  576SOL    HW2 2628   1.221   1.764   2.727
  577SOL     OW 2629   2.791   1.947   3.562
  577SOL    HW1 2630   2.750   2.025   3.610
  577SOL    HW2 2631   2.888   1.941   3.585
  578SOL     OW 2632   0.326   3.316   3.262
  578SOL    HW1 2633   0.303   3.404   3.220
  578SOL    HW2 2634   0.414   3.324   3.309
  579SOL     OW 2635   5.129   2.229   0.357
  579SOL    HW1 2636   5.095   2.322   0.368
  579SOL    HW2 2637   5.156   2.192   0.445
  580SOL     OW 2638   1.362   5.468   6.622
  580SOL    HW1 2639   1.285   5.518   6.662
  580SOL    HW2 2640   1.408   5.415   6.694
  581SOL     OW 2641   3.705   3.023   2.850
  581SOL    HW1 2642   3.668   2.974   2.771
  581SOL    HW2 2643   3.632   3.069   2.898
  582SOL     OW 2644   5.399   3.958   2.494
  582SOL    HW1 2645   5.325   3.910   2.447
  582SOL    HW2 2646   5.366   3.992   2.582
  583SOL     OW 2647   2.244   4.380   0.612
  583SOL    HW1 2648   2.254   4.476   0.638
  583SOL    HW2 2649   2.324   4.328   0.641
  584SOL     OW 2650   0.030   4.776   4.941
  584SOL    HW1 2651   0.077   4.843   4.999
  584SOL    HW2 2652   0.027   4.810   4.847
  585SOL     OW 2653   0.074   2.014   5.949
  585SOL    HW1 2654   0.126   2.020   5.864
  585SOL    HW2 2655   0.136   2.023   6.027
  586SOL     OW 2656   2.438   6.819   0.762
  586SOL    HW1 2657   2.419   6.917   0.761
  586SOL    HW2 2658   2.526   6.802   0.806
  587SOL     OW 2659   0.953   3.372   5.596
  587SOL    HW1 2660   1.004   3.450   5.632
  587SOL    HW2 2661   0.933   3.308   5.671
  588SOL     OW 2662   3.311   6.267   1.836
  588SOL    HW1 2663   3.371   6.331   1.788
  588SOL    HW2 2664   3.295   6.187   1.779
  589SOL     OW 2665   3.544   5.313   2.396
  589SOL    HW1 2666   3.526   5.301   2.494
  589SOL    HW2 2667   3.461   5.294   2.345
  590SOL     OW 2668   0.107   1.974   1.661
  590SOL    HW1 2669   0.022   1.957   1.711
  590SOL    HW2 2670   0.155   1.888   1.646
  591SOL     OW 2671   3.984   7.000   3.431
  591SOL    HW1 2672   4.080   0.001   3.435
  591SOL    HW2 2673   3.973   6.920   3.373
  592SOL     OW 2674   5.166   0.961   0.377
  592SOL    HW1 2675   5.235   0.939   0.307
  592SOL    HW2 2676   5.137   1.056   0.364
  593SOL     OW 2677   4.782   2.188   3.845
  593SOL    HW1 2678   4.853   2.188   3.774
  593SOL    HW2 2679   4.801   2.260   3.911
  594SOL     OW 2680   4.110   3.790   1.338
  594SOL    HW1 2681   4.022   3.803   1.292
  594SOL    HW2 2682   4.173   3.862   1.310
  595SOL     OW 2683   3.634   6.199   3.836
  595SOL    HW1 2684   3.627   6.298   3.826
  595SOL    HW2 2685   3.549   6.163   3.874
  596SOL     OW 2686   1.004   4.337   2.987
  596SOL    HW1 2687   0.958   4.416   3.028
  596SOL    HW2 2688   0.953   4.308   2.906
  597SOL     OW 2689   4.253   0.751   5.550
  597SOL    HW1 2690   4.155   0.729   5.553
  597SOL    HW2 2691   4.265   0.836   5.497
  598SOL     OW 2692   3.800   4.699   0.711
  598SOL    HW1 2693   3.747   4.623   0.747
  598SOL    HW2 2694   3.877   4.663   0.657
  599SOL     OW 2695   6.526   6.991   2.617
  599SOL    HW1 2696   6.544   6.961   2.523
  599SOL    HW2 2697   6.601   0.024   2.648
  600SOL     OW 2698   1.787   0.383   0.296
  600SOL    HW1 2699   1.745   0.432   0.372
  600SOL    HW2 2700   1.812   0.290   0.325
  601SOL     OW 2701   3.067   5.368   4.286
  601SOL    HW1 2702   3.052   5.297   4.217
  601SOL    HW2 2703   3.108   5.327   4.368
  602SOL     OW 2704   2.270   0.062   1.209
  602SOL    HW1 2705   2.236   0.007   1.132
  602SOL    HW2 2706   2.249   0.158   1.193
  603SOL     OW 2707   4.062   2.154   3.179
  603SOL    HW1 2708   4.127   2.182   3.108
  603SOL    HW2 2709   4.055   2.226   3.248
  604SOL     OW 2710   0.663   4.026   6.178
  604SOL    HW1 2711   0.658   3.973   6.094
  604SOL    HW2 2712   0.651   3.965   6.257
  605SOL     OW 2713   5.813   6.937   3.656
  605SOL    HW1 2714   5.912   6.956   3.654
  605SOL    HW2 2715   5.777   6.939   3.562
  606SOL     OW 2716   4.118   0.245   3.692
  606SOL    HW1 2717   4.041   0.187   3.715
  606SOL    HW2 2718   4.086   0.322   3.636
  607SOL     OW 2719   5.400   0.793   3.965
  607SOL    HW1 2720   5.306   0.810   3.934
  607SOL    HW2 2721   5.420   0.852   4.043
  608SOL     OW 2722   3.845   0.839   0.867
  608SOL    HW1 2723   3.823   0.924   0.818
  608SOL    HW2 2724   3.876   0.861   0.959
  609SOL     OW 2725   3.470   3.201   4.542
  609SOL    HW1 2726   3.522   3.247   4.470
  609SOL    HW2 2727   3.449   3.108   4.514
  610SOL     OW 2728   5.184   2.525   4.175
  610SOL    HW1 2729   5.124   2.577   4.115
  610SOL    HW2 2730   5.228   2.452   4.124
  611SOL     OW 2731   0.261   0.024   0.334
  611SOL    HW1 2732   0.276   0.027   0.235
  611SOL    HW2 2733   0.323   0.088   0.379
  612SOL     OW 2734   2.581   5.703   6.210
  612SOL    HW1 2735   2.680   5.708   6.201
  612SOL    HW2 2736   2.540   5.674   6.124
  613SOL     OW 2737   3.569   1.947   0.121
  613SOL    HW1 2738   3.524   1.862   0.096
  613SOL    HW2 2739   3.602   1.942   0.215
  614SOL     OW 2740   5.382   5.010   0.966
  614SOL    HW1 2741   5.439   4.939   1.008
  614SOL    HW2 2742   5.433   5.096   0.963
  615SOL     OW 2743   6.978   6.931   0.984
  615SOL    HW1 2744   6.914   6.859   1.010
  615SOL    HW2 2745   0.043   6.891   0.970
  616SOL     OW 2746   5.798   1.160   4.198
  616SOL    HW1 2747   5.856   1.238   4.174
  616SOL    HW2 2748   5.744   1.182   4.279
  617SOL     OW 2749   0.463   4.915   5.751
  617SOL    HW1 2750   0.545   4.952   5.707
  617SOL    HW2 2751   0.385   4.974   5.732
  618SOL     OW 2752   5.829   3.475   0.555
  618SOL    HW1 2753   5.832   3.440   0.649
  618SOL    HW2 2754   5.921   3.497   0.525
  619SOL     OW 2755   2.474   0.472   0.382
  619SOL    HW1 2756   2.480   0.563   0.422
  619SOL    HW2 2757   2.554   0.456   0.323
  620SOL     OW 2758   6.563   1.761   2.309
  620SOL    HW1 2759   6.536   1.815   2.229
  620SOL    HW2 2760   6.517   1.673   2.307
  621SOL     OW 2761   3.558   1.089   6.969
  621SOL    HW1 2762   3.554   1.173   6.915
  621SOL    HW2 2763   3.584   1.111   0.038
  622SOL     OW 2764   1.244   2.021   5.060
  622SOL    HW1 2765   1.269   2.097   4.999
  622SOL    HW2 2766   1.246   1.936   5.008
  623SOL     OW 2767   5.861   0.006   4.203
  623SOL    HW1 2768   5.774   6.986   4.182
  623SOL    HW2 2769   5.844   0.088   4.258
  624SOL     OW 2770   6.551   0.632   6.485
  624SOL    HW1 2771   6.515   0.662   6.397
  624SOL    HW2 2772   6.475   0.618   6.549
  625SOL     OW 2773   2.439   1.427   0.234
  625SOL    HW1 2774   2.481   1.486   0.166
  625SOL    HW2 2775   2.510   1.386   0.291
  626SOL     OW 2776   0.679   5.048   3.975
  626SOL    HW1 2777   0.699   5.022   3.881
  626SOL    HW2 2778   0.762   5.082   4.019
  627SOL     OW 2779   6.471   0.183   6.911
  627SOL    HW1 2780   6.561   0.143   6.896
  627SOL    HW2 2781   6.405   0.111   6.934
  628SOL     OW 2782   4.927   4.968   5.531
  628SOL    HW1 2783   4.902   4.912   5.609
  628SOL    HW2 2784   4.942   4.909   5.451
  629SOL     OW 2785   0.356   6.417   5.970
  629SOL    HW1 2786   0.332   6.507   6.006
  629SOL    HW2 2787   0.310   6.347   6.024
  630SOL     OW 2788   6.444   0.608   1.029
  630SOL    HW1 2789   6.513   0.621   0.958
  630SOL    HW2 2790   6.399   0.695   1.049
  631SOL     OW 2791   2.085   2.357   4.915
  631SOL    HW1 2792   2.145   2.279   4.899
  631SOL    HW2 2793   2.138   2.441   4.916
  632SOL     OW 2794   2.760   3.225   6.929
  632SOL    HW1 2795   2.746   3.131   6.961
  632SOL    HW2 2796   2.679   3.280   6.949
  633SOL     OW 2797   1.929   5.860   1.633
  633SOL    HW1 2798   1.930   5.775   1.580
  633SOL    HW2 2799   1.838   5.875   1.671
  634SOL     OW 2800   2.982   3.336   4.133
  634SOL    HW1 2801   2.957   3.431   4.152
  634SOL    HW2 2802   2.976   3.319   4.034
  635SOL     OW 2803   5.551   0.849   6.518
  635SOL    HW1 2804   5.626   0.793   6.483
  635SOL    HW2 2805   5.548   0.842   6.618
  636SOL     OW 2806   2.464   0.942   7.014
  636SOL    HW1 2807   2.491   1.003   6.939
  636SOL    HW2 2808   2.393   0.986   0.043
  637SOL     OW 2809   6.781   1.032   2.015
  637SOL    HW1 2810   6.852   1.025   2.085
  637SOL    HW2 2811   6.757   1.128   2.000
  638SOL     OW 2812   6.412   3.320   3.865
  638SOL    HW1 2813   6.422   3.400   3.924
  638SOL    HW2 2814   6.500   3.272   3.859
  639SOL     OW 2815   4.583   4.807   2.921
  639SOL    HW1 2816   4.548   4.783   3.012
  639SOL    HW2 2817   4.507   4.832   2.861
  640SOL     OW 2818   0.535   2.388   2.086
  640SOL    HW1 2819   0.561   2.323   2.014
  640SOL    HW2 2820   0.520   2.479   2.046
  641SOL     OW 2821   1.963   5.124   4.354
  641SOL    HW1 2822   1.944   5.028   4.331
  641SOL    HW2 2823   1.922   5.146   4.442
  642SOL     OW 2824   0.792   3.631   4.999
  642SOL    HW1 2825   0.835   3.703   5.054
  642SOL    HW2 2826   0.848   3.613   4.918
  643SOL     OW 2827   4.884   5.006   6.794
  643SOL    HW1 2828   4.813   4.937   6.786
  643SOL    HW2 2829   4.843   5.097   6.785
  644SOL     OW 2830   6.628   6.948   4.955
  644SOL    HW1 2831   6.574   0.006   4.964
  644SOL    HW2 2832   6.573   6.877   4.911
  645SOL     OW 2833   4.244   5.191   2.079
  645SOL    HW1 2834   4.266   5.140   2.163
  645SOL    HW2 2835   4.149   5.172   2.053
  646SOL     OW 2836   3.698   0.810   5.423
  646SOL    HW1 2837   3.657   0.900   5.437
  646SOL    HW2 2838   3.786   0.806   5.472
  647SOL     OW 2839   4.581   2.266   5.594
  647SOL    HW1 2840   4.599   2.317   5.510
  647SOL    HW2 2841   4.646   2.191   5.602
  648SOL     OW 2842   5.655   2.240   3.486
  648SOL    HW1 2843   5.697   2.311   3.542
  648SOL    HW2 2844   5.571   2.274   3.445
  649SOL     OW 2845   2.468   5.611   0.841
  649SOL    HW1 2846   2.440   5.569   0.927
  649SOL    HW2 2847   2.565   5.632   0.844
  650SOL     OW 2848   0.029   5.260   1.275
  650SOL    HW1 2849   7.005   5.181   1.310
  650SOL    HW2 2850   0.037   5.330   1.346
  651SOL     OW 2851   1.498   0.372   4.744
  651SOL    HW1 2852   1.485   0.385   4.646
  651SOL    HW2 2853   1.420   0.410   4.793
  652SOL     OW 2854   3.483   6.359   1.254
  652SOL    HW1 2855   3.505   6.450   1.218
  652SOL    HW2 2856   3.516   6.353   1.349
  653SOL     OW 2857   0.910   6.611   1.759
  653SOL    HW1 2858   1.000   6.641   1.727
  653SOL    HW2 2859   0.839   6.665   1.713
  654SOL     OW 2860   0.003   6.681   4.934
  654SOL    HW1 2861   6.930   6.671   4.947
  654SOL    HW2 2862   0.035   6.614   4.867
  655SOL     OW 2863   6.605   4.313   2.006
  655SOL    HW1 2864   6.562   4.226   1.982
  655SOL    HW2 2865   6.681   4.297   2.069
  656SOL     OW 2866   3.392   6.658   0.341
  656SOL    HW1 2867   3.403   6.569   0.297
  656SOL    HW2 2868   3.306   6.660   0.392
  657SOL     OW 2869   3.841   3.042   2.174
  657SOL    HW1 2870   3.880   3.123   2.131
  657SOL    HW2 2871   3.869   3.039   2.270
  658SOL     OW 2872   2.197   3.141   4.010
  658SOL    HW1 2873   2.171   3.238   4.007
  658SOL    HW2 2874   2.130   3.087   3.959
  659SOL     OW 2875   2.505   6.177   5.696
  659SOL    HW1 2876   2.528   6.109   5.626
  659SOL    HW2 2877   2.424   6.147   5.747
  660SOL     OW 2878   4.653   4.240   2.569
  660SOL    HW1 2879   4.694   4.159   2.610
  660SOL    HW2 2880   4.684   4.249   2.475
  661SOL     OW 2881   4.198   4.768   4.384
  661SOL    HW1 2882   4.220   4.711   4.304
  661SOL    HW2 2883   4.099   4.783   4.388
  662SOL     OW 2884   4.880   3.082   0.023
  662SOL    HW1 2885   4.975   3.085   7.015
  662SOL    HW2 2886   4.824   3.146   6.996
  663SOL     OW 2887   0.273   4.476   0.540
  663SOL    HW1 2888   0.278   4.428   0.628
  663SOL    HW2 2889   0.180   4.467   0.503
  664SOL     OW 2890   1.837   0.125   0.117
  664SOL    HW1 2891   1.788   0.194   0.063
  664SOL    HW2 2892   1.862   0.048   0.059
  665SOL     OW 2893   4.279   5.306   0.881
  665SOL    HW1 2894   4.198   5.363   0.871
  665SOL    HW2 2895   4.343   5.349   0.944
  666SOL     OW 2896   3.600   1.766   0.372
  666SOL    HW1 2897   3.502   1.767   0.394
  666SOL    HW2 2898   3.648   1.832   0.430
  667SOL     OW 2899   0.665   2.717   2.720
  667SOL    HW1 2900   0.655   2.744   2.816
  667SOL    HW2 2901   0.760   2.729   2.691
  668SOL     OW 2902   5.201   0.058   0.696
  668SOL    HW1 2903   5.223   0.111   0.614
  668SOL    HW2 2904   5.196   0.119   0.775
  669SOL     OW 2905   1.873   6.028   3.234
  669SOL    HW1 2906   1.938   6.020   3.309
  669SOL    HW2 2907   1.916   6.075   3.157
  670SOL     OW 2908   3.237   3.588   4.093
  670SOL    HW1 2909   3.297   3.665   4.116
  670SOL    HW2 2910   3.252   3.513   4.157
  671SOL     OW 2911   1.978   0.216   6.095
  671SOL    HW1 2912   1.890   0.183   6.060
  671SOL    HW2 2913   1.980   0.204   6.194
  672SOL     OW 2914   2.289   2.894   4.005
  672SOL    HW1 2915   2.218   2.859   4.066
  672SOL    HW2 2916   2.280   2.993   3.997
  673SOL     OW 2917   5.784   0.227   0.806
  673SOL    HW1 2918   5.823   0.162   0.872
  673SOL    HW2 2919   5.846   0.304   0.794
  674SOL     OW 2920   0.428   1.681   3.737
  674SOL    HW1 2921   0.512   1.685   3.682
  674SOL    HW2 2922   0.403   1.774   3.766
  675SOL     OW 2923   0.061   2.750   4.758
  675SOL    HW1 2924   6.995   2.784   4.780
  675SOL    HW2 2925   0.072   2.657   4.794
  676SOL     OW 2926   1.964   4.640   4.722
  676SOL    HW1 2927   2.021   4.664   4.801
  676SOL    HW2 2928   2.012   4.574   4.665
  677SOL     OW 2929   6.472   0.011   0.888
  677SOL    HW1 2930   6.513   0.040   0.802
  677SOL    HW2 2931   6.489   0.080   0.958
  678SOL     OW 2932   2.370   1.221   6.087
  678SOL    HW1 2933   2.296   1.194   6.025
  678SOL    HW2 2934   2.404   1.311   6.061
  679SOL     OW 2935   4.634   6.929   2.810
  679SOL    HW1 2936   4.610   7.009   2.864
  679SOL    HW2 2937   4.571   6.854   2.830
  680SOL     OW 2938   4.872   4.070   5.484
  680SOL    HW1 2939   4.793   4.044   5.540
  680SOL    HW2 2940   4.923   3.988   5.457
  681SOL     OW 2941   1.090   6.761   1.279
  681SOL    HW1 2942   0.996   6.767   1.247
  681SOL    HW2 2943   1.094   6.790   1.375
  682SOL     OW 2944   2.106   6.023   0.426
  682SOL    HW1 2945   2.114   5.986   0.333
  682SOL    HW2 2946   2.149   6.113   0.430
  683SOL     OW 2947   5.152   1.691   0.209
  683SOL    HW1 2948   5.083   1.672   0.279
  683SOL    HW2 2949   5.208   1.769   0.236
  684SOL     OW 2950   0.328   5.575   6.386
  684SOL    HW1 2951   0.270   5.655   6.370
  684SOL    HW2 2952   0.271   5.498   6.413
  685SOL     OW 2953   5.748   0.084   5.444
  685SOL    HW1 2954   5.776   0.180   5.442
  685SOL    HW2 2955   5.731   0.052   5.350
  686SOL     OW 2956   4.992   4.835   2.983
  686SOL    HW1 2957   5.083   4.844   2.943
  686SOL    HW2 2958   4.968   4.738   2.990
  687SOL     OW 2959   6.543   3.694   5.746
  687SOL    HW1 2960   6.518   3.600   5.770
  687SOL    HW2 2961   6.463   3.742   5.713
  688SOL     OW 2962   6.695   4.123   5.775
  688SOL    HW1 2963   6.740   4.039   5.806
  688SOL    HW2 2964   6.614   4.141   5.831
  689SOL     OW 2965   5.937   3.562   5.936
  689SOL    HW1 2966   5.896   3.533   5.850
  689SOL    HW2 2967   5.866   3.603   5.994
  690SOL     OW 2968   1.348   2.645   3.051
  690SOL    HW1 2969   1.312   2.658   2.959
  690SOL    HW2 2970   1.275   2.657   3.118
  691SOL     OW 2971   1.185   2.858   6.671
  691SOL    HW1 2972   1.104   2.845   6.614
  691SOL    HW2 2973   1.232   2.770   6.681
  692SOL     OW 2974   2.567   0.071   2.708
  692SOL    HW1 2975   2.639   0.039   2.770
  692SOL    HW2 2976   2.495   0.002   2.703
  693SOL     OW 2977   6.752   2.652   2.131
  693SOL    HW1 2978   6.809   2.729   2.102
  693SOL    HW2 2979   6.805   2.567   2.124
  694SOL     OW 2980   1.886   0.018   0.872
  694SOL    HW1 2981   1.861   6.947   0.864
  694SOL    HW2 2982   1.950   0.042   0.799
  695SOL     OW 2983   4.667   6.202   5.561
  695SOL    HW1 2984   4.688   6.107   5.581
  695SOL    HW2 2985   4.570   6.220   5.579
  696SOL     OW 2986   4.068   5.007   2.571
  696SOL    HW1 2987   3.995   5.069   2.543
  696SOL    HW2 2988   4.151   5.059   2.589
  697SOL     OW 2989   1.044   4.119   3.841
  697SOL    HW1 2990   1.084   4.037   3.798
  697SOL    HW2 2991   0.948   4.101   3.864
  698SOL     OW 2992   4.609   0.240   3.203
  698SOL    HW1 2993   4.614   0.256   3.302
  698SOL    HW2 2994   4.693   0.195   3.173
  699SOL     OW 2995   1.800   4.310   0.873
  699SOL    HW1 2996   1.788   4.212   0.856
  699SOL    HW2 2997   1.895   4.336   0.857
  700SOL     OW 2998   2.596   2.227   4.520
  700SOL    HW1 2999   2.631   2.279   4.442
  700SOL    HW2 3000   2.672   2.194   4.576
  701SOL     OW 3001   0.034   3.831   5.872
  701SOL    HW1 3002   0.029   3.872   5.963
  701SOL    HW2 3003   0.062   3.900   5.806
  702SOL     OW 3004   5.367   6.160   4.281
  702SOL    HW1 3005   5.294   6.099   4.250
  702SOL    HW2 3006   5.340   6.203   4.367
  703SOL     OW 3007   3.502   3.676   6.660
  703SOL    HW1 3008   3.490   3.736   6.581
  703SOL    HW2 3009   3.470   3.723   6.742
  704SOL     OW 3010   1.745   0.299   6.950
  704SOL    HW1 3011   1.707   0.388   6.928
  704SOL    HW2 3012   1.839   0.293   6.915
  705SOL     OW 3013   6.081   1.753   2.596
  705SOL    HW1 3014   5.984   1.751   2.576
  705SOL    HW2 3015   6.129   1.803   2.524
  706SOL     OW 3016   3.927   1.706   3.484
  706SOL    HW1 3017   3.965   1.614   3.486
  706SOL    HW2 3018   3.831   1.702   3.457
  707SOL     OW 3019   4.613   0.544   1.459
  707SOL    HW1 3020   4.676   0.499   1.523
  707SOL    HW2 3021   4.536   0.483   1.441
  708SOL     OW 3022   4.116   0.771   1.466
  708SOL    HW1 3023   4.147   0.787   1.373
  708SOL    HW2 3024   4.025   0.812   1.478
  709SOL     OW 3025   0.724   4.656   0.423
  709SOL    HW1 3026   0.663   4.603   0.482
  709SOL    HW2 3027   0.736   4.748   0.462
  710SOL     OW 3028   2.962   3.833   2.743
  710SOL    HW1 3029   2.912   3.844   2.657
  710SOL    HW2 3030   2.902   3.792   2.811
  711SOL     OW 3031   6.799   1.180   4.419
  711SOL    HW1 3032   6.717   1.228   4.389
  711SOL    HW2 3033   6.789   1.152   4.515
  712SOL     OW 3034   1.595   4.013   1.538
  712SOL    HW1 3035   1.527   4.046   1.604
  712SOL    HW2 3036   1.557   4.019   1.445
  713SOL     OW 3037   3.438   3.130   2.756
  713SOL    HW1 3038   3.385   3.191   2.813
  713SOL    HW2 3039   3.379   3.089   2.686
  714SOL     OW 3040   4.983   4.854   5.240
  714SOL    HW1 3041   5.054   4.787   5.218
  714SOL    HW2 3042   4.893   4.812   5.228
  715SOL     OW 3043   4.789   0.294   6.483
  715SOL    HW1 3044   4.810   0.222   6.549
  715SOL    HW2 3045   4.785   0.255   6.391
  716SOL     OW 3046   0.135   4.934   1.594
  716SOL    HW1 3047   0.064   4.999   1.619
  716SOL    HW2 3048   0.101   4.841   1.606
  717SOL     OW 3049   6.370   2.782   0.500
  717SOL    HW1 3050   6.337   2.855   0.440
  717SOL    HW2 3051   6.307   2.704   0.495
  718SOL     OW 3052   3.587   3.681   6.091
  718SOL    HW1 3053   3.543   3.768   6.067
  718SOL    HW2 3054   3.675   3.674   6.044
  719SOL     OW 3055   5.794   4.212   1.116
  719SOL    HW1 3056   5.709   4.182   1.161
  719SOL    HW2 3057   5.869   4.153   1.145
  720SOL     OW 3058   2.210   1.552   6.247
  720SOL    HW1 3059   2.226   1.616   6.172
  720SOL    HW2 3060   2.213   1.458   6.212
  721SOL     OW 3061   1.324   6.950   5.878
  721SOL    HW1 3062   1.333   6.865   5.825
  721SOL    HW2 3063   1.328   6.929   5.976
  722SOL     OW 3064   3.883   0.248   4.595
  722SOL    HW1 3065   3.800   0.245   4.540
  722SOL    HW2 3066   3.893   0.339   4.637
  723SOL     OW 3067   0.950   2.879   2.206
  723SOL    HW1 3068   0.948   2.978   2.188
  723SOL    HW2 3069   1.042   2.844   2.189
  724SOL     OW 3070   0.010   0.828   4.500
  724SOL    HW1 3071   0.042   0.919   4.524
  724SOL    HW2 3072   6.946   0.812   4.543
  725SOL     OW 3073   2.056   4.490   2.182
  725SOL    HW1 3074   2.052   4.511   2.280
  725SOL    HW2 3075   2.118   4.554   2.137
  726SOL     OW 3076   3.755   7.017   6.869
  726SOL    HW1 3077   3.737   6.978   6.779
  726SOL    HW2 3078   3.804   6.951   6.925
  727SOL     OW 3079   2.585   5.255   3.998
  727SOL    HW1 3080   2.492   5.218   4.005
  727SOL    HW2 3081   2.624   5.264   4.090
  728SOL     OW 3082   7.010   4.189   4.699
  728SOL    HW1 3083   6.958   4.273   4.719
  728SOL    HW2 3084   7.000   4.166   4.602
  729SOL     OW 3085   2.204   0.261   1.603
  729SOL    HW1 3086   2.196   0.333   1.534
  729SOL    HW2 3087   2.263   0.291   1.677
  730SOL     OW 3088   6.488   0.439   3.452
  730SOL    HW1 3089   6.419   0.406   3.516
  730SOL    HW2 3090   6.559   0.489   3.503
  731SOL     OW 3091   5.509   3.584   4.449
  731SOL    HW1 3092   5.547   3.634   4.372
  731SOL    HW2 3093   5.569   3.507   4.472
  732SOL     OW 3094   6.487   2.610   1.256
  732SOL    HW1 3095   6.461   2.701   1.288
  732SOL    HW2 3096   6.539   2.562   1.327
  733SOL     OW 3097   4.800   4.061   3.920
  733SOL    HW1 3098   4.781   4.048   3.823
  733SOL    HW2 3099   4.811   3.972   3.965
  734SOL     OW 3100   6.433   4.573   1.096
  734SOL    HW1 3101   6.487   4.500   1.053
  734SOL    HW2 3102   6.472   4.595   1.185
  735SOL     OW 3103   1.786   4.256   6.251
  735SOL    HW1 3104   1.825   4.284   6.163
  735SOL    HW2 3105   1.762   4.159   6.248
  736SOL     OW 3106   6.852   0.812   3.455
  736SOL    HW1 3107   6.816   0.901   3.426
  736SOL    HW2 3108   6.870   0.813   3.553
  737SOL     OW 3109   5.529   3.281   0.670
  737SOL    HW1 3110   5.586   3.199   0.664
  737SOL    HW2 3111   5.460   3.280   0.598
  738SOL     OW 3112   0.525   3.793   3.637
  738SOL    HW1 3113   0.606   3.820   3.690
  738SOL    HW2 3114   0.457   3.752   3.698
  739SOL     OW 3115   4.216   6.269   5.800
  739SOL    HW1 3116   4.208   6.291   5.897
  739SOL    HW2 3117   4.156   6.330   5.748
  740SOL     OW 3118   6.396   6.691   1.502
  740SOL    HW1 3119   6.420   6.608   1.453
  740SOL    HW2 3120   6.310   6.727   1.466
  741SOL     OW 3121   2.286   6.695   2.903
  741SOL    HW1 3122   2.195   6.717   2.939
  741SOL    HW2 3123   2.328   6.778   2.866
  742SOL     OW 3124   1.732   0.106   3.428
  742SOL    HW1 3125   1.826   0.138   3.440
  742SOL    HW2 3126   1.682   0.171   3.370
  743SOL     OW 3127   1.811   3.835   4.467
  743SOL    HW1 3128   1.850   3.837   4.559
  743SOL    HW2 3129   1.870   3.888   4.405
  744SOL     OW 3130   0.251   5.433   0.454
  744SOL    HW1 3131   0.250   5.507   0.521
  744SOL    HW2 3132   0.291   5.352   0.495
  745SOL     OW 3133   1.548   5.955   2.498
  745SOL    HW1 3134   1.521   5.862   2.473
  745SOL    HW2 3135   1.482   5.994   2.562
  746SOL     OW 3136   1.495   0.691   4.971
  746SOL    HW1 3137   1.447   0.615   4.927
  746SOL    HW2 3138   1.443   0.723   5.050
  747SOL     OW 3139   4.490   4.616   3.600
  747SOL    HW1 3140   4.549   4.636   3.678
  747SOL    HW2 3141   4.543   4.625   3.515
  748SOL     OW 3142   4.836   3.697   1.067
  748SOL    HW1 3143   4.843   3.651   1.156
  748SOL    HW2 3144   4.745   3.737   1.057
  749SOL     OW 3145   0.746   2.366   5.278
  749SOL    HW1 3146   0.844   2.351   5.275
  749SOL    HW2 3147   0.714   2.397   5.188
  750SOL     OW 3148   2.308   4.202   0.012
  750SOL    HW1 3149   2.211   4.210   7.014
  750SOL    HW2 3150   2.364   4.219   6.956
  751SOL     OW 3151   4.263   0.743   0.035
  751SOL    HW1 3152   4.249   0.834   7.022
  751SOL    HW2 3153   4.174   0.699   0.049
  752SOL     OW 3154   4.469   2.614   1.663
  752SOL    HW1 3155   4.431   2.574   1.579
  752SOL    HW2 3156   4.513   2.543   1.717
  753SOL     OW 3157   2.309   2.861   4.730
  753SOL    HW1 3158   2.257   2.941   4.698
  753SOL    HW2 3159   2.335   2.874   4.825
  754SOL     OW 3160   3.893   5.133   6.645
  754SOL    HW1 3161   3.829   5.085   6.585
  754SOL    HW2 3162   3.874   5.108   6.740
  755SOL     OW 3163   0.279   6.234   0.297
  755SOL    HW1 3164   0.263   6.273   0.207
  755SOL    HW2 3165   0.344   6.158   0.290
  756SOL     OW 3166   4.792   0.822   1.648
  756SOL    HW1 3167   4.760   0.738   1.690
  756SOL    HW2 3168   4.728   0.851   1.577
  757SOL     OW 3169   0.539   6.552   3.663
  757SOL    HW1 3170   0.466   6.489   3.635
  757SOL    HW2 3171   0.620   6.535   3.607
  758SOL     OW 3172   3.608   2.010   1.283
  758SOL    HW1 3173   3.664   2.000   1.200
  758SOL    HW2 3174   3.521   1.963   1.270
  759SOL     OW 3175   1.217   2.122   0.385
  759SOL    HW1 3176   1.222   2.038   0.439
  759SOL    HW2 3177   1.138   2.176   0.414
  760SOL     OW 3178   5.072   1.114   6.744
  760SOL    HW1 3179   4.988   1.156   6.779
  760SOL    HW2 3180   5.051   1.022   6.708
  761SOL     OW 3181   6.109   2.434   0.184
  761SOL    HW1 3182   6.129   2.357   0.124
  761SOL    HW2 3183   6.081   2.400   0.274
  762SOL     OW 3184   2.359   6.262   3.941
  762SOL    HW1 3185   2.407   6.318   3.874
  762SOL    HW2 3186   2.387   6.166   3.931
  763SOL     OW 3187   4.080   6.214   6.736
  763SOL    HW1 3188   4.024   6.197   6.655
  763SOL    HW2 3189   4.177   6.218   6.710
  764SOL     OW 3190   3.336   1.942   1.918
  764SOL    HW1 3191   3.408   1.995   1.873
  764SOL    HW2 3192   3.370   1.851   1.939
  765SOL     OW 3193   6.737   6.960   2.875
  765SOL    HW1 3194   6.796   6.986   2.950
  765SOL    HW2 3195   6.779   6.886   2.823
  766SOL     OW 3196   7.023   6.622   0.069
  766SOL    HW1 3197   6.989   6.543   0.121
  766SOL    HW2 3198   6.964   6.701   0.086
  767SOL     OW 3199   6.463   6.716   2.612
  767SOL    HW1 3200   6.482   6.814   2.620
  767SOL    HW2 3201   6.538   6.671   2.563
  768SOL     OW 3202   2.651   6.520   2.804
  768SOL    HW1 3203   2.665   6.441   2.745
  768SOL    HW2 3204   2.738   6.567   2.819
  769SOL     OW 3205   4.429   0.295   5.390
  769SOL    HW1 3206   4.456   0.205   5.425
  769SOL    HW2 3207   4.507   0.337   5.343
  770SOL     OW 3208   2.823   4.947   4.083
  770SOL    HW1 3209   2.738   4.985   4.119
  770SOL    HW2 3210   2.885   4.926   4.159
  771SOL     OW 3211   0.923   5.101   3.521
  771SOL    HW1 3212   0.965   5.186   3.554
  771SOL    HW2 3213   0.886   5.051   3.599
  772SOL     OW 3214   6.831   3.894   6.992
  772SOL    HW1 3215   6.758   3.872   6.927
  772SOL    HW2 3216   6.911   3.927   6.942
  773SOL     OW 3217   6.337   3.773   2.266
  773SOL    HW1 3218   6.409   3.840   2.278
  773SOL    HW2 3219   6.377   3.682   2.252
  774SOL     OW 3220   1.327   1.438   1.493
  774SOL    HW1 3221   1.326   1.438   1.593
  774SOL    HW2 3222   1.420   1.422   1.461
  775SOL     OW 3223   1.517   1.878   4.385
  775SOL    HW1 3224   1.519   1.778   4.386
  775SOL    HW2 3225   1.528   1.913   4.477
  776SOL     OW 3226   2.375   0.657   6.395
  776SOL    HW1 3227   2.286   0.611   6.407
  776SOL    HW2 3228   2.410   0.638   6.303
  777SOL     OW 3229   4.326   1.148   0.864
  777SOL    HW1 3230   4.342   1.119   0.958
  777SOL    HW2 3231   4.362   1.240   0.851
  778SOL     OW 3232   4.413   0.402   3.916
  778SOL    HW1 3233   4.321   0.389   3.953
  778SOL    HW2 3234   4.474   0.434   3.988
  779SOL     OW 3235   0.297   2.252   2.191
  779SOL    HW1 3236   0.375   2.315   2.195
  779SOL    HW2 3237   0.264   2.246   2.096
  780SOL     OW 3238   6.004   3.429   4.592
  780SOL    HW1 3239   5.917   3.399   4.554
  780SOL    HW2 3240   6.011   3.399   4.687
  781SOL     OW 3241   6.814   1.022   6.414
  781SOL    HW1 3242   6.799   0.949   6.347
  781SOL    HW2 3243   6.727   1.063   6.440
  782SOL     OW 3244   0.370   2.729   0.814
  782SOL    HW1 3245   0.303   2.673   0.863
  782SOL    HW2 3246   0.350   2.826   0.829
  783SOL     OW 3247   3.302   4.917   0.320
  783SOL    HW1 3248   3.252   4.843   0.275
  783SOL    HW2 3249   3.247   5.000   0.320
  784SOL     OW 3250   3.896   0.721   5.037
  784SOL    HW1 3251   3.907   0.655   5.111
  784SOL    HW2 3252   3.862   0.673   4.955
  785SOL     OW 3253   6.057   1.430   3.471
  785SOL    HW1 3254   6.082   1.475   3.557
  785SOL    HW2 3255   5.983   1.365   3.488
  786SOL     OW 3256   6.906   6.646   0.523
  786SOL    HW1 3257   6.990   6.613   0.480
  786SOL    HW2 3258   6.828   6.625   0.464
  787SOL     OW 3259   2.673   2.069   6.449
  787SOL    HW1 3260   2.637   2.131   6.519
  787SOL    HW2 3261   2.616   2.074   6.367
  788SOL     OW 3262   1.744   3.512   4.201
  788SOL    HW1 3263   1.714   3.537   4.293
  788SOL    HW2 3264   1.670   3.463   4.155
  789SOL     OW 3265   5.288   3.798   1.663
  789SOL    HW1 3266   5.206   3.776   1.716
  789SOL    HW2 3267   5.320   3.715   1.617
  790SOL     OW 3268   2.784   1.069   3.669
  790SOL    HW1 3269   2.831   0.982   3.657
  790SOL    HW2 3270   2.786   1.120   3.582
  791SOL     OW 3271   3.378   1.205   4.716
  791SOL    HW1 3272   3.443   1.225   4.790
  791SOL    HW2 3273   3.423   1.152   4.645
  792SOL     OW 3274   5.873   7.014   2.816
  792SOL    HW1 3275   5.776   6.988   2.810
  792SOL    HW2 3276   5.928   6.951   2.761
  793SOL     OW 3277   5.229   0.235   0.497
  793SOL    HW1 3278   5.149   0.293   0.506
  793SOL    HW2 3279   5.308   0.279   0.540
  794SOL     OW 3280   2.272   5.045   5.659
  794SOL    HW1 3281   2.343   5.033   5.589
  794SOL    HW2 3282   2.307   5.103   5.732
  795SOL     OW 3283   4.598   4.615   6.012
  795SOL    HW1 3284   4.510   4.585   5.977
  795SOL    HW2 3285   4.589   4.644   6.107
  796SOL     OW 3286   6.936   2.655   6.392
  796SOL    HW1 3287   6.856   2.672   6.335
  796SOL    HW2 3288   6.961   2.558   6.387
  797SOL     OW 3289   6.046   2.844   4.247
  797SOL    HW1 3290   5.991   2.838   4.163
  797SOL    HW2 3291   6.120   2.910   4.234
  798SOL     OW 3292   5.249   0.852   6.742
  798SOL    HW1 3293   5.216   0.881   6.652
  798SOL    HW2 3294   5.212   0.763   6.764
  799SOL     OW 3295   6.532   2.071   3.379
  799SOL    HW1 3296   6.558   2.004   3.447
  799SOL    HW2 3297   6.478   2.143   3.422
  800SOL     OW 3298   5.551   0.953   2.386
  800SOL    HW1 3299   5.590   1.044   2.371
  800SOL    HW2 3300   5.468   0.961   2.440
  801SOL     OW 3301   0.042   2.125   3.253
  801SOL    HW1 3302   7.013   2.109   3.336
  801SOL    HW2 3303   0.071   2.220   3.250
  802SOL     OW 3304   5.548   1.326   0.254
  802SOL    HW1 3305   5.492   1.407   0.270
  802SOL    HW2 3306   5.640   1.340   0.292
  803SOL     OW 3307   6.325   5.597   4.174
  803SOL    HW1 3308   6.410   5.547   4.188
  803SOL    HW2 3309   6.327   5.681   4.228
  804SOL     OW 3310   0.854   6.688   0.006
  804SOL    HW1 3311   0.786   6.643   6.974
  804SOL    HW2 3312   0.819   6.696   0.099
  805SOL     OW 3313   3.038   2.804   6.016
  805SOL    HW1 3314   3.074   2.895   6.035
  805SOL    HW2 3315   3.039   2.749   6.100
  806SOL     OW 3316   5.002   1.743   6.983
  806SOL    HW1 3317   4.935   1.678   6.947
  806SOL    HW2 3318   5.045   1.704   0.039
  807SOL     OW 3319   1.159   0.655   3.110
  807SOL    HW1 3320   1.090   0.624   3.044
  807SOL    HW2 3321   1.119   0.727   3.168
  808SOL     OW 3322   5.718   3.372   6.012
  808SOL    HW1 3323   5.733   3.471   6.010
  808SOL    HW2 3324   5.628   3.351   5.976
  809SOL     OW 3325   0.680   4.408   0.219
  809SOL    HW1 3326   0.675   4.501   0.256
  809SOL    HW2 3327   0.775   4.381   0.209
  810SOL     OW 3328   5.631   3.803   0.201
  810SOL    HW1 3329   5.671   3.749   0.274
  810SOL    HW2 3330   5.603   3.743   0.126
  811SOL     OW 3331   5.148   4.995   3.967
  811SOL    HW1 3332   5.113   4.983   4.059
  811SOL    HW2 3333   5.073   5.015   3.904
  812SOL     OW 3334   0.402   0.022   1.339
  812SOL    HW1 3335   0.372   0.038   1.433
  812SOL    HW2 3336   0.342   6.981   1.296
  813SOL     OW 3337   4.809   5.426   2.460
  813SOL    HW1 3338   4.710   5.435   2.450
  813SOL    HW2 3339   4.829   5.362   2.534
  814SOL     OW 3340   6.387   6.243   2.317
  814SOL    HW1 3341   6.299   6.197   2.306
  814SOL    HW2 3342   6.409   6.294   2.233
  815SOL     OW 3343   6.612   2.277   0.990
  815SOL    HW1 3344   6.598   2.371   1.022
  815SOL    HW2 3345   6.682   2.276   0.919
  816SOL     OW 3346   6.467   6.105   1.364
  816SOL    HW1 3347   6.422   6.145   1.444
  816SOL    HW2 3348   6.398   6.077   1.297
  817SOL     OW 3349   1.895   3.426   2.303
  817SOL    HW1 3350   1.935   3.420   2.212
  817SOL    HW2 3351   1.876   3.522   2.324
  818SOL     OW 3352   6.123   1.449   0.890
  818SOL    HW1 3353   6.141   1.456   0.792
  818SOL    HW2 3354   6.032   1.484   0.910
  819SOL     OW 3355   0.004   2.613   3.178
  819SOL    HW1 3356   7.003   2.691   3.235
  819SOL    HW2 3357   6.947   2.567   3.144
  820SOL     OW 3358   1.214   2.488   4.595
  820SOL    HW1 3359   1.173   2.579   4.599
  820SOL    HW2 3360   1.146   2.420   4.623
  821SOL     OW 3361   1.449   3.744   6.885
  821SOL    HW1 3362   1.456   3.690   6.969
  821SOL    HW2 3363   1.354   3.749   6.856
  822SOL     OW 3364   1.380   3.949   4.414
  822SOL    HW1 3365   1.449   3.905   4.358
  822SOL    HW2 3366   1.375   4.046   4.391
  823SOL     OW 3367   4.368   4.248   7.012
  823SOL    HW1 3368   4.336   4.297   0.067
  823SOL    HW2 3369   4.395   4.155   0.013
  824SOL     OW 3370   5.256   2.604   5.217
  824SOL    HW1 3371   5.309   2.634   5.137
  824SOL    HW2 3372   5.158   2.605   5.195
  825SOL     OW 3373   2.176   3.172   2.646
  825SOL    HW1 3374   2.162   3.103   2.717
  825SOL    HW2 3375   2.175   3.263   2.687
  826SOL     OW 3376   6.476   3.199   6.375
  826SOL    HW1 3377   6.554   3.177   6.317
  826SOL    HW2 3378   6.500   3.277   6.434
  827SOL     OW 3379   3.520   5.512   0.198
  827SOL    HW1 3380   3.598   5.554   0.243
  827SOL    HW2 3381   3.523   5.531   0.100
  828SOL     OW 3382   5.718   0.797   5.615
  828SOL    HW1 3383   5.715   0.877   5.556
  828SOL    HW2 3384   5.729   0.714   5.559
  829SOL     OW 3385   3.128   3.151   4.507
  829SOL    HW1 3386   3.062   3.160   4.581
  829SOL    HW2 3387   3.217   3.124   4.545
  830SOL     OW 3388   4.671   4.068   5.211
  830SOL    HW1 3389   4.620   4.024   5.285
  830SOL    HW2 3390   4.679   4.166   5.230
  831SOL     OW 3391   6.635   0.650   5.482
  831SOL    HW1 3392   6.690   0.706   5.421
  831SOL    HW2 3393   6.651   0.679   5.577
  832SOL     OW 3394   2.141   2.167   6.475
  832SOL    HW1 3395   2.109   2.077   6.504
  832SOL    HW2 3396   2.210   2.157   6.403
  833SOL     OW 3397   6.066   6.869   6.600
  833SOL    HW1 3398   5.982   6.921   6.592
  833SOL    HW2 3399   6.051   6.775   6.568
  834SOL     OW 3400   3.012   3.982   4.513
  834SOL    HW1 3401   3.100   4.029   4.511
  834SOL    HW2 3402   2.951   4.026   4.578
  835SOL     OW 3403   3.640   7.001   3.732
  835SOL    HW1 3404   3.568   7.024   3.667
  835SOL    HW2 3405   3.608   6.926   3.791
  836SOL     OW 3406   3.253   0.607   0.256
  836SOL    HW1 3407   3.350   0.586   0.242
  836SOL    HW2 3408   3.243   0.700   0.291
  837SOL     OW 3409   4.903   0.776   5.527
  837SOL    HW1 3410   4.815   0.824   5.530
  837SOL    HW2 3411   4.899   0.703   5.460
  838SOL     OW 3412   1.997   5.752   3.843
  838SOL    HW1 3413   1.899   5.748   3.822
  838SOL    HW2 3414   2.013   5.714   3.934
  839SOL     OW 3415   3.116   1.669   3.407
  839SOL    HW1 3416   3.054   1.590   3.403
  839SOL    HW2 3417   3.124   1.699   3.502
  840SOL     OW 3418   1.084   1.253   6.696
  840SOL    HW1 3419   1.104   1.178   6.759
  840SOL    HW2 3420   1.025   1.320   6.741
  841SOL     OW 3421   6.969   3.365   6.973
  841SOL    HW1 3422   6.915   3.415   0.016
  841SOL    HW2 3423   0.008   3.304   7.019
  842SOL     OW 3424   3.787   4.862   3.167
  842SOL    HW1 3425   3.860   4.793   3.166
  842SOL    HW2 3426   3.764   4.887   3.073
  843SOL     OW 3427   6.431   2.313   2.058
  843SOL    HW1 3428   6.468   2.384   2.119
  843SOL    HW2 3429   6.347   2.275   2.098
  844SOL     OW 3430   4.650   5.903   0.830
  844SOL    HW1 3431   4.557   5.889   0.797
  844SOL    HW2 3432   4.663   5.854   0.916
  845SOL     OW 3433   0.173   4.306   4.431
  845SOL    HW1 3434   0.201   4.301   4.527
  845SOL    HW2 3435   0.092   4.363   4.422
  846SOL     OW 3436   6.439   1.728   6.958
  846SOL    HW1 3437   6.515   1.779   6.998
  846SOL    HW2 3438   6.471   1.638   6.929
  847SOL     OW 3439   5.174   3.329   2.118
  847SOL    HW1 3440   5.196   3.334   2.021
  847SOL    HW2 3441   5.093   3.385   2.136
  848SOL     OW 3442   5.972   0.231   6.190
  848SOL    HW1 3443   5.907   0.199   6.120
  848SOL    HW2 3444   6.059   0.252   6.147
  849SOL     OW 3445   0.467   5.014   4.751
  849SOL    HW1 3446   0.545   4.985   4.696
  849SOL    HW2 3447   0.490   5.098   4.799
  850SOL     OW 3448   4.425   0.995   2.867
  850SOL    HW1 3449   4.397   0.932   2.795
  850SOL    HW2 3450   4.369   1.077   2.863
  851SOL     OW 3451   0.914   0.928   6.738
  851SOL    HW1 3452   0.965   1.002   6.781
  851SOL    HW2 3453   0.874   0.961   6.652
  852SOL     OW 3454   2.455   3.577   6.403
  852SOL    HW1 3455   2.529   3.510   6.402
  852SOL    HW2 3456   2.375   3.537   6.448
  853SOL     OW 3457   0.910   3.093   1.389
  853SOL    HW1 3458   0.930   3.157   1.315
  853SOL    HW2 3459   0.820   3.053   1.375
  854SOL     OW 3460   5.179   5.388   2.420
  854SOL    HW1 3461   5.253   5.456   2.414
  854SOL    HW2 3462   5.097   5.424   2.376
  855SOL     OW 3463   5.322   6.732   1.730
  855SOL    HW1 3464   5.407   6.766   1.689
  855SOL    HW2 3465   5.301   6.642   1.692
  856SOL     OW 3466   2.344   6.208   5.060
  856SOL    HW1 3467   2.322   6.301   5.092
  856SOL    HW2 3468   2.262   6.165   5.023
  857SOL     OW 3469   5.913   3.372   1.272
  857SOL    HW1 3470   5.954   3.328   1.192
  857SOL    HW2 3471   5.816   3.346   1.277
  858SOL     OW 3472   2.960   4.984   1.185
  858SOL    HW1 3473   2.873   4.965   1.232
  858SOL    HW2 3474   2.942   4.998   1.088
  859SOL     OW 3475   6.794   5.083   0.362
  859SOL    HW1 3476   6.886   5.049   0.378
  859SOL    HW2 3477   6.798   5.178   0.332
  860SOL     OW 3478   2.139   4.884   1.072
  860SOL    HW1 3479   2.122   4.786   1.086
  860SOL    HW2 3480   2.053   4.929   1.046
  861SOL     OW 3481   3.412   5.633   5.471
  861SOL    HW1 3482   3.463   5.552   5.499
  861SOL    HW2 3483   3.460   5.678   5.396
  862SOL     OW 3484   4.730   4.234   4.267
  862SOL    HW1 3485   4.733   4.187   4.355
  862SOL    HW2 3486   4.782   4.182   4.199
  863SOL     OW 3487   6.822   0.647   1.183
  863SOL    HW1 3488   6.810   0.548   1.182
  863SOL    HW2 3489   6.739   0.690   1.219
  864SOL     OW 3490   6.184   4.416   2.578
  864SOL    HW1 3491   6.107   4.470   2.544
  864SOL    HW2 3492   6.198   4.336   2.519
  865SOL     OW 3493   1.831   6.570   4.188
  865SOL    HW1 3494   1.883   6.532   4.264
  865SOL    HW2 3495   1.745   6.519   4.177
  866SOL     OW 3496   3.361   1.826   2.279
  866SOL    HW1 3497   3.405   1.899   2.227
  866SOL    HW2 3498   3.300   1.865   2.347
  867SOL     OW 3499   2.689   3.403   6.385
  867SOL    HW1 3500   2.665   3.350   6.304
  867SOL    HW2 3501   2.655   3.357   6.467
  868SOL     OW 3502   5.183   1.673   3.155
  868SOL    HW1 3503   5.255   1.737   3.182
  868SOL    HW2 3504   5.106   1.680   3.219
  869SOL     OW 3505   6.305   6.329   2.566
  869SOL    HW1 3506   6.330   6.254   2.627
  869SOL    HW2 3507   6.332   6.306   2.472
  870SOL     OW 3508   6.614   1.060   1.182
  870SOL    HW1 3509   6.624   1.068   1.281
  870SOL    HW2 3510   6.517   1.060   1.158
  871SOL     OW 3511   5.844   2.510   1.221
  871SOL    HW1 3512   5.834   2.599   1.265
  871SOL    HW2 3513   5.866   2.523   1.125
  872SOL     OW 3514   6.417   2.208   3.869
  872SOL    HW1 3515   6.403   2.249   3.779
  872SOL    HW2 3516   6.509   2.170   3.874
  873SOL     OW 3517   3.752   6.575   4.667
  873SOL    HW1 3518   3.695   6.538   4.740
  873SOL    HW2 3519   3.698   6.642   4.615
  874SOL     OW 3520   1.145   3.570   5.230
  874SOL    HW1 3521   1.065   3.515   5.206
  874SOL    HW2 3522   1.205   3.518   5.291
  875SOL     OW 3523   6.075   4.010   0.188
  875SOL    HW1 3524   6.023   3.927   0.169
  875SOL    HW2 3525   6.020   4.070   0.247
  876SOL     OW 3526   0.069   3.277   1.864
  876SOL    HW1 3527   0.157   3.256   1.822
  876SOL    HW2 3528   7.024   3.279   1.794
  877SOL     OW 3529   5.298   5.920   0.040
  877SOL    HW1 3530   5.314   5.834   0.089
  877SOL    HW2 3531   5.275   5.992   0.106
  878SOL     OW 3532   2.663   4.842   0.632
  878SOL    HW1 3533   2.692   4.811   0.723
  878SOL    HW2 3534   2.612   4.927   0.640
  879SOL     OW 3535   4.524   2.367   2.511
  879SOL    HW1 3536   4.559   2.458   2.535
  879SOL    HW2 3537   4.465   2.375   2.431
  880SOL     OW 3538   4.042   5.451   0.276
  880SOL    HW1 3539   4.124   5.499   0.245
  880SOL    HW2 3540   3.962   5.508   0.259
  881SOL     OW 3541   3.833   4.972   4.735
  881SOL    HW1 3542   3.871   4.898   4.679
  881SOL    HW2 3543   3.733   4.963   4.738
  882SOL     OW 3544   0.937   1.365   4.396
  882SOL    HW1 3545   0.958   1.463   4.406
  882SOL    HW2 3546   0.924   1.325   4.486
  883SOL     OW 3547   2.833   5.659   6.105
  883SOL    HW1 3548   2.804   5.665   6.009
  883SOL    HW2 3549   2.892   5.579   6.117
  884SOL     OW 3550   5.045   3.144   1.670
  884SOL    HW1 3551   4.980   3.107   1.604
  884SOL    HW2 3552   5.015   3.123   1.763
  885SOL     OW 3553   5.412   6.325   0.445
  885SOL    HW1 3554   5.344   6.392   0.417
  885SOL    HW2 3555   5.432   6.337   0.543
  886SOL     OW 3556   4.228   1.959   6.167
  886SOL    HW1 3557   4.272   2.011   6.093
  886SOL    HW2 3558   4.282   1.969   6.251
  887SOL     OW 3559   3.857   0.156   5.896
  887SOL    HW1 3560   3.867   0.082   5.831
  887SOL    HW2 3561   3.930   0.223   5.882
  888SOL     OW 3562   6.545   6.223   3.083
  888SOL    HW1 3563   6.486   6.218   3.163
  888SOL    HW2 3564   6.640   6.237   3.112
  889SOL     OW 3565   0.433   6.809   4.963
  889SOL    HW1 3566   0.510   6.829   5.024
  889SOL    HW2 3567   0.406   6.893   4.915
  890SOL     OW 3568   2.681   4.624   2.247
  890SOL    HW1 3569   2.583   4.607   2.257
  890SOL    HW2 3570   2.714   4.582   2.163
  891SOL     OW 3571   5.557   3.281   6.779
  891SOL    HW1 3572   5.485   3.303   6.845
  891SOL    HW2 3573   5.527   3.308   6.687
  892SOL     OW 3574   2.585   4.618   1.297
  892SOL    HW1 3575   2.566   4.526   1.331
  892SOL    HW2 3576   2.590   4.682   1.373
  893SOL     OW 3577   1.323   0.233   0.000
  893SOL    HW1 3578   1.416   0.245   0.035
  893SOL    HW2 3579   1.303   0.135   7.019
  894SOL     OW 3580   1.167   5.673   3.973
  894SOL    HW1 3581   1.215   5.675   4.061
  894SOL    HW2 3582   1.118   5.759   3.960
  895SOL     OW 3583   2.652   6.660   4.944
  895SOL    HW1 3584   2.623   6.605   5.022
  895SOL    HW2 3585   2.595   6.638   4.865
  896SOL     OW 3586   5.630   6.873   2.535
  896SOL    HW1 3587   5.600   6.778   2.534
  896SOL    HW2 3588   5.632   6.910   2.442
  897SOL     OW 3589   5.302   1.956   6.003
  897SOL    HW1 3590   5.222   1.977   6.060
  897SOL    HW2 3591   5.272   1.939   5.909
  898SOL     OW 3592   5.855   6.383   3.639
  898SOL    HW1 3593   5.847   6.482   3.656
  898SOL    HW2 3594   5.929   6.346   3.695
  899SOL     OW 3595   0.373   4.659   5.648
  899SOL    HW1 3596   0.413   4.731   5.706
  899SOL    HW2 3597   0.297   4.616   5.696
  900SOL     OW 3598   0.808   6.035   3.136
  900SOL    HW1 3599   0.768   5.976   3.067
  900SOL    HW2 3600   0.843   5.979   3.212
  901SOL     OW 3601   6.028   1.315   3.883
  901SOL    HW1 3602   6.009   1.343   3.977
  901SOL    HW2 3603   5.972   1.235   3.861
  902SOL     OW 3604   6.696   6.246   0.256
  902SOL    HW1 3605   6.685   6.213   0.350
  902SOL    HW2 3606   6.711   6.169   0.195
  903SOL     OW 3607   1.414   5.048   0.203
  903SOL    HW1 3608   1.468   5.128   0.175
  903SOL    HW2 3609   1.402   4.987   0.125
  904SOL     OW 3610   1.936   1.514   3.578
  904SOL    HW1 3611   1.872   1.522   3.501
  904SOL    HW2 3612   2.017   1.464   3.549
  905SOL     OW 3613   5.666   2.402   5.098
  905SOL    HW1 3614   5.633   2.459   5.022
  905SOL    HW2 3615   5.740   2.449   5.145
  906SOL     OW 3616   6.360   3.373   5.886
  906SOL    HW1 3617   6.278   3.367   5.942
  906SOL    HW2 3618   6.430   3.426   5.936
  907SOL     OW 3619   6.354   2.410   2.900
  907SOL    HW1 3620   6.407   2.473   2.844
  907SOL    HW2 3621   6.416   2.342   2.940
  908SOL     OW 3622   1.878   0.962   4.069
  908SOL    HW1 3623   1.824   0.886   4.034
  908SOL    HW2 3624   1.880   0.958   4.169
  909SOL     OW 3625   3.528   1.192   1.984
  909SOL    HW1 3626   3.483   1.149   1.906
  909SOL    HW2 3627   3.602   1.251   1.952
  910SOL     OW 3628   2.412   2.223   1.019
  910SOL    HW1 3629   2.375   2.294   1.078
  910SOL    HW2 3630   2.393   2.246   0.923
  911SOL     OW 3631   0.292   4.479   0.970
  911SOL    HW1 3632   0.250   4.468   1.060
  911SOL    HW2 3633   0.362   4.550   0.974
  912SOL     OW 3634   1.127   0.337   5.694
  912SOL    HW1 3635   1.092   0.294   5.777
  912SOL    HW2 3636   1.075   0.420   5.675
  913SOL     OW 3637   2.869   0.837   2.234
  913SOL    HW1 3638   2.814   0.873   2.309
  913SOL    HW2 3639   2.867   0.900   2.156
  914SOL     OW 3640   2.967   6.351   2.857
  914SOL    HW1 3641   2.943   6.439   2.816
  914SOL    HW2 3642   3.050   6.316   2.814
  915SOL     OW 3643   0.618   2.917   0.478
  915SOL    HW1 3644   0.687   2.965   0.532
  915SOL    HW2 3645   0.554   2.984   0.440
  916SOL     OW 3646   2.187   2.963   2.817
  916SOL    HW1 3647   2.210   2.968   2.914
  916SOL    HW2 3648   2.232   2.883   2.776
  917SOL     OW 3649   4.141   1.852   0.122
  917SOL    HW1 3650   4.158   1.945   0.152
  917SOL    HW2 3651   4.044   1.841   0.099
  918SOL     OW 3652   1.642   0.402   6.408
  918SOL    HW1 3653   1.677   0.490   6.376
  918SOL    HW2 3654   1.618   0.345   6.330
  919SOL     OW 3655   2.830   6.014   2.763
  919SOL    HW1 3656   2.856   6.106   2.793
  919SOL    HW2 3657   2.736   5.995   2.792
  920SOL     OW 3658   2.488   0.661   3.729
  920SOL    HW1 3659   2.551   0.692   3.800
  920SOL    HW2 3660   2.515   0.700   3.641
  921SOL     OW 3661   5.684   4.925   5.231
  921SOL    HW1 3662   5.673   4.856   5.159
  921SOL    HW2 3663   5.704   5.014   5.189
  922SOL     OW 3664   2.854   3.899   7.008
  922SOL    HW1 3665   2.929   3.920   0.045
  922SOL    HW2 3666   2.860   3.958   6.927
  923SOL     OW 3667   3.815   0.086   6.505
  923SOL    HW1 3668   3.791   0.073   6.408
  923SOL    HW2 3669   3.828   0.183   6.524
  924SOL     OW 3670   5.706   3.239   3.427
  924SOL    HW1 3671   5.674   3.332   3.406
  924SOL    HW2 3672   5.776   3.212   3.360
  925SOL     OW 3673   6.463   1.568   3.521
  925SOL    HW1 3674   6.455   1.471   3.544
  925SOL    HW2 3675   6.381   1.597   3.472
  926SOL     OW 3676   5.297   5.875   1.028
  926SOL    HW1 3677   5.238   5.826   1.092
  926SOL    HW2 3678   5.251   5.959   0.997
  927SOL     OW 3679   3.949   4.930   5.257
  927SOL    HW1 3680   3.946   4.943   5.158
  927SOL    HW2 3681   3.871   4.875   5.287
  928SOL     OW 3682   1.013   1.565   1.194
  928SOL    HW1 3683   1.104   1.601   1.175
  928SOL    HW2 3684   0.955   1.638   1.230
  929SOL     OW 3685   0.145   2.191   2.418
  929SOL    HW1 3686   0.216   2.191   2.488
  929SOL    HW2 3687   0.182   2.229   2.333
  930SOL     OW 3688   5.185   5.962   4.245
  930SOL    HW1 3689   5.101   6.014   4.262
  930SOL    HW2 3690   5.168   5.895   4.173
  931SOL     OW 3691   1.824   2.618   2.489
  931SOL    HW1 3692   1.845   2.685   2.418
  931SOL    HW2 3693   1.898   2.615   2.555
  932SOL     OW 3694   4.721   6.529   0.849
  932SOL    HW1 3695   4.722   6.627   0.868
  932SOL    HW2 3696   4.807   6.502   0.807
  933SOL     OW 3697   1.812   5.909   2.762
  933SOL    HW1 3698   1.747   5.944   2.694
  933SOL    HW2 3699   1.896   5.880   2.716
  934SOL     OW 3700   3.180   0.680   5.527
  934SOL    HW1 3701   3.244   0.756   5.540
  934SOL    HW2 3702   3.171   0.628   5.612
  935SOL     OW 3703   3.388   3.525   6.207
  935SOL    HW1 3704   3.368   3.515   6.305
  935SOL    HW2 3705   3.464   3.588   6.195
  936SOL     OW 3706   0.883   1.781   1.326
  936SOL    HW1 3707   0.912   1.742   1.414
  936SOL    HW2 3708   0.795   1.740   1.300
  937SOL     OW 3709   4.847   2.338   4.410
  937SOL    HW1 3710   4.932   2.384   4.435
  937SOL    HW2 3711   4.769   2.393   4.438
  938SOL     OW 3712   0.378   2.454   6.636
  938SOL    HW1 3713   0.325   2.538   6.627
  938SOL    HW2 3714   0.346   2.402   6.715
  939SOL     OW 3715   5.927   0.980   5.783
  939SOL    HW1 3716   5.885   0.938   5.863
  939SOL    HW2 3717   5.877   1.063   5.759
  940SOL     OW 3718   6.852   1.033   4.176
  940SOL    HW1 3719   6.902   0.947   4.177
  940SOL    HW2 3720   6.900   1.101   4.231
  941SOL     OW 3721   5.619   2.765   4.638
  941SOL    HW1 3722   5.703   2.732   4.595
  941SOL    HW2 3723   5.540   2.723   4.593
  942SOL     OW 3724   5.770   6.346   5.199
  942SOL    HW1 3725   5.777   6.407   5.120
  942SOL    HW2 3726   5.839   6.274   5.192
  943SOL     OW 3727   5.653   2.035   1.139
  943SOL    HW1 3728   5.719   1.961   1.126
  943SOL    HW2 3729   5.564   2.006   1.104
  944SOL     OW 3730   5.668   4.544   4.277
  944SOL    HW1 3731   5.615   4.460   4.284
  944SOL    HW2 3732   5.763   4.527   4.304
  945SOL     OW 3733   5.272   4.134   4.647
  945SOL    HW1 3734   5.353   4.189   4.627
  945SOL    HW2 3735   5.191   4.178   4.607
  946SOL     OW 3736   5.475   2.307   5.485
  946SOL    HW1 3737   5.564   2.348   5.467
  946SOL    HW2 3738   5.477   2.210   5.459
  947SOL     OW 3739   2.028   2.576   5.476
  947SOL    HW1 3740   2.015   2.504   5.408
  947SOL    HW2 3741   2.090   2.543   5.548
  948SOL     OW 3742   3.581   1.937   0.805
  948SOL    HW1 3743   3.603   1.840   0.803
  948SOL    HW2 3744   3.485   1.948   0.833
  949SOL     OW 3745   5.671   5.788   6.325
  949SOL    HW1 3746   5.712   5.708   6.368
  949SOL    HW2 3747   5.586   5.812   6.373
  950SOL     OW 3748   4.466   4.977   1.657
  950SOL    HW1 3749   4.412   5.015   1.732
  950SOL    HW2 3750   4.560   5.009   1.664
  951SOL     OW 3751   0.639   2.255   3.024
  951SOL    HW1 3752   0.696   2.322   2.978
  951SOL    HW2 3753   0.550   2.296   3.046
  952SOL     OW 3754   4.763   1.901   2.371
  952SOL    HW1 3755   4.801   1.858   2.453
  952SOL    HW2 3756   4.732   1.994   2.393
  953SOL     OW 3757   4.151   6.964   0.018
  953SOL    HW1 3758   4.062   6.923   7.022
  953SOL    HW2 3759   4.164   0.020   6.987
  954SOL     OW 3760   6.321   6.478   0.861
  954SOL    HW1 3761   6.287   6.414   0.930
  954SOL    HW2 3762   6.378   6.547   0.905
  955SOL     OW 3763   0.302   6.584   3.008
  955SOL    HW1 3764   0.347   6.628   3.085
  955SOL    HW2 3765   0.260   6.654   2.949
  956SOL     OW 3766   1.240   2.780   0.756
  956SOL    HW1 3767   1.208   2.823   0.840
  956SOL    HW2 3768   1.271   2.687   0.776
  957SOL     OW 3769   2.333   5.723   4.805
  957SOL    HW1 3770   2.264   5.786   4.769
  957SOL    HW2 3771   2.290   5.653   4.862
  958SOL     OW 3772   4.966   2.777   0.914
  958SOL    HW1 3773   4.913   2.718   0.855
  958SOL    HW2 3774   5.018   2.842   0.859
  959SOL     OW 3775   1.816   4.437   2.698
  959SOL    HW1 3776   1.735   4.382   2.719
  959SOL    HW2 3777   1.883   4.380   2.649
  960SOL     OW 3778   1.311   5.423   4.785
  960SOL    HW1 3779   1.214   5.401   4.775
  960SOL    HW2 3780   1.351   5.439   4.695
  961SOL     OW 3781   3.622   0.598   2.003
  961SOL    HW1 3782   3.656   0.565   1.915
  961SOL    HW2 3783   3.628   0.697   2.006
  962SOL     OW 3784   1.528   0.411   4.390
  962SOL    HW1 3785   1.616   0.372   4.361
  962SOL    HW2 3786   1.471   0.427   4.309
  963SOL     OW 3787   6.732   6.852   0.761
  963SOL    HW1 3788   6.699   6.889   0.848
  963SOL    HW2 3789   6.832   6.855   0.759
  964SOL     OW 3790   5.197   3.628   1.928
  964SOL    HW1 3791   5.130   3.659   1.861
  964SOL    HW2 3792   5.238   3.707   1.974
  965SOL     OW 3793   0.864   1.793   0.801
  965SOL    HW1 3794   0.812   1.877   0.788
  965SOL    HW2 3795   0.920   1.776   0.720
  966SOL     OW 3796   6.844   2.385   2.883
  966SOL    HW1 3797   6.927   2.392   2.828
  966SOL    HW2 3798   6.863   2.331   2.965
  967SOL     OW 3799   1.465   6.380   2.226
  967SOL    HW1 3800   1.367   6.376   2.207
  967SOL    HW2 3801   1.507   6.455   2.174
  968SOL     OW 3802   5.167   2.945   2.577
  968SOL    HW1 3803   5.078   2.979   2.609
  968SOL    HW2 3804   5.198   3.001   2.501
  969SOL     OW 3805   4.481   5.934   5.656
  969SOL    HW1 3806   4.396   5.892   5.689
  969SOL    HW2 3807   4.550   5.862   5.641
  970SOL     OW 3808   4.370   2.372   5.272
  970SOL    HW1 3809   4.363   2.437   5.347
  970SOL    HW2 3810   4.338   2.414   5.187
  971SOL     OW 3811   6.812   1.672   1.602
  971SOL    HW1 3812   6.719   1.669   1.565
  971SOL    HW2 3813   6.812   1.644   1.698
  972SOL     OW 3814   6.608   5.727   1.180
  972SOL    HW1 3815   6.598   5.729   1.279
  972SOL    HW2 3816   6.617   5.821   1.145
  973SOL     OW 3817   5.757   4.027   5.710
  973SOL    HW1 3818   5.689   4.015   5.782
  973SOL    HW2 3819   5.736   4.110   5.658
  974SOL     OW 3820   2.622   0.780   3.930
  974SOL    HW1 3821   2.686   0.857   3.921
  974SOL    HW2 3822   2.620   0.751   4.026
  975SOL     OW 3823   3.147   6.613   5.228
  975SOL    HW1 3824   3.153   6.712   5.225
  975SOL    HW2 3825   3.057   6.584   5.195
  976SOL     OW 3826   0.305   4.498   3.716
  976SOL    HW1 3827   0.343   4.446   3.640
  976SOL    HW2 3828   0.236   4.562   3.683
  977SOL     OW 3829   2.145   1.098   3.472
  977SOL    HW1 3830   2.051   1.120   3.498
  977SOL    HW2 3831   2.167   1.006   3.502
  978SOL     OW 3832   5.724   3.255   4.457
  978SOL    HW1 3833   5.639   3.211   4.429
  978SOL    HW2 3834   5.756   3.315   4.384
  979SOL     OW 3835   6.343   0.850   3.514
  979SOL    HW1 3836   6.312   0.756   3.498
  979SOL    HW2 3837   6.383   0.887   3.430
  980SOL     OW 3838   6.277   1.585   4.615
  980SOL    HW1 3839   6.209   1.640   4.567
  980SOL    HW2 3840   6.354   1.643   4.641
  981SOL     OW 3841   6.940   2.091   4.996
  981SOL    HW1 3842   6.854   2.116   5.040
  981SOL    HW2 3843   6.990   2.027   5.054
  982SOL     OW 3844   1.393   3.291   1.416
  982SOL    HW1 3845   1.369   3.373   1.363
  982SOL    HW2 3846   1.492   3.283   1.423
  983SOL     OW 3847   5.798   2.012   3.496
  983SOL    HW1 3848   5.797   1.983   3.400
  983SOL    HW2 3849   5.738   2.092   3.507
  984SOL     OW 3850   4.465   1.663   4.748
  984SOL    HW1 3851   4.556   1.633   4.721
  984SOL    HW2 3852   4.421   1.711   4.672
  985SOL     OW 3853   3.762   5.388   0.612
  985SOL    HW1 3854   3.762   5.468   0.551
  985SOL    HW2 3855   3.849   5.341   0.604
  986SOL     OW 3856   4.504   4.940   6.253
  986SOL    HW1 3857   4.530   4.971   6.162
  986SOL    HW2 3858   4.562   4.985   6.321
  987SOL     OW 3859   4.160   6.873   2.379
  987SOL    HW1 3860   4.089   6.913   2.321
  987SOL    HW2 3861   4.132   6.880   2.475
  988SOL     OW 3862   3.712   3.773   2.056
  988SOL    HW1 3863   3.699   3.766   1.957
  988SOL    HW2 3864   3.782   3.842   2.076
  989SOL     OW 3865   0.638   0.203   6.083
  989SOL    HW1 3866   0.561   0.188   6.146
  989SOL    HW2 3867   0.697   0.122   6.082
  990SOL     OW 3868   4.638   0.183   3.738
  990SOL    HW1 3869   4.632   0.137   3.827
  990SOL    HW2 3870   4.564   0.250   3.729
  991SOL     OW 3871   6.782   1.214   5.100
  991SOL    HW1 3872   6.784   1.298   5.048
  991SOL    HW2 3873   6.759   1.234   5.196
  992SOL     OW 3874   0.580   3.546   0.308
  992SOL    HW1 3875   0.494   3.597   0.312
  992SOL    HW2 3876   0.616   3.549   0.214
  993SOL     OW 3877   3.066   4.991   3.390
  993SOL    HW1 3878   3.007   4.991   3.470
  993SOL    HW2 3879   3.145   5.050   3.405
  994SOL     OW 3880   2.893   3.650   2.950
  994SOL    HW1 3881   2.993   3.660   2.941
  994SOL    HW2 3882   2.872   3.563   2.994
  995SOL     OW 3883   2.172   1.609   4.979
  995SOL    HW1 3884   2.226   1.687   5.012
  995SOL    HW2 3885   2.233   1.535   4.951
  996SOL     OW 3886   2.162   3.832   2.514
  996SOL    HW1 3887   2.120   3.806   2.427
  996SOL    HW2 3888   2.180   3.749   2.568
  997SOL     OW 3889   0.070   1.195   1.724
  997SOL    HW1 3890   0.155   1.185   1.672
  997SOL    HW2 3891   0.034   1.104   1.745
  998SOL     OW 3892   4.562   6.769   2.396
  998SOL    HW1 3893   4.592   6.861   2.420
  998SOL    HW2 3894   4.613   6.702   2.450
  999SOL     OW 3895   6.757   5.387   1.508
  999SOL    HW1 3896   6.794   5.295   1.523
  999SOL    HW2 3897   6.665   5.379   1.469
 1000SOL     OW 3898   3.394   1.781   3.942
 1000SOL    HW1 3899   3.433   1.822   3.860
 1000SOL    HW2 3900   3.344   1.851   3.994
 1001SOL     OW 3901   5.297   0.200   5.728
 1001SOL    HW1 3902   5.237   0.239   5.798
 1001SOL    HW2 3903   5.386   0.245   5.731
 1002SOL     OW 3904   6.460   0.922   0.550
 1002SOL    HW1 3905   6.395   0.931   0.625
 1002SOL    HW2 3906   6.416   0.949   0.464
 1003SOL     OW 3907   3.774   6.031   2.811
 1003SOL    HW1 3908   3.766   5.945   2.761
 1003SOL    HW2 3909   3.849   6.085   2.773
 1004SOL     OW 3910   6.066   0.070   0.358
 1004SOL    HW1 3911   6.082   0.113   0.269
 1004SOL    HW2 3912   5.994   0.001   0.350
 1005SOL     OW 3913   0.566   6.824   2.926
 1005SOL    HW1 3914   0.510   6.818   2.843
 1005SOL    HW2 3915   0.507   6.836   3.005
 1006SOL     OW 3916   2.330   5.095   1.081
 1006SOL    HW1 3917   2.340   5.130   1.174
 1006SOL    HW2 3918   2.270   5.015   1.081
 1007SOL     OW 3919   0.172   1.673   3.879
 1007SOL    HW1 3920   0.253   1.723   3.910
 1007SOL    HW2 3921   0.195   1.577   3.867
 1008SOL     OW 3922   2.148   3.365   3.669
 1008SOL    HW1 3923   2.220   3.320   3.721
 1008SOL    HW2 3924   2.063   3.312   3.677
 1009SOL     OW 3925   0.732   6.323   5.141
 1009SOL    HW1 3926   0.694   6.279   5.060
 1009SOL    HW2 3927   0.679   6.405   5.163
 1010SOL     OW 3928   4.508   2.591   0.263
 1010SOL    HW1 3929   4.524   2.562   0.168
 1010SOL    HW2 3930   4.410   2.609   0.276
 1011SOL     OW 3931   2.792   6.091   3.426
 1011SOL    HW1 3932   2.787   6.140   3.339
 1011SOL    HW2 3933   2.848   6.142   3.491
 1012SOL     OW 3934   5.356   5.075   7.008
 1012SOL    HW1 3935   5.294   5.090   0.060
 1012SOL    HW2 3936   5.351   5.154   6.947
 1013SOL     OW 3937   0.747   1.122   1.175
 1013SOL    HW1 3938   0.769   1.080   1.087
 1013SOL    HW2 3939   0.685   1.062   1.226
 1014SOL     OW 3940   4.818   6.782   5.772
 1014SOL    HW1 3941   4.814   6.682   5.774
 1014SOL    HW2 3942   4.766   6.816   5.693
 1015SOL     OW 3943   3.527   6.076   4.269
 1015SOL    HW1 3944   3.570   6.034   4.349
 1015SOL    HW2 3945   3.509   6.005   4.201
 1016SOL     OW 3946   3.849   2.755   1.420
 1016SOL    HW1 3947   3.855   2.767   1.321
 1016SOL    HW2 3948   3.941   2.755   1.459
 1017SOL     OW 3949   4.219   2.468   0.013
 1017SOL    HW1 3950   4.272   2.386   7.014
 1017SOL    HW2 3951   4.246   2.543   6.979
 1018SOL     OW 3952   1.460   2.866   2.667
 1018SOL    HW1 3953   1.449   2.769   2.684
 1018SOL    HW2 3954   1.554   2.886   2.642
 1019SOL     OW 3955   0.216   1.852   6.749
 1019SOL    HW1 3956   0.175   1.934   6.788
 1019SOL    HW2 3957   0.167   1.771   6.783
 1020SOL     OW 3958   2.806   1.501   1.655
 1020SOL    HW1 3959   2.871   1.569   1.620
 1020SOL    HW2 3960   2.822   1.485   1.752
 1021SOL     OW 3961   6.737   1.224   0.939
 1021SOL    HW1 3962   6.709   1.170   0.859
 1021SOL    HW2 3963   6.799   1.169   0.996
 1022SOL     OW 3964   4.227   3.541   6.064
 1022SOL    HW1 3965   4.196   3.581   6.150
 1022SOL    HW2 3966   4.283   3.461   6.082
 1023SOL     OW 3967   5.652   0.827   2.599
 1023SOL    HW1 3968   5.592   0.753   2.630
 1023SOL    HW2 3969   5.621   0.861   2.511
 1024SOL     OW 3970   6.693   1.276   3.771
 1024SOL    HW1 3971   6.792   1.292   3.765
 1024SOL    HW2 3972   6.671   1.243   3.863
 1025SOL     OW 3973   3.431   4.645   1.114
 1025SOL    HW1 3974   3.498   4.661   1.040
 1025SOL    HW2 3975   3.340   4.632   1.074
 1026SOL     OW 3976   1.772   2.155   0.357
 1026SOL    HW1 3977   1.713   2.235   0.348
 1026SOL    HW2 3978   1.866   2.180   0.331
 1027SOL     OW 3979   2.810   4.884   2.599
 1027SOL    HW1 3980   2.747   4.944   2.550
 1027SOL    HW2 3981   2.888   4.937   2.631
 1028SOL     OW 3982   1.515   5.870   0.954
 1028SOL    HW1 3983   1.428   5.889   0.908
 1028SOL    HW2 3984   1.589   5.868   0.886
 1029SOL     OW 3985   2.146   0.099   6.466
 1029SOL    HW1 3986   2.095   0.179   6.433
 1029SOL    HW2 3987   2.119   0.080   6.560
 1030SOL     OW 3988   4.191   3.587   5.061
 1030SOL    HW1 3989   4.145   3.583   5.150
 1030SOL    HW2 3990   4.287   3.609   5.074
 1031SOL     OW 3991   2.558   5.719   1.992
 1031SOL    HW1 3992   2.627   5.664   2.039
 1031SOL    HW2 3993   2.494   5.659   1.945
 1032SOL     OW 3994   1.437   1.434   4.735
 1032SOL    HW1 3995   1.527   1.408   4.769
 1032SOL    HW2 3996   1.445   1.515   4.676
 1033SOL     OW 3997   2.609   5.713   2.401
 1033SOL    HW1 3998   2.560   5.641   2.352
 1033SOL    HW2 3999   2.668   5.763   2.338
 1034SOL     OW 4000   1.695   5.031   4.000
 1034SOL    HW1 4001   1.717   5.121   3.962
 1034SOL    HW2 4002   1.779   4.978   4.009
 1035SOL     OW 4003   2.703   1.067   4.605
 1035SOL    HW1 4004   2.654   1.038   4.687
 1035SOL    HW2 4005   2.794   1.100   4.630
 1036SOL     OW 4006   4.560   2.529   0.671
 1036SOL    HW1 4007   4.573   2.620   0.631
 1036SOL    HW2 4008   4.552   2.461   0.598
 1037SOL     OW 4009   2.103   1.743   0.138
 1037SOL    HW1 4010   2.187   1.769   0.186
 1037SOL    HW2 4011   2.126   1.690   0.057
 1038SOL     OW 4012   2.079   1.259   5.353
 1038SOL    HW1 4013   2.128   1.172   5.345
 1038SOL    HW2 4014   2.062   1.279   5.450
 1039SOL     OW 4015   3.956   2.215   4.258
 1039SOL    HW1 4016   3.959   2.197   4.159
 1039SOL    HW2 4017   3.890   2.154   4.301
 1040SOL     OW 4018   6.510   4.544   2.951
 1040SOL    HW1 4019   6.578   4.477   2.983
 1040SOL    HW2 4020   6.442   4.498   2.894
 1041SOL     OW 4021   0.565   0.838   4.252
 1041SOL    HW1 4022   0.603   0.777   4.322
 1041SOL    HW2 4023   0.571   0.794   4.163
 1042SOL     OW 4024   5.858   4.938   0.512
 1042SOL    HW1 4025   5.785   5.005   0.525
 1042SOL    HW2 4026   5.856   4.872   0.588
 1043SOL     OW 4027   3.276   2.146   6.191
 1043SOL    HW1 4028   3.330   2.220   6.150
 1043SOL    HW2 4029   3.310   2.127   6.282
 1044SOL     OW 4030   4.150   3.463   2.087
 1044SOL    HW1 4031   4.212   3.428   2.017
 1044SOL    HW2 4032   4.122   3.556   2.063
 1045SOL     OW 4033   3.210   1.315   3.525
 1045SOL    HW1 4034   3.153   1.255   3.468
 1045SOL    HW2 4035   3.151   1.371   3.583
 1046SOL     OW 4036   4.001   0.360   1.252
 1046SOL    HW1 4037   4.044   0.418   1.322
 1046SOL    HW2 4038   4.069   0.297   1.214
 1047SOL     OW 4039   0.645   4.813   2.891
 1047SOL    HW1 4040   0.675   4.896   2.938
 1047SOL    HW2 4041   0.708   4.793   2.817
 1048SOL     OW 4042   4.881   4.343   5.474
 1048SOL    HW1 4043   4.868   4.365   5.571
 1048SOL    HW2 4044   4.902   4.246   5.464
 1049SOL     OW 4045   0.272   3.492   4.872
 1049SOL    HW1 4046   0.350   3.525   4.819
 1049SOL    HW2 4047   0.212   3.437   4.813
 1050SOL     OW 4048   3.492   0.572   0.019
 1050SOL    HW1 4049   3.472   0.483   0.060
 1050SOL    HW2 4050   3.515   0.637   0.091
 1051SOL     OW 4051   4.934   4.711   0.849
 1051SOL    HW1 4052   4.977   4.639   0.794
 1051SOL    HW2 4053   5.002   4.751   0.910
 1052SOL     OW 4054   3.468   0.397   4.422
 1052SOL    HW1 4055   3.484   0.309   4.466
 1052SOL    HW2 4056   3.546   0.457   4.440
 1053SOL     OW 4057   4.641   4.300   3.958
 1053SOL    HW1 4058   4.586   4.286   4.040
 1053SOL    HW2 4059   4.703   4.222   3.946
 1054SOL     OW 4060   3.657   5.689   4.589
 1054SOL    HW1 4061   3.674   5.765   4.526
 1054SOL    HW2 4062   3.565   5.697   4.627
 1055SOL     OW 4063   4.314   6.374   5.433
 1055SOL    HW1 4064   4.339   6.285   5.469
 1055SOL    HW2 4065   4.367   6.393   5.350
 1056SOL     OW 4066   1.684   6.657   5.100
 1056SOL    HW1 4067   1.765   6.648   5.042
 1056SOL    HW2 4068   1.712   6.676   5.194
 1057SOL     OW 4069   3.094   4.009   2.478
 1057SOL    HW1 4070   3.057   3.921   2.451
 1057SOL    HW2 4071   3.022   4.063   2.524
 1058SOL     OW 4072   3.645   1.057   1.595
 1058SOL    HW1 4073   3.714   1.127   1.575
 1058SOL    HW2 4074   3.561   1.077   1.543
 1059SOL     OW 4075   4.001   1.786   1.250
 1059SOL    HW1 4076   3.929   1.724   1.283
 1059SOL    HW2 4077   3.973   1.880   1.268
 1060SOL     OW 4078   1.657   1.740   5.677
 1060SOL    HW1 4079   1.732   1.676   5.662
 1060SOL    HW2 4080   1.689   1.817   5.732
 1061SOL     OW 4081   3.482   4.990   1.576
 1061SOL    HW1 4082   3.432   4.915   1.532
 1061SOL    HW2 4083   3.551   4.953   1.637
 1062SOL     OW 4084   5.931   5.522   5.128
 1062SOL    HW1 4085   5.901   5.476   5.044
 1062SOL    HW2 4086   5.877   5.488   5.205
 1063SOL     OW 4087   1.798   2.701   6.845
 1063SOL    HW1 4088   1.738   2.781   6.839
 1063SOL    HW2 4089   1.830   2.676   6.754
 1064SOL     OW 4090   6.531   2.774   2.224
 1064SOL    HW1 4091   6.623   2.755   2.190
 1064SOL    HW2 4092   6.482   2.831   2.159
 1065SOL     OW 4093   6.441   6.711   4.926
 1065SOL    HW1 4094   6.475   6.627   4.883
 1065SOL    HW2 4095   6.470   6.714   5.021
 1066SOL     OW 4096   4.703   0.255   3.469
 1066SOL    HW1 4097   4.661   0.219   3.553
 1066SOL    HW2 4098   4.801   0.233   3.470
 1067SOL     OW 4099   1.803   3.184   2.270
 1067SOL    HW1 4100   1.757   3.154   2.353
 1067SOL    HW2 4101   1.848   3.272   2.286
 1068SOL     OW 4102   0.438   3.575   2.049
 1068SOL    HW1 4103   0.443   3.671   2.079
 1068SOL    HW2 4104   0.343   3.552   2.030
 1069SOL     OW 4105   4.011   4.148   1.237
 1069SOL    HW1 4106   4.081   4.191   1.294
 1069SOL    HW2 4107   4.027   4.050   1.231
 1070SOL     OW 4108   2.223   1.057   0.418
 1070SOL    HW1 4109   2.299   1.083   0.359
 1070SOL    HW2 4110   2.140   1.045   0.364
 1071SOL     OW 4111   4.163   6.528   3.174
 1071SOL    HW1 4112   4.101   6.451   3.187
 1071SOL    HW2 4113   4.115   6.614   3.191
 1072SOL     OW 4114   4.132   5.969   2.811
 1072SOL    HW1 4115   4.106   5.889   2.758
 1072SOL    HW2 4116   4.107   6.052   2.761
 1073SOL     OW 4117   2.349   4.547   2.582
 1073SOL    HW1 4118   2.377   4.642   2.577
 1073SOL    HW2 4119   2.357   4.514   2.677
 1074SOL     OW 4120   1.341   5.402   1.850
 1074SOL    HW1 4121   1.377   5.426   1.759
 1074SOL    HW2 4122   1.249   5.366   1.840
 1075SOL     OW 4123   6.293   4.577   4.008
 1075SOL    HW1 4124   6.328   4.602   4.098
 1075SOL    HW2 4125   6.367   4.542   3.952
 1076SOL     OW 4126   0.647   4.530   3.607
 1076SOL    HW1 4127   0.652   4.578   3.520
 1076SOL    HW2 4128   0.567   4.471   3.608
 1077SOL     OW 4129   4.532   0.164   0.903
 1077SOL    HW1 4130   4.547   0.155   0.805
 1077SOL    HW2 4131   4.562   0.254   0.934
 1078SOL     OW 4132   1.044   2.274   1.327
 1078SOL    HW1 4133   0.989   2.289   1.409
 1078SOL    HW2 4134   1.054   2.175   1.311
 1079SOL     OW 4135   2.325   5.745   3.451
 1079SOL    HW1 4136   2.246   5.805   3.463
 1079SOL    HW2 4137   2.408   5.796   3.472
 1080SOL     OW 4138   1.719   5.613   4.621
 1080SOL    HW1 4139   1.779   5.532   4.616
 1080SOL    HW2 4140   1.772   5.694   4.598
 1081SOL     OW 4141   1.661   0.898   0.219
 1081SOL    HW1 4142   1.629   0.809   0.187
 1081SOL    HW2 4143   1.753   0.889   0.258
 1082SOL     OW 4144   2.222   6.633   5.915
 1082SOL    HW1 4145   2.257   6.686   5.992
 1082SOL    HW2 4146   2.125   6.655   5.900
 1083SOL     OW 4147   3.590   3.381   1.171
 1083SOL    HW1 4148   3.491   3.378   1.156
 1083SOL    HW2 4149   3.620   3.295   1.213
 1084SOL     OW 4150   6.223   3.974   0.600
 1084SOL    HW1 4151   6.269   3.909   0.661
 1084SOL    HW2 4152   6.172   4.040   0.655
 1085SOL     OW 4153   1.979   3.947   4.263
 1085SOL    HW1 4154   2.028   3.930   4.178
 1085SOL    HW2 4155   1.920   4.027   4.253
 1086SOL     OW 4156   4.370   4.581   2.323
 1086SOL    HW1 4157   4.314   4.628   2.255
 1086SOL    HW2 4158   4.447   4.536   2.278
 1087SOL     OW 4159   4.400   2.983   5.552
 1087SOL    HW1 4160   4.319   3.025   5.510
 1087SOL    HW2 4161   4.480   3.040   5.532
 1088SOL     OW 4162   5.033   4.203   3.948
 1088SOL    HW1 4163   5.099   4.232   3.878
 1088SOL    HW2 4164   4.951   4.166   3.903
 1089SOL     OW 4165   0.449   6.901   3.161
 1089SOL    HW1 4166   0.449   6.986   3.213
 1089SOL    HW2 4167   0.442   6.824   3.225
 1090SOL     OW 4168   1.183   1.554   6.275
 1090SOL    HW1 4169   1.260   1.617   6.271
 1090SOL    HW2 4170   1.145   1.540   6.184
 1091SOL     OW 4171   1.742   2.027   4.885
 1091SOL    HW1 4172   1.783   2.117   4.869
 1091SOL    HW2 4173   1.693   2.028   4.972
 1092SOL     OW 4174   2.294   4.309   1.486
 1092SOL    HW1 4175   2.245   4.280   1.568
 1092SOL    HW2 4176   2.337   4.398   1.502
 1093SOL     OW 4177   0.095   1.769   2.559
 1093SOL    HW1 4178   0.119   1.692   2.618
 1093SOL    HW2 4179   0.178   1.807   2.519
 1094SOL     OW 4180   0.503   6.239   1.304
 1094SOL    HW1 4181   0.531   6.277   1.216
 1094SOL    HW2 4182   0.526   6.142   1.307
 1095SOL     OW 4183   5.780   3.977   6.021
 1095SOL    HW1 4184   5.824   3.960   6.110
 1095SOL    HW2 4185   5.778   4.075   6.003
 1096SOL     OW 4186   3.379   4.604   1.641
 1096SOL    HW1 4187   3.306   4.668   1.667
 1096SOL    HW2 4188   3.454   4.612   1.706
 1097SOL     OW 4189   0.949   5.608   5.504
 1097SOL    HW1 4190   0.942   5.545   5.427
 1097SOL    HW2 4191   1.044   5.611   5.536
 1098SOL     OW 4192   4.266   2.085   2.305
 1098SOL    HW1 4193   4.313   2.049   2.386
 1098SOL    HW2 4194   4.244   2.010   2.243
 1099SOL     OW 4195   4.041   1.968   3.372
 1099SOL    HW1 4196   4.053   2.055   3.324
 1099SOL    HW2 4197   3.951   1.930   3.350
 1100SOL     OW 4198   0.335   0.910   0.146
 1100SOL    HW1 4199   0.409   0.960   0.192
 1100SOL    HW2 4200   0.280   0.862   0.214
 1101SOL     OW 4201   5.603   2.837   1.078
 1101SOL    HW1 4202   5.631   2.757   1.026
 1101SOL    HW2 4203   5.676   2.905   1.077
 1102SOL     OW 4204   0.608   4.729   3.396
 1102SOL    HW1 4205   0.560   4.702   3.313
 1102SOL    HW2 4206   0.570   4.815   3.430
 1103SOL     OW 4207   0.924   3.043   1.017
 1103SOL    HW1 4208   0.908   3.127   1.069
 1103SOL    HW2 4209   0.837   3.007   0.984
 1104SOL     OW 4210   3.107   5.073   6.016
 1104SOL    HW1 4211   3.101   5.064   5.917
 1104SOL    HW2 4212   3.203   5.082   6.043
 1105SOL     OW 4213   4.434   4.611   6.632
 1105SOL    HW1 4214   4.528   4.646   6.636
 1105SOL    HW2 4215   4.411   4.567   6.719
 1106SOL     OW 4216   0.234   2.543   6.158
 1106SOL    HW1 4217   0.263   2.480   6.230
 1106SOL    HW2 4218   0.282   2.523   6.073
 1107SOL     OW 4219   0.660   0.578   0.698
 1107SOL    HW1 4220   0.756   0.586   0.724
 1107SOL    HW2 4221   0.615   0.667   0.710
 1108SOL     OW 4222   0.763   1.526   5.092
 1108SOL    HW1 4223   0.849   1.525   5.143
 1108SOL    HW2 4224   0.702   1.455   5.129
 1109SOL     OW 4225   4.648   0.235   4.289
 1109SOL    HW1 4226   4.712   0.242   4.367
 1109SOL    HW2 4227   4.559   0.205   4.322
 1110SOL     OW 4228   3.207   3.074   2.095
 1110SOL    HW1 4229   3.132   3.106   2.036
 1110SOL    HW2 4230   3.257   3.153   2.131
 1111SOL     OW 4231   5.515   0.299   6.979
 1111SOL    HW1 4232   5.558   0.317   0.042
 1111SOL    HW2 4233   5.514   0.382   6.924
 1112SOL     OW 4234   6.667   0.899   2.573
 1112SOL    HW1 4235   6.706   0.812   2.543
 1112SOL    HW2 4236   6.625   0.888   2.663
 1113SOL     OW 4237   6.385   3.535   2.160
 1113SOL    HW1 4238   6.305   3.553   2.103
 1113SOL    HW2 4239   6.467   3.537   2.103
 1114SOL     OW 4240   4.870   1.788   4.937
 1114SOL    HW1 4241   4.844   1.739   4.854
 1114SOL    HW2 4242   4.867   1.887   4.920
 1115SOL     OW 4243   2.847   3.533   0.824
 1115SOL    HW1 4244   2.866   3.619   0.872
 1115SOL    HW2 4245   2.912   3.463   0.854
 1116SOL     OW 4246   4.657   6.922   4.282
 1116SOL    HW1 4247   4.651   7.011   4.326
 1116SOL    HW2 4248   4.570   6.874   4.290
 1117SOL     OW 4249   2.705   3.172   1.407
 1117SOL    HW1 4250   2.766   3.092   1.408
 1117SOL    HW2 4251   2.649   3.172   1.489
 1118SOL     OW 4252   2.103   3.715   3.882
 1118SOL    HW1 4253   2.126   3.805   3.919
 1118SOL    HW2 4254   2.115   3.715   3.783
 1119SOL     OW 4255   4.104   4.056   1.787
 1119SOL    HW1 4256   4.138   4.031   1.696
 1119SOL    HW2 4257   4.026   4.118   1.778
 1120SOL     OW 4258   3.630   0.799   5.133
 1120SOL    HW1 4259   3.621   0.790   5.232
 1120SOL    HW2 4260   3.728   0.800   5.109
 1121SOL     OW 4261   5.609   2.982   1.874
 1121SOL    HW1 4262   5.570   2.968   1.783
 1121SOL    HW2 4263   5.647   3.074   1.880
 1122SOL     OW 4264   5.028   4.072   6.715
 1122SOL    HW1 4265   4.984   3.984   6.701
 1122SOL    HW2 4266   5.045   4.086   6.813
 1123SOL     OW 4267   3.607   0.296   2.265
 1123SOL    HW1 4268   3.575   0.345   2.346
 1123SOL    HW2 4269   3.533   0.238   2.230
 1124SOL     OW 4270   0.701   3.838   4.733
 1124SOL    HW1 4271   0.748   3.852   4.645
 1124SOL    HW2 4272   0.746   3.894   4.803
 1125SOL     OW 4273   3.501   3.440   5.121
 1125SOL    HW1 4274   3.555   3.374   5.174
 1125SOL    HW2 4275   3.407   3.438   5.153
 1126SOL     OW 4276   5.370   6.429   1.831
 1126SOL    HW1 4277   5.417   6.466   1.911
 1126SOL    HW2 4278   5.436   6.414   1.757
 1127SOL     OW 4279   1.415   4.879   6.623
 1127SOL    HW1 4280   1.408   4.782   6.601
 1127SOL    HW2 4281   1.489   4.894   6.688
 1128SOL     OW 4282   2.782   1.927   4.877
 1128SOL    HW1 4283   2.691   1.966   4.887
 1128SOL    HW2 4284   2.808   1.926   4.780
 1129SOL     OW 4285   5.511   0.841   6.793
 1129SOL    HW1 4286   5.543   0.910   6.857
 1129SOL    HW2 4287   5.413   0.855   6.775
 1130SOL     OW 4288   0.240   4.721   6.582
 1130SOL    HW1 4289   0.178   4.772   6.641
 1130SOL    HW2 4290   0.199   4.633   6.558
 1131SOL     OW 4291   0.418   5.267   5.720
 1131SOL    HW1 4292   0.388   5.278   5.815
 1131SOL    HW2 4293   0.401   5.352   5.670
 1132SOL     OW 4294   5.653   6.671   5.399
 1132SOL    HW1 4295   5.713   6.688   5.321
 1132SOL    HW2 4296   5.670   6.739   5.471
 1133SOL     OW 4297   0.151   3.721   1.628
 1133SOL    HW1 4298   0.061   3.749   1.660
 1133SOL    HW2 4299   0.218   3.792   1.650
 1134SOL     OW 4300   5.463   2.417   6.294
 1134SOL    HW1 4301   5.419   2.355   6.230
 1134SOL    HW2 4302   5.446   2.387   6.387
 1135SOL     OW 4303   2.996   2.157   2.964
 1135SOL    HW1 4304   3.021   2.152   3.061
 1135SOL    HW2 4305   3.052   2.094   2.912
 1136SOL     OW 4306   3.331   5.365   3.960
 1136SOL    HW1 4307   3.286   5.287   4.003
 1136SOL    HW2 4308   3.410   5.332   3.908
 1137SOL     OW 4309   1.622   0.755   6.039
 1137SOL    HW1 4310   1.582   0.743   6.130
 1137SOL    HW2 4311   1.599   0.676   5.982
 1138SOL     OW 4312   0.417   4.235   5.591
 1138SOL    HW1 4313   0.342   4.272   5.645
 1138SOL    HW2 4314   0.449   4.304   5.526
 1139SOL     OW 4315   1.478   5.938   2.173
 1139SOL    HW1 4316   1.462   5.860   2.112
 1139SOL    HW2 4317   1.559   5.920   2.229
 1140SOL     OW 4318   3.716   1.642   3.874
 1140SOL    HW1 4319   3.672   1.562   3.915
 1140SOL    HW2 4320   3.648   1.694   3.822
 1141SOL     OW 4321   6.662   5.472   5.294
 1141SOL    HW1 4322   6.702   5.556   5.331
 1141SOL    HW2 4323   6.583   5.495   5.237
 1142SOL     OW 4324   6.631   0.847   4.293
 1142SOL    HW1 4325   6.543   0.857   4.246
 1142SOL    HW2 4326   6.692   0.921   4.265
 1143SOL     OW 4327   4.444   2.033   2.759
 1143SOL    HW1 4328   4.396   1.967   2.816
 1143SOL    HW2 4329   4.380   2.102   2.726
 1144SOL     OW 4330   0.262   5.297   4.659
 1144SOL    HW1 4331   0.260   5.276   4.562
 1144SOL    HW2 4332   0.211   5.382   4.676
 1145SOL     OW 4333   0.916   5.773   4.909
 1145SOL    HW1 4334   0.867   5.770   4.821
 1145SOL    HW2 4335   0.871   5.837   4.970
 1146SOL     OW 4336   5.894   2.010   0.808
 1146SOL    HW1 4337   5.879   1.956   0.890
 1146SOL    HW2 4338   5.806   2.049   0.777
 1147SOL     OW 4339   6.797   2.976   2.113
 1147SOL    HW1 4340   6.851   3.060   2.112
 1147SOL    HW2 4341   6.760   2.959   2.022
 1148SOL     OW 4342   3.665   7.017   0.625
 1148SOL    HW1 4343   3.661   0.069   0.688
 1148SOL    HW2 4344   3.602   0.008   0.548
 1149SOL     OW 4345   6.149   2.968   1.950
 1149SOL    HW1 4346   6.063   2.990   1.995
 1149SOL    HW2 4347   6.212   3.045   1.961
 1150SOL     OW 4348   1.380   4.939   6.981
 1150SOL    HW1 4349   1.307   4.998   6.946
 1150SOL    HW2 4350   1.458   4.941   6.918
 1151SOL     OW 4351   5.199   5.232   6.416
 1151SOL    HW1 4352   5.194   5.273   6.507
 1151SOL    HW2 4353   5.149   5.145   6.415
 1152SOL     OW 4354   1.056   0.220   4.661
 1152SOL    HW1 4355   1.102   0.253   4.579
 1152SOL    HW2 4356   1.086   0.127   4.681
 1153SOL     OW 4357   2.386   5.115   3.070
 1153SOL    HW1 4358   2.296   5.098   3.110
 1153SOL    HW2 4359   2.451   5.135   3.143
 1154SOL     OW 4360   1.471   4.801   1.784
 1154SOL    HW1 4361   1.422   4.740   1.720
 1154SOL    HW2 4362   1.488   4.752   1.869
 1155SOL     OW 4363   3.529   6.091   1.944
 1155SOL    HW1 4364   3.459   6.160   1.924
 1155SOL    HW2 4365   3.501   6.003   1.906
 1156SOL     OW 4366   2.234   0.289   4.139
 1156SOL    HW1 4367   2.204   0.341   4.220
 1156SOL    HW2 4368   2.262   0.197   4.167
 1157SOL     OW 4369   0.480   2.929   3.855
 1157SOL    HW1 4370   0.488   2.847   3.797
 1157SOL    HW2 4371   0.412   2.913   3.926
 1158SOL     OW 4372   4.384   5.570   5.914
 1158SOL    HW1 4373   4.432   5.482   5.906
 1158SOL    HW2 4374   4.423   5.623   5.989
 1159SOL     OW 4375   4.493   5.000   3.738
 1159SOL    HW1 4376   4.461   4.907   3.721
 1159SOL    HW2 4377   4.432   5.065   3.691
 1160SOL     OW 4378   3.100   3.798   0.741
 1160SOL    HW1 4379   3.057   3.888   0.733
 1160SOL    HW2 4380   3.168   3.787   0.668
 1161SOL     OW 4381   5.188   0.945   3.425
 1161SOL    HW1 4382   5.223   0.859   3.462
 1161SOL    HW2 4383   5.088   0.947   3.434
 1162SOL     OW 4384   3.632   4.129   2.031
 1162SOL    HW1 4385   3.553   4.079   1.997
 1162SOL    HW2 4386   3.639   4.217   1.983
 1163SOL     OW 4387   5.002   1.939   2.998
 1163SOL    HW1 4388   4.925   1.940   2.934
 1163SOL    HW2 4389   5.086   1.915   2.950
 1164SOL     OW 4390   6.065   3.495   4.074
 1164SOL    HW1 4391   6.001   3.571   4.074
 1164SOL    HW2 4392   6.122   3.500   4.157
 1165SOL     OW 4393   0.735   4.993   3.118
 1165SOL    HW1 4394   0.756   4.915   3.177
 1165SOL    HW2 4395   0.736   5.077   3.172
 1166SOL     OW 4396   4.286   2.569   6.492
 1166SOL    HW1 4397   4.342   2.533   6.417
 1166SOL    HW2 4398   4.213   2.503   6.513
 1167SOL     OW 4399   4.677   1.485   5.132
 1167SOL    HW1 4400   4.599   1.489   5.069
 1167SOL    HW2 4401   4.703   1.577   5.158
 1168SOL     OW 4402   6.124   6.494   3.453
 1168SOL    HW1 4403   6.149   6.399   3.467
 1168SOL    HW2 4404   6.076   6.504   3.366
 1169SOL     OW 4405   0.519   3.584   1.747
 1169SOL    HW1 4406   0.500   3.533   1.831
 1169SOL    HW2 4407   0.549   3.676   1.771
 1170SOL     OW 4408   2.741   0.814   0.868
 1170SOL    HW1 4409   2.796   0.748   0.818
 1170SOL    HW2 4410   2.664   0.767   0.911
 1171SOL     OW 4411   2.729   6.202   0.196
 1171SOL    HW1 4412   2.751   6.274   0.130
 1171SOL    HW2 4413   2.785   6.212   0.278
 1172SOL     OW 4414   3.214   3.635   5.104
 1172SOL    HW1 4415   3.151   3.678   5.169
 1172SOL    HW2 4416   3.163   3.570   5.048
 1173SOL     OW 4417   3.776   1.227   6.760
 1173SOL    HW1 4418   3.701   1.292   6.750
 1173SOL    HW2 4419   3.740   1.134   6.753
 1174SOL     OW 4420   2.874   5.918   0.881
 1174SOL    HW1 4421   2.886   6.010   0.919
 1174SOL    HW2 4422   2.930   5.853   0.931
 1175SOL     OW 4423   6.333   4.851   5.927
 1175SOL    HW1 4424   6.355   4.792   6.005
 1175SOL    HW2 4425   6.252   4.815   5.881
 1176SOL     OW 4426   5.646   4.196   0.883
 1176SOL    HW1 4427   5.713   4.183   0.956
 1176SOL    HW2 4428   5.691   4.183   0.794
 1177SOL     OW 4429   6.616   2.527   6.051
 1177SOL    HW1 4430   6.663   2.440   6.065
 1177SOL    HW2 4431   6.526   2.523   6.095
 1178SOL     OW 4432   6.158   3.564   1.664
 1178SOL    HW1 4433   6.075   3.620   1.663
 1178SOL    HW2 4434   6.145   3.486   1.726
 1179SOL     OW 4435   2.572   5.440   6.390
 1179SOL    HW1 4436   2.606   5.407   6.301
 1179SOL    HW2 4437   2.576   5.539   6.392
 1180SOL     OW 4438   2.584   1.740   4.224
 1180SOL    HW1 4439   2.563   1.697   4.311
 1180SOL    HW2 4440   2.513   1.717   4.157
 1181SOL     OW 4441   2.255   4.243   3.122
 1181SOL    HW1 4442   2.191   4.310   3.084
 1181SOL    HW2 4443   2.348   4.267   3.096
 1182SOL     OW 4444   1.931   3.710   3.364
 1182SOL    HW1 4445   1.961   3.801   3.336
 1182SOL    HW2 4446   1.849   3.684   3.313
 1183SOL     OW 4447   4.261   5.425   1.308
 1183SOL    HW1 4448   4.301   5.452   1.395
 1183SOL    HW2 4449   4.176   5.475   1.293
 1184SOL     OW 4450   3.109   2.888   5.626
 1184SOL    HW1 4451   3.097   2.874   5.528
 1184SOL    HW2 4452   3.190   2.945   5.642
 1185SOL     OW 4453   1.846   1.200   6.591
 1185SOL    HW1 4454   1.932   1.244   6.618
 1185SOL    HW2 4455   1.821   1.231   6.499
 1186SOL     OW 4456   4.848   1.410   4.880
 1186SOL    HW1 4457   4.806   1.431   4.969
 1186SOL    HW2 4458   4.896   1.323   4.885
 1187SOL     OW 4459   6.365   0.610   5.479
 1187SOL    HW1 4460   6.464   0.620   5.475
 1187SOL    HW2 4461   6.322   0.694   5.447
 1188SOL     OW 4462   1.594   0.358   5.675
 1188SOL    HW1 4463   1.544   0.272   5.681
 1188SOL    HW2 4464   1.659   0.354   5.599
 1189SOL     OW 4465   5.601   1.078   1.777
 1189SOL    HW1 4466   5.502   1.073   1.761
 1189SOL    HW2 4467   5.641   0.988   1.761
 1190SOL     OW 4468   4.253   5.033   2.865
 1190SOL    HW1 4469   4.331   5.048   2.804
 1190SOL    HW2 4470   4.196   5.115   2.868
 1191SOL     OW 4471   3.518   5.471   6.379
 1191SOL    HW1 4472   3.618   5.471   6.381
 1191SOL    HW2 4473   3.483   5.476   6.473
 1192SOL     OW 4474   5.139   5.272   2.750
 1192SOL    HW1 4475   5.189   5.325   2.818
 1192SOL    HW2 4476   5.166   5.301   2.658
 1193SOL     OW 4477   4.804   0.567   3.849
 1193SOL    HW1 4478   4.748   0.487   3.867
 1193SOL    HW2 4479   4.869   0.547   3.776
 1194SOL     OW 4480   6.039   6.925   0.965
 1194SOL    HW1 4481   6.048   6.831   0.997
 1194SOL    HW2 4482   5.999   6.925   0.873
 1195SOL     OW 4483   4.481   0.647   6.281
 1195SOL    HW1 4484   4.503   0.589   6.360
 1195SOL    HW2 4485   4.550   0.632   6.209
 1196SOL     OW 4486   0.749   5.468   2.165
 1196SOL    HW1 4487   0.831   5.411   2.163
 1196SOL    HW2 4488   0.681   5.431   2.101
 1197SOL     OW 4489   3.504   5.398   5.998
 1197SOL    HW1 4490   3.532   5.408   5.903
 1197SOL    HW2 4491   3.579   5.360   6.051
 1198SOL     OW 4492   2.844   1.984   2.680
 1198SOL    HW1 4493   2.910   1.987   2.755
 1198SOL    HW2 4494   2.856   2.065   2.622
 1199SOL     OW 4495   4.153   3.602   2.645
 1199SOL    HW1 4496   4.143   3.531   2.714
 1199SOL    HW2 4497   4.249   3.613   2.621
 1200SOL     OW 4498   3.626   3.818   0.273
 1200SOL    HW1 4499   3.690   3.781   0.206
 1200SOL    HW2 4500   3.622   3.757   0.353
 1201SOL     OW 4501   1.218   0.887   5.058
 1201SOL    HW1 4502   1.200   0.886   5.156
 1201SOL    HW2 4503   1.285   0.957   5.037
 1202SOL     OW 4504   5.862   0.057   4.877
 1202SOL    HW1 4505   5.831   0.148   4.905
 1202SOL    HW2 4506   5.962   0.054   4.877
 1203SOL     OW 4507   5.414   0.041   1.448
 1203SOL    HW1 4508   5.322   0.012   1.422
 1203SOL    HW2 4509   5.466   6.988   1.481
 1204SOL     OW 4510   2.841   0.734   0.556
 1204SOL    HW1 4511   2.922   0.742   0.614
 1204SOL    HW2 4512   2.854   0.659   0.491
 1205SOL     OW 4513   6.598   2.886   5.188
 1205SOL    HW1 4514   6.500   2.896   5.168
 1205SOL    HW2 4515   6.625   2.956   5.255
 1206SOL     OW 4516   2.384   1.659   4.770
 1206SOL    HW1 4517   2.301   1.605   4.757
 1206SOL    HW2 4518   2.461   1.598   4.789
 1207SOL     OW 4519   5.602   7.021   6.692
 1207SOL    HW1 4520   5.597   7.021   6.792
 1207SOL    HW2 4521   5.544   6.948   6.657
 1208SOL     OW 4522   4.041   3.395   3.431
 1208SOL    HW1 4523   4.031   3.301   3.465
 1208SOL    HW2 4524   4.037   3.459   3.507
 1209SOL     OW 4525   5.884   5.558   3.936
 1209SOL    HW1 4526   5.813   5.495   3.965
 1209SOL    HW2 4527   5.918   5.530   3.846
 1210SOL     OW 4528   3.299   6.977   2.751
 1210SOL    HW1 4529   3.396   6.964   2.771
 1210SOL    HW2 4530   3.284   6.964   2.653
 1211SOL     OW 4531   0.627   4.164   4.632
 1211SOL    HW1 4532   0.631   4.221   4.714
 1211SOL    HW2 4533   0.590   4.074   4.655
 1212SOL     OW 4534   1.812   3.976   5.096
 1212SOL    HW1 4535   1.744   4.021   5.154
 1212SOL    HW2 4536   1.903   4.013   5.117
 1213SOL     OW 4537   5.741   2.019   5.617
 1213SOL    HW1 4538   5.818   1.957   5.633
 1213SOL    HW2 4539   5.666   1.996   5.678
 1214SOL     OW 4540   2.212   2.878   3.459
 1214SOL    HW1 4541   2.209   2.976   3.438
 1214SOL    HW2 4542   2.219   2.826   3.374
 1215SOL     OW 4543   0.986   4.944   1.546
 1215SOL    HW1 4544   0.913   4.997   1.589
 1215SOL    HW2 4545   1.070   4.998   1.545
 1216SOL     OW 4546   2.573   0.248   1.836
 1216SOL    HW1 4547   2.473   0.247   1.838
 1216SOL    HW2 4548   2.607   0.329   1.885
 1217SOL     OW 4549   1.159   0.160   1.751
 1217SOL    HW1 4550   1.236   0.218   1.776
 1217SOL    HW2 4551   1.134   0.178   1.655
 1218SOL     OW 4552   0.550   3.818   3.282
 1218SOL    HW1 4553   0.523   3.739   3.338
 1218SOL    HW2 4554   0.630   3.795   3.228
 1219SOL     OW 4555   3.371   6.063   2.415
 1219SOL    HW1 4556   3.392   6.078   2.512
 1219SOL    HW2 4557   3.289   6.008   2.407
 1220SOL     OW 4558   6.186   3.712   3.338
 1220SOL    HW1 4559   6.095   3.673   3.352
 1220SOL    HW2 4560   6.227   3.734   3.426
 1221SOL     OW 4561   4.762   3.242   6.882
 1221SOL    HW1 4562   4.785   3.258   6.787
 1221SOL    HW2 4563   4.677   3.292   6.904
 1222SOL     OW 4564   6.855   6.226   1.536
 1222SOL    HW1 4565   6.920   6.237   1.460
 1222SOL    HW2 4566   6.820   6.132   1.536
 1223SOL     OW 4567   6.176   6.561   5.899
 1223SOL    HW1 4568   6.192   6.472   5.857
 1223SOL    HW2 4569   6.172   6.631   5.827
 1224SOL     OW 4570   5.053   4.807   2.217
 1224SOL    HW1 4571   5.028   4.862   2.138
 1224SOL    HW2 4572   5.140   4.761   2.199
 1225SOL     OW 4573   4.934   2.401   0.010
 1225SOL    HW1 4574   4.971   2.485   0.049
 1225SOL    HW2 4575   4.995   2.325   0.034
 1226SOL     OW 4576   5.754   5.359   1.127
 1226SOL    HW1 4577   5.728   5.360   1.223
 1226SOL    HW2 4578   5.819   5.284   1.111
 1227SOL     OW 4579   5.067   4.221   6.276
 1227SOL    HW1 4580   4.996   4.273   6.325
 1227SOL    HW2 4581   5.155   4.237   6.320
 1228SOL     OW 4582   3.535   3.091   3.059
 1228SOL    HW1 4583   3.564   2.995   3.065
 1228SOL    HW2 4584   3.599   3.148   3.110
 1229SOL     OW 4585   2.293   5.455   3.069
 1229SOL    HW1 4586   2.263   5.508   2.990
 1229SOL    HW2 4587   2.358   5.385   3.038
 1230SOL     OW 4588   5.519   5.212   1.274
 1230SOL    HW1 4589   5.512   5.226   1.175
 1230SOL    HW2 4590   5.583   5.278   1.312
 1231SOL     OW 4591   1.600   2.499   6.283
 1231SOL    HW1 4592   1.675   2.514   6.347
 1231SOL    HW2 4593   1.555   2.412   6.304
 1232SOL     OW 4594   3.463   0.386   5.529
 1232SOL    HW1 4595   3.372   0.376   5.490
 1232SOL    HW2 4596   3.457   0.433   5.617
 1233SOL     OW 4597   0.411   5.506   5.593
 1233SOL    HW1 4598   0.397   5.443   5.516
 1233SOL    HW2 4599   0.508   5.528   5.601
 1234SOL     OW 4600   6.809   2.944   0.048
 1234SOL    HW1 4601   6.758   2.971   0.129
 1234SOL    HW2 4602   6.765   2.982   6.992
 1235SOL     OW 4603   6.394   5.284   0.676
 1235SOL    HW1 4604   6.405   5.188   0.651
 1235SOL    HW2 4605   6.427   5.297   0.770
 1236SOL     OW 4606   1.205   1.824   2.346
 1236SOL    HW1 4607   1.182   1.831   2.443
 1236SOL    HW2 4608   1.163   1.741   2.307
 1237SOL     OW 4609   0.554   6.839   4.562
 1237SOL    HW1 4610   0.627   6.869   4.625
 1237SOL    HW2 4611   0.473   6.816   4.615
 1238SOL     OW 4612   0.269   0.210   4.693
 1238SOL    HW1 4613   0.284   0.219   4.594
 1238SOL    HW2 4614   0.231   0.296   4.728
 1239SOL     OW 4615   5.736   4.755   4.939
 1239SOL    HW1 4616   5.672   4.685   4.907
 1239SOL    HW2 4617   5.817   4.711   4.978
 1240SOL     OW 4618   6.258   4.535   3.317
 1240SOL    HW1 4619   6.346   4.545   3.270
 1240SOL    HW2 4620   6.265   4.464   3.386
 1241SOL     OW 4621   4.757   4.785   5.017
 1241SOL    HW1 4622   4.795   4.877   5.026
 1241SOL    HW2 4623   4.772   4.752   4.923
 1242SOL     OW 4624   1.078   4.959   6.690
 1242SOL    HW1 4625   1.098   5.017   6.769
 1242SOL    HW2 4626   1.162   4.912   6.661
 1243SOL     OW 4627   0.957   4.511   4.538
 1243SOL    HW1 4628   0.929   4.416   4.526
 1243SOL    HW2 4629   1.053   4.515   4.563
 1244SOL     OW 4630   5.545   0.698   5.017
 1244SOL    HW1 4631   5.538   0.621   5.080
 1244SOL    HW2 4632   5.541   0.665   4.922
 1245SOL     OW 4633   4.778   6.980   1.237
 1245SOL    HW1 4634   4.837   0.017   1.186
 1245SOL    HW2 4635   4.807   6.885   1.221
 1246SOL     OW 4636   5.161   1.448   0.064
 1246SOL    HW1 4637   5.072   1.404   0.060
 1246SOL    HW2 4638   5.163   1.514   0.140
 1247SOL     OW 4639   0.363   6.963   3.760
 1247SOL    HW1 4640   0.335   6.880   3.711
 1247SOL    HW2 4641   0.285   7.000   3.810
 1248SOL     OW 4642   1.263   6.617   4.237
 1248SOL    HW1 4643   1.349   6.595   4.281
 1248SOL    HW2 4644   1.269   6.707   4.194
 1249SOL     OW 4645   5.725   4.939   6.812
 1249SOL    HW1 4646   5.683   4.849   6.803
 1249SOL    HW2 4647   5.801   4.934   6.877
 1250SOL     OW 4648   6.601   3.402   5.057
 1250SOL    HW1 4649   6.674   3.334   5.066
 1250SOL    HW2 4650   6.601   3.463   5.137
 1251SOL     OW 4651   3.132   0.479   2.738
 1251SOL    HW1 4652   3.074   0.549   2.696
 1251SOL    HW2 4653   3.209   0.459   2.678
 1252SOL     OW 4654   1.639   5.508   6.752
 1252SOL    HW1 4655   1.683   5.515   6.663
 1252SOL    HW2 4656   1.649   5.415   6.788
 1253SOL     OW 4657   3.177   1.342   0.915
 1253SOL    HW1 4658   3.148   1.437   0.926
 1253SOL    HW2 4659   3.268   1.339   0.873
 1254SOL     OW 4660   6.706   0.926   1.777
 1254SOL    HW1 4661   6.755   0.991   1.718
 1254SOL    HW2 4662   6.741   0.934   1.871
 1255SOL     OW 4663   5.776   1.258   5.335
 1255SOL    HW1 4664   5.830   1.296   5.260
 1255SOL    HW2 4665   5.812   1.293   5.422
 1256SOL     OW 4666   1.220   5.694   4.398
 1256SOL    HW1 4667   1.220   5.782   4.445
 1256SOL    HW2 4668   1.141   5.640   4.428
 1257SOL     OW 4669   0.658   5.661   3.809
 1257SOL    HW1 4670   0.692   5.745   3.768
 1257SOL    HW2 4671   0.559   5.667   3.821
 1258SOL     OW 4672   4.391   6.896   5.025
 1258SOL    HW1 4673   4.385   6.886   4.925
 1258SOL    HW2 4674   4.328   6.832   5.068
 1259SOL     OW 4675   5.997   0.244   4.094
 1259SOL    HW1 4676   6.095   0.255   4.111
 1259SOL    HW2 4677   5.964   0.160   4.136
 1260SOL     OW 4678   2.325   0.621   1.800
 1260SOL    HW1 4679   2.402   0.651   1.743
 1260SOL    HW2 4680   2.321   0.678   1.882
 1261SOL     OW 4681   6.403   4.706   6.159
 1261SOL    HW1 4682   6.435   4.634   6.098
 1261SOL    HW2 4683   6.481   4.760   6.191
 1262SOL     OW 4684   4.430   5.178   0.714
 1262SOL    HW1 4685   4.377   5.246   0.764
 1262SOL    HW2 4686   4.421   5.089   0.759
 1263SOL     OW 4687   6.826   2.298   1.253
 1263SOL    HW1 4688   6.783   2.224   1.305
 1263SOL    HW2 4689   6.860   2.262   1.166
 1264SOL     OW 4690   0.084   3.176   3.322
 1264SOL    HW1 4691   0.144   3.246   3.284
 1264SOL    HW2 4692   0.120   3.085   3.301
 1265SOL     OW 4693   6.295   4.571   5.242
 1265SOL    HW1 4694   6.269   4.666   5.222
 1265SOL    HW2 4695   6.257   4.544   5.331
 1266SOL     OW 4696   2.824   2.000   4.591
 1266SOL    HW1 4697   2.882   2.079   4.572
 1266SOL    HW2 4698   2.790   1.962   4.505
 1267SOL     OW 4699   7.015   5.071   2.909
 1267SOL    HW1 4700   7.005   5.054   3.007
 1267SOL    HW2 4701   0.042   5.155   2.894
 1268SOL     OW 4702   6.150   2.897   0.230
 1268SOL    HW1 4703   6.078   2.861   0.289
 1268SOL    HW2 4704   6.230   2.836   0.235
 1269SOL     OW 4705   6.957   5.343   5.235
 1269SOL    HW1 4706   6.973   5.380   5.144
 1269SOL    HW2 4707   6.989   5.407   5.305
 1270SOL     OW 4708   1.907   3.134   4.867
 1270SOL    HW1 4709   1.848   3.202   4.824
 1270SOL    HW2 4710   1.861   3.045   4.868
 1271SOL     OW 4711   4.107   1.111   2.567
 1271SOL    HW1 4712   4.136   1.171   2.492
 1271SOL    HW2 4713   4.129   1.154   2.654
 1272SOL     OW 4714   0.544   5.766   1.604
 1272SOL    HW1 4715   0.632   5.770   1.556
 1272SOL    HW2 4716   0.473   5.804   1.545
 1273SOL     OW 4717   2.494   5.972   6.577
 1273SOL    HW1 4718   2.569   5.919   6.537
 1273SOL    HW2 4719   2.418   5.910   6.598
 1274SOL     OW 4720   0.058   2.361   1.777
 1274SOL    HW1 4721   0.000   2.280   1.780
 1274SOL    HW2 4722   0.003   2.440   1.751
 1275SOL     OW 4723   3.404   1.876   4.341
 1275SOL    HW1 4724   3.402   1.921   4.430
 1275SOL    HW2 4725   3.495   1.888   4.300
 1276SOL     OW 4726   6.974   0.089   3.314
 1276SOL    HW1 4727   6.966   0.189   3.315
 1276SOL    HW2 4728   6.966   0.055   3.408
 1277SOL     OW 4729   7.009   0.261   4.911
 1277SOL    HW1 4730   6.993   0.322   4.989
 1277SOL    HW2 4731   0.035   0.309   4.840
 1278SOL     OW 4732   2.011   2.018   5.796
 1278SOL    HW1 4733   1.988   2.068   5.713
 1278SOL    HW2 4734   2.105   2.039   5.823
 1279SOL     OW 4735   2.679   5.527   0.009
 1279SOL    HW1 4736   2.755   5.463   0.019
 1279SOL    HW2 4737   2.669   5.581   0.093
 1280SOL     OW 4738   2.887   6.892   3.632
 1280SOL    HW1 4739   2.835   6.806   3.633
 1280SOL    HW2 4740   2.964   6.883   3.570
 1281SOL     OW 4741   1.020   6.264   3.302
 1281SOL    HW1 4742   1.074   6.210   3.237
 1281SOL    HW2 4743   0.948   6.314   3.254
 1282SOL     OW 4744   0.431   0.779   1.681
 1282SOL    HW1 4745   0.392   0.725   1.607
 1282SOL    HW2 4746   0.442   0.874   1.652
 1283SOL     OW 4747   5.821   5.347   5.319
 1283SOL    HW1 4748   5.800   5.351   5.417
 1283SOL    HW2 4749   5.775   5.268   5.279
 1284SOL     OW 4750   2.658   2.540   1.819
 1284SOL    HW1 4751   2.580   2.569   1.875
 1284SOL    HW2 4752   2.740   2.535   1.876
 1285SOL     OW 4753   4.278   2.569   5.437
 1285SOL    HW1 4754   4.361   2.620   5.416
 1285SOL    HW2 4755   4.213   2.578   5.361
 1286SOL     OW 4756   5.680   4.742   1.776
 1286SOL    HW1 4757   5.693   4.679   1.699
 1286SOL    HW2 4758   5.598   4.715   1.827
 1287SOL     OW 4759   7.018   6.133   6.754
 1287SOL    HW1 4760   0.043   6.176   6.679
 1287SOL    HW2 4761   6.929   6.104   6.722
 1288SOL     OW 4762   6.628   3.277   1.338
 1288SOL    HW1 4763   6.675   3.225   1.409
 1288SOL    HW2 4764   6.651   3.240   1.248
 1289SOL     OW 4765   0.792   5.915   2.563
 1289SOL    HW1 4766   0.845   5.833   2.544
 1289SOL    HW2 4767   0.709   5.891   2.613
 1290SOL     OW 4768   0.991   5.966   0.744
 1290SOL    HW1 4769   0.942   5.956   0.657
 1290SOL    HW2 4770   1.088   5.948   0.730
 1291SOL     OW 4771   1.809   6.088   6.961
 1291SOL    HW1 4772   1.792   6.001   7.006
 1291SOL    HW2 4773   1.760   6.092   6.874
 1292SOL     OW 4774   0.838   5.500   0.653
 1292SOL    HW1 4775   0.905   5.430   0.630
 1292SOL    HW2 4776   0.869   5.551   0.734
 1293SOL     OW 4777   0.587   2.570   6.301
 1293SOL    HW1 4778   0.588   2.514   6.384
 1293SOL    HW2 4779   0.648   2.530   6.233
 1294SOL     OW 4780   0.277   2.643   2.093
 1294SOL    HW1 4781   0.326   2.653   2.179
 1294SOL    HW2 4782   0.343   2.640   2.017
 1295SOL     OW 4783   5.899   2.502   1.844
 1295SOL    HW1 4784   5.906   2.516   1.746
 1295SOL    HW2 4785   5.806   2.523   1.875
 1296SOL     OW 4786   3.353   2.135   6.436
 1296SOL    HW1 4787   3.359   2.131   6.536
 1296SOL    HW2 4788   3.428   2.190   6.400
 1297SOL     OW 4789   6.860   1.539   5.846
 1297SOL    HW1 4790   6.910   1.490   5.774
 1297SOL    HW2 4791   6.761   1.531   5.829
 1298SOL     OW 4792   6.060   2.678   3.195
 1298SOL    HW1 4793   6.084   2.701   3.289
 1298SOL    HW2 4794   6.092   2.586   3.174
 1299SOL     OW 4795   1.444   3.629   4.119
 1299SOL    HW1 4796   1.509   3.704   4.114
 1299SOL    HW2 4797   1.364   3.649   4.062
 1300SOL     OW 4798   3.696   3.027   1.708
 1300SOL    HW1 4799   3.642   3.110   1.697
 1300SOL    HW2 4800   3.664   2.957   1.644
 1301SOL     OW 4801   1.286   6.835   4.081
 1301SOL    HW1 4802   1.365   6.848   4.021
 1301SOL    HW2 4803   1.217   6.780   4.034
 1302SOL     OW 4804   3.046   6.214   4.827
 1302SOL    HW1 4805   2.994   6.241   4.745
 1302SOL    HW2 4806   3.044   6.288   4.894
 1303SOL     OW 4807   3.297   1.692   1.058
 1303SOL    HW1 4808   3.220   1.649   1.104
 1303SOL    HW2 4809   3.316   1.645   0.972
 1304SOL     OW 4810   2.614   0.410   6.761
 1304SOL    HW1 4811   2.617   0.492   6.705
 1304SOL    HW2 4812   2.520   0.390   6.787
 1305SOL     OW 4813   4.650   0.503   4.878
 1305SOL    HW1 4814   4.561   0.539   4.849
 1305SOL    HW2 4815   4.637   0.443   4.958
 1306SOL     OW 4816   0.781   4.647   4.311
 1306SOL    HW1 4817   0.698   4.596   4.335
 1306SOL    HW2 4818   0.851   4.631   4.380
 1307SOL     OW 4819   1.414   2.173   3.984
 1307SOL    HW1 4820   1.472   2.092   3.994
 1307SOL    HW2 4821   1.399   2.215   4.073
 1308SOL     OW 4822   4.776   6.264   3.728
 1308SOL    HW1 4823   4.803   6.321   3.806
 1308SOL    HW2 4824   4.857   6.236   3.677
 1309SOL     OW 4825   6.488   2.794   4.677
 1309SOL    HW1 4826   6.567   2.750   4.719
 1309SOL    HW2 4827   6.446   2.857   4.742
 1310SOL     OW 4828   5.855   4.007   4.467
 1310SOL    HW1 4829   5.917   4.061   4.524
 1310SOL    HW2 4830   5.821   4.064   4.392
 1311SOL     OW 4831   6.412   5.921   5.370
 1311SOL    HW1 4832   6.380   6.006   5.410
 1311SOL    HW2 4833   6.477   5.941   5.296
 1312SOL     OW 4834   0.606   0.015   0.499
 1312SOL    HW1 4835   0.675   6.996   0.558
 1312SOL    HW2 4836   0.608   6.998   0.409
 1313SOL     OW 4837   3.416   5.217   4.761
 1313SOL    HW1 4838   3.408   5.284   4.687
 1313SOL    HW2 4839   3.446   5.263   4.844
 1314SOL     OW 4840   0.927   1.450   5.555
 1314SOL    HW1 4841   1.022   1.422   5.571
 1314SOL    HW2 4842   0.893   1.403   5.473
 1315SOL     OW 4843   2.238   1.324   2.150
 1315SOL    HW1 4844   2.290   1.337   2.235
 1315SOL    HW2 4845   2.218   1.412   2.109
 1316SOL     OW 4846   2.680   6.780   3.847
 1316SOL    HW1 4847   2.594   6.831   3.851
 1316SOL    HW2 4848   2.673   6.709   3.776
 1317SOL     OW 4849   6.815   5.125   4.326
 1317SOL    HW1 4850   6.900   5.110   4.276
 1317SOL    HW2 4851   6.740   5.134   4.261
 1318SOL     OW 4852   0.350   6.828   0.466
 1318SOL    HW1 4853   0.440   6.812   0.426
 1318SOL    HW2 4854   0.293   6.879   0.401
 1319SOL     OW 4855   6.222   1.397   6.782
 1319SOL    HW1 4856   6.133   1.443   6.782
 1319SOL    HW2 4857   6.235   1.348   6.867
 1320SOL     OW 4858   5.453   5.362   5.795
 1320SOL    HW1 4859   5.496   5.381   5.882
 1320SOL    HW2 4860   5.481   5.271   5.763
 1321SOL     OW 4861   3.643   2.682   0.126
 1321SOL    HW1 4862   3.681   2.590   0.133
 1321SOL    HW2 4863   3.625   2.718   0.218
 1322SOL     OW 4864   6.561   1.390   4.055
 1322SOL    HW1 4865   6.511   1.394   4.141
 1322SOL    HW2 4866   6.613   1.305   4.050
 1323SOL     OW 4867   6.954   1.696   5.043
 1323SOL    HW1 4868   6.972   1.734   4.952
 1323SOL    HW2 4869   6.897   1.759   5.095
 1324SOL     OW 4870   1.488   3.514   1.634
 1324SOL    HW1 4871   1.549   3.437   1.613
 1324SOL    HW2 4872   1.504   3.587   1.567
 1325SOL     OW 4873   2.873   6.047   3.128
 1325SOL    HW1 4874   2.906   6.016   3.217
 1325SOL    HW2 4875   2.946   6.040   3.060
 1326SOL     OW 4876   5.467   3.201   4.355
 1326SOL    HW1 4877   5.457   3.103   4.338
 1326SOL    HW2 4878   5.379   3.239   4.382
 1327SOL     OW 4879   3.967   5.285   2.878
 1327SOL    HW1 4880   3.924   5.224   2.945
 1327SOL    HW2 4881   3.896   5.325   2.820
 1328SOL     OW 4882   1.912   2.231   6.362
 1328SOL    HW1 4883   2.000   2.218   6.409
 1328SOL    HW2 4884   1.838   2.218   6.427
 1329SOL     OW 4885   0.810   1.032   0.353
 1329SOL    HW1 4886   0.822   0.933   0.345
 1329SOL    HW2 4887   0.886   1.078   0.308
 1330SOL     OW 4888   6.881   6.858   1.335
 1330SOL    HW1 4889   6.949   6.784   1.330
 1330SOL    HW2 4890   6.891   6.917   1.256
 1331SOL     OW 4891   4.943   0.483   1.745
 1331SOL    HW1 4892   4.948   0.560   1.809
 1331SOL    HW2 4893   4.853   0.480   1.703
 1332SOL     OW 4894   4.550   1.420   1.163
 1332SOL    HW1 4895   4.545   1.321   1.147
 1332SOL    HW2 4896   4.623   1.439   1.228
 1333SOL     OW 4897   4.193   3.874   5.239
 1333SOL    HW1 4898   4.211   3.921   5.325
 1333SOL    HW2 4899   4.171   3.941   5.168
 1334SOL     OW 4900   0.430   3.972   4.483
 1334SOL    HW1 4901   0.417   3.910   4.561
 1334SOL    HW2 4902   0.343   3.981   4.433
 1335SOL     OW 4903   2.405   4.779   3.320
 1335SOL    HW1 4904   2.390   4.870   3.357
 1335SOL    HW2 4905   2.380   4.777   3.224
 1336SOL     OW 4906   0.506   0.854   5.307
 1336SOL    HW1 4907   0.523   0.756   5.314
 1336SOL    HW2 4908   0.520   0.897   5.397
 1337SOL     OW 4909   2.090   2.194   6.049
 1337SOL    HW1 4910   2.052   2.286   6.056
 1337SOL    HW2 4911   2.054   2.137   6.123
 1338SOL     OW 4912   4.358   5.568   6.574
 1338SOL    HW1 4913   4.275   5.547   6.524
 1338SOL    HW2 4914   4.396   5.484   6.614
 1339SOL     OW 4915   6.537   4.161   5.224
 1339SOL    HW1 4916   6.503   4.081   5.175
 1339SOL    HW2 4917   6.564   4.135   5.316
 1340SOL     OW 4918   1.319   2.191   0.635
 1340SOL    HW1 4919   1.299   2.184   0.537
 1340SOL    HW2 4920   1.349   2.284   0.657
 1341SOL     OW 4921   3.759   1.362   3.695
 1341SOL    HW1 4922   3.801   1.407   3.617
 1341SOL    HW2 4923   3.692   1.424   3.737
 1342SOL     OW 4924   0.453   6.544   0.653
 1342SOL    HW1 4925   0.361   6.582   0.644
 1342SOL    HW2 4926   0.465   6.506   0.744
 1343SOL     OW 4927   3.847   5.956   3.447
 1343SOL    HW1 4928   3.796   6.033   3.486
 1343SOL    HW2 4929   3.843   5.878   3.509
 1344SOL     OW 4930   6.228   1.116   2.436
 1344SOL    HW1 4931   6.217   1.124   2.535
 1344SOL    HW2 4932   6.302   1.051   2.416
 1345SOL     OW 4933   0.333   0.394   2.396
 1345SOL    HW1 4934   0.411   0.394   2.334
 1345SOL    HW2 4935   0.307   0.300   2.419
 1346SOL     OW 4936   0.460   0.378   3.573
 1346SOL    HW1 4937   0.455   0.278   3.577
 1346SOL    HW2 4938   0.554   0.407   3.584
 1347SOL     OW 4939   6.256   6.758   3.525
 1347SOL    HW1 4940   6.330   6.736   3.589
 1347SOL    HW2 4941   6.195   6.679   3.517
 1348SOL     OW 4942   5.810   4.297   4.468
 1348SOL    HW1 4943   5.893   4.339   4.432
 1348SOL    HW2 4944   5.766   4.244   4.395
 1349SOL     OW 4945   3.876   3.087   6.887
 1349SOL    HW1 4946   3.914   3.134   6.967
 1349SOL    HW2 4947   3.861   2.991   6.909
 1350SOL     OW 4948   3.364   0.457   6.638
 1350SOL    HW1 4949   3.440   0.518   6.614
 1350SOL    HW2 4950   3.317   0.494   6.718
 1351SOL     OW 4951   0.355   1.146   3.589
 1351SOL    HW1 4952   0.422   1.077   3.616
 1351SOL    HW2 4953   0.357   1.221   3.655
 1352SOL     OW 4954   0.281   0.661   3.616
 1352SOL    HW1 4955   0.193   0.661   3.568
 1352SOL    HW2 4956   0.355   0.644   3.551
 1353SOL     OW 4957   0.828   4.019   3.961
 1353SOL    HW1 4958   0.734   4.053   3.970
 1353SOL    HW2 4959   0.840   3.939   4.019
 1354SOL     OW 4960   0.466   6.799   2.668
 1354SOL    HW1 4961   0.496   6.823   2.575
 1354SOL    HW2 4962   0.449   6.701   2.673
 1355SOL     OW 4963   4.556   2.931   0.167
 1355SOL    HW1 4964   4.460   2.914   0.189
 1355SOL    HW2 4965   4.582   3.021   0.202
 1356SOL     OW 4966   3.336   3.518   2.516
 1356SOL    HW1 4967   3.377   3.489   2.602
 1356SOL    HW2 4968   3.308   3.614   2.522
 1357SOL     OW 4969   2.617   2.884   5.629
 1357SOL    HW1 4970   2.616   2.848   5.536
 1357SOL    HW2 4971   2.711   2.885   5.664
 1358SOL     OW 4972   1.973   2.809   6.332
 1358SOL    HW1 4973   1.907   2.883   6.317
 1358SOL    HW2 4974   2.066   2.844   6.318
 1359SOL     OW 4975   6.432   2.206   0.240
 1359SOL    HW1 4976   6.529   2.184   0.236
 1359SOL    HW2 4977   6.395   2.210   0.147
 1360SOL     OW 4978   3.980   3.840   3.962
 1360SOL    HW1 4979   3.901   3.901   3.954
 1360SOL    HW2 4980   4.029   3.858   4.047
 1361SOL     OW 4981   0.971   6.277   0.280
 1361SOL    HW1 4982   1.014   6.351   0.331
 1361SOL    HW2 4983   1.040   6.233   0.222
 1362SOL     OW 4984   2.965   3.165   6.147
 1362SOL    HW1 4985   2.943   3.203   6.237
 1362SOL    HW2 4986   3.051   3.115   6.152
 1363SOL     OW 4987   6.217   6.579   2.643
 1363SOL    HW1 4988   6.291   6.643   2.664
 1363SOL    HW2 4989   6.255   6.492   2.614
 1364SOL     OW 4990   6.882   3.542   1.115
 1364SOL    HW1 4991   6.799   3.595   1.098
 1364SOL    HW2 4992   6.957   3.576   1.058
 1365SOL     OW 4993   0.428   3.811   6.601
 1365SOL    HW1 4994   0.401   3.794   6.506
 1365SOL    HW2 4995   0.380   3.892   6.635
 1366SOL     OW 4996   6.580   1.659   0.846
 1366SOL    HW1 4997   6.546   1.599   0.774
 1366SOL    HW2 4998   6.519   1.737   0.856
 1367SOL     OW 4999   0.262   5.997   4.339
 1367SOL    HW1 5000   0.330   5.951   4.281
 1367SOL    HW2 5001   0.297   6.002   4.433
 1368SOL     OW 5002   0.006   6.895   4.731
 1368SOL    HW1 5003   0.104   6.880   4.720
 1368SOL    HW2 5004   6.994   6.830   4.797
 1369SOL     OW 5005   2.895   6.486   3.246
 1369SOL    HW1 5006   2.892   6.585   3.258
 1369SOL    HW2 5007   2.829   6.459   3.176
 1370SOL     OW 5008   6.560   2.716   3.301
 1370SOL    HW1 5009   6.486   2.712   3.233
 1370SOL    HW2 5010   6.526   2.759   3.384
 1371SOL     OW 5011   5.944   1.737   5.371
 1371SOL    HW1 5012   5.862   1.785   5.339
 1371SOL    HW2 5013   6.012   1.735   5.297
 1372SOL     OW 5014   6.695   2.577   6.796
 1372SOL    HW1 5015   6.730   2.612   6.883
 1372SOL    HW2 5016   6.743   2.620   6.720
 1373SOL     OW 5017   4.752   2.774   2.085
 1373SOL    HW1 5018   4.733   2.869   2.062
 1373SOL    HW2 5019   4.666   2.724   2.093
 1374SOL     OW 5020   4.852   5.088   0.555
 1374SOL    HW1 5021   4.821   5.110   0.648
 1374SOL    HW2 5022   4.922   5.017   0.559
 1375SOL     OW 5023   5.714   5.827   4.838
 1375SOL    HW1 5024   5.691   5.921   4.861
 1375SOL    HW2 5025   5.798   5.800   4.885
 1376SOL     OW 5026   2.009   5.345   6.381
 1376SOL    HW1 5027   2.014   5.245   6.389
 1376SOL    HW2 5028   1.969   5.369   6.293
 1377SOL     OW 5029   1.662   1.394   2.512
 1377SOL    HW1 5030   1.626   1.302   2.493
 1377SOL    HW2 5031   1.610   1.461   2.459
 1378SOL     OW 5032   5.013   2.567   4.391
 1378SOL    HW1 5033   4.984   2.663   4.400
 1378SOL    HW2 5034   5.080   2.559   4.318
 1379SOL     OW 5035   5.081   5.438   1.073
 1379SOL    HW1 5036   5.072   5.459   0.975
 1379SOL    HW2 5037   4.996   5.464   1.120
 1380SOL     OW 5038   0.157   5.560   1.353
 1380SOL    HW1 5039   0.131   5.502   1.431
 1380SOL    HW2 5040   0.236   5.520   1.306
 1381SOL     OW 5041   5.924   2.455   5.698
 1381SOL    HW1 5042   5.891   2.483   5.788
 1381SOL    HW2 5043   5.974   2.530   5.656
 1382SOL     OW 5044   4.424   3.180   0.891
 1382SOL    HW1 5045   4.419   3.275   0.859
 1382SOL    HW2 5046   4.344   3.130   0.859
 1383SOL     OW 5047   0.380   0.789   1.958
 1383SOL    HW1 5048   0.416   0.791   1.865
 1383SOL    HW2 5049   0.456   0.781   2.023
 1384SOL     OW 5050   5.068   1.106   1.390
 1384SOL    HW1 5051   5.155   1.114   1.342
 1384SOL    HW2 5052   5.079   1.045   1.469
 1385SOL     OW 5053   1.714   5.317   2.579
 1385SOL    HW1 5054   1.796   5.268   2.551
 1385SOL    HW2 5055   1.723   5.414   2.556
 1386SOL     OW 5056   3.155   5.855   4.200
 1386SOL    HW1 5057   3.088   5.798   4.246
 1386SOL    HW2 5058   3.109   5.919   4.139
 1387SOL     OW 5059   3.819   6.030   1.861
 1387SOL    HW1 5060   3.721   6.036   1.879
 1387SOL    HW2 5061   3.837   5.950   1.803
 1388SOL     OW 5062   0.052   0.424   1.177
 1388SOL    HW1 5063   0.087   0.345   1.228
 1388SOL    HW2 5064   6.979   0.431   1.188
 1389SOL     OW 5065   6.483   0.929   3.224
 1389SOL    HW1 5066   6.462   0.963   3.133
 1389SOL    HW2 5067   6.546   0.852   3.218
 1390SOL     OW 5068   6.991   2.192   5.677
 1390SOL    HW1 5069   6.977   2.248   5.759
 1390SOL    HW2 5070   6.927   2.115   5.679
 1391SOL     OW 5071   6.419   1.532   3.105
 1391SOL    HW1 5072   6.401   1.614   3.050
 1391SOL    HW2 5073   6.332   1.491   3.134
 1392SOL     OW 5074   4.680   5.125   5.381
 1392SOL    HW1 5075   4.763   5.083   5.416
 1392SOL    HW2 5076   4.670   5.217   5.419
 1393SOL     OW 5077   4.426   0.066   5.627
 1393SOL    HW1 5078   4.361   0.039   5.556
 1393SOL    HW2 5079   4.393   0.034   5.716
 1394SOL     OW 5080   2.880   5.542   5.443
 1394SOL    HW1 5081   2.811   5.599   5.398
 1394SOL    HW2 5082   2.958   5.530   5.382
 1395SOL     OW 5083   3.654   4.686   5.915
 1395SOL    HW1 5084   3.730   4.695   5.851
 1395SOL    HW2 5085   3.568   4.687   5.864
 1396SOL     OW 5086   6.591   6.238   4.607
 1396SOL    HW1 5087   6.546   6.301   4.670
 1396SOL    HW2 5088   6.575   6.269   4.513
 1397SOL     OW 5089   5.222   0.031   4.338
 1397SOL    HW1 5090   5.318   0.053   4.359
 1397SOL    HW2 5091   5.165   0.110   4.360
 1398SOL     OW 5092   1.562   1.467   5.252
 1398SOL    HW1 5093   1.503   1.412   5.194
 1398SOL    HW2 5094   1.513   1.492   5.335
 1399SOL     OW 5095   3.524   5.724   1.297
 1399SOL    HW1 5096   3.439   5.766   1.266
 1399SOL    HW2 5097   3.593   5.731   1.225
 1400SOL     OW 5098   6.664   0.874   2.190
 1400SOL    HW1 5099   6.634   0.913   2.103
 1400SOL    HW2 5100   6.742   0.926   2.225
 1401SOL     OW 5101   0.574   2.137   5.394
 1401SOL    HW1 5102   0.634   2.071   5.440
 1401SOL    HW2 5103   0.629   2.213   5.359
 1402SOL     OW 5104   0.040   3.172   0.142
 1402SOL    HW1 5105   0.135   3.158   0.166
 1402SOL    HW2 5106   0.024   3.138   0.049
 1403SOL     OW 5107   3.119   6.446   2.266
 1403SOL    HW1 5108   3.174   6.392   2.202
 1403SOL    HW2 5109   3.149   6.542   2.262
 1404SOL     OW 5110   5.765   0.742   0.350
 1404SOL    HW1 5111   5.665   0.737   0.358
 1404SOL    HW2 5112   5.806   0.671   0.408
 1405SOL     OW 5113   1.996   4.077   0.995
 1405SOL    HW1 5114   1.977   4.066   0.898
 1405SOL    HW2 5115   1.913   4.057   1.048
 1406SOL     OW 5116   0.808   4.083   1.666
 1406SOL    HW1 5117   0.808   4.126   1.757
 1406SOL    HW2 5118   0.863   4.138   1.604
 1407SOL     OW 5119   6.485   1.516   2.184
 1407SOL    HW1 5120   6.581   1.491   2.193
 1407SOL    HW2 5121   6.428   1.439   2.213
 1408SOL     OW 5122   5.348   0.863   6.355
 1408SOL    HW1 5123   5.261   0.893   6.394
 1408SOL    HW2 5124   5.424   0.896   6.412
 1409SOL     OW 5125   0.232   0.760   4.691
 1409SOL    HW1 5126   0.290   0.719   4.620
 1409SOL    HW2 5127   0.193   0.845   4.656
 1410SOL     OW 5128   0.795   2.941   6.958
 1410SOL    HW1 5129   0.894   2.946   6.942
 1410SOL    HW2 5130   0.765   2.846   6.951
 1411SOL     OW 5131   2.187   6.333   2.682
 1411SOL    HW1 5132   2.196   6.352   2.780
 1411SOL    HW2 5133   2.197   6.418   2.631
 1412SOL     OW 5134   1.947   2.912   0.527
 1412SOL    HW1 5135   1.994   2.949   0.447
 1412SOL    HW2 5136   1.878   2.977   0.559
 1413SOL     OW 5137   2.428   0.819   4.401
 1413SOL    HW1 5138   2.431   0.892   4.333
 1413SOL    HW2 5139   2.346   0.828   4.457
 1414SOL     OW 5140   2.392   1.953   1.916
 1414SOL    HW1 5141   2.471   1.922   1.970
 1414SOL    HW2 5142   2.410   2.045   1.881
 1415SOL     OW 5143   3.400   6.286   4.847
 1415SOL    HW1 5144   3.403   6.330   4.757
 1415SOL    HW2 5145   3.336   6.210   4.844
 1416SOL     OW 5146   4.357   4.586   2.590
 1416SOL    HW1 5147   4.264   4.559   2.613
 1416SOL    HW2 5148   4.371   4.578   2.491
 1417SOL     OW 5149   2.687   2.631   6.738
 1417SOL    HW1 5150   2.759   2.564   6.722
 1417SOL    HW2 5151   2.723   2.724   6.728
 1418SOL     OW 5152   3.123   4.042   2.879
 1418SOL    HW1 5153   3.086   3.970   2.821
 1418SOL    HW2 5154   3.216   4.064   2.851
 1419SOL     OW 5155   3.429   6.477   4.640
 1419SOL    HW1 5156   3.379   6.452   4.556
 1419SOL    HW2 5157   3.396   6.565   4.673
 1420SOL     OW 5158   1.233   6.423   2.547
 1420SOL    HW1 5159   1.185   6.341   2.519
 1420SOL    HW2 5160   1.331   6.414   2.526
 1421SOL     OW 5161   2.052   2.248   2.892
 1421SOL    HW1 5162   2.090   2.234   2.984
 1421SOL    HW2 5163   2.127   2.245   2.826
 1422SOL     OW 5164   2.214   4.786   2.002
 1422SOL    HW1 5165   2.120   4.799   2.032
 1422SOL    HW2 5166   2.277   4.806   2.077
 1423SOL     OW 5167   5.359   6.181   2.536
 1423SOL    HW1 5168   5.329   6.088   2.557
 1423SOL    HW2 5169   5.301   6.220   2.464
 1424SOL     OW 5170   5.457   4.936   4.903
 1424SOL    HW1 5171   5.392   5.005   4.871
 1424SOL    HW2 5172   5.547   4.954   4.863
 1425SOL     OW 5173   2.083   6.570   4.040
 1425SOL    HW1 5174   2.064   6.617   3.955
 1425SOL    HW2 5175   2.010   6.588   4.106
 1426SOL     OW 5176   1.053   1.792   6.047
 1426SOL    HW1 5177   1.028   1.697   6.065
 1426SOL    HW2 5178   0.970   1.847   6.037
 1427SOL     OW 5179   6.866   6.987   3.538
 1427SOL    HW1 5180   6.796   6.935   3.488
 1427SOL    HW2 5181   6.822   0.037   3.587
 1428SOL     OW 5182   6.266   2.082   0.410
 1428SOL    HW1 5183   6.326   2.137   0.351
 1428SOL    HW2 5184   6.255   1.991   0.371
 1429SOL     OW 5185   6.609   0.498   0.607
 1429SOL    HW1 5186   6.607   0.482   0.508
 1429SOL    HW2 5187   6.639   0.414   0.653
 1430SOL     OW 5188   1.578   4.064   3.672
 1430SOL    HW1 5189   1.672   4.037   3.649
 1430SOL    HW2 5190   1.515   3.990   3.645
 1431SOL     OW 5191   2.750   1.598   2.085
 1431SOL    HW1 5192   2.810   1.677   2.081
 1431SOL    HW2 5193   2.660   1.622   2.049
 1432SOL     OW 5194   2.549   1.276   3.165
 1432SOL    HW1 5195   2.527   1.253   3.260
 1432SOL    HW2 5196   2.645   1.304   3.159
 1433SOL     OW 5197   4.309   0.752   3.827
 1433SOL    HW1 5198   4.318   0.685   3.901
 1433SOL    HW2 5199   4.262   0.833   3.861
 1434SOL     OW 5200   0.546   0.934   5.561
 1434SOL    HW1 5201   0.616   0.915   5.631
 1434SOL    HW2 5202   0.528   1.032   5.557
 1435SOL     OW 5203   5.564   1.480   2.899
 1435SOL    HW1 5204   5.625   1.560   2.910
 1435SOL    HW2 5205   5.546   1.441   2.989
 1436SOL     OW 5206   3.839   4.007   6.776
 1436SOL    HW1 5207   3.879   4.089   6.735
 1436SOL    HW2 5208   3.763   3.975   6.720
 1437SOL     OW 5209   3.053   1.176   3.333
 1437SOL    HW1 5210   3.138   1.135   3.300
 1437SOL    HW2 5211   3.017   1.239   3.265
 1438SOL     OW 5212   3.447   6.433   1.685
 1438SOL    HW1 5213   3.509   6.373   1.635
 1438SOL    HW2 5214   3.372   6.461   1.625
 1439SOL     OW 5215   0.553   6.268   2.287
 1439SOL    HW1 5216   0.482   6.207   2.325
 1439SOL    HW2 5217   0.543   6.359   2.327
 1440SOL     OW 5218   2.779   4.011   0.994
 1440SOL    HW1 5219   2.720   4.009   0.913
 1440SOL    HW2 5220   2.871   4.041   0.966
 1441SOL     OW 5221   6.163   6.798   1.421
 1441SOL    HW1 5222   6.126   6.718   1.375
 1441SOL    HW2 5223   6.138   6.796   1.518
 1442SOL     OW 5224   5.788   6.115   0.253
 1442SOL    HW1 5225   5.753   6.180   0.321
 1442SOL    HW2 5226   5.716   6.050   0.228
 1443SOL     OW 5227   0.689   2.468   2.599
 1443SOL    HW1 5228   0.644   2.464   2.510
 1443SOL    HW2 5229   0.658   2.549   2.649
 1444SOL     OW 5230   5.716   6.614   0.469
 1444SOL    HW1 5231   5.726   6.669   0.386
 1444SOL    HW2 5232   5.806   6.587   0.502
 1445SOL     OW 5233   0.611   3.502   2.812
 1445SOL    HW1 5234   0.694   3.525   2.762
 1445SOL    HW2 5235   0.562   3.586   2.836
 1446SOL     OW 5236   5.823   7.016   6.534
 1446SOL    HW1 5237   5.817   0.073   6.478
 1446SOL    HW2 5238   5.755   7.020   6.607
 1447SOL     OW 5239   5.560   5.434   3.491
 1447SOL    HW1 5240   5.627   5.386   3.434
 1447SOL    HW2 5241   5.533   5.519   3.446
 1448SOL     OW 5242   0.381   2.907   5.260
 1448SOL    HW1 5243   0.362   2.885   5.164
 1448SOL    HW2 5244   0.450   2.979   5.265
 1449SOL     OW 5245   1.502   3.736   4.954
 1449SOL    HW1 5246   1.524   3.743   5.051
 1449SOL    HW2 5247   1.452   3.818   4.925
 1450SOL     OW 5248   1.652   1.817   5.407
 1450SOL    HW1 5249   1.595   1.747   5.450
 1450SOL    HW2 5250   1.746   1.808   5.439
 1451SOL     OW 5251   2.371   6.565   1.255
 1451SOL    HW1 5252   2.417   6.491   1.305
 1451SOL    HW2 5253   2.350   6.534   1.162
 1452SOL     OW 5254   4.282   3.145   6.491
 1452SOL    HW1 5255   4.233   3.226   6.522
 1452SOL    HW2 5256   4.220   3.066   6.492
 1453SOL     OW 5257   0.610   4.554   5.578
 1453SOL    HW1 5258   0.687   4.571   5.640
 1453SOL    HW2 5259   0.526   4.591   5.617
 1454SOL     OW 5260   3.007   2.120   3.628
 1454SOL    HW1 5261   3.050   2.110   3.717
 1454SOL    HW2 5262   3.073   2.096   3.556
 1455SOL     OW 5263   1.590   6.418   2.970
 1455SOL    HW1 5264   1.550   6.348   3.028
 1455SOL    HW2 5265   1.642   6.375   2.896
 1456SOL     OW 5266   6.694   5.628   5.960
 1456SOL    HW1 5267   6.601   5.650   5.929
 1456SOL    HW2 5268   6.728   5.548   5.911
 1457SOL     OW 5269   0.548   3.893   6.953
 1457SOL    HW1 5270   0.547   3.795   6.972
 1457SOL    HW2 5271   0.551   3.944   0.014
 1458SOL     OW 5272   5.556   5.075   5.685
 1458SOL    HW1 5273   5.558   5.022   5.771
 1458SOL    HW2 5274   5.592   5.018   5.611
 1459SOL     OW 5275   5.040   6.324   5.562
 1459SOL    HW1 5276   5.100   6.371   5.497
 1459SOL    HW2 5277   4.945   6.348   5.542
 1460SOL     OW 5278   1.752   6.689   5.384
 1460SOL    HW1 5279   1.663   6.657   5.416
 1460SOL    HW2 5280   1.812   6.611   5.370
 1461SOL     OW 5281   0.004   3.038   2.418
 1461SOL    HW1 5282   0.023   2.999   2.329
 1461SOL    HW2 5283   0.068   3.001   2.486
 1462SOL     OW 5284   0.870   0.301   0.257
 1462SOL    HW1 5285   0.828   0.260   0.176
 1462SOL    HW2 5286   0.816   0.278   0.338
 1463SOL     OW 5287   2.052   5.956   6.864
 1463SOL    HW1 5288   1.965   5.970   6.912
 1463SOL    HW2 5289   2.127   5.979   6.925
 1464SOL     OW 5290   5.802   4.086   3.956
 1464SOL    HW1 5291   5.814   4.167   3.899
 1464SOL    HW2 5292   5.892   4.043   3.973
 1465SOL     OW 5293   1.600   1.495   3.237
 1465SOL    HW1 5294   1.618   1.450   3.150
 1465SOL    HW2 5295   1.515   1.547   3.232
 1466SOL     OW 5296   3.742   2.523   1.737
 1466SOL    HW1 5297   3.644   2.537   1.720
 1466SOL    HW2 5298   3.753   2.456   1.811
 1467SOL     OW 5299   0.898   1.108   3.673
 1467SOL    HW1 5300   0.916   1.050   3.752
 1467SOL    HW2 5301   0.935   1.199   3.688
 1468SOL     OW 5302   3.224   5.515   1.984
 1468SOL    HW1 5303   3.126   5.522   1.966
 1468SOL    HW2 5304   3.275   5.548   1.905
 1469SOL     OW 5305   6.344   6.263   3.713
 1469SOL    HW1 5306   6.259   6.302   3.750
 1469SOL    HW2 5307   6.321   6.186   3.652
 1470SOL     OW 5308   6.803   2.698   0.929
 1470SOL    HW1 5309   6.833   2.704   1.025
 1470SOL    HW2 5310   6.718   2.646   0.925
 1471SOL     OW 5311   6.475   6.928   1.315
 1471SOL    HW1 5312   6.464   6.864   1.390
 1471SOL    HW2 5313   6.416   7.007   1.329
 1472SOL     OW 5314   2.847   0.008   6.166
 1472SOL    HW1 5315   2.840   0.085   6.228
 1472SOL    HW2 5316   2.771   0.009   6.101
 1473SOL     OW 5317   3.403   4.913   4.305
 1473SOL    HW1 5318   3.468   4.836   4.306
 1473SOL    HW2 5319   3.350   4.910   4.221
 1474SOL     OW 5320   4.166   4.563   1.437
 1474SOL    HW1 5321   4.225   4.604   1.506
 1474SOL    HW2 5322   4.182   4.607   1.349
 1475SOL     OW 5323   5.491   0.744   0.326
 1475SOL    HW1 5324   5.461   0.805   0.254
 1475SOL    HW2 5325   5.455   0.775   0.414
 1476SOL     OW 5326   3.187   0.824   1.469
 1476SOL    HW1 5327   3.092   0.828   1.499
 1476SOL    HW2 5328   3.190   0.832   1.369
 1477SOL     OW 5329   4.409   5.705   1.035
 1477SOL    HW1 5330   4.367   5.718   0.946
 1477SOL    HW2 5331   4.378   5.776   1.098
 1478SOL     OW 5332   4.962   5.709   5.149
 1478SOL    HW1 5333   5.048   5.755   5.168
 1478SOL    HW2 5334   4.897   5.774   5.110
 1479SOL     OW 5335   3.798   3.843   1.225
 1479SOL    HW1 5336   3.871   3.851   1.157
 1479SOL    HW2 5337   3.805   3.754   1.271
 1480SOL     OW 5338   2.949   0.730   5.356
 1480SOL    HW1 5339   2.988   0.752   5.267
 1480SOL    HW2 5340   3.022   0.706   5.419
 1481SOL     OW 5341   5.418   2.773   4.955
 1481SOL    HW1 5342   5.374   2.775   4.865
 1481SOL    HW2 5343   5.388   2.852   5.008
 1482SOL     OW 5344   4.533   0.109   0.620
 1482SOL    HW1 5345   4.547   0.030   0.560
 1482SOL    HW2 5346   4.436   0.115   0.644
 1483SOL     OW 5347   4.327   1.102   6.244
 1483SOL    HW1 5348   4.284   1.192   6.240
 1483SOL    HW2 5349   4.426   1.112   6.250
 1484SOL     OW 5350   2.806   5.224   4.203
 1484SOL    HW1 5351   2.739   5.165   4.248
 1484SOL    HW2 5352   2.834   5.297   4.265
 1485SOL     OW 5353   5.091   1.985   2.681
 1485SOL    HW1 5354   5.141   1.911   2.637
 1485SOL    HW2 5355   5.150   2.028   2.750
 1486SOL     OW 5356   4.983   6.744   3.384
 1486SOL    HW1 5357   5.070   6.781   3.418
 1486SOL    HW2 5358   4.921   6.729   3.461
 1487SOL     OW 5359   6.948   0.549   0.709
 1487SOL    HW1 5360   6.944   0.563   0.610
 1487SOL    HW2 5361   0.009   0.587   0.745
 1488SOL     OW 5362   6.528   0.838   2.803
 1488SOL    HW1 5363   6.601   0.811   2.866
 1488SOL    HW2 5364   6.466   0.761   2.788
 1489SOL     OW 5365   3.874   5.220   6.338
 1489SOL    HW1 5366   3.973   5.202   6.337
 1489SOL    HW2 5367   3.830   5.157   6.401
 1490SOL     OW 5368   0.014   2.516   2.103
 1490SOL    HW1 5369   0.007   2.580   2.179
 1490SOL    HW2 5370   0.105   2.520   2.063
 1491SOL     OW 5371   6.550   3.237   1.639
 1491SOL    HW1 5372   6.589   3.329   1.637
 1491SOL    HW2 5373   6.610   3.174   1.589
 1492SOL     OW 5374   6.011   0.905   2.822
 1492SOL    HW1 5375   5.918   0.942   2.827
 1492SOL    HW2 5376   6.008   0.806   2.836
 1493SOL     OW 5377   4.431   1.614   5.821
 1493SOL    HW1 5378   4.385   1.648   5.903
 1493SOL    HW2 5379   4.467   1.522   5.839
 1494SOL     OW 5380   5.587   2.720   5.911
 1494SOL    HW1 5381   5.611   2.629   5.945
 1494SOL    HW2 5382   5.532   2.712   5.828
 1495SOL     OW 5383   5.931   3.707   4.301
 1495SOL    HW1 5384   5.899   3.784   4.357
 1495SOL    HW2 5385   5.900   3.720   4.207
 1496SOL     OW 5386   6.745   6.068   0.027
 1496SOL    HW1 5387   6.815   6.006   0.063
 1496SOL    HW2 5388   6.655   6.024   0.032
 1497SOL     OW 5389   5.338   2.761   2.647
 1497SOL    HW1 5390   5.348   2.760   2.746
 1497SOL    HW2 5391   5.268   2.828   2.621
 1498SOL     OW 5392   3.170   4.613   0.995
 1498SOL    HW1 5393   3.123   4.595   1.081
 1498SOL    HW2 5394   3.156   4.537   0.932
 1499SOL     OW 5395   6.805   3.866   5.793
 1499SOL    HW1 5396   6.896   3.843   5.828
 1499SOL    HW2 5397   6.785   3.809   5.714
 1500SOL     OW 5398   0.791   5.885   0.557
 1500SOL    HW1 5399   0.772   5.974   0.515
 1500SOL    HW2 5400   0.742   5.813   0.508
 1501SOL     OW 5401   5.519   1.125   6.059
 1501SOL    HW1 5402   5.563   1.039   6.086
 1501SOL    HW2 5403   5.588   1.191   6.031
 1502SOL     OW 5404   6.790   0.766   6.301
 1502SOL    HW1 5405   6.821   0.725   6.387
 1502SOL    HW2 5406   6.864   0.762   6.234
 1503SOL     OW 5407   0.764   4.160   1.907
 1503SOL    HW1 5408   0.709   4.202   1.980
 1503SOL    HW2 5409   0.836   4.103   1.948
 1504SOL     OW 5410   0.782   0.225   3.237
 1504SOL    HW1 5411   0.804   0.167   3.316
 1504SOL    HW2 5412   0.683   0.230   3.226
 1505SOL     OW 5413   6.036   6.754   4.723
 1505SOL    HW1 5414   5.980   6.792   4.649
 1505SOL    HW2 5415   6.077   6.668   4.692
 1506SOL     OW 5416   1.613   1.096   1.048
 1506SOL    HW1 5417   1.628   1.001   1.020
 1506SOL    HW2 5418   1.659   1.113   1.135
 1507SOL     OW 5419   1.214   2.036   4.547
 1507SOL    HW1 5420   1.235   1.939   4.556
 1507SOL    HW2 5421   1.120   2.053   4.577
 1508SOL     OW 5422   0.475   0.782   0.695
 1508SOL    HW1 5423   0.385   0.772   0.652
 1508SOL    HW2 5424   0.493   0.880   0.710
 1509SOL     OW 5425   4.981   1.176   4.852
 1509SOL    HW1 5426   4.968   1.077   4.840
 1509SOL    HW2 5427   5.073   1.202   4.821
 1510SOL     OW 5428   3.227   0.272   3.709
 1510SOL    HW1 5429   3.227   0.260   3.610
 1510SOL    HW2 5430   3.318   0.299   3.740
 1511SOL     OW 5431   3.889   3.542   3.877
 1511SOL    HW1 5432   3.852   3.560   3.786
 1511SOL    HW2 5433   3.926   3.626   3.915
 1512SOL     OW 5434   6.188   5.876   1.623
 1512SOL    HW1 5435   6.138   5.834   1.547
 1512SOL    HW2 5436   6.146   5.850   1.709
 1513SOL     OW 5437   3.118   6.935   5.849
 1513SOL    HW1 5438   3.214   6.927   5.877
 1513SOL    HW2 5439   3.059   6.892   5.917
 1514SOL     OW 5440   2.992   2.466   5.836
 1514SOL    HW1 5441   2.974   2.483   5.933
 1514SOL    HW2 5442   2.907   2.444   5.789
 1515SOL     OW 5443   6.297   1.915   2.429
 1515SOL    HW1 5444   6.325   2.011   2.429
 1515SOL    HW2 5445   6.378   1.857   2.417
 1516SOL     OW 5446   6.345   6.148   4.796
 1516SOL    HW1 5447   6.419   6.110   4.741
 1516SOL    HW2 5448   6.266   6.166   4.738
 1517SOL     OW 5449   3.720   6.150   3.585
 1517SOL    HW1 5450   3.760   6.228   3.538
 1517SOL    HW2 5451   3.690   6.176   3.676
 1518SOL     OW 5452   6.988   2.490   0.605
 1518SOL    HW1 5453   6.984   2.569   0.666
 1518SOL    HW2 5454   0.034   2.505   0.536
 1519SOL     OW 5455   0.240   4.118   0.498
 1519SOL    HW1 5456   0.159   4.158   0.541
 1519SOL    HW2 5457   0.322   4.167   0.529
 1520SOL     OW 5458   0.896   5.407   1.374
 1520SOL    HW1 5459   0.821   5.349   1.406
 1520SOL    HW2 5460   0.943   5.362   1.298
 1521SOL     OW 5461   2.199   4.710   6.419
 1521SOL    HW1 5462   2.200   4.779   6.492
 1521SOL    HW2 5463   2.105   4.682   6.401
 1522SOL     OW 5464   4.996   5.681   4.804
 1522SOL    HW1 5465   5.063   5.627   4.753
 1522SOL    HW2 5466   4.904   5.664   4.767
 1523SOL     OW 5467   3.993   6.420   6.912
 1523SOL    HW1 5468   4.056   6.376   6.847
 1523SOL    HW2 5469   4.044   6.452   6.991
 1524SOL     OW 5470   2.237   2.294   2.670
 1524SOL    HW1 5471   2.156   2.285   2.612
 1524SOL    HW2 5472   2.307   2.229   2.640
 1525SOL     OW 5473   6.228   2.555   1.031
 1525SOL    HW1 5474   6.275   2.560   1.119
 1525SOL    HW2 5475   6.226   2.460   1.000
 1526SOL     OW 5476   0.479   1.540   0.186
 1526SOL    HW1 5477   0.490   1.554   0.087
 1526SOL    HW2 5478   0.555   1.584   0.234
 1527SOL     OW 5479   3.378   1.610   4.367
 1527SOL    HW1 5480   3.383   1.708   4.346
 1527SOL    HW2 5481   3.291   1.590   4.412
 1528SOL     OW 5482   5.034   3.625   0.880
 1528SOL    HW1 5483   5.116   3.663   0.923
 1528SOL    HW2 5484   4.954   3.650   0.934
 1529SOL     OW 5485   4.921   0.904   6.355
 1529SOL    HW1 5486   4.834   0.925   6.309
 1529SOL    HW2 5487   4.937   0.805   6.351
 1530SOL     OW 5488   3.153   0.185   1.394
 1530SOL    HW1 5489   3.074   0.188   1.454
 1530SOL    HW2 5490   3.145   0.255   1.323
 1531SOL     OW 5491   3.693   0.349   4.104
 1531SOL    HW1 5492   3.718   0.253   4.115
 1531SOL    HW2 5493   3.595   0.360   4.122
 1532SOL     OW 5494   3.366   5.125   6.026
 1532SOL    HW1 5495   3.434   5.070   5.978
 1532SOL    HW2 5496   3.408   5.208   6.060
 1533SOL     OW 5497   5.381   5.575   1.153
 1533SOL    HW1 5498   5.469   5.587   1.198
 1533SOL    HW2 5499   5.312   5.630   1.200
 1534SOL     OW 5500   3.861   5.722   0.014
 1534SOL    HW1 5501   3.769   5.692   7.014
 1534SOL    HW2 5502   3.928   5.668   6.990
 1535SOL     OW 5503   6.472   6.434   4.739
 1535SOL    HW1 5504   6.442   6.404   4.829
 1535SOL    HW2 5505   6.394   6.471   4.688
 1536SOL     OW 5506   4.037   4.289   0.103
 1536SOL    HW1 5507   4.034   4.373   0.157
 1536SOL    HW2 5508   3.944   4.258   0.084
 1537SOL     OW 5509   3.209   4.910   3.775
 1537SOL    HW1 5510   3.295   4.914   3.723
 1537SOL    HW2 5511   3.167   5.001   3.774
 1538SOL     OW 5512   3.321   1.774   0.427
 1538SOL    HW1 5513   3.299   1.676   0.426
 1538SOL    HW2 5514   3.269   1.819   0.499
 1539SOL     OW 5515   5.129   3.411   1.568
 1539SOL    HW1 5516   5.089   3.325   1.539
 1539SOL    HW2 5517   5.072   3.453   1.639
 1540SOL     OW 5518   2.087   6.767   4.464
 1540SOL    HW1 5519   2.051   6.809   4.381
 1540SOL    HW2 5520   2.181   6.797   4.478
 1541SOL     OW 5521   3.343   2.958   4.546
 1541SOL    HW1 5522   3.259   2.953   4.599
 1541SOL    HW2 5523   3.420   2.930   4.603
 1542SOL     OW 5524   6.537   6.890   2.352
 1542SOL    HW1 5525   6.632   6.906   2.324
 1542SOL    HW2 5526   6.477   6.953   2.304
 1543SOL     OW 5527   3.221   5.464   6.308
 1543SOL    HW1 5528   3.233   5.447   6.211
 1543SOL    HW2 5529   3.309   5.485   6.350
 1544SOL     OW 5530   3.813   3.010   3.706
 1544SOL    HW1 5531   3.732   2.952   3.702
 1544SOL    HW2 5532   3.859   3.009   3.617
 1545SOL     OW 5533   6.389   0.393   1.745
 1545SOL    HW1 5534   6.406   0.334   1.824
 1545SOL    HW2 5535   6.428   0.483   1.762
 1546SOL     OW 5536   5.223   6.768   5.509
 1546SOL    HW1 5537   5.248   6.677   5.544
 1546SOL    HW2 5538   5.149   6.805   5.564
 1547SOL     OW 5539   1.359   4.073   0.386
 1547SOL    HW1 5540   1.372   4.144   0.455
 1547SOL    HW2 5541   1.400   4.102   0.300
 1548SOL     OW 5542   6.610   2.714   0.372
 1548SOL    HW1 5543   6.529   2.746   0.421
 1548SOL    HW2 5544   6.598   2.619   0.345
 1549SOL     OW 5545   3.757   1.470   4.565
 1549SOL    HW1 5546   3.663   1.481   4.532
 1549SOL    HW2 5547   3.793   1.559   4.594
 1550SOL     OW 5548   3.646   3.227   2.613
 1550SOL    HW1 5549   3.569   3.189   2.664
 1550SOL    HW2 5550   3.706   3.276   2.675
 1551SOL     OW 5551   0.848   5.299   6.856
 1551SOL    HW1 5552   0.774   5.362   6.884
 1551SOL    HW2 5553   0.845   5.217   6.914
 1552SOL     OW 5554   2.742   4.984   1.581
 1552SOL    HW1 5555   2.757   4.924   1.660
 1552SOL    HW2 5556   2.661   5.041   1.597
 1553SOL     OW 5557   0.377   1.704   5.864
 1553SOL    HW1 5558   0.311   1.680   5.793
 1553SOL    HW2 5559   0.434   1.624   5.885
 1554SOL     OW 5560   3.179   1.961   3.482
 1554SOL    HW1 5561   3.164   1.895   3.408
 1554SOL    HW2 5562   3.272   1.998   3.475
 1555SOL     OW 5563   6.016   2.336   6.085
 1555SOL    HW1 5564   6.091   2.402   6.080
 1555SOL    HW2 5565   5.965   2.350   6.169
 1556SOL     OW 5566   2.283   1.180   6.664
 1556SOL    HW1 5567   2.378   1.198   6.640
 1556SOL    HW2 5568   2.258   1.087   6.636
 1557SOL     OW 5569   1.746   3.511   6.218
 1557SOL    HW1 5570   1.823   3.505   6.282
 1557SOL    HW2 5571   1.723   3.607   6.204
 1558SOL     OW 5572   6.550   0.366   4.717
 1558SOL    HW1 5573   6.606   0.316   4.784
 1558SOL    HW2 5574   6.609   0.428   4.665
 1559SOL     OW 5575   0.457   2.796   6.307
 1559SOL    HW1 5576   0.375   2.799   6.364
 1559SOL    HW2 5577   0.491   2.701   6.302
 1560SOL     OW 5578   6.857   0.913   6.078
 1560SOL    HW1 5579   6.899   0.972   6.147
 1560SOL    HW2 5580   6.917   0.907   5.998
 1561SOL     OW 5581   4.840   6.124   2.463
 1561SOL    HW1 5582   4.802   6.177   2.539
 1561SOL    HW2 5583   4.832   6.027   2.483
 1562SOL     OW 5584   4.891   0.214   2.518
 1562SOL    HW1 5585   4.867   0.281   2.588
 1562SOL    HW2 5586   4.811   0.192   2.463
 1563SOL     OW 5587   3.374   1.420   6.127
 1563SOL    HW1 5588   3.353   1.469   6.043
 1563SOL    HW2 5589   3.349   1.476   6.206
 1564SOL     OW 5590   1.198   1.539   2.213
 1564SOL    HW1 5591   1.209   1.552   2.311
 1564SOL    HW2 5592   1.288   1.545   2.169
 1565SOL     OW 5593   4.924   3.678   2.357
 1565SOL    HW1 5594   4.911   3.644   2.264
 1565SOL    HW2 5595   4.911   3.603   2.422
 1566SOL     OW 5596   5.264   4.228   3.615
 1566SOL    HW1 5597   5.312   4.165   3.554
 1566SOL    HW2 5598   5.327   4.300   3.643
 1567SOL     OW 5599   5.997   5.746   5.925
 1567SOL    HW1 5600   6.071   5.731   5.859
 1567SOL    HW2 5601   6.032   5.796   6.004
 1568SOL     OW 5602   1.167   0.670   0.437
 1568SOL    HW1 5603   1.176   0.593   0.500
 1568SOL    HW2 5604   1.120   0.745   0.483
 1569SOL     OW 5605   3.992   6.833   4.629
 1569SOL    HW1 5606   4.060   6.867   4.693
 1569SOL    HW2 5607   3.987   6.734   4.633
 1570SOL     OW 5608   2.515   1.931   1.514
 1570SOL    HW1 5609   2.498   1.924   1.416
 1570SOL    HW2 5610   2.598   1.984   1.530
 1571SOL     OW 5611   5.876   3.154   1.698
 1571SOL    HW1 5612   5.834   3.172   1.609
 1571SOL    HW2 5613   5.974   3.139   1.687
 1572SOL     OW 5614   0.577   7.008   1.991
 1572SOL    HW1 5615   0.583   0.024   1.900
 1572SOL    HW2 5616   0.482   6.982   2.009
 1573SOL     OW 5617   5.129   6.996   1.521
 1573SOL    HW1 5618   5.156   6.988   1.616
 1573SOL    HW2 5619   5.149   6.911   1.472
 1574SOL     OW 5620   0.261   2.118   1.490
 1574SOL    HW1 5621   0.190   2.065   1.537
 1574SOL    HW2 5622   0.277   2.078   1.400
 1575SOL     OW 5623   1.775   2.671   0.519
 1575SOL    HW1 5624   1.823   2.584   0.517
 1575SOL    HW2 5625   1.841   2.746   0.515
 1576SOL     OW 5626   5.784   6.112   3.832
 1576SOL    HW1 5627   5.702   6.055   3.819
 1576SOL    HW2 5628   5.759   6.193   3.885
 1577SOL     OW 5629   2.595   0.532   5.470
 1577SOL    HW1 5630   2.591   0.474   5.551
 1577SOL    HW2 5631   2.616   0.625   5.497
 1578SOL     OW 5632   5.598   3.642   5.769
 1578SOL    HW1 5633   5.635   3.551   5.748
 1578SOL    HW2 5634   5.622   3.666   5.863
 1579SOL     OW 5635   0.384   1.444   3.631
 1579SOL    HW1 5636   0.402   1.541   3.644
 1579SOL    HW2 5637   0.306   1.416   3.688
 1580SOL     OW 5638   2.720   4.504   5.389
 1580SOL    HW1 5639   2.764   4.557   5.462
 1580SOL    HW2 5640   2.777   4.507   5.307
 1581SOL     OW 5641   6.677   3.680   4.568
 1581SOL    HW1 5642   6.599   3.618   4.559
 1581SOL    HW2 5643   6.662   3.761   4.513
 1582SOL     OW 5644   0.665   4.943   4.577
 1582SOL    HW1 5645   0.751   4.980   4.613
 1582SOL    HW2 5646   0.669   4.941   4.477
 1583SOL     OW 5647   2.171   2.987   3.724
 1583SOL    HW1 5648   2.191   2.934   3.642
 1583SOL    HW2 5649   2.220   2.948   3.802
 1584SOL     OW 5650   2.151   6.948   5.512
 1584SOL    HW1 5651   2.123   6.854   5.533
 1584SOL    HW2 5652   2.088   7.012   5.556
 1585SOL     OW 5653   5.320   1.664   3.498
 1585SOL    HW1 5654   5.321   1.586   3.436
 1585SOL    HW2 5655   5.414   1.691   3.519
 1586SOL     OW 5656   3.664   3.824   2.432
 1586SOL    HW1 5657   3.657   3.914   2.389
 1586SOL    HW2 5658   3.738   3.824   2.499
 1587SOL     OW 5659   3.324   6.871   6.979
 1587SOL    HW1 5660   3.336   6.771   6.979
 1587SOL    HW2 5661   3.254   6.895   6.911
 1588SOL     OW 5662   5.547   1.860   1.916
 1588SOL    HW1 5663   5.493   1.798   1.973
 1588SOL    HW2 5664   5.586   1.809   1.839
 1589SOL     OW 5665   6.008   4.816   4.297
 1589SOL    HW1 5666   5.971   4.823   4.390
 1589SOL    HW2 5667   6.102   4.851   4.296
 1590SOL     OW 5668   1.944   0.600   0.180
 1590SOL    HW1 5669   1.883   0.618   0.103
 1590SOL    HW2 5670   1.901   0.534   0.241
 1591SOL     OW 5671   1.141   4.613   2.302
 1591SOL    HW1 5672   1.085   4.530   2.314
 1591SOL    HW2 5673   1.186   4.610   2.213
 1592SOL     OW 5674   2.925   3.773   2.465
 1592SOL    HW1 5675   2.976   3.702   2.513
 1592SOL    HW2 5676   2.933   3.760   2.367
 1593SOL     OW 5677   0.861   5.996   4.320
 1593SOL    HW1 5678   0.879   6.038   4.409
 1593SOL    HW2 5679   0.891   6.058   4.248
 1594SOL     OW 5680   6.994   5.140   2.493
 1594SOL    HW1 5681   0.062   5.172   2.511
 1594SOL    HW2 5682   6.954   5.103   2.577
 1595SOL     OW 5683   6.957   4.681   6.893
 1595SOL    HW1 5684   6.953   4.588   6.856
 1595SOL    HW2 5685   6.961   4.747   6.818
 1596SOL     OW 5686   2.236   5.583   6.028
 1596SOL    HW1 5687   2.282   5.509   6.077
 1596SOL    HW2 5688   2.140   5.586   6.055
 1597SOL     OW 5689   2.386   6.076   1.653
 1597SOL    HW1 5690   2.400   6.052   1.749
 1597SOL    HW2 5691   2.469   6.119   1.616
 1598SOL     OW 5692   0.622   4.685   1.238
 1598SOL    HW1 5693   0.581   4.619   1.302
 1598SOL    HW2 5694   0.717   4.660   1.221
 1599SOL     OW 5695   3.579   4.928   7.005
 1599SOL    HW1 5696   3.650   4.970   6.949
 1599SOL    HW2 5697   3.557   4.989   0.056
 1600SOL     OW 5698   5.664   1.304   4.788
 1600SOL    HW1 5699   5.678   1.212   4.751
 1600SOL    HW2 5700   5.645   1.367   4.713
 1601SOL     OW 5701   1.089   4.822   5.231
 1601SOL    HW1 5702   1.051   4.776   5.151
 1601SOL    HW2 5703   1.189   4.819   5.227
 1602SOL     OW 5704   1.496   5.736   3.654
 1602SOL    HW1 5705   1.436   5.664   3.687
 1602SOL    HW2 5706   1.583   5.732   3.702
 1603SOL     OW 5707   0.621   6.545   2.154
 1603SOL    HW1 5708   0.623   6.639   2.120
 1603SOL    HW2 5709   0.638   6.545   2.252
 1604SOL     OW 5710   0.036   5.061   6.524
 1604SOL    HW1 5711   0.036   5.001   6.444
 1604SOL    HW2 5712   0.129   5.077   6.554
 1605SOL     OW 5713   6.587   6.272   2.733
 1605SOL    HW1 5714   6.619   6.265   2.638
 1605SOL    HW2 5715   6.539   6.188   2.759
 1606SOL     OW 5716   5.088   7.008   5.972
 1606SOL    HW1 5717   4.990   6.989   5.973
 1606SOL    HW2 5718   5.103   0.081   5.961
 1607SOL     OW 5719   4.817   2.616   0.754
 1607SOL    HW1 5720   4.736   2.668   0.726
 1607SOL    HW2 5721   4.790   2.525   0.783
 1608SOL     OW 5722   2.223   6.866   1.046
 1608SOL    HW1 5723   2.319   6.862   1.073
 1608SOL    HW2 5724   2.205   6.798   0.976
 1609SOL     OW 5725   4.891   2.061   6.091
 1609SOL    HW1 5726   4.816   1.995   6.081
 1609SOL    HW2 5727   4.891   2.124   6.014
 1610SOL     OW 5728   6.538   6.333   4.353
 1610SOL    HW1 5729   6.499   6.299   4.267
 1610SOL    HW2 5730   6.499   6.423   4.373
 1611SOL     OW 5731   3.980   3.816   1.795
 1611SOL    HW1 5732   4.035   3.782   1.719
 1611SOL    HW2 5733   4.011   3.908   1.820
 1612SOL     OW 5734   2.204   1.453   4.691
 1612SOL    HW1 5735   2.107   1.449   4.712
 1612SOL    HW2 5736   2.254   1.390   4.751
 1613SOL     OW 5737   2.340   5.529   0.630
 1613SOL    HW1 5738   2.270   5.471   0.672
 1613SOL    HW2 5739   2.400   5.566   0.701
 1614SOL     OW 5740   6.624   2.322   6.836
 1614SOL    HW1 5741   6.645   2.420   6.837
 1614SOL    HW2 5742   6.536   2.308   6.791
 1615SOL     OW 5743   6.962   4.812   6.670
 1615SOL    HW1 5744   7.010   4.892   6.635
 1615SOL    HW2 5745   6.924   4.760   6.594
 1616SOL     OW 5746   3.357   1.845   6.157
 1616SOL    HW1 5747   3.343   1.944   6.161
 1616SOL    HW2 5748   3.275   1.801   6.120
 1617SOL     OW 5749   5.163   0.661   3.269
 1617SOL    HW1 5750   5.106   0.733   3.308
 1617SOL    HW2 5751   5.237   0.701   3.215
 1618SOL     OW 5752   6.266   3.408   1.144
 1618SOL    HW1 5753   6.356   3.369   1.164
 1618SOL    HW2 5754   6.215   3.420   1.229
 1619SOL     OW 5755   1.800   3.342   4.506
 1619SOL    HW1 5756   1.898   3.353   4.522
 1619SOL    HW2 5757   1.761   3.430   4.479
 1620SOL     OW 5758   2.975   5.467   1.835
 1620SOL    HW1 5759   2.882   5.500   1.820
 1620SOL    HW2 5760   3.039   5.524   1.784
 1621SOL     OW 5761   1.170   0.612   0.727
 1621SOL    HW1 5762   1.203   0.536   0.671
 1621SOL    HW2 5763   1.241   0.638   0.793
 1622SOL     OW 5764   1.986   1.700   4.251
 1622SOL    HW1 5765   1.935   1.768   4.304
 1622SOL    HW2 5766   1.950   1.609   4.270
 1623SOL     OW 5767   2.515   2.035   5.919
 1623SOL    HW1 5768   2.589   2.085   5.963
 1623SOL    HW2 5769   2.551   1.986   5.840
 1624SOL     OW 5770   3.002   1.718   0.302
 1624SOL    HW1 5771   2.963   1.804   0.334
 1624SOL    HW2 5772   3.102   1.723   0.307
 1625SOL     OW 5773   0.892   5.254   1.848
 1625SOL    HW1 5774   0.990   5.235   1.845
 1625SOL    HW2 5775   0.876   5.351   1.831
 1626SOL     OW 5776   1.965   2.894   6.617
 1626SOL    HW1 5777   1.925   2.985   6.628
 1626SOL    HW2 5778   1.971   2.872   6.520
 1627SOL     OW 5779   6.091   3.011   3.678
 1627SOL    HW1 5780   6.117   3.030   3.773
 1627SOL    HW2 5781   5.992   3.012   3.670
 1628SOL     OW 5782   3.388   4.312   0.591
 1628SOL    HW1 5783   3.414   4.337   0.685
 1628SOL    HW2 5784   3.471   4.303   0.535
 1629SOL     OW 5785   3.643   1.900   4.176
 1629SOL    HW1 5786   3.603   1.957   4.105
 1629SOL    HW2 5787   3.721   1.850   4.138
 1630SOL     OW 5788   0.732   4.772   5.418
 1630SOL    HW1 5789   0.702   4.848   5.475
 1630SOL    HW2 5790   0.664   4.698   5.424
 1631SOL     OW 5791   0.060   6.963   5.392
 1631SOL    HW1 5792   0.016   6.878   5.365
 1631SOL    HW2 5793   0.143   6.943   5.443
 1632SOL     OW 5794   6.775   0.429   0.933
 1632SOL    HW1 5795   6.838   0.468   0.866
 1632SOL    HW2 5796   6.705   0.497   0.957
 1633SOL     OW 5797   6.170   2.238   3.954
 1633SOL    HW1 5798   6.254   2.235   3.900
 1633SOL    HW2 5799   6.153   2.148   3.994
 1634SOL     OW 5800   2.792   0.223   6.637
 1634SOL    HW1 5801   2.828   0.150   6.696
 1634SOL    HW2 5802   2.769   0.302   6.692
 1635SOL     OW 5803   0.102   5.939   5.286
 1635SOL    HW1 5804   0.154   6.024   5.280
 1635SOL    HW2 5805   0.156   5.864   5.249
 1636SOL     OW 5806   2.229   6.165   2.099
 1636SOL    HW1 5807   2.219   6.187   2.196
 1636SOL    HW2 5808   2.254   6.069   2.088
 1637SOL     OW 5809   6.623   3.245   1.946
 1637SOL    HW1 5810   6.605   3.202   1.857
 1637SOL    HW2 5811   6.713   3.215   1.979
 1638SOL     OW 5812   6.837   3.294   4.213
 1638SOL    HW1 5813   6.896   3.373   4.198
 1638SOL    HW2 5814   6.856   3.254   4.303
 1639SOL     OW 5815   4.851   5.631   2.654
 1639SOL    HW1 5816   4.767   5.641   2.708
 1639SOL    HW2 5817   4.835   5.571   2.576
 1640SOL     OW 5818   6.367   0.587   0.736
 1640SOL    HW1 5819   6.457   0.571   0.696
 1640SOL    HW2 5820   6.373   0.586   0.836
 1641SOL     OW 5821   5.328   3.111   5.285
 1641SOL    HW1 5822   5.357   3.101   5.190
 1641SOL    HW2 5823   5.317   3.020   5.326
 1642SOL     OW 5824   6.805   2.259   0.810
 1642SOL    HW1 5825   6.872   2.330   0.830
 1642SOL    HW2 5826   6.834   2.207   0.729
 1643SOL     OW 5827   3.710   6.782   4.907
 1643SOL    HW1 5828   3.747   6.859   4.960
 1643SOL    HW2 5829   3.772   6.704   4.914
 1644SOL     OW 5830   2.901   1.133   1.349
 1644SOL    HW1 5831   2.835   1.084   1.406
 1644SOL    HW2 5832   2.855   1.209   1.303
 1645SOL     OW 5833   2.695   6.732   6.837
 1645SOL    HW1 5834   2.626   6.669   6.873
 1645SOL    HW2 5835   2.705   6.716   6.739
 1646SOL     OW 5836   1.304   4.273   0.701
 1646SOL    HW1 5837   1.221   4.328   0.695
 1646SOL    HW2 5838   1.285   4.190   0.754
 1647SOL     OW 5839   5.848   2.905   3.847
 1647SOL    HW1 5840   5.806   2.964   3.777
 1647SOL    HW2 5841   5.816   2.932   3.937
 1648SOL     OW 5842   4.695   0.221   2.319
 1648SOL    HW1 5843   4.779   0.250   2.273
 1648SOL    HW2 5844   4.669   0.130   2.287
 1649SOL     OW 5845   3.290   1.305   2.973
 1649SOL    HW1 5846   3.314   1.400   2.992
 1649SOL    HW2 5847   3.202   1.284   3.016
 1650SOL     OW 5848   2.472   6.947   3.800
 1650SOL    HW1 5849   2.540   6.976   3.733
 1650SOL    HW2 5850   2.446   7.024   3.858
 1651SOL     OW 5851   1.052   0.527   0.231
 1651SOL    HW1 5852   0.974   0.470   0.256
 1651SOL    HW2 5853   1.088   0.571   0.313
 1652SOL     OW 5854   2.738   2.304   1.685
 1652SOL    HW1 5855   2.703   2.382   1.738
 1652SOL    HW2 5856   2.691   2.300   1.597
 1653SOL     OW 5857   0.863   5.513   1.075
 1653SOL    HW1 5858   0.952   5.511   1.120
 1653SOL    HW2 5859   0.867   5.572   0.994
 1654SOL     OW 5860   6.553   3.610   2.853
 1654SOL    HW1 5861   6.466   3.593   2.900
 1654SOL    HW2 5862   6.550   3.698   2.807
 1655SOL     OW 5863   4.789   4.036   6.392
 1655SOL    HW1 5864   4.820   4.131   6.403
 1655SOL    HW2 5865   4.857   3.985   6.340
 1656SOL     OW 5866   1.415   4.973   3.468
 1656SOL    HW1 5867   1.407   4.970   3.368
 1656SOL    HW2 5868   1.493   5.029   3.494
 1657SOL     OW 5869   1.045   0.702   4.859
 1657SOL    HW1 5870   0.971   0.683   4.923
 1657SOL    HW2 5871   1.102   0.776   4.895
 1658SOL     OW 5872   6.196   6.281   3.121
 1658SOL    HW1 5873   6.096   6.281   3.132
 1658SOL    HW2 5874   6.220   6.331   3.037
 1659SOL     OW 5875   3.626   2.586   6.283
 1659SOL    HW1 5876   3.615   2.538   6.370
 1659SOL    HW2 5877   3.670   2.674   6.298
 1660SOL     OW 5878   1.536   5.921   3.422
 1660SOL    HW1 5879   1.510   5.856   3.494
 1660SOL    HW2 5880   1.566   6.007   3.463
 1661SOL     OW 5881   3.556   1.148   2.292
 1661SOL    HW1 5882   3.538   1.177   2.198
 1661SOL    HW2 5883   3.512   1.060   2.309
 1662SOL     OW 5884   0.444   1.109   3.248
 1662SOL    HW1 5885   0.375   1.155   3.304
 1662SOL    HW2 5886   0.449   1.013   3.273
 1663SOL     OW 5887   3.277   0.224   2.526
 1663SOL    HW1 5888   3.179   0.242   2.515
 1663SOL    HW2 5889   3.294   0.127   2.511
 1664SOL     OW 5890   2.103   5.810   4.208
 1664SOL    HW1 5891   2.159   5.809   4.291
 1664SOL    HW2 5892   2.030   5.877   4.218
 1665SOL     OW 5893   0.166   0.977   2.965
 1665SOL    HW1 5894   0.257   1.017   2.957
 1665SOL    HW2 5895   0.097   1.045   2.942
 1666SOL     OW 5896   5.843   2.817   5.825
 1666SOL    HW1 5897   5.763   2.759   5.837
 1666SOL    HW2 5898   5.920   2.761   5.794
 1667SOL     OW 5899   6.385   6.670   6.062
 1667SOL    HW1 5900   6.303   6.661   6.005
 1667SOL    HW2 5901   6.365   6.730   6.140
 1668SOL     OW 5902   3.845   0.275   4.876
 1668SOL    HW1 5903   3.920   0.331   4.841
 1668SOL    HW2 5904   3.800   0.228   4.800
 1669SOL     OW 5905   5.606   0.080   6.094
 1669SOL    HW1 5906   5.628   0.100   6.190
 1669SOL    HW2 5907   5.569   7.012   6.088
 1670SOL     OW 5908   5.575   4.508   5.419
 1670SOL    HW1 5909   5.646   4.555   5.367
 1670SOL    HW2 5910   5.546   4.426   5.369
 1671SOL     OW 5911   4.547   3.195   0.226
 1671SOL    HW1 5912   4.592   3.278   0.191
 1671SOL    HW2 5913   4.449   3.211   0.233
 1672SOL     OW 5914   1.887   5.119   2.058
 1672SOL    HW1 5915   1.787   5.120   2.066
 1672SOL    HW2 5916   1.913   5.082   1.969
 1673SOL     OW 5917   6.730   3.522   3.952
 1673SOL    HW1 5918   6.715   3.461   3.874
 1673SOL    HW2 5919   6.823   3.510   3.987
 1674SOL     OW 5920   1.138   4.085   0.206
 1674SOL    HW1 5921   1.210   4.125   0.262
 1674SOL    HW2 5922   1.096   4.009   0.256
 1675SOL     OW 5923   4.538   1.718   6.571
 1675SOL    HW1 5924   4.584   1.724   6.482
 1675SOL    HW2 5925   4.601   1.749   6.642
 1676SOL     OW 5926   1.690   0.698   2.820
 1676SOL    HW1 5927   1.631   0.684   2.899
 1676SOL    HW2 5928   1.766   0.758   2.845
 1677SOL     OW 5929   5.843   1.703   5.637
 1677SOL    HW1 5930   5.878   1.719   5.545
 1677SOL    HW2 5931   5.920   1.686   5.699
 1678SOL     OW 5932   5.220   6.722   2.050
 1678SOL    HW1 5933   5.256   6.632   2.074
 1678SOL    HW2 5934   5.170   6.716   1.963
 1679SOL     OW 5935   0.884   3.307   6.549
 1679SOL    HW1 5936   0.926   3.389   6.510
 1679SOL    HW2 5937   0.796   3.331   6.591
 1680SOL     OW 5938   0.492   1.512   3.964
 1680SOL    HW1 5939   0.431   1.433   3.969
 1680SOL    HW2 5940   0.466   1.569   3.886
 1681SOL     OW 5941   6.524   5.545   0.972
 1681SOL    HW1 5942   6.566   5.594   1.048
 1681SOL    HW2 5943   6.575   5.564   0.888
 1682SOL     OW 5944   6.479   3.085   5.426
 1682SOL    HW1 5945   6.440   3.150   5.492
 1682SOL    HW2 5946   6.477   3.125   5.334
 1683SOL     OW 5947   4.824   6.681   1.555
 1683SOL    HW1 5948   4.832   6.767   1.606
 1683SOL    HW2 5949   4.912   6.634   1.555
 1684SOL     OW 5950   0.160   6.606   5.424
 1684SOL    HW1 5951   0.220   6.542   5.376
 1684SOL    HW2 5952   0.101   6.652   5.358
 1685SOL     OW 5953   1.407   1.221   0.410
 1685SOL    HW1 5954   1.392   1.126   0.382
 1685SOL    HW2 5955   1.352   1.281   0.351
 1686SOL     OW 5956   1.341   6.394   6.242
 1686SOL    HW1 5957   1.416   6.437   6.293
 1686SOL    HW2 5958   1.268   6.461   6.229
 1687SOL     OW 5959   1.834   5.587   2.437
 1687SOL    HW1 5960   1.873   5.658   2.495
 1687SOL    HW2 5961   1.907   5.528   2.402
 1688SOL     OW 5962   1.619   1.907   2.802
 1688SOL    HW1 5963   1.614   1.829   2.741
 1688SOL    HW2 5964   1.715   1.934   2.814
 1689SOL     OW 5965   2.376   1.352   2.370
 1689SOL    HW1 5966   2.453   1.415   2.370
 1689SOL    HW2 5967   2.314   1.374   2.445
 1690SOL     OW 5968   1.718   1.718   1.627
 1690SOL    HW1 5969   1.721   1.755   1.720
 1690SOL    HW2 5970   1.810   1.690   1.600
 1691SOL     OW 5971   5.037   3.894   2.872
 1691SOL    HW1 5972   5.040   3.828   2.796
 1691SOL    HW2 5973   4.943   3.928   2.882
 1692SOL     OW 5974   0.998   0.394   2.126
 1692SOL    HW1 5975   1.011   0.445   2.041
 1692SOL    HW2 5976   1.003   0.296   2.108
 1693SOL     OW 5977   2.879   2.246   3.415
 1693SOL    HW1 5978   2.933   2.219   3.495
 1693SOL    HW2 5979   2.792   2.285   3.445
 1694SOL     OW 5980   4.475   5.921   5.067
 1694SOL    HW1 5981   4.405   5.984   5.100
 1694SOL    HW2 5982   4.456   5.829   5.103
 1695SOL     OW 5983   3.078   2.421   5.377
 1695SOL    HW1 5984   3.104   2.505   5.424
 1695SOL    HW2 5985   3.135   2.408   5.296
 1696SOL     OW 5986   5.066   5.766   0.612
 1696SOL    HW1 5987   5.154   5.770   0.658
 1696SOL    HW2 5988   5.079   5.747   0.514
 1697SOL     OW 5989   1.503   0.966   1.445
 1697SOL    HW1 5990   1.420   0.989   1.395
 1697SOL    HW2 5991   1.563   1.046   1.450
 1698SOL     OW 5992   4.353   2.176   1.319
 1698SOL    HW1 5993   4.438   2.216   1.283
 1698SOL    HW2 5994   4.372   2.123   1.401
 1699SOL     OW 5995   2.523   3.322   1.037
 1699SOL    HW1 5996   2.450   3.285   1.095
 1699SOL    HW2 5997   2.500   3.416   1.010
 1700SOL     OW 5998   6.936   2.919   3.044
 1700SOL    HW1 5999   7.011   2.902   3.108
 1700SOL    HW2 6000   6.860   2.858   3.064
 1701SOL     OW 6001   6.122   3.421   3.812
 1701SOL    HW1 6002   6.082   3.439   3.901
 1701SOL    HW2 6003   6.222   3.414   3.821
 1702SOL     OW 6004   5.336   4.056   1.130
 1702SOL    HW1 6005   5.354   4.133   1.069
 1702SOL    HW2 6006   5.412   4.048   1.195
 1703SOL     OW 6007   2.033   3.809   0.322
 1703SOL    HW1 6008   2.118   3.760   0.340
 1703SOL    HW2 6009   2.035   3.847   0.229
 1704SOL     OW 6010   0.288   0.040   1.582
 1704SOL    HW1 6011   0.245   6.975   1.589
 1704SOL    HW2 6012   0.260   0.096   1.660
 1705SOL     OW 6013   4.439   3.001   1.625
 1705SOL    HW1 6014   4.368   2.932   1.639
 1705SOL    HW2 6015   4.502   3.001   1.702
 1706SOL     OW 6016   3.170   0.514   0.815
 1706SOL    HW1 6017   3.241   0.495   0.748
 1706SOL    HW2 6018   3.210   0.559   0.895
 1707SOL     OW 6019   5.679   2.033   3.753
 1707SOL    HW1 6020   5.749   2.072   3.813
 1707SOL    HW2 6021   5.713   2.034   3.658
 1708SOL     OW 6022   6.691   5.741   3.266
 1708SOL    HW1 6023   6.788   5.765   3.264
 1708SOL    HW2 6024   6.678   5.655   3.314
 1709SOL     OW 6025   3.439   6.301   2.593
 1709SOL    HW1 6026   3.487   6.387   2.577
 1709SOL    HW2 6027   3.414   6.295   2.690
 1710SOL     OW 6028   0.320   5.259   4.378
 1710SOL    HW1 6029   0.275   5.177   4.344
 1710SOL    HW2 6030   0.417   5.240   4.392
 1711SOL     OW 6031   1.403   4.266   5.295
 1711SOL    HW1 6032   1.351   4.240   5.376
 1711SOL    HW2 6033   1.357   4.232   5.213
 1712SOL     OW 6034   0.028   4.443   0.418
 1712SOL    HW1 6035   7.020   4.350   0.432
 1712SOL    HW2 6036   6.976   4.503   0.396
 1713SOL     OW 6037   1.577   2.695   1.367
 1713SOL    HW1 6038   1.479   2.717   1.365
 1713SOL    HW2 6039   1.620   2.747   1.441
 1714SOL     OW 6040   3.335   2.122   0.537
 1714SOL    HW1 6041   3.361   2.036   0.493
 1714SOL    HW2 6042   3.391   2.196   0.501
 1715SOL     OW 6043   0.141   3.302   2.720
 1715SOL    HW1 6044   0.046   3.300   2.688
 1715SOL    HW2 6045   0.147   3.261   2.811
 1716SOL     OW 6046   0.265   6.302   0.044
 1716SOL    HW1 6047   0.233   6.209   0.025
 1716SOL    HW2 6048   0.287   6.348   6.983
 1717SOL     OW 6049   2.816   0.351   6.978
 1717SOL    HW1 6050   2.835   0.413   6.902
 1717SOL    HW2 6051   2.852   0.260   6.957
 1718SOL     OW 6052   1.699   4.651   0.275
 1718SOL    HW1 6053   1.625   4.588   0.249
 1718SOL    HW2 6054   1.731   4.700   0.194
 1719SOL     OW 6055   2.113   3.466   1.460
 1719SOL    HW1 6056   2.152   3.377   1.483
 1719SOL    HW2 6057   2.085   3.467   1.364
 1720SOL     OW 6058   6.555   1.471   0.315
 1720SOL    HW1 6059   6.597   1.499   0.230
 1720SOL    HW2 6060   6.623   1.473   0.389
 1721SOL     OW 6061   1.829   6.426   3.415
 1721SOL    HW1 6062   1.893   6.383   3.351
 1721SOL    HW2 6063   1.806   6.518   3.384
 1722SOL     OW 6064   6.063   0.017   2.046
 1722SOL    HW1 6065   6.130   0.084   2.078
 1722SOL    HW2 6066   6.093   6.951   2.070
 1723SOL     OW 6067   6.835   1.720   2.377
 1723SOL    HW1 6068   6.839   1.741   2.474
 1723SOL    HW2 6069   6.740   1.724   2.346
 1724SOL     OW 6070   4.566   1.152   6.958
 1724SOL    HW1 6071   4.657   1.118   6.982
 1724SOL    HW2 6072   4.502   1.131   0.006
 1725SOL     OW 6073   3.557   4.483   1.324
 1725SOL    HW1 6074   3.613   4.541   1.383
 1725SOL    HW2 6075   3.493   4.540   1.272
 1726SOL     OW 6076   0.461   4.235   4.388
 1726SOL    HW1 6077   0.455   4.147   4.435
 1726SOL    HW2 6078   0.370   4.273   4.376
 1727SOL     OW 6079   4.067   3.621   5.318
 1727SOL    HW1 6080   4.095   3.717   5.312
 1727SOL    HW2 6081   4.076   3.589   5.412
 1728SOL     OW 6082   4.362   4.636   3.988
 1728SOL    HW1 6083   4.363   4.590   4.077
 1728SOL    HW2 6084   4.297   4.711   3.991
 1729SOL     OW 6085   1.286   3.502   2.468
 1729SOL    HW1 6086   1.341   3.570   2.517
 1729SOL    HW2 6087   1.311   3.504   2.371
 1730SOL     OW 6088   6.734   2.366   4.875
 1730SOL    HW1 6089   6.657   2.306   4.897
 1730SOL    HW2 6090   6.799   2.365   4.951
 1731SOL     OW 6091   2.124   4.974   0.759
 1731SOL    HW1 6092   2.081   5.029   0.831
 1731SOL    HW2 6093   2.215   4.947   0.788
 1732SOL     OW 6094   1.453   4.432   0.084
 1732SOL    HW1 6095   1.425   4.379   0.004
 1732SOL    HW2 6096   1.440   4.530   0.066
 1733SOL     OW 6097   1.259   3.747   1.449
 1733SOL    HW1 6098   1.226   3.703   1.532
 1733SOL    HW2 6099   1.182   3.767   1.388
 1734SOL     OW 6100   3.832   2.741   1.099
 1734SOL    HW1 6101   3.737   2.729   1.126
 1734SOL    HW2 6102   3.839   2.750   1.000
 1735SOL     OW 6103   6.104   5.081   1.347
 1735SOL    HW1 6104   6.033   5.025   1.389
 1735SOL    HW2 6105   6.194   5.048   1.377
 1736SOL     OW 6106   3.567   3.039   6.972
 1736SOL    HW1 6107   3.659   3.065   6.943
 1736SOL    HW2 6108   3.531   2.968   6.911
 1737SOL     OW 6109   1.996   6.931   3.482
 1737SOL    HW1 6110   1.988   0.005   3.487
 1737SOL    HW2 6111   2.075   6.901   3.535
 1738SOL     OW 6112   2.223   2.929   2.382
 1738SOL    HW1 6113   2.232   3.027   2.398
 1738SOL    HW2 6114   2.225   2.880   2.469
 1739SOL     OW 6115   4.561   2.291   5.015
 1739SOL    HW1 6116   4.562   2.267   4.918
 1739SOL    HW2 6117   4.567   2.390   5.025
 1740SOL     OW 6118   7.011   0.632   6.034
 1740SOL    HW1 6119   0.036   0.688   6.100
 1740SOL    HW2 6120   6.991   0.686   5.952
 1741SOL     OW 6121   1.182   0.778   2.711
 1741SOL    HW1 6122   1.144   0.752   2.622
 1741SOL    HW2 6123   1.260   0.720   2.732
 1742SOL     OW 6124   6.064   0.491   4.696
 1742SOL    HW1 6125   6.151   0.444   4.707
 1742SOL    HW2 6126   6.032   0.481   4.602
 1743SOL     OW 6127   3.471   1.160   1.398
 1743SOL    HW1 6128   3.382   1.186   1.359
 1743SOL    HW2 6129   3.540   1.161   1.325
 1744SOL     OW 6130   2.430   0.910   1.795
 1744SOL    HW1 6131   2.340   0.952   1.782
 1744SOL    HW2 6132   2.446   0.844   1.721
 1745SOL     OW 6133   6.358   2.070   3.113
 1745SOL    HW1 6134   6.413   2.082   3.196
 1745SOL    HW2 6135   6.269   2.116   3.125
 1746SOL     OW 6136   2.763   0.654   6.289
 1746SOL    HW1 6137   2.819   0.698   6.360
 1746SOL    HW2 6138   2.789   0.690   6.199
 1747SOL     OW 6139   3.718   0.579   1.693
 1747SOL    HW1 6140   3.785   0.648   1.664
 1747SOL    HW2 6141   3.628   0.622   1.700
 1748SOL     OW 6142   5.852   1.795   3.661
 1748SOL    HW1 6143   5.835   1.884   3.618
 1748SOL    HW2 6144   5.933   1.753   3.619
 1749SOL     OW 6145   4.420   6.964   6.568
 1749SOL    HW1 6146   4.380   6.960   6.660
 1749SOL    HW2 6147   4.472   0.023   6.557
 1750SOL     OW 6148   4.910   1.584   3.015
 1750SOL    HW1 6149   4.969   1.638   3.075
 1750SOL    HW2 6150   4.846   1.644   2.968
 1751SOL     OW 6151   1.828   5.101   4.631
 1751SOL    HW1 6152   1.819   5.005   4.657
 1751SOL    HW2 6153   1.748   5.153   4.663
 1752SOL     OW 6154   6.656   1.470   1.053
 1752SOL    HW1 6155   6.657   1.373   1.027
 1752SOL    HW2 6156   6.663   1.527   0.971
 1753SOL     OW 6157   0.686   6.848   0.935
 1753SOL    HW1 6158   0.609   6.817   0.879
 1753SOL    HW2 6159   0.690   6.948   0.934
 1754SOL     OW 6160   3.810   3.375   1.000
 1754SOL    HW1 6161   3.747   3.365   1.077
 1754SOL    HW2 6162   3.853   3.288   0.980
 1755SOL     OW 6163   5.535   4.835   1.147
 1755SOL    HW1 6164   5.524   4.910   1.212
 1755SOL    HW2 6165   5.472   4.761   1.169
 1756SOL     OW 6166   6.427   5.265   3.918
 1756SOL    HW1 6167   6.431   5.178   3.870
 1756SOL    HW2 6168   6.337   5.276   3.960
 1757SOL     OW 6169   3.068   6.466   4.654
 1757SOL    HW1 6170   2.986   6.449   4.599
 1757SOL    HW2 6171   3.053   6.544   4.715
 1758SOL     OW 6172   2.551   0.510   3.280
 1758SOL    HW1 6173   2.626   0.574   3.295
 1758SOL    HW2 6174   2.552   0.478   3.185
 1759SOL     OW 6175   6.970   4.967   5.551
 1759SOL    HW1 6176   6.937   4.886   5.502
 1759SOL    HW2 6177   6.901   4.994   5.618
 1760SOL     OW 6178   6.262   0.934   1.456
 1760SOL    HW1 6179   6.289   0.984   1.373
 1760SOL    HW2 6180   6.265   0.995   1.535
 1761SOL     OW 6181   6.065   0.928   1.052
 1761SOL    HW1 6182   5.995   0.913   1.122
 1761SOL    HW2 6183   6.138   0.861   1.063
 1762SOL     OW 6184   6.226   1.869   6.165
 1762SOL    HW1 6185   6.165   1.942   6.196
 1762SOL    HW2 6186   6.275   1.830   6.243
 1763SOL     OW 6187   1.684   3.584   4.457
 1763SOL    HW1 6188   1.584   3.585   4.469
 1763SOL    HW2 6189   1.719   3.677   4.458
 1764SOL     OW 6190   1.011   3.243   3.081
 1764SOL    HW1 6191   0.957   3.245   2.997
 1764SOL    HW2 6192   0.979   3.167   3.139
 1765SOL     OW 6193   2.299   2.089   6.882
 1765SOL    HW1 6194   2.355   2.076   6.801
 1765SOL    HW2 6195   2.346   2.052   6.962
 1766SOL     OW 6196   5.711   2.966   5.050
 1766SOL    HW1 6197   5.686   2.970   4.954
 1766SOL    HW2 6198   5.690   3.053   5.094
 1767SOL     OW 6199   5.300   3.850   2.042
 1767SOL    HW1 6200   5.391   3.891   2.047
 1767SOL    HW2 6201   5.256   3.856   2.131
 1768SOL     OW 6202   4.492   6.099   3.666
 1768SOL    HW1 6203   4.475   6.088   3.764
 1768SOL    HW2 6204   4.553   6.026   3.635
 1769SOL     OW 6205   3.650   1.745   3.122
 1769SOL    HW1 6206   3.627   1.648   3.116
 1769SOL    HW2 6207   3.652   1.784   3.030
 1770SOL     OW 6208   2.588   5.723   5.467
 1770SOL    HW1 6209   2.602   5.803   5.408
 1770SOL    HW2 6210   2.565   5.754   5.560
 1771SOL     OW 6211   3.140   6.123   0.072
 1771SOL    HW1 6212   3.113   6.044   0.127
 1771SOL    HW2 6213   3.121   6.207   0.122
 1772SOL     OW 6214   3.360   6.745   3.263
 1772SOL    HW1 6215   3.361   6.716   3.359
 1772SOL    HW2 6216   3.386   6.668   3.205
 1773SOL     OW 6217   1.774   5.276   6.109
 1773SOL    HW1 6218   1.778   5.375   6.115
 1773SOL    HW2 6219   1.757   5.249   6.014
 1774SOL     OW 6220   4.390   5.556   1.510
 1774SOL    HW1 6221   4.468   5.507   1.547
 1774SOL    HW2 6222   4.416   5.651   1.491
 1775SOL     OW 6223   1.142   3.908   2.141
 1775SOL    HW1 6224   1.196   3.991   2.154
 1775SOL    HW2 6225   1.198   3.839   2.096
 1776SOL     OW 6226   4.062   6.228   4.003
 1776SOL    HW1 6227   4.009   6.251   4.085
 1776SOL    HW2 6228   4.014   6.158   3.950
 1777SOL     OW 6229   4.227   5.945   0.204
 1777SOL    HW1 6230   4.286   5.893   0.143
 1777SOL    HW2 6231   4.135   5.951   0.164
 1778SOL     OW 6232   4.388   3.104   6.199
 1778SOL    HW1 6233   4.351   3.092   6.291
 1778SOL    HW2 6234   4.434   3.020   6.170
 1779SOL     OW 6235   3.342   0.900   5.489
 1779SOL    HW1 6236   3.423   0.949   5.522
 1779SOL    HW2 6237   3.355   0.877   5.392
 1780SOL     OW 6238   3.563   3.346   6.061
 1780SOL    HW1 6239   3.585   3.444   6.062
 1780SOL    HW2 6240   3.563   3.310   6.154
 1781SOL     OW 6241   4.022   6.070   3.053
 1781SOL    HW1 6242   4.099   6.054   3.115
 1781SOL    HW2 6243   4.042   6.029   2.964
 1782SOL     OW 6244   3.303   1.090   3.280
 1782SOL    HW1 6245   3.283   1.020   3.211
 1782SOL    HW2 6246   3.299   1.049   3.371
 1783SOL     OW 6247   2.448   4.906   6.319
 1783SOL    HW1 6248   2.408   4.845   6.251
 1783SOL    HW2 6249   2.419   4.879   6.411
 1784SOL     OW 6250   3.407   6.962   5.785
 1784SOL    HW1 6251   3.477   0.003   5.810
 1784SOL    HW2 6252   3.341   7.004   5.723
 1785SOL     OW 6253   5.975   3.836   2.549
 1785SOL    HW1 6254   5.886   3.878   2.534
 1785SOL    HW2 6255   5.994   3.771   2.476
 1786SOL     OW 6256   2.355   2.328   0.046
 1786SOL    HW1 6257   2.304   2.257   7.022
 1786SOL    HW2 6258   2.320   2.418   0.021
 1787SOL     OW 6259   3.424   1.282   5.408
 1787SOL    HW1 6260   3.333   1.322   5.397
 1787SOL    HW2 6261   3.489   1.353   5.436
 1788SOL     OW 6262   1.751   5.003   6.159
 1788SOL    HW1 6263   1.848   5.015   6.177
 1788SOL    HW2 6264   1.705   5.092   6.159
 1789SOL     OW 6265   5.581   2.181   0.736
 1789SOL    HW1 6266   5.660   2.201   0.678
 1789SOL    HW2 6267   5.571   2.254   0.805
 1790SOL     OW 6268   3.945   6.768   3.288
 1790SOL    HW1 6269   3.861   6.785   3.236
 1790SOL    HW2 6270   3.923   6.715   3.370
 1791SOL     OW 6271   6.963   0.114   2.491
 1791SOL    HW1 6272   6.977   0.015   2.499
 1791SOL    HW2 6273   6.871   0.133   2.458
 1792SOL     OW 6274   0.454   4.098   5.308
 1792SOL    HW1 6275   0.498   4.054   5.229
 1792SOL    HW2 6276   0.521   4.154   5.356
 1793SOL     OW 6277   6.896   0.759   3.754
 1793SOL    HW1 6278   6.861   0.844   3.792
 1793SOL    HW2 6279   6.993   0.748   3.778
 1794SOL     OW 6280   5.163   5.857   5.975
 1794SOL    HW1 6281   5.115   5.901   5.898
 1794SOL    HW2 6282   5.230   5.921   6.012
 1795SOL     OW 6283   0.310   2.744   0.539
 1795SOL    HW1 6284   0.311   2.652   0.501
 1795SOL    HW2 6285   0.332   2.740   0.637
 1796SOL     OW 6286   2.634   1.115   6.107
 1796SOL    HW1 6287   2.672   1.048   6.170
 1796SOL    HW2 6288   2.534   1.110   6.110
 1797SOL     OW 6289   0.666   0.268   0.462
 1797SOL    HW1 6290   0.679   0.310   0.552
 1797SOL    HW2 6291   0.631   0.175   0.473
 1798SOL     OW 6292   4.550   2.344   4.040
 1798SOL    HW1 6293   4.551   2.444   4.036
 1798SOL    HW2 6294   4.518   2.308   3.953
 1799SOL     OW 6295   0.247   2.660   4.585
 1799SOL    HW1 6296   0.180   2.733   4.592
 1799SOL    HW2 6297   0.286   2.642   4.675
 1800SOL     OW 6298   4.156   4.320   1.630
 1800SOL    HW1 6299   4.095   4.395   1.603
 1800SOL    HW2 6300   4.186   4.334   1.724
 1801SOL     OW 6301   0.001   0.748   2.234
 1801SOL    HW1 6302   0.084   0.724   2.284
 1801SOL    HW2 6303   0.024   0.776   2.142
 1802SOL     OW 6304   6.198   5.872   3.879
 1802SOL    HW1 6305   6.211   5.773   3.877
 1802SOL    HW2 6306   6.284   5.918   3.861
 1803SOL     OW 6307   0.436   5.178   6.818
 1803SOL    HW1 6308   0.517   5.128   6.786
 1803SOL    HW2 6309   0.418   5.153   6.914
 1804SOL     OW 6310   2.683   4.233   5.522
 1804SOL    HW1 6311   2.720   4.321   5.491
 1804SOL    HW2 6312   2.650   4.182   5.444
 1805SOL     OW 6313   5.174   3.608   6.396
 1805SOL    HW1 6314   5.093   3.652   6.435
 1805SOL    HW2 6315   5.156   3.511   6.382
 1806SOL     OW 6316   0.384   0.539   0.886
 1806SOL    HW1 6317   0.432   0.584   0.812
 1806SOL    HW2 6318   0.448   0.515   0.959
 1807SOL     OW 6319   6.212   2.175   4.606
 1807SOL    HW1 6320   6.234   2.267   4.574
 1807SOL    HW2 6321   6.213   2.111   4.529
 1808SOL     OW 6322   0.154   5.233   4.905
 1808SOL    HW1 6323   0.186   5.196   4.819
 1808SOL    HW2 6324   0.230   5.276   4.954
 1809SOL     OW 6325   2.797   1.769   5.932
 1809SOL    HW1 6326   2.888   1.743   5.899
 1809SOL    HW2 6327   2.733   1.767   5.855
 1810SOL     OW 6328   3.475   0.059   3.526
 1810SOL    HW1 6329   3.537   0.091   3.455
 1810SOL    HW2 6330   3.400   0.124   3.537
 1811SOL     OW 6331   6.131   6.199   3.462
 1811SOL    HW1 6332   6.186   6.119   3.437
 1811SOL    HW2 6333   6.034   6.175   3.463
 1812SOL     OW 6334   4.297   6.118   5.108
 1812SOL    HW1 6335   4.200   6.094   5.113
 1812SOL    HW2 6336   4.309   6.194   5.044
 1813SOL     OW 6337   5.303   3.780   0.747
 1813SOL    HW1 6338   5.351   3.695   0.772
 1813SOL    HW2 6339   5.370   3.850   0.724
 1814SOL     OW 6340   4.619   7.008   2.216
 1814SOL    HW1 6341   4.676   6.976   2.140
 1814SOL    HW2 6342   4.527   6.969   2.207
 1815SOL     OW 6343   0.315   1.582   2.973
 1815SOL    HW1 6344   0.397   1.633   2.998
 1815SOL    HW2 6345   0.280   1.534   3.053
 1816SOL     OW 6346   2.094   2.744   1.199
 1816SOL    HW1 6347   2.175   2.710   1.152
 1816SOL    HW2 6348   2.023   2.674   1.199
 1817SOL     OW 6349   1.729   6.572   2.632
 1817SOL    HW1 6350   1.731   6.477   2.661
 1817SOL    HW2 6351   1.802   6.622   2.677
 1818SOL     OW 6352   1.632   0.324   3.311
 1818SOL    HW1 6353   1.555   0.308   3.249
 1818SOL    HW2 6354   1.708   0.365   3.260
 1819SOL     OW 6355   1.334   4.148   1.290
 1819SOL    HW1 6356   1.417   4.203   1.290
 1819SOL    HW2 6357   1.264   4.194   1.235
 1820SOL     OW 6358   4.491   1.455   2.387
 1820SOL    HW1 6359   4.567   1.391   2.394
 1820SOL    HW2 6360   4.524   1.548   2.401
 1821SOL     OW 6361   1.795   1.336   2.778
 1821SOL    HW1 6362   1.737   1.371   2.705
 1821SOL    HW2 6363   1.879   1.389   2.782
 1822SOL     OW 6364   3.464   2.612   1.698
 1822SOL    HW1 6365   3.376   2.574   1.672
 1822SOL    HW2 6366   3.465   2.631   1.796
 1823SOL     OW 6367   4.028   6.421   2.590
 1823SOL    HW1 6368   4.062   6.346   2.647
 1823SOL    HW2 6369   4.105   6.471   2.551
 1824SOL     OW 6370   3.894   2.373   1.441
 1824SOL    HW1 6371   3.915   2.452   1.498
 1824SOL    HW2 6372   3.974   2.348   1.388
 1825SOL     OW 6373   1.158   0.682   1.176
 1825SOL    HW1 6374   1.180   0.718   1.267
 1825SOL    HW2 6375   1.115   0.755   1.122
 1826SOL     OW 6376   3.169   1.146   1.351
 1826SOL    HW1 6377   3.073   1.122   1.365
 1826SOL    HW2 6378   3.189   1.146   1.253
 1827SOL     OW 6379   0.065   5.633   1.746
 1827SOL    HW1 6380   0.056   5.698   1.821
 1827SOL    HW2 6381   7.007   5.634   1.690
 1828SOL     OW 6382   1.255   3.150   7.008
 1828SOL    HW1 6383   1.196   3.078   6.970
 1828SOL    HW2 6384   1.350   3.119   7.007
 1829SOL     OW 6385   5.221   6.191   2.995
 1829SOL    HW1 6386   5.187   6.259   3.059
 1829SOL    HW2 6387   5.145   6.137   2.959
 1830SOL     OW 6388   4.612   6.791   3.914
 1830SOL    HW1 6389   4.666   6.726   3.861
 1830SOL    HW2 6390   4.617   6.768   4.011
 1831SOL     OW 6391   5.631   6.249   2.426
 1831SOL    HW1 6392   5.697   6.185   2.465
 1831SOL    HW2 6393   5.538   6.217   2.446
 1832SOL     OW 6394   4.406   2.532   1.356
 1832SOL    HW1 6395   4.413   2.576   1.267
 1832SOL    HW2 6396   4.319   2.482   1.361
 1833SOL     OW 6397   4.995   0.733   4.551
 1833SOL    HW1 6398   4.996   0.656   4.615
 1833SOL    HW2 6399   5.039   0.706   4.465
 1834SOL     OW 6400   3.336   3.458   0.853
 1834SOL    HW1 6401   3.257   3.503   0.812
 1834SOL    HW2 6402   3.313   3.428   0.945
 1835SOL     OW 6403   2.121   5.200   0.935
 1835SOL    HW1 6404   2.031   5.171   0.966
 1835SOL    HW2 6405   2.190   5.175   1.003
 1836SOL     OW 6406   6.986   1.031   0.803
 1836SOL    HW1 6407   6.939   0.996   0.722
 1836SOL    HW2 6408   6.989   0.961   0.874
 1837SOL     OW 6409   1.089   2.177   4.203
 1837SOL    HW1 6410   1.185   2.166   4.228
 1837SOL    HW2 6411   1.031   2.140   4.276
 1838SOL     OW 6412   0.141   2.718   4.160
 1838SOL    HW1 6413   0.096   2.768   4.234
 1838SOL    HW2 6414   0.178   2.632   4.195
 1839SOL     OW 6415   6.583   3.257   4.727
 1839SOL    HW1 6416   6.600   3.229   4.632
 1839SOL    HW2 6417   6.485   3.246   4.747
 1840SOL     OW 6418   2.463   5.632   0.411
 1840SOL    HW1 6419   2.463   5.732   0.402
 1840SOL    HW2 6420   2.394   5.605   0.478
 1841SOL     OW 6421   2.122   3.425   4.022
 1841SOL    HW1 6422   2.159   3.502   3.970
 1841SOL    HW2 6423   2.022   3.426   4.017
 1842SOL     OW 6424   0.554   5.249   0.491
 1842SOL    HW1 6425   0.561   5.349   0.493
 1842SOL    HW2 6426   0.496   5.218   0.567
 1843SOL     OW 6427   2.334   1.838   5.805
 1843SOL    HW1 6428   2.328   1.937   5.820
 1843SOL    HW2 6429   2.245   1.796   5.823
 1844SOL     OW 6430   3.999   2.207   4.563
 1844SOL    HW1 6431   4.071   2.277   4.563
 1844SOL    HW2 6432   3.954   2.205   4.474
 1845SOL     OW 6433   3.706   0.252   6.833
 1845SOL    HW1 6434   3.643   0.291   6.901
 1845SOL    HW2 6435   3.689   0.154   6.824
 1846SOL     OW 6436   3.956   2.134   0.012
 1846SOL    HW1 6437   3.945   2.122   6.939
 1846SOL    HW2 6438   3.892   2.074   0.060
 1847SOL     OW 6439   0.707   0.084   0.937
 1847SOL    HW1 6440   0.665   0.169   0.905
 1847SOL    HW2 6441   0.805   0.085   0.915
 1848SOL     OW 6442   3.192   6.437   2.539
 1848SOL    HW1 6443   3.174   6.452   2.442
 1848SOL    HW2 6444   3.251   6.356   2.550
 1849SOL     OW 6445   3.658   1.125   0.198
 1849SOL    HW1 6446   3.708   1.038   0.202
 1849SOL    HW2 6447   3.702   1.192   0.257
 1850SOL     OW 6448   6.103   2.169   3.117
 1850SOL    HW1 6449   6.035   2.188   3.047
 1850SOL    HW2 6450   6.067   2.193   3.207
 1851SOL     OW 6451   0.598   1.433   2.334
 1851SOL    HW1 6452   0.503   1.459   2.352
 1851SOL    HW2 6453   0.600   1.356   2.270
 1852SOL     OW 6454   3.998   3.406   0.452
 1852SOL    HW1 6455   3.910   3.388   0.495
 1852SOL    HW2 6456   4.030   3.323   0.406
 1853SOL     OW 6457   0.901   4.096   1.207
 1853SOL    HW1 6458   0.933   4.027   1.142
 1853SOL    HW2 6459   0.917   4.063   1.300
 1854SOL     OW 6460   3.047   5.643   4.378
 1854SOL    HW1 6461   3.077   5.639   4.473
 1854SOL    HW2 6462   3.045   5.551   4.339
 1855SOL     OW 6463   4.957   5.383   0.472
 1855SOL    HW1 6464   4.900   5.463   0.456
 1855SOL    HW2 6465   4.901   5.300   0.463
 1856SOL     OW 6466   5.592   2.799   5.210
 1856SOL    HW1 6467   5.564   2.734   5.139
 1856SOL    HW2 6468   5.631   2.881   5.166
 1857SOL     OW 6469   3.727   0.847   4.779
 1857SOL    HW1 6470   3.744   0.902   4.861
 1857SOL    HW2 6471   3.712   0.908   4.701
 1858SOL     OW 6472   5.177   3.151   3.940
 1858SOL    HW1 6473   5.181   3.083   3.866
 1858SOL    HW2 6474   5.126   3.231   3.910
 1859SOL     OW 6475   4.504   1.886   3.971
 1859SOL    HW1 6476   4.596   1.900   4.008
 1859SOL    HW2 6477   4.436   1.925   4.034
 1860SOL     OW 6478   6.371   0.850   4.204
 1860SOL    HW1 6479   6.333   0.760   4.185
 1860SOL    HW2 6480   6.328   0.918   4.144
 1861SOL     OW 6481   4.899   6.253   2.713
 1861SOL    HW1 6482   4.951   6.338   2.705
 1861SOL    HW2 6483   4.802   6.275   2.727
 1862SOL     OW 6484   2.021   1.064   6.971
 1862SOL    HW1 6485   1.922   1.064   6.956
 1862SOL    HW2 6486   2.054   0.969   6.973
 1863SOL     OW 6487   2.790   2.573   1.330
 1863SOL    HW1 6488   2.709   2.564   1.272
 1863SOL    HW2 6489   2.873   2.567   1.274
 1864SOL     OW 6490   0.654   6.454   4.129
 1864SOL    HW1 6491   0.647   6.502   4.217
 1864SOL    HW2 6492   0.600   6.370   4.133
 1865SOL     OW 6493   3.756   1.623   5.647
 1865SOL    HW1 6494   3.730   1.560   5.720
 1865SOL    HW2 6495   3.719   1.714   5.666
 1866SOL     OW 6496   4.583   4.468   2.168
 1866SOL    HW1 6497   4.582   4.381   2.119
 1866SOL    HW2 6498   4.647   4.462   2.244
 1867SOL     OW 6499   0.317   4.276   6.793
 1867SOL    HW1 6500   0.389   4.251   6.857
 1867SOL    HW2 6501   0.249   4.334   6.839
 1868SOL     OW 6502   5.569   4.928   6.349
 1868SOL    HW1 6503   5.529   5.018   6.332
 1868SOL    HW2 6504   5.510   4.877   6.411
 1869SOL     OW 6505   6.450   1.139   5.071
 1869SOL    HW1 6506   6.523   1.167   5.133
 1869SOL    HW2 6507   6.363   1.173   5.105
 1870SOL     OW 6508   1.456   4.569   5.288
 1870SOL    HW1 6509   1.445   4.470   5.300
 1870SOL    HW2 6510   1.522   4.586   5.214
 1871SOL     OW 6511   2.225   0.342   0.413
 1871SOL    HW1 6512   2.317   0.359   0.377
 1871SOL    HW2 6513   2.178   0.276   0.354
 1872SOL     OW 6514   2.663   4.445   0.504
 1872SOL    HW1 6515   2.611   4.530   0.516
 1872SOL    HW2 6516   2.660   4.392   0.589
 1873SOL     OW 6517   4.044   1.351   5.676
 1873SOL    HW1 6518   4.108   1.372   5.603
 1873SOL    HW2 6519   4.027   1.433   5.730
 1874SOL     OW 6520   1.942   1.742   2.268
 1874SOL    HW1 6521   2.013   1.675   2.293
 1874SOL    HW2 6522   1.886   1.762   2.348
 1875SOL     OW 6523   0.554   6.757   6.014
 1875SOL    HW1 6524   0.499   6.840   6.004
 1875SOL    HW2 6525   0.637   6.765   5.958
 1876SOL     OW 6526   2.674   6.928   4.280
 1876SOL    HW1 6527   2.653   6.980   4.362
 1876SOL    HW2 6528   2.646   6.832   4.292
 1877SOL     OW 6529   0.978   0.523   3.962
 1877SOL    HW1 6530   0.910   0.450   3.964
 1877SOL    HW2 6531   1.025   0.527   4.050
 1878SOL     OW 6532   0.312   2.132   4.041
 1878SOL    HW1 6533   0.402   2.140   4.082
 1878SOL    HW2 6534   0.242   2.125   4.113
 1879SOL     OW 6535   1.078   3.343   4.826
 1879SOL    HW1 6536   1.002   3.298   4.872
 1879SOL    HW2 6537   1.043   3.416   4.767
 1880SOL     OW 6538   6.427   1.839   4.721
 1880SOL    HW1 6539   6.459   1.880   4.807
 1880SOL    HW2 6540   6.480   1.878   4.645
 1881SOL     OW 6541   6.431   1.962   0.839
 1881SOL    HW1 6542   6.371   2.033   0.801
 1881SOL    HW2 6543   6.501   2.005   0.896
 1882SOL     OW 6544   0.817   3.624   6.223
 1882SOL    HW1 6545   0.897   3.580   6.264
 1882SOL    HW2 6546   0.848   3.699   6.164
 1883SOL     OW 6547   6.408   2.157   2.369
 1883SOL    HW1 6548   6.365   2.207   2.294
 1883SOL    HW2 6549   6.504   2.142   2.348
 1884SOL     OW 6550   0.591   1.900   1.768
 1884SOL    HW1 6551   0.558   1.907   1.862
 1884SOL    HW2 6552   0.574   1.987   1.721
 1885SOL     OW 6553   1.997   1.537   5.990
 1885SOL    HW1 6554   2.000   1.489   6.078
 1885SOL    HW2 6555   1.920   1.600   5.989
 1886SOL     OW 6556   1.920   0.120   2.766
 1886SOL    HW1 6557   1.920   0.065   2.849
 1886SOL    HW2 6558   1.896   0.214   2.789
 1887SOL     OW 6559   1.352   6.063   5.983
 1887SOL    HW1 6560   1.406   6.099   6.059
 1887SOL    HW2 6561   1.309   5.977   6.011
 1888SOL     OW 6562   3.120   2.227   0.637
 1888SOL    HW1 6563   3.197   2.185   0.589
 1888SOL    HW2 6564   3.051   2.157   0.658
 1889SOL     OW 6565   1.109   3.577   3.560
 1889SOL    HW1 6566   1.111   3.539   3.653
 1889SOL    HW2 6567   1.026   3.547   3.514
 1890SOL     OW 6568   0.736   5.910   3.645
 1890SOL    HW1 6569   0.780   5.827   3.610
 1890SOL    HW2 6570   0.689   5.956   3.570
 1891SOL     OW 6571   3.908   3.290   2.052
 1891SOL    HW1 6572   4.008   3.291   2.051
 1891SOL    HW2 6573   3.875   3.380   2.081
 1892SOL     OW 6574   0.238   0.146   2.152
 1892SOL    HW1 6575   0.292   0.219   2.112
 1892SOL    HW2 6576   0.261   0.059   2.107
 1893SOL     OW 6577   3.744   3.231   3.153
 1893SOL    HW1 6578   3.738   3.325   3.117
 1893SOL    HW2 6579   3.840   3.207   3.166
 1894SOL     OW 6580   3.248   3.537   4.463
 1894SOL    HW1 6581   3.217   3.473   4.392
 1894SOL    HW2 6582   3.169   3.583   4.503
 1895SOL     OW 6583   4.390   0.495   0.647
 1895SOL    HW1 6584   4.489   0.481   0.644
 1895SOL    HW2 6585   4.364   0.562   0.577
 1896SOL     OW 6586   5.575   1.683   0.898
 1896SOL    HW1 6587   5.564   1.622   0.819
 1896SOL    HW2 6588   5.567   1.778   0.868
 1897SOL     OW 6589   2.215   4.745   2.942
 1897SOL    HW1 6590   2.293   4.761   3.002
 1897SOL    HW2 6591   2.230   4.661   2.889
 1898SOL     OW 6592   1.369   5.218   3.032
 1898SOL    HW1 6593   1.386   5.199   2.936
 1898SOL    HW2 6594   1.270   5.228   3.047
 1899SOL     OW 6595   0.246   0.172   1.805
 1899SOL    HW1 6596   0.171   0.223   1.845
 1899SOL    HW2 6597   0.329   0.186   1.860
 1900SOL     OW 6598   3.093   0.285   0.041
 1900SOL    HW1 6599   3.123   0.377   0.014
 1900SOL    HW2 6600   3.037   0.245   6.993
 1901SOL     OW 6601   2.805   3.628   1.241
 1901SOL    HW1 6602   2.824   3.644   1.145
 1901SOL    HW2 6603   2.732   3.561   1.250
 1902SOL     OW 6604   2.237   0.022   4.430
 1902SOL    HW1 6605   2.259   7.008   4.341
 1902SOL    HW2 6606   2.161   0.086   4.421
 1903SOL     OW 6607   0.687   2.538   3.622
 1903SOL    HW1 6608   0.725   2.468   3.562
 1903SOL    HW2 6609   0.761   2.581   3.674
 1904SOL     OW 6610   6.077   5.612   2.971
 1904SOL    HW1 6611   5.983   5.580   2.980
 1904SOL    HW2 6612   6.108   5.652   3.058
 1905SOL     OW 6613   0.841   0.732   3.843
 1905SOL    HW1 6614   0.748   0.731   3.880
 1905SOL    HW2 6615   0.895   0.662   3.888
 1906SOL     OW 6616   2.370   0.336   6.186
 1906SOL    HW1 6617   2.424   0.305   6.264
 1906SOL    HW2 6618   2.392   0.431   6.166
 1907SOL     OW 6619   5.682   2.935   7.022
 1907SOL    HW1 6620   5.611   2.887   6.971
 1907SOL    HW2 6621   5.748   2.870   0.032
 1908SOL     OW 6622   3.971   0.007   0.292
 1908SOL    HW1 6623   4.070   0.017   0.306
 1908SOL    HW2 6624   3.944   6.938   0.313
 1909SOL     OW 6625   0.202   4.018   4.798
 1909SOL    HW1 6626   0.130   4.074   4.757
 1909SOL    HW2 6627   0.170   3.981   4.885
 1910SOL     OW 6628   6.235   5.631   6.028
 1910SOL    HW1 6629   6.302   5.637   5.954
 1910SOL    HW2 6630   6.281   5.638   6.116
 1911SOL     OW 6631   0.024   4.964   4.212
 1911SOL    HW1 6632   0.029   4.916   4.124
 1911SOL    HW2 6633   0.116   4.987   4.243
 1912SOL     OW 6634   2.872   4.753   2.896
 1912SOL    HW1 6635   2.919   4.778   2.811
 1912SOL    HW2 6636   2.817   4.829   2.928
 1913SOL     OW 6637   2.508   4.919   4.858
 1913SOL    HW1 6638   2.509   4.978   4.939
 1913SOL    HW2 6639   2.529   4.825   4.884
 1914SOL     OW 6640   2.473   4.735   5.960
 1914SOL    HW1 6641   2.559   4.685   5.959
 1914SOL    HW2 6642   2.424   4.714   6.045
 1915SOL     OW 6643   5.128   2.630   6.075
 1915SOL    HW1 6644   5.031   2.623   6.096
 1915SOL    HW2 6645   5.180   2.647   6.159
 1916SOL     OW 6646   3.809   0.014   1.474
 1916SOL    HW1 6647   3.767   0.038   1.562
 1916SOL    HW2 6648   3.784   0.083   1.406
 1917SOL     OW 6649   2.517   4.201   1.057
 1917SOL    HW1 6650   2.423   4.217   1.028
 1917SOL    HW2 6651   2.521   4.119   1.115
 1918SOL     OW 6652   0.375   1.390   5.066
 1918SOL    HW1 6653   0.367   1.436   5.155
 1918SOL    HW2 6654   0.283   1.377   5.028
 1919SOL     OW 6655   1.266   2.497   1.610
 1919SOL    HW1 6656   1.221   2.408   1.603
 1919SOL    HW2 6657   1.363   2.487   1.587
 1920SOL     OW 6658   5.149   2.372   1.496
 1920SOL    HW1 6659   5.111   2.337   1.582
 1920SOL    HW2 6660   5.211   2.448   1.516
 1921SOL     OW 6661   1.444   2.873   0.116
 1921SOL    HW1 6662   1.478   2.942   0.052
 1921SOL    HW2 6663   1.475   2.895   0.208
 1922SOL     OW 6664   3.468   3.458   2.079
 1922SOL    HW1 6665   3.540   3.407   2.031
 1922SOL    HW2 6666   3.408   3.502   2.012
 1923SOL     OW 6667   4.623   0.546   5.788
 1923SOL    HW1 6668   4.620   0.447   5.790
 1923SOL    HW2 6669   4.605   0.579   5.696
 1924SOL     OW 6670   4.605   6.962   1.022
 1924SOL    HW1 6671   4.572   0.026   0.991
 1924SOL    HW2 6672   4.646   6.971   1.113
 1925SOL     OW 6673   1.104   4.451   0.702
 1925SOL    HW1 6674   1.077   4.525   0.639
 1925SOL    HW2 6675   1.024   4.420   0.753
 1926SOL     OW 6676   4.005   0.346   1.683
 1926SOL    HW1 6677   3.907   0.333   1.670
 1926SOL    HW2 6678   4.052   0.258   1.674
 1927SOL     OW 6679   2.070   4.879   1.560
 1927SOL    HW1 6680   2.133   4.862   1.484
 1927SOL    HW2 6681   2.077   4.974   1.588
 1928SOL     OW 6682   4.721   4.368   3.631
 1928SOL    HW1 6683   4.633   4.393   3.669
 1928SOL    HW2 6684   4.736   4.418   3.546
 1929SOL     OW 6685   3.321   0.645   2.933
 1929SOL    HW1 6686   3.279   0.578   2.871
 1929SOL    HW2 6687   3.310   0.737   2.895
 1930SOL     OW 6688   4.915   3.273   6.639
 1930SOL    HW1 6689   4.957   3.314   6.558
 1930SOL    HW2 6690   4.930   3.174   6.638
 1931SOL     OW 6691   1.200   1.329   5.591
 1931SOL    HW1 6692   1.248   1.261   5.648
 1931SOL    HW2 6693   1.200   1.298   5.496
 1932SOL     OW 6694   4.693   2.145   2.816
 1932SOL    HW1 6695   4.685   2.223   2.879
 1932SOL    HW2 6696   4.602   2.111   2.793
 1933SOL     OW 6697   0.785   1.446   0.650
 1933SOL    HW1 6698   0.767   1.349   0.634
 1933SOL    HW2 6699   0.864   1.475   0.597
 1934SOL     OW 6700   0.067   0.222   5.705
 1934SOL    HW1 6701   0.098   0.289   5.637
 1934SOL    HW2 6702   0.146   0.190   5.758
 1935SOL     OW 6703   6.078   4.625   3.732
 1935SOL    HW1 6704   6.004   4.595   3.792
 1935SOL    HW2 6705   6.053   4.711   3.688
 1936SOL     OW 6706   5.027   3.306   4.595
 1936SOL    HW1 6707   4.992   3.396   4.570
 1936SOL    HW2 6708   5.078   3.268   4.519
 1937SOL     OW 6709   5.186   4.744   6.719
 1937SOL    HW1 6710   5.145   4.716   6.632
 1937SOL    HW2 6711   5.192   4.844   6.721
 1938SOL     OW 6712   1.308   2.647   6.789
 1938SOL    HW1 6713   1.342   2.575   6.728
 1938SOL    HW2 6714   1.352   2.639   6.878
 1939SOL     OW 6715   1.180   6.662   4.881
 1939SOL    HW1 6716   1.127   6.729   4.829
 1939SOL    HW2 6717   1.125   6.628   4.957
 1940SOL     OW 6718   6.516   4.784   1.724
 1940SOL    HW1 6719   6.572   4.704   1.746
 1940SOL    HW2 6720   6.468   4.769   1.638
 1941SOL     OW 6721   0.671   3.050   4.012
 1941SOL    HW1 6722   0.722   2.999   4.081
 1941SOL    HW2 6723   0.590   2.997   3.985
 1942SOL     OW 6724   5.686   3.685   2.250
 1942SOL    HW1 6725   5.741   3.634   2.317
 1942SOL    HW2 6726   5.725   3.777   2.239
 1943SOL     OW 6727   0.999   1.256   2.213
 1943SOL    HW1 6728   1.031   1.196   2.139
 1943SOL    HW2 6729   0.986   1.348   2.178
 1944SOL     OW 6730   6.894   2.738   1.302
 1944SOL    HW1 6731   6.956   2.663   1.279
 1944SOL    HW2 6732   6.942   2.804   1.360
 1945SOL     OW 6733   4.556   6.820   1.446
 1945SOL    HW1 6734   4.639   6.766   1.444
 1945SOL    HW2 6735   4.567   6.901   1.388
 1946SOL     OW 6736   6.257   6.178   1.557
 1946SOL    HW1 6737   6.232   6.211   1.648
 1946SOL    HW2 6738   6.200   6.099   1.533
 1947SOL     OW 6739   5.491   4.524   3.086
 1947SOL    HW1 6740   5.513   4.605   3.140
 1947SOL    HW2 6741   5.513   4.540   2.990
 1948SOL     OW 6742   5.022   3.328   2.922
 1948SOL    HW1 6743   5.069   3.295   3.004
 1948SOL    HW2 6744   5.057   3.419   2.899
 1949SOL     OW 6745   3.443   5.077   6.565
 1949SOL    HW1 6746   3.465   4.980   6.567
 1949SOL    HW2 6747   3.480   5.118   6.481
 1950SOL     OW 6748   3.716   4.024   4.196
 1950SOL    HW1 6749   3.732   4.043   4.293
 1950SOL    HW2 6750   3.711   3.925   4.183
 1951SOL     OW 6751   6.708   4.470   5.342
 1951SOL    HW1 6752   6.691   4.447   5.247
 1951SOL    HW2 6753   6.805   4.456   5.363
 1952SOL     OW 6754   5.468   4.328   6.873
 1952SOL    HW1 6755   5.567   4.334   6.876
 1952SOL    HW2 6756   5.430   4.415   6.840
 1953SOL     OW 6757   0.704   1.617   6.434
 1953SOL    HW1 6758   0.747   1.634   6.522
 1953SOL    HW2 6759   0.690   1.519   6.422
 1954SOL     OW 6760   3.761   0.453   1.389
 1954SOL    HW1 6761   3.846   0.409   1.359
 1954SOL    HW2 6762   3.740   0.425   1.482
 1955SOL     OW 6763   0.857   1.514   1.875
 1955SOL    HW1 6764   0.904   1.480   1.956
 1955SOL    HW2 6765   0.763   1.478   1.874
 1956SOL     OW 6766   5.855   0.720   2.222
 1956SOL    HW1 6767   5.920   0.668   2.278
 1956SOL    HW2 6768   5.765   0.676   2.226
 1957SOL     OW 6769   5.599   2.299   4.208
 1957SOL    HW1 6770   5.553   2.280   4.121
 1957SOL    HW2 6771   5.549   2.256   4.282
 1958SOL     OW 6772   4.682   1.843   1.070
 1958SOL    HW1 6773   4.583   1.844   1.056
 1958SOL    HW2 6774   4.725   1.789   0.998
 1959SOL     OW 6775   0.456   6.952   4.341
 1959SOL    HW1 6776   0.497   6.907   4.421
 1959SOL    HW2 6777   0.493   6.911   4.258
 1960SOL     OW 6778   5.748   3.909   3.414
 1960SOL    HW1 6779   5.691   3.928   3.334
 1960SOL    HW2 6780   5.720   3.821   3.454
 1961SOL     OW 6781   6.800   3.998   4.801
 1961SOL    HW1 6782   6.709   4.027   4.771
 1961SOL    HW2 6783   6.865   4.071   4.781
 1962SOL     OW 6784   0.946   0.298   2.736
 1962SOL    HW1 6785   0.883   0.368   2.704
 1962SOL    HW2 6786   0.912   0.208   2.709
 1963SOL     OW 6787   0.454   2.032   2.386
 1963SOL    HW1 6788   0.532   2.088   2.413
 1963SOL    HW2 6789   0.388   2.089   2.337
 1964SOL     OW 6790   5.392   4.624   1.633
 1964SOL    HW1 6791   5.465   4.564   1.601
 1964SOL    HW2 6792   5.324   4.570   1.683
 1965SOL     OW 6793   0.696   4.398   3.870
 1965SOL    HW1 6794   0.787   4.417   3.907
 1965SOL    HW2 6795   0.694   4.422   3.773
 1966SOL     OW 6796   1.819   4.937   0.218
 1966SOL    HW1 6797   1.854   4.982   0.301
 1966SOL    HW2 6798   1.853   4.843   0.215
 1967SOL     OW 6799   5.478   3.069   3.367
 1967SOL    HW1 6800   5.426   3.054   3.451
 1967SOL    HW2 6801   5.540   3.146   3.381
 1968SOL     OW 6802   2.418   1.671   5.363
 1968SOL    HW1 6803   2.378   1.739   5.425
 1968SOL    HW2 6804   2.419   1.582   5.407
 1969SOL     OW 6805   3.059   6.269   0.634
 1969SOL    HW1 6806   3.151   6.276   0.595
 1969SOL    HW2 6807   3.065   6.261   0.733
 1970SOL     OW 6808   6.443   5.669   5.176
 1970SOL    HW1 6809   6.345   5.660   5.193
 1970SOL    HW2 6810   6.469   5.766   5.183
 1971SOL     OW 6811   1.141   6.643   5.382
 1971SOL    HW1 6812   1.076   6.589   5.329
 1971SOL    HW2 6813   1.230   6.597   5.384
 1972SOL     OW 6814   5.875   2.409   2.263
 1972SOL    HW1 6815   5.934   2.486   2.237
 1972SOL    HW2 6816   5.908   2.369   2.348
 1973SOL     OW 6817   1.876   4.557   0.468
 1973SOL    HW1 6818   1.817   4.606   0.404
 1973SOL    HW2 6819   1.967   4.599   0.468
 1974SOL     OW 6820   3.640   6.319   4.558
 1974SOL    HW1 6821   3.605   6.226   4.568
 1974SOL    HW2 6822   3.574   6.383   4.597
 1975SOL     OW 6823   1.326   2.988   2.887
 1975SOL    HW1 6824   1.399   2.957   2.825
 1975SOL    HW2 6825   1.349   2.961   2.980
 1976SOL     OW 6826   0.322   6.943   6.254
 1976SOL    HW1 6827   0.292   6.928   6.348
 1976SOL    HW2 6828   0.244   6.935   6.192
 1977SOL     OW 6829   1.891   4.296   5.978
 1977SOL    HW1 6830   1.906   4.353   5.897
 1977SOL    HW2 6831   1.915   4.201   5.957
 1978SOL     OW 6832   2.617   6.791   2.018
 1978SOL    HW1 6833   2.701   6.768   2.068
 1978SOL    HW2 6834   2.560   6.709   2.011
 1979SOL     OW 6835   6.940   5.281   6.767
 1979SOL    HW1 6836   6.989   5.206   6.812
 1979SOL    HW2 6837   6.891   5.247   6.687
 1980SOL     OW 6838   3.117   1.432   1.504
 1980SOL    HW1 6839   3.115   1.333   1.492
 1980SOL    HW2 6840   3.054   1.475   1.439
 1981SOL     OW 6841   4.413   2.210   3.221
 1981SOL    HW1 6842   4.429   2.283   3.287
 1981SOL    HW2 6843   4.445   2.123   3.258
 1982SOL     OW 6844   6.947   2.586   4.471
 1982SOL    HW1 6845   0.016   2.618   4.466
 1982SOL    HW2 6846   6.945   2.493   4.508
 1983SOL     OW 6847   0.314   0.145   0.951
 1983SOL    HW1 6848   0.375   0.148   1.031
 1983SOL    HW2 6849   0.264   0.231   0.944
 1984SOL     OW 6850   5.742   2.940   5.457
 1984SOL    HW1 6851   5.689   2.859   5.484
 1984SOL    HW2 6852   5.834   2.933   5.496
 1985SOL     OW 6853   6.279   3.928   1.984
 1985SOL    HW1 6854   6.219   3.915   1.905
 1985SOL    HW2 6855   6.267   3.853   2.048
 1986SOL     OW 6856   3.182   2.221   1.202
 1986SOL    HW1 6857   3.239   2.150   1.161
 1986SOL    HW2 6858   3.090   2.185   1.217
 1987SOL     OW 6859   2.225   0.338   2.547
 1987SOL    HW1 6860   2.183   0.302   2.463
 1987SOL    HW2 6861   2.237   0.264   2.613
 1988SOL     OW 6862   0.280   1.607   1.171
 1988SOL    HW1 6863   0.180   1.612   1.160
 1988SOL    HW2 6864   0.302   1.544   1.245
 1989SOL     OW 6865   3.233   4.866   4.861
 1989SOL    HW1 6866   3.316   4.914   4.888
 1989SOL    HW2 6867   3.196   4.817   4.940
 1990SOL     OW 6868   4.239   0.140   0.601
 1990SOL    HW1 6869   4.172   0.132   0.674
 1990SOL    HW2 6870   4.261   0.049   0.565
 1991SOL     OW 6871   3.134   5.132   0.331
 1991SOL    HW1 6872   3.192   5.195   0.278
 1991SOL    HW2 6873   3.096   5.181   0.409
 1992SOL     OW 6874   0.900   5.893   1.262
 1992SOL    HW1 6875   0.964   5.817   1.249
 1992SOL    HW2 6876   0.910   5.957   1.186
 1993SOL     OW 6877   2.146   3.473   4.342
 1993SOL    HW1 6878   2.129   3.571   4.348
 1993SOL    HW2 6879   2.157   3.447   4.246
 1994SOL     OW 6880   3.154   3.450   0.506
 1994SOL    HW1 6881   3.200   3.365   0.532
 1994SOL    HW2 6882   3.058   3.446   0.533
 1995SOL     OW 6883   5.762   2.464   4.621
 1995SOL    HW1 6884   5.764   2.376   4.670
 1995SOL    HW2 6885   5.847   2.476   4.570
 1996SOL     OW 6886   4.021   1.734   0.555
 1996SOL    HW1 6887   4.041   1.830   0.572
 1996SOL    HW2 6888   4.064   1.705   0.469
 1997SOL     OW 6889   4.040   1.118   3.688
 1997SOL    HW1 6890   4.017   1.133   3.592
 1997SOL    HW2 6891   4.135   1.088   3.695
 1998SOL     OW 6892   1.794   3.476   1.275
 1998SOL    HW1 6893   1.786   3.575   1.285
 1998SOL    HW2 6894   1.887   3.453   1.245
 1999SOL     OW 6895   1.332   6.743   5.164
 1999SOL    HW1 6896   1.347   6.661   5.220
 1999SOL    HW2 6897   1.307   6.716   5.071
 2000SOL     OW 6898   3.408   4.285   6.076
 2000SOL    HW1 6899   3.313   4.254   6.070
 2000SOL    HW2 6900   3.454   4.239   6.151
 2001SOL     OW 6901   2.549   1.495   6.538
 2001SOL    HW1 6902   2.613   1.547   6.595
 2001SOL    HW2 6903   2.581   1.495   6.443
 2002SOL     OW 6904   0.226   4.813   1.186
 2002SOL    HW1 6905   0.276   4.890   1.227
 2002SOL    HW2 6906   0.134   4.842   1.162
 2003SOL     OW 6907   6.842   5.440   2.313
 2003SOL    HW1 6908   6.908   5.509   2.339
 2003SOL    HW2 6909   6.751   5.481   2.306
 2004SOL     OW 6910   3.683   0.438   3.311
 2004SOL    HW1 6911   3.768   0.393   3.281
 2004SOL    HW2 6912   3.682   0.442   3.411
 2005SOL     OW 6913   1.547   6.164   1.157
 2005SOL    HW1 6914   1.464   6.175   1.212
 2005SOL    HW2 6915   1.566   6.067   1.144
 2006SOL     OW 6916   5.478   0.073   2.630
 2006SOL    HW1 6917   5.412   0.015   2.676
 2006SOL    HW2 6918   5.532   0.018   2.566
 2007SOL     OW 6919   5.912   4.731   0.323
 2007SOL    HW1 6920   5.891   4.791   0.400
 2007SOL    HW2 6921   5.845   4.745   0.250
 2008SOL     OW 6922   2.119   3.620   3.612
 2008SOL    HW1 6923   2.151   3.531   3.646
 2008SOL    HW2 6924   2.023   3.613   3.585
 2009SOL     OW 6925   6.481   6.783   2.016
 2009SOL    HW1 6926   6.414   6.729   1.964
 2009SOL    HW2 6927   6.471   6.764   2.114
 2010SOL     OW 6928   1.362   2.060   1.670
 2010SOL    HW1 6929   1.321   1.970   1.678
 2010SOL    HW2 6930   1.302   2.120   1.617
 2011SOL     OW 6931   0.660   6.357   5.693
 2011SOL    HW1 6932   0.708   6.324   5.774
 2011SOL    HW2 6933   0.648   6.456   5.699
 2012SOL     OW 6934   1.409   3.213   2.173
 2012SOL    HW1 6935   1.409   3.128   2.119
 2012SOL    HW2 6936   1.376   3.193   2.265
 2013SOL     OW 6937   0.018   3.183   2.986
 2013SOL    HW1 6938   7.005   3.270   3.014
 2013SOL    HW2 6939   6.976   3.110   3.002
 2014SOL     OW 6940   3.281   0.724   4.123
 2014SOL    HW1 6941   3.211   0.772   4.070
 2014SOL    HW2 6942   3.347   0.682   4.061
 2015SOL     OW 6943   4.459   1.184   1.370
 2015SOL    HW1 6944   4.510   1.100   1.388
 2015SOL    HW2 6945   4.508   1.262   1.408
 2016SOL     OW 6946   1.987   0.028   5.708
 2016SOL    HW1 6947   1.937   6.967   5.705
 2016SOL    HW2 6948   1.925   0.100   5.739
 2017SOL     OW 6949   3.230   6.570   2.954
 2017SOL    HW1 6950   3.283   6.514   3.017
 2017SOL    HW2 6951   3.237   6.667   2.980
 2018SOL     OW 6952   0.888   1.186   3.388
 2018SOL    HW1 6953   0.895   1.159   3.484
 2018SOL    HW2 6954   0.821   1.128   3.342
 2019SOL     OW 6955   6.096   5.098   6.595
 2019SOL    HW1 6956   6.178   5.067   6.643
 2019SOL    HW2 6957   6.039   5.018   6.572
 2020SOL     OW 6958   2.339   6.067   6.114
 2020SOL    HW1 6959   2.407   6.071   6.187
 2020SOL    HW2 6960   2.338   6.153   6.064
 2021SOL     OW 6961   6.738   5.735   3.941
 2021SOL    HW1 6962   6.793   5.810   3.977
 2021SOL    HW2 6963   6.642   5.763   3.937
 2022SOL     OW 6964   2.165   3.758   5.121
 2022SOL    HW1 6965   2.250   3.807   5.141
 2022SOL    HW2 6966   2.093   3.792   5.180
 2023SOL     OW 6967   0.372   7.020   0.012
 2023SOL    HW1 6968   0.400   6.945   6.978
 2023SOL    HW2 6969   0.452   0.033   0.059
 2024SOL     OW 6970   0.753   5.789   4.679
 2024SOL    HW1 6971   0.721   5.872   4.634
 2024SOL    HW2 6972   0.757   5.714   4.613
 2025SOL     OW 6973   2.140   0.481   4.740
 2025SOL    HW1 6974   2.234   0.504   4.767
 2025SOL    HW2 6975   2.113   0.395   4.783
 2026SOL     OW 6976   6.254   0.795   5.769
 2026SOL    HW1 6977   6.230   0.730   5.841
 2026SOL    HW2 6978   6.172   0.817   5.715
 2027SOL     OW 6979   0.493   6.398   2.877
 2027SOL    HW1 6980   0.574   6.372   2.929
 2027SOL    HW2 6981   0.453   6.481   2.917
 2028SOL     OW 6982   4.119   5.336   3.819
 2028SOL    HW1 6983   4.125   5.238   3.836
 2028SOL    HW2 6984   4.041   5.355   3.759
 2029SOL     OW 6985   5.812   2.390   6.288
 2029SOL    HW1 6986   5.818   2.449   6.369
 2029SOL    HW2 6987   5.748   2.430   6.222
 2030SOL     OW 6988   2.464   6.274   3.002
 2030SOL    HW1 6989   2.432   6.249   2.910
 2030SOL    HW2 6990   2.562   6.294   2.998
 2031SOL     OW 6991   6.850   5.520   3.798
 2031SOL    HW1 6992   6.857   5.434   3.849
 2031SOL    HW2 6993   6.800   5.587   3.853
 2032SOL     OW 6994   2.988   2.166   5.455
 2032SOL    HW1 6995   3.032   2.251   5.426
 2032SOL    HW2 6996   2.905   2.152   5.401
 2033SOL     OW 6997   1.726   1.943   0.555
 2033SOL    HW1 6998   1.731   2.026   0.500
 2033SOL    HW2 6999   1.813   1.894   0.551
 2034SOL     OW 7000   7.010   4.583   5.595
 2034SOL    HW1 7001   7.013   4.605   5.498
 2034SOL    HW2 7002   6.935   4.634   5.638
 2035SOL     OW 7003   5.747   0.177   2.325
 2035SOL    HW1 7004   5.759   0.232   2.407
 2035SOL    HW2 7005   5.816   0.202   2.257
 2036SOL     OW 7006   1.558   4.294   1.270
 2036SOL    HW1 7007   1.534   4.383   1.309
 2036SOL    HW2 7008   1.657   4.286   1.264
 2037SOL     OW 7009   0.127   3.224   6.669
 2037SOL    HW1 7010   0.059   3.231   6.596
 2037SOL    HW2 7011   0.201   3.289   6.652
 2038SOL     OW 7012   1.792   1.553   6.830
 2038SOL    HW1 7013   1.888   1.531   6.848
 2038SOL    HW2 7014   1.734   1.498   6.890
 2039SOL     OW 7015   6.595   5.971   2.606
 2039SOL    HW1 7016   6.569   5.980   2.702
 2039SOL    HW2 7017   6.657   6.046   2.582
 2040SOL     OW 7018   1.941   2.656   0.072
 2040SOL    HW1 7019   1.875   2.608   0.129
 2040SOL    HW2 7020   1.897   2.682   7.011
 2041SOL     OW 7021   2.139   0.515   6.368
 2041SOL    HW1 7022   2.097   0.436   6.412
 2041SOL    HW2 7023   2.142   0.500   6.269
 2042SOL     OW 7024   5.045   1.544   5.480
 2042SOL    HW1 7025   5.010   1.504   5.396
 2042SOL    HW2 7026   5.095   1.628   5.460
 2043SOL     OW 7027   6.499   3.856   0.791
 2043SOL    HW1 7028   6.549   3.839   0.706
 2043SOL    HW2 7029   6.490   3.770   0.842
 2044SOL     OW 7030   4.356   0.649   0.429
 2044SOL    HW1 7031   4.267   0.609   0.408
 2044SOL    HW2 7032   4.381   0.714   0.358
 2045SOL     OW 7033   1.881   6.518   6.474
 2045SOL    HW1 7034   1.920   6.511   6.566
 2045SOL    HW2 7035   1.799   6.461   6.468
 2046SOL     OW 7036   0.928   2.353   4.990
 2046SOL    HW1 7037   0.953   2.257   4.982
 2046SOL    HW2 7038   0.999   2.403   5.039
 2047SOL     OW 7039   6.848   0.567   0.433
 2047SOL    HW1 7040   6.758   0.564   0.389
 2047SOL    HW2 7041   6.901   0.643   0.395
 2048SOL     OW 7042   0.943   2.078   4.425
 2048SOL    HW1 7043   0.943   1.981   4.400
 2048SOL    HW2 7044   0.877   2.094   4.498
 2049SOL     OW 7045   4.919   2.060   4.918
 2049SOL    HW1 7046   4.977   2.072   4.838
 2049SOL    HW2 7047   4.966   2.095   4.999
 2050SOL     OW 7048   0.845   1.046   4.034
 2050SOL    HW1 7049   0.856   0.953   3.999
 2050SOL    HW2 7050   0.749   1.064   4.053
 2051SOL     OW 7051   3.229   5.973   0.608
 2051SOL    HW1 7052   3.283   5.902   0.563
 2051SOL    HW2 7053   3.136   5.939   0.625
 2052SOL     OW 7054   1.846   4.102   6.638
 2052SOL    HW1 7055   1.751   4.071   6.629
 2052SOL    HW2 7056   1.859   4.186   6.584
 2053SOL     OW 7057   1.386   5.380   4.041
 2053SOL    HW1 7058   1.306   5.343   4.088
 2053SOL    HW2 7059   1.400   5.331   3.955
 2054SOL     OW 7060   3.451   3.249   3.617
 2054SOL    HW1 7061   3.539   3.295   3.629
 2054SOL    HW2 7062   3.433   3.191   3.696
 2055SOL     OW 7063   2.790   2.053   5.966
 2055SOL    HW1 7064   2.790   1.955   5.984
 2055SOL    HW2 7065   2.882   2.090   5.974
 2056SOL     OW 7066   4.022   4.823   1.114
 2056SOL    HW1 7067   4.026   4.896   1.046
 2056SOL    HW2 7068   3.949   4.759   1.091
 2057SOL     OW 7069   6.074   2.354   4.354
 2057SOL    HW1 7070   5.995   2.371   4.295
 2057SOL    HW2 7071   6.119   2.269   4.327
 2058SOL     OW 7072   0.212   5.614   2.952
 2058SOL    HW1 7073   0.225   5.703   2.996
 2058SOL    HW2 7074   0.130   5.617   2.895
 2059SOL     OW 7075   1.927   0.257   6.397
 2059SOL    HW1 7076   1.863   0.304   6.335
 2059SOL    HW2 7077   1.881   0.237   6.483
 2060SOL     OW 7078   1.229   3.384   6.725
 2060SOL    HW1 7079   1.218   3.291   6.689
 2060SOL    HW2 7080   1.274   3.379   6.815
 2061SOL     OW 7081   1.997   2.263   2.542
 2061SOL    HW1 7082   1.986   2.205   2.461
 2061SOL    HW2 7083   1.908   2.275   2.586
 2062SOL     OW 7084   6.699   4.936   4.518
 2062SOL    HW1 7085   6.735   5.010   4.461
 2062SOL    HW2 7086   6.721   4.953   4.614
 2063SOL     OW 7087   0.635   0.828   4.592
 2063SOL    HW1 7088   0.657   0.798   4.684
 2063SOL    HW2 7089   0.702   0.896   4.562
 2064SOL     OW 7090   0.737   3.070   3.595
 2064SOL    HW1 7091   0.783   2.998   3.646
 2064SOL    HW2 7092   0.638   3.064   3.609
 2065SOL     OW 7093   4.344   2.989   5.839
 2065SOL    HW1 7094   4.421   2.955   5.893
 2065SOL    HW2 7095   4.350   2.952   5.746
 2066SOL     OW 7096   6.512   3.567   4.858
 2066SOL    HW1 7097   6.412   3.559   4.868
 2066SOL    HW2 7098   6.556   3.514   4.930
 2067SOL     OW 7099   6.449   5.290   0.970
 2067SOL    HW1 7100   6.379   5.271   1.039
 2067SOL    HW2 7101   6.477   5.385   0.976
 2068SOL     OW 7102   3.672   0.570   4.787
 2068SOL    HW1 7103   3.690   0.543   4.882
 2068SOL    HW2 7104   3.688   0.669   4.777
 2069SOL     OW 7105   0.150   2.614   3.771
 2069SOL    HW1 7106   0.173   2.532   3.823
 2069SOL    HW2 7107   0.234   2.656   3.736
 2070SOL     OW 7108   0.744   4.591   0.836
 2070SOL    HW1 7109   0.802   4.510   0.828
 2070SOL    HW2 7110   0.759   4.634   0.925
 2071SOL     OW 7111   0.073   1.651   5.657
 2071SOL    HW1 7112   0.004   1.715   5.691
 2071SOL    HW2 7113   0.152   1.703   5.624
 2072SOL     OW 7114   4.200   4.170   5.811
 2072SOL    HW1 7115   4.119   4.195   5.759
 2072SOL    HW2 7116   4.281   4.211   5.769
 2073SOL     OW 7117   3.148   5.799   6.863
 2073SOL    HW1 7118   3.058   5.764   6.890
 2073SOL    HW2 7119   3.143   5.899   6.855
 2074SOL     OW 7120   0.762   3.918   5.590
 2074SOL    HW1 7121   0.831   3.846   5.588
 2074SOL    HW2 7122   0.672   3.878   5.603
 2075SOL     OW 7123   6.531   1.637   1.470
 2075SOL    HW1 7124   6.435   1.666   1.467
 2075SOL    HW2 7125   6.536   1.538   1.483
 2076SOL     OW 7126   5.667   6.927   4.754
 2076SOL    HW1 7127   5.743   6.976   4.797
 2076SOL    HW2 7128   5.612   6.991   4.700
 2077SOL     OW 7129   6.779   4.092   0.615
 2077SOL    HW1 7130   6.759   4.005   0.571
 2077SOL    HW2 7131   6.838   4.078   0.694
 2078SOL     OW 7132   0.485   2.963   5.832
 2078SOL    HW1 7133   0.431   2.910   5.898
 2078SOL    HW2 7134   0.426   3.029   5.787
 2079SOL     OW 7135   4.901   2.150   2.575
 2079SOL    HW1 7136   4.962   2.072   2.587
 2079SOL    HW2 7137   4.841   2.159   2.655
 2080SOL     OW 7138   2.460   3.028   6.013
 2080SOL    HW1 7139   2.553   3.014   6.049
 2080SOL    HW2 7140   2.448   2.974   5.930
 2081SOL     OW 7141   5.939   6.856   3.051
 2081SOL    HW1 7142   5.943   6.896   2.960
 2081SOL    HW2 7143   6.023   6.877   3.101
 2082SOL     OW 7144   6.819   6.272   3.593
 2082SOL    HW1 7145   6.809   6.177   3.621
 2082SOL    HW2 7146   6.907   6.284   3.547
 2083SOL     OW 7147   0.332   6.221   3.828
 2083SOL    HW1 7148   0.331   6.310   3.875
 2083SOL    HW2 7149   0.280   6.155   3.882
 2084SOL     OW 7150   6.854   1.897   1.779
 2084SOL    HW1 7151   6.877   1.821   1.718
 2084SOL    HW2 7152   6.813   1.861   1.863
 2085SOL     OW 7153   5.085   5.534   0.795
 2085SOL    HW1 7154   5.062   5.487   0.710
 2085SOL    HW2 7155   5.141   5.614   0.775
 2086SOL     OW 7156   4.496   0.440   6.927
 2086SOL    HW1 7157   4.553   0.521   6.941
 2086SOL    HW2 7158   4.427   0.435   6.999
 2087SOL     OW 7159   4.262   2.210   6.410
 2087SOL    HW1 7160   4.324   2.237   6.336
 2087SOL    HW2 7161   4.241   2.113   6.402
 2088SOL     OW 7162   0.671   5.623   5.591
 2088SOL    HW1 7163   0.765   5.627   5.557
 2088SOL    HW2 7164   0.667   5.661   5.683
 2089SOL     OW 7165   2.850   3.631   0.066
 2089SOL    HW1 7166   2.857   3.730   0.053
 2089SOL    HW2 7167   2.810   3.612   0.156
 2090SOL     OW 7168   4.653   3.167   5.251
 2090SOL    HW1 7169   4.685   3.257   5.220
 2090SOL    HW2 7170   4.709   3.137   5.329
 2091SOL     OW 7171   5.450   6.026   1.785
 2091SOL    HW1 7172   5.393   6.094   1.831
 2091SOL    HW2 7173   5.542   6.063   1.772
 2092SOL     OW 7174   4.752   3.586   1.621
 2092SOL    HW1 7175   4.760   3.677   1.579
 2092SOL    HW2 7176   4.701   3.526   1.560
 2093SOL     OW 7177   3.837   1.224   2.735
 2093SOL    HW1 7178   3.775   1.283   2.682
 2093SOL    HW2 7179   3.930   1.263   2.731
 2094SOL     OW 7180   5.316   2.073   6.583
 2094SOL    HW1 7181   5.284   2.002   6.521
 2094SOL    HW2 7182   5.407   2.049   6.618
 2095SOL     OW 7183   5.173   0.090   3.110
 2095SOL    HW1 7184   5.258   0.142   3.104
 2095SOL    HW2 7185   5.103   0.145   3.156
 2096SOL     OW 7186   4.923   6.795   2.332
 2096SOL    HW1 7187   4.863   6.860   2.379
 2096SOL    HW2 7188   4.969   6.841   2.256
 2097SOL     OW 7189   0.810   5.353   6.303
 2097SOL    HW1 7190   0.729   5.324   6.251
 2097SOL    HW2 7191   0.782   5.417   6.375
 2098SOL     OW 7192   3.072   5.909   3.323
 2098SOL    HW1 7193   3.004   5.836   3.329
 2098SOL    HW2 7194   3.140   5.885   3.254
 2099SOL     OW 7195   4.559   0.975   6.615
 2099SOL    HW1 7196   4.651   0.952   6.647
 2099SOL    HW2 7197   4.532   1.063   6.654
 2100SOL     OW 7198   5.497   0.091   1.156
 2100SOL    HW1 7199   5.566   0.028   1.120
 2100SOL    HW2 7200   5.521   0.117   1.249
 2101SOL     OW 7201   0.113   6.449   1.896
 2101SOL    HW1 7202   0.117   6.401   1.808
 2101SOL    HW2 7203   0.147   6.542   1.886
 2102SOL     OW 7204   3.502   2.859   0.432
 2102SOL    HW1 7205   3.556   2.924   0.485
 2102SOL    HW2 7206   3.553   2.774   0.421
 2103SOL     OW 7207   2.973   5.866   0.629
 2103SOL    HW1 7208   2.931   5.919   0.702
 2103SOL    HW2 7209   2.905   5.804   0.589
 2104SOL     OW 7210   1.252   4.794   3.272
 2104SOL    HW1 7211   1.334   4.832   3.231
 2104SOL    HW2 7212   1.270   4.769   3.368
 2105SOL     OW 7213   6.538   4.370   5.554
 2105SOL    HW1 7214   6.481   4.399   5.477
 2105SOL    HW2 7215   6.605   4.303   5.522
 2106SOL     OW 7216   4.542   3.850   1.487
 2106SOL    HW1 7217   4.454   3.855   1.535
 2106SOL    HW2 7218   4.572   3.942   1.463
 2107SOL     OW 7219   5.015   4.438   5.718
 2107SOL    HW1 7220   4.946   4.468   5.784
 2107SOL    HW2 7221   5.021   4.504   5.644
 2108SOL     OW 7222   5.737   6.871   5.588
 2108SOL    HW1 7223   5.649   6.870   5.635
 2108SOL    HW2 7224   5.746   6.955   5.535
 2109SOL     OW 7225   2.856   6.448   3.516
 2109SOL    HW1 7226   2.872   6.351   3.538
 2109SOL    HW2 7227   2.862   6.460   3.417
 2110SOL     OW 7228   3.938   0.353   6.937
 2110SOL    HW1 7229   3.860   0.383   6.883
 2110SOL    HW2 7230   3.910   0.277   6.996
 2111SOL     OW 7231   1.162   2.396   5.752
 2111SOL    HW1 7232   1.218   2.455   5.694
 2111SOL    HW2 7233   1.219   2.351   5.821
 2112SOL     OW 7234   0.247   0.631   6.710
 2112SOL    HW1 7235   0.262   0.533   6.711
 2112SOL    HW2 7236   0.253   0.667   6.803
 2113SOL     OW 7237   0.844   0.510   4.570
 2113SOL    HW1 7238   0.812   0.604   4.575
 2113SOL    HW2 7239   0.867   0.477   4.662
 2114SOL     OW 7240   1.527   1.775   6.001
 2114SOL    HW1 7241   1.518   1.874   6.006
 2114SOL    HW2 7242   1.623   1.751   5.984
 2115SOL     OW 7243   6.959   5.617   3.075
 2115SOL    HW1 7244   0.017   5.593   3.124
 2115SOL    HW2 7245   6.939   5.714   3.089
 2116SOL     OW 7246   1.068   2.082   0.143
 2116SOL    HW1 7247   1.108   2.139   0.215
 2116SOL    HW2 7248   0.981   2.045   0.174
 2117SOL     OW 7249   5.651   1.493   2.386
 2117SOL    HW1 7250   5.742   1.483   2.345
 2117SOL    HW2 7251   5.651   1.566   2.453
 2118SOL     OW 7252   6.056   2.711   2.295
 2118SOL    HW1 7253   6.087   2.655   2.372
 2118SOL    HW2 7254   6.055   2.655   2.212
 2119SOL     OW 7255   2.798   1.068   0.018
 2119SOL    HW1 7256   2.759   1.040   6.956
 2119SOL    HW2 7257   2.731   1.051   0.091
 2120SOL     OW 7258   5.500   1.220   0.634
 2120SOL    HW1 7259   5.440   1.201   0.556
 2120SOL    HW2 7260   5.473   1.164   0.712
 2121SOL     OW 7261   1.124   0.767   6.680
 2121SOL    HW1 7262   1.100   0.680   6.636
 2121SOL    HW2 7263   1.042   0.823   6.689
 2122SOL     OW 7264   6.070   1.042   4.178
 2122SOL    HW1 7265   6.074   0.998   4.088
 2122SOL    HW2 7266   5.975   1.061   4.202
 2123SOL     OW 7267   1.337   5.989   2.975
 2123SOL    HW1 7268   1.393   5.943   3.044
 2123SOL    HW2 7269   1.372   6.081   2.960
 2124SOL     OW 7270   3.840   3.606   5.999
 2124SOL    HW1 7271   3.840   3.507   6.012
 2124SOL    HW2 7272   3.882   3.628   5.911
 2125SOL     OW 7273   1.706   5.708   3.845
 2125SOL    HW1 7274   1.737   5.613   3.847
 2125SOL    HW2 7275   1.663   5.731   3.932
 2126SOL     OW 7276   3.221   4.682   0.155
 2126SOL    HW1 7277   3.276   4.673   0.072
 2126SOL    HW2 7278   3.215   4.593   0.200
 2127SOL     OW 7279   0.675   2.272   3.988
 2127SOL    HW1 7280   0.626   2.221   4.058
 2127SOL    HW2 7281   0.620   2.350   3.958
 2128SOL     OW 7282   5.193   2.694   1.753
 2128SOL    HW1 7283   5.238   2.619   1.705
 2128SOL    HW2 7284   5.111   2.721   1.702
 2129SOL     OW 7285   4.756   4.696   4.071
 2129SOL    HW1 7286   4.832   4.744   4.027
 2129SOL    HW2 7287   4.686   4.676   4.003
 2130SOL     OW 7288   2.498   0.343   2.758
 2130SOL    HW1 7289   2.453   0.374   2.674
 2130SOL    HW2 7290   2.466   0.250   2.779
 2131SOL     OW 7291   5.376   1.041   4.816
 2131SOL    HW1 7292   5.334   0.964   4.768
 2131SOL    HW2 7293   5.442   1.006   4.883
 2132SOL     OW 7294   3.030   2.689   0.391
 2132SOL    HW1 7295   3.062   2.772   0.346
 2132SOL    HW2 7296   3.106   2.647   0.442
 2133SOL     OW 7297   2.935   2.164   2.247
 2133SOL    HW1 7298   2.910   2.214   2.164
 2133SOL    HW2 7299   3.027   2.126   2.237
 2134SOL     OW 7300   1.563   6.777   4.565
 2134SOL    HW1 7301   1.498   6.819   4.629
 2134SOL    HW2 7302   1.624   6.715   4.615
 2135SOL     OW 7303   1.543   1.052   3.949
 2135SOL    HW1 7304   1.581   0.988   4.016
 2135SOL    HW2 7305   1.561   1.017   3.856
 2136SOL     OW 7306   0.249   4.383   3.321
 2136SOL    HW1 7307   0.268   4.346   3.230
 2136SOL    HW2 7308   0.152   4.368   3.343
 2137SOL     OW 7309   0.932   0.644   5.108
 2137SOL    HW1 7310   0.863   0.592   5.056
 2137SOL    HW2 7311   0.894   0.733   5.133
 2138SOL     OW 7312   1.217   2.515   0.093
 2138SOL    HW1 7313   1.191   2.601   0.136
 2138SOL    HW2 7314   1.248   2.450   0.163
 2139SOL     OW 7315   2.484   1.015   5.510
 2139SOL    HW1 7316   2.550   0.943   5.534
 2139SOL    HW2 7317   2.522   1.073   5.438
 2140SOL     OW 7318   2.148   5.910   3.116
 2140SOL    HW1 7319   2.069   5.956   3.076
 2140SOL    HW2 7320   2.215   5.979   3.145
 2141SOL     OW 7321   5.627   2.068   0.401
 2141SOL    HW1 7322   5.697   2.104   0.464
 2141SOL    HW2 7323   5.567   2.005   0.451
 2142SOL     OW 7324   2.484   1.788   3.092
 2142SOL    HW1 7325   2.475   1.887   3.106
 2142SOL    HW2 7326   2.512   1.771   2.997
 2143SOL     OW 7327   3.495   0.073   0.443
 2143SOL    HW1 7328   3.458   0.042   0.356
 2143SOL    HW2 7329   3.516   0.171   0.437
 2144SOL     OW 7330   6.807   1.078   3.322
 2144SOL    HW1 7331   6.736   1.112   3.262
 2144SOL    HW2 7332   6.859   1.155   3.359
 2145SOL     OW 7333   3.909   5.665   2.891
 2145SOL    HW1 7334   3.813   5.692   2.883
 2145SOL    HW2 7335   3.960   5.698   2.811
 2146SOL     OW 7336   3.687   2.914   1.944
 2146SOL    HW1 7337   3.695   2.957   1.854
 2146SOL    HW2 7338   3.754   2.955   2.006
 2147SOL     OW 7339   1.327   0.891   5.328
 2147SOL    HW1 7340   1.326   0.967   5.263
 2147SOL    HW2 7341   1.420   0.878   5.363
 2148SOL     OW 7342   5.475   3.035   3.031
 2148SOL    HW1 7343   5.475   3.012   3.129
 2148SOL    HW2 7344   5.514   2.960   2.979
 2149SOL     OW 7345   3.724   0.885   3.022
 2149SOL    HW1 7346   3.728   0.785   3.024
 2149SOL    HW2 7347   3.721   0.916   2.927
 2150SOL     OW 7348   3.489   2.052   3.019
 2150SOL    HW1 7349   3.584   2.064   3.050
 2150SOL    HW2 7350   3.468   1.955   3.012
 2151SOL     OW 7351   3.773   2.935   5.758
 2151SOL    HW1 7352   3.857   2.956   5.809
 2151SOL    HW2 7353   3.715   2.876   5.814
 2152SOL     OW 7354   6.496   5.617   1.864
 2152SOL    HW1 7355   6.506   5.703   1.814
 2152SOL    HW2 7356   6.429   5.559   1.818
 2153SOL     OW 7357   5.084   2.519   3.385
 2153SOL    HW1 7358   5.078   2.463   3.302
 2153SOL    HW2 7359   5.166   2.493   3.436
 2154SOL     OW 7360   4.281   6.701   5.169
 2154SOL    HW1 7361   4.345   6.631   5.201
 2154SOL    HW2 7362   4.206   6.710   5.234
 2155SOL     OW 7363   0.210   4.061   0.227
 2155SOL    HW1 7364   0.253   4.057   0.318
 2155SOL    HW2 7365   0.168   4.151   0.214
 2156SOL     OW 7366   1.174   0.812   1.559
 2156SOL    HW1 7367   1.253   0.856   1.600
 2156SOL    HW2 7368   1.140   0.869   1.483
 2157SOL     OW 7369   0.725   1.183   4.883
 2157SOL    HW1 7370   0.668   1.140   4.813
 2157SOL    HW2 7371   0.769   1.264   4.844
 2158SOL     OW 7372   4.264   6.235   2.002
 2158SOL    HW1 7373   4.270   6.334   2.010
 2158SOL    HW2 7374   4.169   6.208   1.987
 2159SOL     OW 7375   2.178   6.073   4.639
 2159SOL    HW1 7376   2.246   6.073   4.566
 2159SOL    HW2 7377   2.110   6.002   4.620
 2160SOL     OW 7378   3.134   3.822   1.040
 2160SOL    HW1 7379   3.145   3.917   1.071
 2160SOL    HW2 7380   3.112   3.821   0.943
 2161SOL     OW 7381   5.406   2.572   3.504
 2161SOL    HW1 7382   5.481   2.638   3.501
 2161SOL    HW2 7383   5.437   2.484   3.469
 2162SOL     OW 7384   0.948   1.434   6.845
 2162SOL    HW1 7385   0.889   1.389   6.911
 2162SOL    HW2 7386   0.992   1.513   6.887
 2163SOL     OW 7387   1.755   2.115   0.800
 2163SOL    HW1 7388   1.760   2.211   0.773
 2163SOL    HW2 7389   1.768   2.057   0.719
 2164SOL     OW 7390   1.263   0.488   1.329
 2164SOL    HW1 7391   1.362   0.488   1.341
 2164SOL    HW2 7392   1.237   0.562   1.267
 2165SOL     OW 7393   2.496   6.465   1.761
 2165SOL    HW1 7394   2.428   6.419   1.702
 2165SOL    HW2 7395   2.565   6.509   1.704
 2166SOL     OW 7396   0.072   1.997   6.419
 2166SOL    HW1 7397   0.126   2.063   6.470
 2166SOL    HW2 7398   0.106   1.991   6.325
 2167SOL     OW 7399   2.944   0.285   2.461
 2167SOL    HW1 7400   2.902   0.274   2.551
 2167SOL    HW2 7401   2.873   0.278   2.391
 2168SOL     OW 7402   5.828   5.440   4.363
 2168SOL    HW1 7403   5.837   5.505   4.438
 2168SOL    HW2 7404   5.769   5.478   4.292
 2169SOL     OW 7405   4.808   1.659   5.780
 2169SOL    HW1 7406   4.738   1.725   5.752
 2169SOL    HW2 7407   4.793   1.572   5.731
 2170SOL     OW 7408   4.543   4.841   4.253
 2170SOL    HW1 7409   4.493   4.864   4.169
 2170SOL    HW2 7410   4.631   4.798   4.229
 2171SOL     OW 7411   0.229   2.463   0.046
 2171SOL    HW1 7412   0.319   2.497   0.020
 2171SOL    HW2 7413   0.235   2.414   0.133
 2172SOL     OW 7414   2.470   1.088   0.866
 2172SOL    HW1 7415   2.526   1.108   0.946
 2172SOL    HW2 7416   2.376   1.068   0.896
 2173SOL     OW 7417   5.935   1.424   5.143
 2173SOL    HW1 7418   5.968   1.482   5.218
 2173SOL    HW2 7419   5.914   1.481   5.064
 2174SOL     OW 7420   0.752   5.892   5.094
 2174SOL    HW1 7421   0.681   5.862   5.158
 2174SOL    HW2 7422   0.806   5.965   5.137
 2175SOL     OW 7423   2.604   6.636   5.229
 2175SOL    HW1 7424   2.566   6.726   5.248
 2175SOL    HW2 7425   2.582   6.573   5.303
 2176SOL     OW 7426   1.337   2.042   2.598
 2176SOL    HW1 7427   1.337   2.096   2.514
 2176SOL    HW2 7428   1.412   2.072   2.657
 2177SOL     OW 7429   7.018   1.673   1.425
 2177SOL    HW1 7430   6.939   1.689   1.485
 2177SOL    HW2 7431   0.011   1.575   1.419
 2178SOL     OW 7432   0.727   5.112   0.007
 2178SOL    HW1 7433   0.690   5.073   6.949
 2178SOL    HW2 7434   0.769   5.040   0.062
 2179SOL     OW 7435   1.282   4.831   4.057
 2179SOL    HW1 7436   1.359   4.892   4.074
 2179SOL    HW2 7437   1.206   4.884   4.018
 2180SOL     OW 7438   3.570   2.862   2.651
 2180SOL    HW1 7439   3.500   2.902   2.593
 2180SOL    HW2 7440   3.543   2.770   2.678
 2181SOL     OW 7441   5.148   5.179   5.961
 2181SOL    HW1 7442   5.180   5.178   5.866
 2181SOL    HW2 7443   5.170   5.268   6.002
 2182SOL     OW 7444   6.553   2.895   6.672
 2182SOL    HW1 7445   6.631   2.846   6.632
 2182SOL    HW2 7446   6.492   2.924   6.598
 2183SOL     OW 7447   2.988   3.321   0.888
 2183SOL    HW1 7448   3.060   3.273   0.838
 2183SOL    HW2 7449   2.909   3.260   0.899
 2184SOL     OW 7450   3.718   2.901   6.099
 2184SOL    HW1 7451   3.747   2.825   6.041
 2184SOL    HW2 7452   3.709   2.984   6.044
 2185SOL     OW 7453   2.078   1.116   1.490
 2185SOL    HW1 7454   2.000   1.177   1.502
 2185SOL    HW2 7455   2.059   1.028   1.534
 2186SOL     OW 7456   0.658   5.898   2.954
 2186SOL    HW1 7457   0.601   5.935   2.881
 2186SOL    HW2 7458   0.608   5.902   3.040
 2187SOL     OW 7459   6.955   1.325   6.594
 2187SOL    HW1 7460   6.931   1.398   6.531
 2187SOL    HW2 7461   6.884   1.254   6.593
 2188SOL     OW 7462   5.477   0.628   2.680
 2188SOL    HW1 7463   5.497   0.533   2.660
 2188SOL    HW2 7464   5.378   0.641   2.685
 2189SOL     OW 7465   2.160   0.594   6.722
 2189SOL    HW1 7466   2.101   0.634   6.651
 2189SOL    HW2 7467   2.212   0.667   6.767
 2190SOL     OW 7468   4.852   2.016   1.640
 2190SOL    HW1 7469   4.878   2.063   1.724
 2190SOL    HW2 7470   4.773   2.063   1.598
 2191SOL     OW 7471   3.368   2.165   0.228
 2191SOL    HW1 7472   3.394   2.180   0.132
 2191SOL    HW2 7473   3.302   2.090   0.234
 2192SOL     OW 7474   4.771   5.925   5.094
 2192SOL    HW1 7475   4.675   5.914   5.069
 2192SOL    HW2 7476   4.784   6.015   5.136
 2193SOL     OW 7477   0.398   4.796   5.983
 2193SOL    HW1 7478   0.429   4.817   5.890
 2193SOL    HW2 7479   0.363   4.879   6.026
 2194SOL     OW 7480   2.638   0.174   1.469
 2194SOL    HW1 7481   2.702   0.233   1.519
 2194SOL    HW2 7482   2.602   0.104   1.530
 2195SOL     OW 7483   1.317   4.137   2.603
 2195SOL    HW1 7484   1.279   4.224   2.633
 2195SOL    HW2 7485   1.359   4.091   2.682
 2196SOL     OW 7486   3.786   2.858   6.355
 2196SOL    HW1 7487   3.712   2.886   6.416
 2196SOL    HW2 7488   3.763   2.885   6.261
 2197SOL     OW 7489   4.302   5.014   0.376
 2197SOL    HW1 7490   4.275   5.108   0.397
 2197SOL    HW2 7491   4.380   4.988   0.433
 2198SOL     OW 7492   6.167   4.330   0.309
 2198SOL    HW1 7493   6.213   4.398   0.367
 2198SOL    HW2 7494   6.069   4.350   0.308
 2199SOL     OW 7495   4.401   0.728   1.467
 2199SOL    HW1 7496   4.443   0.644   1.432
 2199SOL    HW2 7497   4.302   0.717   1.470
 2200SOL     OW 7498   2.904   0.832   4.977
 2200SOL    HW1 7499   2.934   0.838   4.882
 2200SOL    HW2 7500   2.978   0.862   5.037
 2201SOL     OW 7501   4.819   3.906   1.992
 2201SOL    HW1 7502   4.782   3.984   2.043
 2201SOL    HW2 7503   4.793   3.914   1.896
 2202SOL     OW 7504   4.737   5.831   3.598
 2202SOL    HW1 7505   4.775   5.877   3.518
 2202SOL    HW2 7506   4.702   5.741   3.571
 2203SOL     OW 7507   3.673   1.564   3.396
 2203SOL    HW1 7508   3.735   1.494   3.360
 2203SOL    HW2 7509   3.579   1.529   3.394
 2204SOL     OW 7510   2.750   2.888   0.954
 2204SOL    HW1 7511   2.833   2.842   0.983
 2204SOL    HW2 7512   2.740   2.879   0.855
 2205SOL     OW 7513   2.297   0.401   0.055
 2205SOL    HW1 7514   2.212   0.370   0.097
 2205SOL    HW2 7515   2.371   0.339   0.079
 2206SOL     OW 7516   2.087   2.856   6.875
 2206SOL    HW1 7517   2.114   2.769   6.915
 2206SOL    HW2 7518   2.057   2.842   6.781
 2207SOL     OW 7519   1.063   4.450   5.040
 2207SOL    HW1 7520   1.159   4.426   5.023
 2207SOL    HW2 7521   1.011   4.368   5.059
 2208SOL     OW 7522   0.477   4.130   1.780
 2208SOL    HW1 7523   0.435   4.119   1.689
 2208SOL    HW2 7524   0.543   4.057   1.795
 2209SOL     OW 7525   1.159   5.668   0.868
 2209SOL    HW1 7526   1.171   5.596   0.936
 2209SOL    HW2 7527   1.225   5.656   0.794
 2210SOL     OW 7528   0.774   6.096   3.962
 2210SOL    HW1 7529   0.850   6.035   3.986
 2210SOL    HW2 7530   0.802   6.191   3.972
 2211SOL     OW 7531   6.433   1.535   6.028
 2211SOL    HW1 7532   6.446   1.439   6.053
 2211SOL    HW2 7533   6.488   1.556   5.947
 2212SOL     OW 7534   1.477   6.993   6.294
 2212SOL    HW1 7535   1.564   6.954   6.263
 2212SOL    HW2 7536   1.478   7.001   6.394
 2213SOL     OW 7537   3.645   0.986   3.458
 2213SOL    HW1 7538   3.560   0.958   3.414
 2213SOL    HW2 7539   3.717   0.993   3.388
 2214SOL     OW 7540   3.977   0.533   5.246
 2214SOL    HW1 7541   4.017   0.524   5.337
 2214SOL    HW2 7542   3.930   0.449   5.222
 2215SOL     OW 7543   5.895   2.788   5.199
 2215SOL    HW1 7544   5.929   2.859   5.260
 2215SOL    HW2 7545   5.819   2.824   5.145
 2216SOL     OW 7546   2.294   0.356   1.848
 2216SOL    HW1 7547   2.244   0.341   1.933
 2216SOL    HW2 7548   2.299   0.454   1.828
 2217SOL     OW 7549   4.549   0.892   1.171
 2217SOL    HW1 7550   4.632   0.858   1.215
 2217SOL    HW2 7551   4.507   0.818   1.118
 2218SOL     OW 7552   1.201   5.947   1.493
 2218SOL    HW1 7553   1.239   5.989   1.411
 2218SOL    HW2 7554   1.216   6.008   1.571
 2219SOL     OW 7555   1.189   3.166   2.714
 2219SOL    HW1 7556   1.256   3.240   2.702
 2219SOL    HW2 7557   1.212   3.115   2.797
 2220SOL     OW 7558   0.581   0.109   0.147
 2220SOL    HW1 7559   0.620   0.188   0.100
 2220SOL    HW2 7560   0.651   0.041   0.163
 2221SOL     OW 7561   0.430   1.938   0.623
 2221SOL    HW1 7562   0.420   1.861   0.561
 2221SOL    HW2 7563   0.340   1.972   0.651
 2222SOL     OW 7564   5.950   6.225   2.610
 2222SOL    HW1 7565   5.903   6.143   2.642
 2222SOL    HW2 7566   6.010   6.200   2.533
 2223SOL     OW 7567   5.729   5.272   1.874
 2223SOL    HW1 7568   5.785   5.288   1.793
 2223SOL    HW2 7569   5.639   5.238   1.846
 2224SOL     OW 7570   1.342   5.042   1.247
 2224SOL    HW1 7571   1.411   5.089   1.192
 2224SOL    HW2 7572   1.251   5.079   1.225
 2225SOL     OW 7573   6.876   5.038   1.331
 2225SOL    HW1 7574   6.800   5.099   1.311
 2225SOL    HW2 7575   6.866   4.953   1.278
 2226SOL     OW 7576   4.343   3.883   1.707
 2226SOL    HW1 7577   4.330   3.896   1.806
 2226SOL    HW2 7578   4.360   3.971   1.664
 2227SOL     OW 7579   1.013   3.425   3.757
 2227SOL    HW1 7580   1.014   3.336   3.801
 2227SOL    HW2 7581   0.919   3.458   3.750
 2228SOL     OW 7582   2.061   5.067   5.495
 2228SOL    HW1 7583   1.984   5.063   5.558
 2228SOL    HW2 7584   2.146   5.053   5.547
 2229SOL     OW 7585   4.814   0.839   2.654
 2229SOL    HW1 7586   4.796   0.789   2.739
 2229SOL    HW2 7587   4.749   0.809   2.584
 2230SOL     OW 7588   1.612   5.569   0.158
 2230SOL    HW1 7589   1.665   5.493   0.120
 2230SOL    HW2 7590   1.605   5.642   0.091
 2231SOL     OW 7591   2.766   6.561   1.574
 2231SOL    HW1 7592   2.849   6.549   1.627
 2231SOL    HW2 7593   2.778   6.520   1.484
 2232SOL     OW 7594   6.455   3.062   2.783
 2232SOL    HW1 7595   6.519   3.076   2.708
 2232SOL    HW2 7596   6.437   2.964   2.793
 2233SOL     OW 7597   3.761   1.590   0.239
 2233SOL    HW1 7598   3.701   1.660   0.277
 2233SOL    HW2 7599   3.744   1.503   0.285
 2234SOL     OW 7600   2.737   2.166   0.782
 2234SOL    HW1 7601   2.697   2.122   0.862
 2234SOL    HW2 7602   2.666   2.213   0.730
 2235SOL     OW 7603   1.738   0.343   1.249
 2235SOL    HW1 7604   1.778   0.258   1.214
 2235SOL    HW2 7605   1.791   0.421   1.216
 2236SOL     OW 7606   6.562   3.848   6.899
 2236SOL    HW1 7607   6.484   3.837   6.838
 2236SOL    HW2 7608   6.531   3.881   6.988
 2237SOL     OW 7609   6.929   2.190   4.391
 2237SOL    HW1 7610   6.967   2.260   4.449
 2237SOL    HW2 7611   6.830   2.202   4.384
 2238SOL     OW 7612   0.635   5.959   2.071
 2238SOL    HW1 7613   0.695   6.035   2.098
 2238SOL    HW2 7614   0.542   5.992   2.059
 2239SOL     OW 7615   4.839   5.081   2.965
 2239SOL    HW1 7616   4.894   5.163   2.978
 2239SOL    HW2 7617   4.898   5.001   2.965
 2240SOL     OW 7618   5.592   4.335   2.270
 2240SOL    HW1 7619   5.593   4.420   2.321
 2240SOL    HW2 7620   5.500   4.294   2.274
 2241SOL     OW 7621   0.731   0.570   2.414
 2241SOL    HW1 7622   0.674   0.500   2.372
 2241SOL    HW2 7623   0.680   0.656   2.420
 2242SOL     OW 7624   4.803   2.861   2.856
 2242SOL    HW1 7625   4.788   2.784   2.917
 2242SOL    HW2 7626   4.783   2.834   2.762
 2243SOL     OW 7627   2.925   5.791   5.261
 2243SOL    HW1 7628   2.884   5.835   5.181
 2243SOL    HW2 7629   2.941   5.859   5.332
 2244SOL     OW 7630   2.274   1.132   4.869
 2244SOL    HW1 7631   2.179   1.130   4.837
 2244SOL    HW2 7632   2.299   1.042   4.904
 2245SOL     OW 7633   0.457   1.682   2.014
 2245SOL    HW1 7634   0.363   1.713   2.031
 2245SOL    HW2 7635   0.521   1.736   2.068
 2246SOL     OW 7636   1.050   3.837   4.349
 2246SOL    HW1 7637   1.074   3.746   4.381
 2246SOL    HW2 7638   1.130   3.896   4.353
 2247SOL     OW 7639   1.913   1.965   6.073
 2247SOL    HW1 7640   1.854   2.045   6.086
 2247SOL    HW2 7641   1.972   1.980   5.993
 2248SOL     OW 7642   5.065   4.448   5.315
 2248SOL    HW1 7643   5.132   4.395   5.368
 2248SOL    HW2 7644   4.973   4.420   5.342
 2249SOL     OW 7645   4.501   5.870   4.781
 2249SOL    HW1 7646   4.505   5.916   4.869
 2249SOL    HW2 7647   4.482   5.773   4.795
 2250SOL     OW 7648   5.807   5.417   0.466
 2250SOL    HW1 7649   5.734   5.465   0.418
 2250SOL    HW2 7650   5.891   5.422   0.412
 2251SOL     OW 7651   6.974   1.113   6.853
 2251SOL    HW1 7652   6.978   1.183   6.923
 2251SOL    HW2 7653   6.879   1.084   6.840
 2252SOL     OW 7654   3.206   1.442   5.534
 2252SOL    HW1 7655   3.276   1.513   5.541
 2252SOL    HW2 7656   3.117   1.481   5.555
 2253SOL     OW 7657   1.807   2.811   5.774
 2253SOL    HW1 7658   1.748   2.891   5.780
 2253SOL    HW2 7659   1.881   2.829   5.708
 2254SOL     OW 7660   1.710   3.795   6.275
 2254SOL    HW1 7661   1.781   3.846   6.226
 2254SOL    HW2 7662   1.741   3.774   6.367
 2255SOL     OW 7663   5.771   2.157   1.362
 2255SOL    HW1 7664   5.849   2.216   1.342
 2255SOL    HW2 7665   5.737   2.117   1.277
 2256SOL     OW 7666   3.967   5.148   2.043
 2256SOL    HW1 7667   3.915   5.211   2.100
 2256SOL    HW2 7668   3.913   5.066   2.026
 2257SOL     OW 7669   1.853   4.004   3.651
 2257SOL    HW1 7670   1.896   4.050   3.574
 2257SOL    HW2 7671   1.872   3.905   3.646
 2258SOL     OW 7672   2.082   5.873   4.836
 2258SOL    HW1 7673   2.007   5.834   4.890
 2258SOL    HW2 7674   2.059   5.870   4.739
 2259SOL     OW 7675   5.754   3.288   6.392
 2259SOL    HW1 7676   5.768   3.234   6.308
 2259SOL    HW2 7677   5.791   3.237   6.470
 2260SOL     OW 7678   5.467   4.872   0.669
 2260SOL    HW1 7679   5.488   4.814   0.590
 2260SOL    HW2 7680   5.540   4.863   0.737
 2261SOL     OW 7681   4.078   6.634   6.208
 2261SOL    HW1 7682   4.088   6.734   6.211
 2261SOL    HW2 7683   4.071   6.599   6.301
 2262SOL     OW 7684   4.123   1.407   3.016
 2262SOL    HW1 7685   4.187   1.436   2.945
 2262SOL    HW2 7686   4.097   1.486   3.071
 2263SOL     OW 7687   6.948   4.426   6.830
 2263SOL    HW1 7688   6.975   4.373   6.910
 2263SOL    HW2 7689   6.873   4.380   6.783
 2264SOL     OW 7690   4.094   3.554   3.634
 2264SOL    HW1 7691   4.107   3.641   3.683
 2264SOL    HW2 7692   4.146   3.482   3.679
 2265SOL     OW 7693   6.655   0.375   2.320
 2265SOL    HW1 7694   6.704   0.459   2.297
 2265SOL    HW2 7695   6.557   0.392   2.315
 2266SOL     OW 7696   6.103   0.151   0.808
 2266SOL    HW1 7697   6.151   0.239   0.811
 2266SOL    HW2 7698   6.115   0.104   0.895
 2267SOL     OW 7699   5.136   1.406   5.899
 2267SOL    HW1 7700   5.233   1.402   5.922
 2267SOL    HW2 7701   5.122   1.371   5.806
 2268SOL     OW 7702   6.770   5.290   0.790
 2268SOL    HW1 7703   6.843   5.347   0.751
 2268SOL    HW2 7704   6.737   5.333   0.874
 2269SOL     OW 7705   6.942   5.215   4.769
 2269SOL    HW1 7706   6.986   5.254   4.850
 2269SOL    HW2 7707   7.006   5.216   4.692
 2270SOL     OW 7708   4.212   3.186   1.631
 2270SOL    HW1 7709   4.290   3.124   1.626
 2270SOL    HW2 7710   4.235   3.273   1.587
 2271SOL     OW 7711   6.266   4.286   3.009
 2271SOL    HW1 7712   6.307   4.304   2.920
 2271SOL    HW2 7713   6.338   4.260   3.074
 2272SOL     OW 7714   4.712   1.867   6.008
 2272SOL    HW1 7715   4.650   1.876   5.930
 2272SOL    HW2 7716   4.717   1.771   6.036
 2273SOL     OW 7717   1.149   1.546   3.629
 2273SOL    HW1 7718   1.165   1.569   3.725
 2273SOL    HW2 7719   1.231   1.566   3.576
 2274SOL     OW 7720   1.446   3.105   3.214
 2274SOL    HW1 7721   1.405   3.059   3.293
 2274SOL    HW2 7722   1.376   3.160   3.168
 2275SOL     OW 7723   4.821   6.929   3.674
 2275SOL    HW1 7724   4.893   6.926   3.744
 2275SOL    HW2 7725   4.736   6.962   3.715
 2276SOL     OW 7726   4.288   5.089   1.834
 2276SOL    HW1 7727   4.299   5.120   1.929
 2276SOL    HW2 7728   4.280   5.169   1.774
 2277SOL     OW 7729   3.268   3.729   0.515
 2277SOL    HW1 7730   3.205   3.654   0.537
 2277SOL    HW2 7731   3.285   3.730   0.416
 2278SOL     OW 7732   5.466   6.836   0.876
 2278SOL    HW1 7733   5.370   6.837   0.900
 2278SOL    HW2 7734   5.480   6.888   0.791
 2279SOL     OW 7735   4.767   4.172   4.525
 2279SOL    HW1 7736   4.709   4.219   4.591
 2279SOL    HW2 7737   4.844   4.130   4.572
 2280SOL     OW 7738   4.932   6.800   6.202
 2280SOL    HW1 7739   4.895   6.873   6.143
 2280SOL    HW2 7740   4.977   6.731   6.145
 2281SOL     OW 7741   2.755   3.199   0.936
 2281SOL    HW1 7742   2.686   3.256   0.979
 2281SOL    HW2 7743   2.740   3.103   0.960
 2282SOL     OW 7744   3.799   5.428   2.728
 2282SOL    HW1 7745   3.734   5.486   2.778
 2282SOL    HW2 7746   3.828   5.475   2.645
 2283SOL     OW 7747   6.953   4.044   2.767
 2283SOL    HW1 7748   0.010   4.054   2.822
 2283SOL    HW2 7749   6.973   4.067   2.672
 2284SOL     OW 7750   2.467   2.499   2.359
 2284SOL    HW1 7751   2.476   2.588   2.315
 2284SOL    HW2 7752   2.529   2.434   2.316
 2285SOL     OW 7753   1.895   4.239   7.006
 2285SOL    HW1 7754   1.967   4.185   6.963
 2285SOL    HW2 7755   1.933   4.326   0.012
 2286SOL     OW 7756   5.933   6.827   4.461
 2286SOL    HW1 7757   5.889   6.917   4.457
 2286SOL    HW2 7758   6.020   6.829   4.413
 2287SOL     OW 7759   2.168   3.006   1.850
 2287SOL    HW1 7760   2.258   2.976   1.817
 2287SOL    HW2 7761   2.160   2.987   1.948
 2288SOL     OW 7762   0.841   6.394   4.442
 2288SOL    HW1 7763   0.895   6.449   4.379
 2288SOL    HW2 7764   0.879   6.401   4.535
 2289SOL     OW 7765   4.445   2.676   1.128
 2289SOL    HW1 7766   4.356   2.710   1.098
 2289SOL    HW2 7767   4.517   2.735   1.091
 2290SOL     OW 7768   3.443   3.512   2.785
 2290SOL    HW1 7769   3.442   3.474   2.878
 2290SOL    HW2 7770   3.538   3.530   2.758
 2291SOL     OW 7771   1.373   2.319   0.222
 2291SOL    HW1 7772   1.323   2.251   0.274
 2291SOL    HW2 7773   1.444   2.273   0.168
 2292SOL     OW 7774   4.769   1.888   2.853
 2292SOL    HW1 7775   4.732   1.978   2.827
 2292SOL    HW2 7776   4.809   1.844   2.773
 2293SOL     OW 7777   6.762   1.342   0.006
 2293SOL    HW1 7778   6.854   1.305   0.015
 2293SOL    HW2 7779   6.696   1.282   0.050
 2294SOL     OW 7780   6.833   1.751   5.489
 2294SOL    HW1 7781   6.889   1.834   5.491
 2294SOL    HW2 7782   6.743   1.772   5.451
 2295SOL     OW 7783   5.636   6.341   1.075
 2295SOL    HW1 7784   5.538   6.345   1.091
 2295SOL    HW2 7785   5.662   6.249   1.047
 2296SOL     OW 7786   3.948   5.663   4.105
 2296SOL    HW1 7787   3.956   5.763   4.112
 2296SOL    HW2 7788   4.011   5.621   4.170
 2297SOL     OW 7789   4.248   4.090   5.393
 2297SOL    HW1 7790   4.169   4.116   5.338
 2297SOL    HW2 7791   4.326   4.147   5.368
 2298SOL     OW 7792   3.774   3.451   5.016
 2298SOL    HW1 7793   3.772   3.374   5.080
 2298SOL    HW2 7794   3.839   3.519   5.048
 2299SOL     OW 7795   6.295   3.223   4.752
 2299SOL    HW1 7796   6.222   3.271   4.802
 2299SOL    HW2 7797   6.257   3.185   4.668
 2300SOL     OW 7798   4.795   6.214   2.228
 2300SOL    HW1 7799   4.736   6.293   2.246
 2300SOL    HW2 7800   4.808   6.162   2.312
 2301SOL     OW 7801   3.764   3.405   4.362
 2301SOL    HW1 7802   3.681   3.369   4.319
 2301SOL    HW2 7803   3.808   3.333   4.415
 2302SOL     OW 7804   5.726   2.635   0.175
 2302SOL    HW1 7805   5.663   2.598   0.107
 2302SOL    HW2 7806   5.675   2.685   0.245
 2303SOL     OW 7807   3.756   1.943   6.959
 2303SOL    HW1 7808   3.694   1.946   0.013
 2303SOL    HW2 7809   3.818   1.865   6.969
 2304SOL     OW 7810   5.512   5.864   2.517
 2304SOL    HW1 7811   5.592   5.810   2.542
 2304SOL    HW2 7812   5.450   5.871   2.596
 2305SOL     OW 7813   2.417   0.782   4.739
 2305SOL    HW1 7814   2.416   0.691   4.782
 2305SOL    HW2 7815   2.481   0.782   4.662
 2306SOL     OW 7816   1.034   4.837   4.294
 2306SOL    HW1 7817   0.938   4.826   4.267
 2306SOL    HW2 7818   1.076   4.908   4.237
 2307SOL     OW 7819   6.662   3.453   6.056
 2307SOL    HW1 7820   6.589   3.426   6.120
 2307SOL    HW2 7821   6.733   3.383   6.055
 2308SOL     OW 7822   1.764   5.487   1.894
 2308SOL    HW1 7823   1.795   5.523   1.982
 2308SOL    HW2 7824   1.713   5.558   1.846
 2309SOL     OW 7825   2.223   6.543   5.408
 2309SOL    HW1 7826   2.301   6.493   5.445
 2309SOL    HW2 7827   2.182   6.599   5.481
 2310SOL     OW 7828   4.785   6.935   1.735
 2310SOL    HW1 7829   4.687   6.925   1.723
 2310SOL    HW2 7830   4.823   6.987   1.658
 2311SOL     OW 7831   3.311   5.224   1.409
 2311SOL    HW1 7832   3.288   5.182   1.321
 2311SOL    HW2 7833   3.384   5.172   1.453
 2312SOL     OW 7834   3.028   4.981   2.706
 2312SOL    HW1 7835   3.074   4.991   2.617
 2312SOL    HW2 7836   3.048   5.061   2.763
 2313SOL     OW 7837   4.976   5.584   1.410
 2313SOL    HW1 7838   5.013   5.586   1.502
 2313SOL    HW2 7839   4.950   5.490   1.386
 2314SOL     OW 7840   1.597   5.259   4.712
 2314SOL    HW1 7841   1.630   5.332   4.772
 2314SOL    HW2 7842   1.512   5.288   4.667
 2315SOL     OW 7843   4.614   2.600   6.795
 2315SOL    HW1 7844   4.615   2.680   6.734
 2315SOL    HW2 7845   4.697   2.546   6.780
 2316SOL     OW 7846   5.041   4.249   2.079
 2316SOL    HW1 7847   5.128   4.298   2.081
 2316SOL    HW2 7848   5.053   4.162   2.031
 2317SOL     OW 7849   0.345   5.002   3.729
 2317SOL    HW1 7850   0.303   5.071   3.787
 2317SOL    HW2 7851   0.384   4.930   3.787
 2318SOL     OW 7852   0.223   0.828   4.317
 2318SOL    HW1 7853   0.154   0.837   4.389
 2318SOL    HW2 7854   0.309   0.797   4.357
 2319SOL     OW 7855   0.805   4.279   3.381
 2319SOL    HW1 7856   0.861   4.361   3.372
 2319SOL    HW2 7857   0.745   4.270   3.301
 2320SOL     OW 7858   6.103   4.666   4.823
 2320SOL    HW1 7859   6.177   4.728   4.797
 2320SOL    HW2 7860   6.043   4.650   4.745
 2321SOL     OW 7861   2.498   5.509   4.949
 2321SOL    HW1 7862   2.557   5.588   4.929
 2321SOL    HW2 7863   2.433   5.496   4.873
 2322SOL     OW 7864   2.593   0.896   6.322
 2322SOL    HW1 7865   2.499   0.928   6.329
 2322SOL    HW2 7866   2.594   0.798   6.304
 2323SOL     OW 7867   5.208   4.670   1.417
 2323SOL    HW1 7868   5.151   4.751   1.427
 2323SOL    HW2 7869   5.260   4.655   1.502
 2324SOL     OW 7870   0.096   4.641   3.601
 2324SOL    HW1 7871   0.029   4.682   3.663
 2324SOL    HW2 7872   0.055   4.563   3.555
 2325SOL     OW 7873   6.976   2.749   0.709
 2325SOL    HW1 7874   6.925   2.730   0.794
 2325SOL    HW2 7875   7.021   2.838   0.717
 2326SOL     OW 7876   1.986   4.901   6.933
 2326SOL    HW1 7877   1.943   4.992   6.928
 2326SOL    HW2 7878   2.074   4.909   6.980
 2327SOL     OW 7879   5.752   2.264   4.782
 2327SOL    HW1 7880   5.848   2.238   4.782
 2327SOL    HW2 7881   5.699   2.198   4.836
 2328SOL     OW 7882   5.894   6.723   3.430
 2328SOL    HW1 7883   5.911   6.680   3.341
 2328SOL    HW2 7884   5.870   6.652   3.497
 2329SOL     OW 7885   6.841   6.023   3.706
 2329SOL    HW1 7886   6.839   6.036   3.805
 2329SOL    HW2 7887   6.773   5.954   3.679
 2330SOL     OW 7888   0.195   3.796   1.945
 2330SOL    HW1 7889   0.160   3.703   1.940
 2330SOL    HW2 7890   0.281   3.802   1.894
 2331SOL     OW 7891   0.629   4.213   5.793
 2331SOL    HW1 7892   0.703   4.279   5.781
 2331SOL    HW2 7893   0.583   4.199   5.705
 2332SOL     OW 7894   6.094   2.318   5.035
 2332SOL    HW1 7895   6.018   2.380   5.017
 2332SOL    HW2 7896   6.128   2.334   5.128
 2333SOL     OW 7897   1.655   4.705   3.721
 2333SOL    HW1 7898   1.627   4.704   3.625
 2333SOL    HW2 7899   1.573   4.703   3.779
 2334SOL     OW 7900   2.506   0.399   1.050
 2334SOL    HW1 7901   2.572   0.323   1.056
 2334SOL    HW2 7902   2.428   0.371   0.994
 2335SOL     OW 7903   4.769   6.244   4.325
 2335SOL    HW1 7904   4.741   6.238   4.229
 2335SOL    HW2 7905   4.698   6.291   4.378
 2336SOL     OW 7906   4.820   2.118   5.643
 2336SOL    HW1 7907   4.877   2.036   5.642
 2336SOL    HW2 7908   4.809   2.151   5.737
 2337SOL     OW 7909   5.780   0.274   3.026
 2337SOL    HW1 7910   5.863   0.261   2.972
 2337SOL    HW2 7911   5.758   0.190   3.075
 2338SOL     OW 7912   1.486   6.606   5.923
 2338SOL    HW1 7913   1.419   6.631   5.853
 2338SOL    HW2 7914   1.442   6.548   5.992
 2339SOL     OW 7915   3.951   4.682   6.839
 2339SOL    HW1 7916   3.948   4.586   6.865
 2339SOL    HW2 7917   4.014   4.694   6.762
 2340SOL     OW 7918   4.076   4.756   4.052
 2340SOL    HW1 7919   4.002   4.697   4.083
 2340SOL    HW2 7920   4.063   4.848   4.090
 2341SOL     OW 7921   6.351   5.185   0.239
 2341SOL    HW1 7922   6.406   5.204   0.320
 2341SOL    HW2 7923   6.327   5.271   0.194
 2342SOL     OW 7924   6.027   0.280   4.995
 2342SOL    HW1 7925   6.068   0.273   4.903
 2342SOL    HW2 7926   6.090   0.240   5.062
 2343SOL     OW 7927   1.240   6.725   0.405
 2343SOL    HW1 7928   1.193   6.746   0.491
 2343SOL    HW2 7929   1.239   6.806   0.346
 2344SOL     OW 7930   2.436   1.212   2.677
 2344SOL    HW1 7931   2.505   1.193   2.607
 2344SOL    HW2 7932   2.381   1.291   2.649
 2345SOL     OW 7933   1.879   1.150   3.537
 2345SOL    HW1 7934   1.888   1.241   3.496
 2345SOL    HW2 7935   1.899   1.155   3.635
 2346SOL     OW 7936   4.891   3.503   5.958
 2346SOL    HW1 7937   4.856   3.592   5.989
 2346SOL    HW2 7938   4.991   3.508   5.951
 2347SOL     OW 7939   0.989   3.481   1.275
 2347SOL    HW1 7940   1.083   3.471   1.244
 2347SOL    HW2 7941   0.968   3.578   1.287
 2348SOL     OW 7942   2.661   5.931   1.376
 2348SOL    HW1 7943   2.747   5.935   1.325
 2348SOL    HW2 7944   2.587   5.900   1.315
 2349SOL     OW 7945   4.754   5.635   5.928
 2349SOL    HW1 7946   4.853   5.633   5.924
 2349SOL    HW2 7947   4.722   5.730   5.924
 2350SOL     OW 7948   2.808   6.235   5.516
 2350SOL    HW1 7949   2.884   6.178   5.482
 2350SOL    HW2 7950   2.786   6.208   5.609
 2351SOL     OW 7951   2.217   5.580   3.726
 2351SOL    HW1 7952   2.287   5.628   3.673
 2351SOL    HW2 7953   2.145   5.645   3.752
 2352SOL     OW 7954   6.899   3.642   2.175
 2352SOL    HW1 7955   6.837   3.612   2.248
 2352SOL    HW2 7956   6.993   3.646   2.211
 2353SOL     OW 7957   2.854   3.660   6.075
 2353SOL    HW1 7958   2.803   3.713   6.007
 2353SOL    HW2 7959   2.939   3.627   6.033
 2354SOL     OW 7960   3.820   3.061   1.291
 2354SOL    HW1 7961   3.876   3.071   1.373
 2354SOL    HW2 7962   3.729   3.029   1.317
 2355SOL     OW 7963   6.990   0.147   0.838
 2355SOL    HW1 7964   6.983   0.050   0.861
 2355SOL    HW2 7965   0.052   0.182   0.873
 2356SOL     OW 7966   2.840   4.731   3.442
 2356SOL    HW1 7967   2.865   4.789   3.364
 2356SOL    HW2 7968   2.909   4.741   3.514
 2357SOL     OW 7969   6.142   4.654   1.184
 2357SOL    HW1 7970   6.224   4.682   1.135
 2357SOL    HW2 7971   6.063   4.703   1.148
 2358SOL     OW 7972   3.685   1.452   5.853
 2358SOL    HW1 7973   3.676   1.484   5.947
 2358SOL    HW2 7974   3.674   1.353   5.850
 2359SOL     OW 7975   1.943   1.152   5.816
 2359SOL    HW1 7976   1.896   1.092   5.880
 2359SOL    HW2 7977   1.876   1.198   5.757
 2360SOL     OW 7978   3.990   4.267   0.602
 2360SOL    HW1 7979   3.963   4.175   0.631
 2360SOL    HW2 7980   3.991   4.328   0.682
 2361SOL     OW 7981   4.271   5.972   1.650
 2361SOL    HW1 7982   4.274   6.068   1.679
 2361SOL    HW2 7983   4.359   5.946   1.611
 2362SOL     OW 7984   4.450   5.343   3.280
 2362SOL    HW1 7985   4.462   5.432   3.237
 2362SOL    HW2 7986   4.489   5.271   3.222
 2363SOL     OW 7987   2.639   4.248   0.680
 2363SOL    HW1 7988   2.676   4.296   0.760
 2363SOL    HW2 7989   2.544   4.221   0.698
 2364SOL     OW 7990   3.902   1.419   2.382
 2364SOL    HW1 7991   3.947   1.350   2.326
 2364SOL    HW2 7992   3.807   1.393   2.397
 2365SOL     OW 7993   5.072   3.430   3.293
 2365SOL    HW1 7994   4.996   3.370   3.267
 2365SOL    HW2 7995   5.075   3.508   3.231
 2366SOL     OW 7996   2.600   4.719   5.024
 2366SOL    HW1 7997   2.582   4.784   5.098
 2366SOL    HW2 7998   2.696   4.689   5.028
 2367SOL     OW 7999   5.933   4.461   6.283
 2367SOL    HW1 8000   5.889   4.529   6.225
 2367SOL    HW2 8001   6.032   4.475   6.282
 2368SOL     OW 8002   5.356   6.705   4.505
 2368SOL    HW1 8003   5.374   6.617   4.461
 2368SOL    HW2 8004   5.440   6.758   4.510
 2369SOL     OW 8005   3.070   1.828   4.367
 2369SOL    HW1 8006   2.983   1.852   4.325
 2369SOL    HW2 8007   3.058   1.819   4.466
 2370SOL     OW 8008   5.899   2.758   1.944
 2370SOL    HW1 8009   5.925   2.849   1.977
 2370SOL    HW2 8010   5.848   2.766   1.859
 2371SOL     OW 8011   0.495   6.563   3.255
 2371SOL    HW1 8012   0.549   6.607   3.183
 2371SOL    HW2 8013   0.554   6.503   3.308
 2372SOL     OW 8014   6.319   0.402   6.221
 2372SOL    HW1 8015   6.410   0.440   6.205
 2372SOL    HW2 8016   6.284   0.362   6.136
 2373SOL     OW 8017   5.855   5.182   0.143
 2373SOL    HW1 8018   5.916   5.107   0.119
 2373SOL    HW2 8019   5.762   5.147   0.158
 2374SOL     OW 8020   6.773   6.321   2.255
 2374SOL    HW1 8021   6.702   6.325   2.185
 2374SOL    HW2 8022   6.854   6.370   2.223
 2375SOL     OW 8023   1.089   0.538   4.209
 2375SOL    HW1 8024   1.046   0.469   4.267
 2375SOL    HW2 8025   1.078   0.628   4.251
 2376SOL     OW 8026   5.592   1.743   3.489
 2376SOL    HW1 8027   5.678   1.768   3.533
 2376SOL    HW2 8028   5.610   1.678   3.415
 2377SOL     OW 8029   4.326   4.717   5.829
 2377SOL    HW1 8030   4.414   4.753   5.796
 2377SOL    HW2 8031   4.275   4.791   5.873
 2378SOL     OW 8032   6.699   0.849   0.327
 2378SOL    HW1 8033   6.637   0.799   0.387
 2378SOL    HW2 8034   6.655   0.865   0.239
 2379SOL     OW 8035   6.370   4.727   1.428
 2379SOL    HW1 8036   6.325   4.638   1.426
 2379SOL    HW2 8037   6.469   4.714   1.421
 2380SOL     OW 8038   4.700   5.638   5.297
 2380SOL    HW1 8039   4.732   5.629   5.391
 2380SOL    HW2 8040   4.734   5.724   5.259
 2381SOL     OW 8041   2.032   4.650   4.998
 2381SOL    HW1 8042   2.104   4.706   5.037
 2381SOL    HW2 8043   1.998   4.586   5.066
 2382SOL     OW 8044   0.561   6.281   2.635
 2382SOL    HW1 8045   0.537   6.319   2.724
 2382SOL    HW2 8046   0.650   6.317   2.606
 2383SOL     OW 8047   5.445   5.715   5.799
 2383SOL    HW1 8048   5.373   5.651   5.774
 2383SOL    HW2 8049   5.523   5.664   5.837
 2384SOL     OW 8050   0.581   1.473   1.916
 2384SOL    HW1 8051   0.519   1.551   1.925
 2384SOL    HW2 8052   0.563   1.426   1.830
 2385SOL     OW 8053   0.281   1.419   0.769
 2385SOL    HW1 8054   0.263   1.449   0.863
 2385SOL    HW2 8055   0.199   1.431   0.714
 2386SOL     OW 8056   5.484   5.670   3.390
 2386SOL    HW1 8057   5.514   5.743   3.452
 2386SOL    HW2 8058   5.412   5.704   3.330
 2387SOL     OW 8059   2.077   1.697   3.990
 2387SOL    HW1 8060   2.070   1.796   3.980
 2387SOL    HW2 8061   2.034   1.670   4.076
 2388SOL     OW 8062   6.395   1.977   5.311
 2388SOL    HW1 8063   6.312   1.947   5.357
 2388SOL    HW2 8064   6.383   2.070   5.279
 2389SOL     OW 8065   4.937   4.707   4.434
 2389SOL    HW1 8066   5.004   4.677   4.502
 2389SOL    HW2 8067   4.895   4.627   4.391
 2390SOL     OW 8068   4.513   3.616   5.829
 2390SOL    HW1 8069   4.560   3.656   5.908
 2390SOL    HW2 8070   4.499   3.519   5.845
 2391SOL     OW 8071   2.852   5.124   6.146
 2391SOL    HW1 8072   2.949   5.111   6.126
 2391SOL    HW2 8073   2.831   5.089   6.237
 2392SOL     OW 8074   3.997   5.140   5.712
 2392SOL    HW1 8075   3.966   5.190   5.793
 2392SOL    HW2 8076   3.919   5.097   5.667
 2393SOL     OW 8077   4.261   4.688   1.198
 2393SOL    HW1 8078   4.188   4.746   1.164
 2393SOL    HW2 8079   4.296   4.631   1.124
 2394SOL     OW 8080   0.831   2.359   3.430
 2394SOL    HW1 8081   0.807   2.264   3.407
 2394SOL    HW2 8082   0.931   2.367   3.437
 2395SOL     OW 8083   0.591   2.275   4.650
 2395SOL    HW1 8084   0.626   2.322   4.731
 2395SOL    HW2 8085   0.589   2.339   4.573
 2396SOL     OW 8086   0.125   0.120   5.212
 2396SOL    HW1 8087   0.061   0.123   5.135
 2396SOL    HW2 8088   0.103   0.042   5.270
 2397SOL     OW 8089   0.176   4.353   5.684
 2397SOL    HW1 8090   0.129   4.440   5.675
 2397SOL    HW2 8091   0.110   4.282   5.711
 2398SOL     OW 8092   3.736   6.523   4.068
 2398SOL    HW1 8093   3.735   6.584   4.147
 2398SOL    HW2 8094   3.683   6.441   4.088
 2399SOL     OW 8095   3.608   2.035   3.942
 2399SOL    HW1 8096   3.637   1.965   3.877
 2399SOL    HW2 8097   3.538   2.092   3.900
 2400SOL     OW 8098   1.022   4.136   0.776
 2400SOL    HW1 8099   0.976   4.059   0.733
 2400SOL    HW2 8100   1.112   4.108   0.809
 2401SOL     OW 8101   2.619   0.554   5.865
 2401SOL    HW1 8102   2.683   0.486   5.901
 2401SOL    HW2 8103   2.669   0.638   5.843
 2402SOL     OW 8104   1.498   4.394   1.899
 2402SOL    HW1 8105   1.505   4.387   1.800
 2402SOL    HW2 8106   1.564   4.332   1.942
 2403SOL     OW 8107   4.111   3.362   3.060
 2403SOL    HW1 8108   4.102   3.388   2.963
 2403SOL    HW2 8109   4.123   3.444   3.115
 2404SOL     OW 8110   6.385   0.885   1.027
 2404SOL    HW1 8111   6.338   0.951   1.085
 2404SOL    HW2 8112   6.435   0.932   0.954
 2405SOL     OW 8113   1.984   2.853   0.959
 2405SOL    HW1 8114   2.025   2.842   1.049
 2405SOL    HW2 8115   1.900   2.906   0.967
 2406SOL     OW 8116   3.224   6.055   4.678
 2406SOL    HW1 8117   3.171   6.026   4.598
 2406SOL    HW2 8118   3.166   6.110   4.738
 2407SOL     OW 8119   3.139   0.946   3.942
 2407SOL    HW1 8120   3.048   0.906   3.935
 2407SOL    HW2 8121   3.178   0.958   3.850
 2408SOL     OW 8122   3.311   6.236   4.276
 2408SOL    HW1 8123   3.316   6.322   4.326
 2408SOL    HW2 8124   3.397   6.186   4.289
 2409SOL     OW 8125   1.683   3.328   1.522
 2409SOL    HW1 8126   1.727   3.374   1.445
 2409SOL    HW2 8127   1.752   3.275   1.572
 2410SOL     OW 8128   0.906   3.441   5.152
 2410SOL    HW1 8129   0.883   3.365   5.213
 2410SOL    HW2 8130   0.835   3.452   5.083
 2411SOL     OW 8131   2.814   3.854   0.395
 2411SOL    HW1 8132   2.836   3.841   0.491
 2411SOL    HW2 8133   2.824   3.951   0.371
 2412SOL     OW 8134   3.374   2.055   6.709
 2412SOL    HW1 8135   3.331   1.968   6.733
 2412SOL    HW2 8136   3.473   2.048   6.723
 2413SOL     OW 8137   0.467   3.254   6.908
 2413SOL    HW1 8138   0.528   3.269   6.831
 2413SOL    HW2 8139   0.435   3.341   6.944
 2414SOL     OW 8140   6.759   2.310   5.153
 2414SOL    HW1 8141   6.716   2.296   5.242
 2414SOL    HW2 8142   6.858   2.317   5.164
 2415SOL     OW 8143   2.500   5.361   0.381
 2415SOL    HW1 8144   2.423   5.303   0.408
 2415SOL    HW2 8145   2.477   5.457   0.399
 2416SOL     OW 8146   6.727   3.776   2.036
 2416SOL    HW1 8147   6.805   3.727   2.076
 2416SOL    HW2 8148   6.667   3.710   1.991
 2417SOL     OW 8149   3.055   2.656   1.695
 2417SOL    HW1 8150   2.975   2.704   1.659
 2417SOL    HW2 8151   3.024   2.588   1.763
 2418SOL     OW 8152   4.458   4.314   6.515
 2418SOL    HW1 8153   4.479   4.276   6.605
 2418SOL    HW2 8154   4.386   4.259   6.472
 2419SOL     OW 8155   2.500   6.412   3.746
 2419SOL    HW1 8156   2.546   6.486   3.697
 2419SOL    HW2 8157   2.409   6.400   3.709
 2420SOL     OW 8158   1.530   3.942   2.795
 2420SOL    HW1 8159   1.615   3.978   2.756
 2420SOL    HW2 8160   1.530   3.842   2.787
 2421SOL     OW 8161   2.667   5.950   4.176
 2421SOL    HW1 8162   2.646   5.978   4.270
 2421SOL    HW2 8163   2.693   6.030   4.123
 2422SOL     OW 8164   4.929   6.402   0.703
 2422SOL    HW1 8165   4.934   6.484   0.646
 2422SOL    HW2 8166   4.899   6.325   0.647
 2423SOL     OW 8167   2.611   5.285   2.772
 2423SOL    HW1 8168   2.597   5.345   2.851
 2423SOL    HW2 8169   2.675   5.328   2.708
 2424SOL     OW 8170   5.479   0.648   6.272
 2424SOL    HW1 8171   5.525   0.579   6.328
 2424SOL    HW2 8172   5.423   0.707   6.330
 2425SOL     OW 8173   5.280   5.466   4.853
 2425SOL    HW1 8174   5.219   5.441   4.928
 2425SOL    HW2 8175   5.361   5.513   4.889
 2426SOL     OW 8176   2.218   3.837   5.977
 2426SOL    HW1 8177   2.263   3.811   6.063
 2426SOL    HW2 8178   2.195   3.755   5.925
 2427SOL     OW 8179   5.418   0.916   0.135
 2427SOL    HW1 8180   5.462   0.882   0.052
 2427SOL    HW2 8181   5.396   1.013   0.124
 2428SOL     OW 8182   0.681   0.443   3.016
 2428SOL    HW1 8183   0.743   0.455   3.093
 2428SOL    HW2 8184   0.658   0.346   3.006
 2429SOL     OW 8185   6.031   5.079   1.897
 2429SOL    HW1 8186   5.944   5.039   1.923
 2429SOL    HW2 8187   6.106   5.020   1.927
 2430SOL     OW 8188   6.295   1.509   0.224
 2430SOL    HW1 8189   6.280   1.580   0.155
 2430SOL    HW2 8190   6.393   1.503   0.246
 2431SOL     OW 8191   6.726   2.910   1.830
 2431SOL    HW1 8192   6.694   2.849   1.757
 2431SOL    HW2 8193   6.825   2.922   1.823
 2432SOL     OW 8194   3.097   4.944   2.414
 2432SOL    HW1 8195   3.196   4.946   2.396
 2432SOL    HW2 8196   3.056   4.865   2.369
 2433SOL     OW 8197   6.166   4.161   5.837
 2433SOL    HW1 8198   6.085   4.205   5.798
 2433SOL    HW2 8199   6.164   4.171   5.937
 2434SOL     OW 8200   5.005   1.274   2.771
 2434SOL    HW1 8201   5.020   1.186   2.727
 2434SOL    HW2 8202   4.921   1.271   2.825
 2435SOL     OW 8203   5.954   6.676   6.944
 2435SOL    HW1 8204   5.941   6.764   6.990
 2435SOL    HW2 8205   6.048   6.644   6.959
 2436SOL     OW 8206   2.035   2.054   2.365
 2436SOL    HW1 8207   2.046   1.955   2.378
 2436SOL    HW2 8208   2.040   2.075   2.267
 2437SOL     OW 8209   0.041   4.263   2.274
 2437SOL    HW1 8210   0.108   4.255   2.200
 2437SOL    HW2 8211   6.978   4.227   2.243
 2438SOL     OW 8212   3.236   1.177   5.093
 2438SOL    HW1 8213   3.214   1.234   5.172
 2438SOL    HW2 8214   3.322   1.207   5.052
 2439SOL     OW 8215   1.105   6.872   1.522
 2439SOL    HW1 8216   1.178   6.828   1.575
 2439SOL    HW2 8217   1.083   6.960   1.565
 2440SOL     OW 8218   5.609   0.976   4.950
 2440SOL    HW1 8219   5.588   0.906   5.018
 2440SOL    HW2 8220   5.615   1.065   4.995
 2441SOL     OW 8221   6.223   0.019   6.442
 2441SOL    HW1 8222   6.314   0.056   6.461
 2441SOL    HW2 8223   6.203   6.970   6.505
 2442SOL     OW 8224   4.876   3.227   1.882
 2442SOL    HW1 8225   4.913   3.279   1.959
 2442SOL    HW2 8226   4.827   3.147   1.916
 2443SOL     OW 8227   0.512   2.148   1.658
 2443SOL    HW1 8228   0.429   2.122   1.608
 2443SOL    HW2 8229   0.545   2.236   1.624
 2444SOL     OW 8230   3.940   6.232   1.713
 2444SOL    HW1 8231   3.927   6.134   1.728
 2444SOL    HW2 8232   3.948   6.250   1.615
 2445SOL     OW 8233   0.046   2.350   0.849
 2445SOL    HW1 8234   0.022   2.390   0.760
 2445SOL    HW2 8235   0.052   2.251   0.840
 2446SOL     OW 8236   1.773   4.805   1.221
 2446SOL    HW1 8237   1.683   4.772   1.193
 2446SOL    HW2 8238   1.842   4.737   1.200
 2447SOL     OW 8239   2.814   0.055   0.241
 2447SOL    HW1 8240   2.778   0.014   0.157
 2447SOL    HW2 8241   2.828   0.153   0.228
 2448SOL     OW 8242   6.710   1.665   4.758
 2448SOL    HW1 8243   6.644   1.655   4.832
 2448SOL    HW2 8244   6.663   1.662   4.670
 2449SOL     OW 8245   1.789   4.348   1.747
 2449SOL    HW1 8246   1.727   4.405   1.694
 2449SOL    HW2 8247   1.802   4.388   1.838
 2450SOL     OW 8248   1.942   6.625   6.086
 2450SOL    HW1 8249   1.970   6.696   6.151
 2450SOL    HW2 8250   2.001   6.545   6.097
 2451SOL     OW 8251   1.101   0.127   5.225
 2451SOL    HW1 8252   1.109   0.209   5.281
 2451SOL    HW2 8253   1.150   0.052   5.269
 2452SOL     OW 8254   2.924   1.340   3.897
 2452SOL    HW1 8255   2.942   1.244   3.877
 2452SOL    HW2 8256   2.859   1.347   3.973
 2453SOL     OW 8257   1.090   1.577   6.530
 2453SOL    HW1 8258   1.130   1.500   6.580
 2453SOL    HW2 8259   1.097   1.560   6.431
 2454SOL     OW 8260   3.236   5.427   1.176
 2454SOL    HW1 8261   3.280   5.337   1.168
 2454SOL    HW2 8262   3.251   5.463   1.269
 2455SOL     OW 8263   3.373   2.173   0.974
 2455SOL    HW1 8264   3.331   2.251   0.927
 2455SOL    HW2 8265   3.424   2.206   1.054
 2456SOL     OW 8266   1.100   4.239   6.232
 2456SOL    HW1 8267   1.044   4.320   6.211
 2456SOL    HW2 8268   1.195   4.258   6.209
 2457SOL     OW 8269   5.130   2.204   5.553
 2457SOL    HW1 8270   5.168   2.255   5.476
 2457SOL    HW2 8271   5.067   2.134   5.519
 2458SOL     OW 8272   1.765   0.351   1.565
 2458SOL    HW1 8273   1.826   0.288   1.613
 2458SOL    HW2 8274   1.764   0.329   1.467
 2459SOL     OW 8275   3.055   6.055   1.527
 2459SOL    HW1 8276   3.155   6.056   1.538
 2459SOL    HW2 8277   3.018   5.971   1.565
 2460SOL     OW 8278   1.559   1.229   5.453
 2460SOL    HW1 8279   1.626   1.228   5.379
 2460SOL    HW2 8280   1.523   1.321   5.464
 2461SOL     OW 8281   4.120   1.235   4.070
 2461SOL    HW1 8282   4.078   1.227   4.160
 2461SOL    HW2 8283   4.048   1.245   4.001
 2462SOL     OW 8284   7.017   4.129   0.779
 2462SOL    HW1 8285   6.984   4.220   0.755
 2462SOL    HW2 8286   0.091   4.133   0.795
 2463SOL     OW 8287   6.693   1.223   6.646
 2463SOL    HW1 8288   6.609   1.211   6.593
 2463SOL    HW2 8289   6.671   1.231   6.743
 2464SOL     OW 8290   0.219   1.954   3.136
 2464SOL    HW1 8291   0.161   2.001   3.202
 2464SOL    HW2 8292   0.172   1.872   3.103
 2465SOL     OW 8293   0.774   4.594   5.777
 2465SOL    HW1 8294   0.832   4.527   5.823
 2465SOL    HW2 8295   0.824   4.680   5.768
 2466SOL     OW 8296   0.535   2.545   1.736
 2466SOL    HW1 8297   0.449   2.522   1.691
 2466SOL    HW2 8298   0.612   2.524   1.676
 2467SOL     OW 8299   4.953   1.246   6.043
 2467SOL    HW1 8300   5.020   1.311   6.006
 2467SOL    HW2 8301   4.968   1.237   6.142
 2468SOL     OW 8302   3.453   6.353   5.487
 2468SOL    HW1 8303   3.458   6.255   5.465
 2468SOL    HW2 8304   3.535   6.379   5.538
 2469SOL     OW 8305   3.362   2.696   5.683
 2469SOL    HW1 8306   3.284   2.655   5.635
 2469SOL    HW2 8307   3.389   2.780   5.636
 2470SOL     OW 8308   2.914   4.913   6.488
 2470SOL    HW1 8309   2.908   4.881   6.583
 2470SOL    HW2 8310   2.827   4.951   6.459
 2471SOL     OW 8311   4.428   5.813   1.413
 2471SOL    HW1 8312   4.524   5.823   1.386
 2471SOL    HW2 8313   4.370   5.849   1.340
 2472SOL     OW 8314   4.881   1.566   4.333
 2472SOL    HW1 8315   4.852   1.629   4.261
 2472SOL    HW2 8316   4.936   1.493   4.293
 2473SOL     OW 8317   0.553   4.042   5.015
 2473SOL    HW1 8318   0.633   4.047   4.956
 2473SOL    HW2 8319   0.488   4.115   4.991
 2474SOL     OW 8320   1.428   5.485   1.616
 2474SOL    HW1 8321   1.445   5.394   1.580
 2474SOL    HW2 8322   1.515   5.531   1.635
 2475SOL     OW 8323   4.903   0.378   0.807
 2475SOL    HW1 8324   4.981   0.408   0.751
 2475SOL    HW2 8325   4.927   0.386   0.904
 2476SOL     OW 8326   5.891   0.361   0.199
 2476SOL    HW1 8327   5.827   0.307   0.255
 2476SOL    HW2 8328   5.921   0.305   0.121
 2477SOL     OW 8329   4.027   0.167   3.089
 2477SOL    HW1 8330   4.115   0.213   3.097
 2477SOL    HW2 8331   4.040   0.074   3.056
 2478SOL     OW 8332   4.622   0.780   3.237
 2478SOL    HW1 8333   4.571   0.828   3.165
 2478SOL    HW2 8334   4.575   0.695   3.261
 2479SOL     OW 8335   0.578   3.965   0.434
 2479SOL    HW1 8336   0.602   3.890   0.496
 2479SOL    HW2 8337   0.626   4.048   0.462
 2480SOL     OW 8338   3.220   2.630   1.459
 2480SOL    HW1 8339   3.192   2.695   1.530
 2480SOL    HW2 8340   3.223   2.538   1.497
 2481SOL     OW 8341   2.909   0.579   0.839
 2481SOL    HW1 8342   2.999   0.558   0.803
 2481SOL    HW2 8343   2.855   0.496   0.846
 2482SOL     OW 8344   5.314   3.382   6.890
 2482SOL    HW1 8345   5.250   3.435   6.834
 2482SOL    HW2 8346   5.304   3.408   6.986
 2483SOL     OW 8347   0.956   2.039   0.927
 2483SOL    HW1 8348   0.962   1.962   0.864
 2483SOL    HW2 8349   1.004   2.118   0.888
 2484SOL     OW 8350   5.104   1.879   2.016
 2484SOL    HW1 8351   5.170   1.819   2.062
 2484SOL    HW2 8352   5.012   1.859   2.050
 2485SOL     OW 8353   4.850   2.520   5.907
 2485SOL    HW1 8354   4.934   2.573   5.892
 2485SOL    HW2 8355   4.815   2.539   5.999
 2486SOL     OW 8356   0.513   3.826   5.166
 2486SOL    HW1 8357   0.441   3.758   5.149
 2486SOL    HW2 8358   0.500   3.904   5.106
 2487SOL     OW 8359   4.559   6.110   0.033
 2487SOL    HW1 8360   4.470   6.146   0.059
 2487SOL    HW2 8361   4.597   6.056   0.108
 2488SOL     OW 8362   6.754   4.299   1.399
 2488SOL    HW1 8363   6.761   4.282   1.301
 2488SOL    HW2 8364   6.845   4.297   1.440
 2489SOL     OW 8365   0.459   5.840   4.225
 2489SOL    HW1 8366   0.497   5.885   4.144
 2489SOL    HW2 8367   0.533   5.808   4.284
 2490SOL     OW 8368   2.933   5.876   2.492
 2490SOL    HW1 8369   2.955   5.785   2.528
 2490SOL    HW2 8370   2.879   5.926   2.559
 2491SOL     OW 8371   4.340   4.664   1.628
 2491SOL    HW1 8372   4.389   4.584   1.662
 2491SOL    HW2 8373   4.358   4.742   1.689
 2492SOL     OW 8374   5.991   3.800   0.709
 2492SOL    HW1 8375   5.899   3.813   0.745
 2492SOL    HW2 8376   5.992   3.820   0.611
 2493SOL     OW 8377   0.293   6.431   1.668
 2493SOL    HW1 8378   0.328   6.475   1.751
 2493SOL    HW2 8379   0.365   6.429   1.598
 2494SOL     OW 8380   5.907   2.198   1.656
 2494SOL    HW1 8381   5.991   2.233   1.615
 2494SOL    HW2 8382   5.829   2.250   1.621
 2495SOL     OW 8383   6.184   5.740   3.553
 2495SOL    HW1 8384   6.088   5.745   3.579
 2495SOL    HW2 8385   6.227   5.662   3.597
 2496SOL     OW 8386   6.298   4.778   6.805
 2496SOL    HW1 8387   6.224   4.716   6.831
 2496SOL    HW2 8388   6.381   4.754   6.857
 2497SOL     OW 8389   0.657   6.768   2.025
 2497SOL    HW1 8390   0.753   6.745   2.010
 2497SOL    HW2 8391   0.644   6.866   2.008
 2498SOL     OW 8392   2.155   3.188   5.813
 2498SOL    HW1 8393   2.189   3.212   5.904
 2498SOL    HW2 8394   2.071   3.239   5.794
 2499SOL     OW 8395   6.119   3.439   1.399
 2499SOL    HW1 8396   6.100   3.498   1.477
 2499SOL    HW2 8397   6.033   3.408   1.359
 2500SOL     OW 8398   3.378   3.883   6.483
 2500SOL    HW1 8399   3.334   3.972   6.487
 2500SOL    HW2 8400   3.318   3.817   6.438
 2501SOL     OW 8401   5.768   5.805   0.445
 2501SOL    HW1 8402   5.701   5.854   0.389
 2501SOL    HW2 8403   5.839   5.767   0.386
 2502SOL     OW 8404   2.460   5.605   4.570
 2502SOL    HW1 8405   2.537   5.550   4.604
 2502SOL    HW2 8406   2.423   5.661   4.643
 2503SOL     OW 8407   2.876   6.832   5.511
 2503SOL    HW1 8408   2.831   6.835   5.422
 2503SOL    HW2 8409   2.842   6.907   5.568
 2504SOL     OW 8410   3.150   5.691   2.836
 2504SOL    HW1 8411   3.064   5.664   2.880
 2504SOL    HW2 8412   3.218   5.618   2.849
 2505SOL     OW 8413   0.819   5.761   2.157
 2505SOL    HW1 8414   0.779   5.672   2.135
 2505SOL    HW2 8415   0.757   5.833   2.125
 2506SOL     OW 8416   6.223   4.524   6.299
 2506SOL    HW1 8417   6.243   4.507   6.396
 2506SOL    HW2 8418   6.298   4.577   6.259
 2507SOL     OW 8419   6.885   3.208   0.331
 2507SOL    HW1 8420   6.973   3.183   0.289
 2507SOL    HW2 8421   6.840   3.276   0.273
 2508SOL     OW 8422   3.125   2.022   5.145
 2508SOL    HW1 8423   3.220   2.010   5.117
 2508SOL    HW2 8424   3.106   2.119   5.159
 2509SOL     OW 8425   6.565   3.733   6.554
 2509SOL    HW1 8426   6.531   3.760   6.645
 2509SOL    HW2 8427   6.571   3.813   6.496
 2510SOL     OW 8428   3.733   3.785   1.748
 2510SOL    HW1 8429   3.691   3.875   1.736
 2510SOL    HW2 8430   3.831   3.796   1.767
 2511SOL     OW 8431   2.221   0.678   5.120
 2511SOL    HW1 8432   2.153   0.622   5.073
 2511SOL    HW2 8433   2.272   0.622   5.184
 2512SOL     OW 8434   3.504   4.203   5.161
 2512SOL    HW1 8435   3.555   4.122   5.133
 2512SOL    HW2 8436   3.455   4.184   5.245
 2513SOL     OW 8437   2.103   6.686   5.612
 2513SOL    HW1 8438   2.156   6.697   5.696
 2513SOL    HW2 8439   2.008   6.663   5.636
 2514SOL     OW 8440   1.064   3.105   3.801
 2514SOL    HW1 8441   1.070   3.049   3.884
 2514SOL    HW2 8442   0.972   3.144   3.794
 2515SOL     OW 8443   1.825   0.794   1.236
 2515SOL    HW1 8444   1.753   0.794   1.305
 2515SOL    HW2 8445   1.899   0.853   1.266
 2516SOL     OW 8446   4.991   1.210   3.952
 2516SOL    HW1 8447   5.070   1.260   3.916
 2516SOL    HW2 8448   4.971   1.131   3.893
 2517SOL     OW 8449   0.937   1.044   5.026
 2517SOL    HW1 8450   0.869   1.087   4.967
 2517SOL    HW2 8451   1.028   1.080   5.003
 2518SOL     OW 8452   2.681   5.130   1.163
 2518SOL    HW1 8453   2.685   5.055   1.230
 2518SOL    HW2 8454   2.649   5.213   1.209
 2519SOL     OW 8455   2.494   1.294   1.425
 2519SOL    HW1 8456   2.527   1.301   1.519
 2519SOL    HW2 8457   2.555   1.345   1.365
 2520SOL     OW 8458   3.295   2.411   0.806
 2520SOL    HW1 8459   3.222   2.361   0.759
 2520SOL    HW2 8460   3.264   2.505   0.824
 2521SOL     OW 8461   4.076   1.507   5.030
 2521SOL    HW1 8462   4.046   1.546   5.117
 2521SOL    HW2 8463   4.127   1.423   5.047
 2522SOL     OW 8464   1.422   1.464   5.472
 2522SOL    HW1 8465   1.424   1.547   5.528
 2522SOL    HW2 8466   1.332   1.420   5.480
 2523SOL     OW 8467   2.027   4.425   0.795
 2523SOL    HW1 8468   2.059   4.519   0.795
 2523SOL    HW2 8469   2.084   4.371   0.733
 2524SOL     OW 8470   1.336   6.988   4.369
 2524SOL    HW1 8471   1.354   6.916   4.301
 2524SOL    HW2 8472   1.419   7.008   4.420
 2525SOL     OW 8473   1.201   2.824   4.653
 2525SOL    HW1 8474   1.192   2.881   4.735
 2525SOL    HW2 8475   1.252   2.873   4.583
 2526SOL     OW 8476   1.693   5.237   6.732
 2526SOL    HW1 8477   1.687   5.171   6.808
 2526SOL    HW2 8478   1.674   5.190   6.646
 2527SOL     OW 8479   5.248   5.835   5.509
 2527SOL    HW1 8480   5.205   5.745   5.519
 2527SOL    HW2 8481   5.177   5.906   5.516
 2528SOL     OW 8482   5.190   4.683   5.214
 2528SOL    HW1 8483   5.259   4.722   5.276
 2528SOL    HW2 8484   5.143   4.608   5.260
 2529SOL     OW 8485   1.033   0.109   6.397
 2529SOL    HW1 8486   0.946   0.063   6.381
 2529SOL    HW2 8487   1.108   0.056   6.357
 2530SOL     OW 8488   3.043   6.161   5.959
 2530SOL    HW1 8489   3.054   6.078   6.013
 2530SOL    HW2 8490   2.990   6.228   6.012
 2531SOL     OW 8491   5.743   5.986   5.516
 2531SOL    HW1 8492   5.643   5.980   5.527
 2531SOL    HW2 8493   5.768   6.079   5.491
 2532SOL     OW 8494   1.036   6.136   1.437
 2532SOL    HW1 8495   0.971   6.158   1.509
 2532SOL    HW2 8496   1.067   6.041   1.448
 2533SOL     OW 8497   4.846   0.611   3.201
 2533SOL    HW1 8498   4.883   0.584   3.289
 2533SOL    HW2 8499   4.777   0.683   3.214
 2534SOL     OW 8500   4.692   1.587   1.709
 2534SOL    HW1 8501   4.662   1.575   1.803
 2534SOL    HW2 8502   4.638   1.659   1.665
 2535SOL     OW 8503   3.721   2.631   6.612
 2535SOL    HW1 8504   3.804   2.649   6.560
 2535SOL    HW2 8505   3.741   2.563   6.683
 2536SOL     OW 8506   1.598   0.520   6.914
 2536SOL    HW1 8507   1.593   0.605   6.861
 2536SOL    HW2 8508   1.506   0.482   6.924
 2537SOL     OW 8509   3.439   0.686   6.405
 2537SOL    HW1 8510   3.474   0.605   6.358
 2537SOL    HW2 8511   3.363   0.725   6.353
 2538SOL     OW 8512   6.891   3.693   3.701
 2538SOL    HW1 8513   6.892   3.599   3.667
 2538SOL    HW2 8514   6.931   3.754   3.632
 2539SOL     OW 8515   5.825   0.881   3.584
 2539SOL    HW1 8516   5.806   0.859   3.488
 2539SOL    HW2 8517   5.924   0.883   3.598
 2540SOL     OW 8518   3.763   2.048   3.049
 2540SOL    HW1 8519   3.828   2.112   3.007
 2540SOL    HW2 8520   3.801   2.013   3.134
 2541SOL     OW 8521   2.790   0.053   4.862
 2541SOL    HW1 8522   2.782   0.150   4.836
 2541SOL    HW2 8523   2.846   0.046   4.945
 2542SOL     OW 8524   2.040   3.956   6.563
 2542SOL    HW1 8525   1.969   4.020   6.594
 2542SOL    HW2 8526   2.093   3.999   6.490
 2543SOL     OW 8527   0.704   1.309   4.251
 2543SOL    HW1 8528   0.799   1.334   4.271
 2543SOL    HW2 8529   0.655   1.390   4.219
 2544SOL     OW 8530   1.322   5.235   0.820
 2544SOL    HW1 8531   1.277   5.156   0.780
 2544SOL    HW2 8532   1.420   5.219   0.826
 2545SOL     OW 8533   1.851   0.250   2.431
 2545SOL    HW1 8534   1.870   0.263   2.529
 2545SOL    HW2 8535   1.766   0.295   2.407
 2546SOL     OW 8536   6.203   1.793   0.430
 2546SOL    HW1 8537   6.246   1.829   0.513
 2546SOL    HW2 8538   6.271   1.788   0.357
 2547SOL     OW 8539   0.001   3.875   6.806
 2547SOL    HW1 8540   6.965   3.829   6.741
 2547SOL    HW2 8541   0.096   3.861   6.777
 2548SOL     OW 8542   0.341   6.484   4.619
 2548SOL    HW1 8543   0.440   6.493   4.625
 2548SOL    HW2 8544   0.318   6.405   4.562
 2549SOL     OW 8545   0.504   0.328   1.546
 2549SOL    HW1 8546   0.407   0.316   1.525
 2549SOL    HW2 8547   0.550   0.369   1.468
 2550SOL     OW 8548   6.330   6.965   0.431
 2550SOL    HW1 8549   6.241   6.951   0.388
 2550SOL    HW2 8550   6.319   6.976   0.529
 2551SOL     OW 8551   2.669   4.556   6.395
 2551SOL    HW1 8552   2.665   4.478   6.458
 2551SOL    HW2 8553   2.739   4.540   6.326
 2552SOL     OW 8554   2.391   4.394   4.472
 2552SOL    HW1 8555   2.343   4.363   4.390
 2552SOL    HW2 8556   2.364   4.337   4.549
 2553SOL     OW 8557   3.954   3.824   6.122
 2553SOL    HW1 8558   4.018   3.791   6.192
 2553SOL    HW2 8559   3.920   3.747   6.069
 2554SOL     OW 8560   2.466   1.907   0.733
 2554SOL    HW1 8561   2.464   1.813   0.768
 2554SOL    HW2 8562   2.490   1.905   0.636
 2555SOL     OW 8563   5.002   2.871   4.347
 2555SOL    HW1 8564   4.946   2.865   4.265
 2555SOL    HW2 8565   4.944   2.897   4.425
 2556SOL     OW 8566   3.740   6.079   0.644
 2556SOL    HW1 8567   3.835   6.076   0.675
 2556SOL    HW2 8568   3.686   6.137   0.704
 2557SOL     OW 8569   2.278   3.482   6.568
 2557SOL    HW1 8570   2.202   3.418   6.561
 2557SOL    HW2 8571   2.347   3.445   6.630
 2558SOL     OW 8572   5.184   1.313   5.625
 2558SOL    HW1 8573   5.276   1.290   5.592
 2558SOL    HW2 8574   5.146   1.386   5.569
 2559SOL     OW 8575   0.815   4.237   6.081
 2559SOL    HW1 8576   0.842   4.324   6.122
 2559SOL    HW2 8577   0.765   4.182   6.148
 2560SOL     OW 8578   6.343   2.175   6.246
 2560SOL    HW1 8579   6.412   2.105   6.263
 2560SOL    HW2 8580   6.278   2.143   6.177
 2561SOL     OW 8581   3.228   5.040   4.646
 2561SOL    HW1 8582   3.300   5.107   4.663
 2561SOL    HW2 8583   3.236   4.965   4.712
 2562SOL     OW 8584   2.391   4.140   0.745
 2562SOL    HW1 8585   2.355   4.077   0.677
 2562SOL    HW2 8586   2.319   4.163   0.811
 2563SOL     OW 8587   3.013   0.655   0.158
 2563SOL    HW1 8588   3.110   0.635   0.175
 2563SOL    HW2 8589   3.006   0.740   0.105
 2564SOL     OW 8590   1.805   5.372   0.814
 2564SOL    HW1 8591   1.770   5.463   0.839
 2564SOL    HW2 8592   1.903   5.368   0.833
 2565SOL     OW 8593   1.015   0.919   1.060
 2565SOL    HW1 8594   0.954   0.883   0.990
 2565SOL    HW2 8595   1.044   1.012   1.035
 2566SOL     OW 8596   2.421   6.579   0.638
 2566SOL    HW1 8597   2.423   6.670   0.679
 2566SOL    HW2 8598   2.507   6.531   0.658
 2567SOL     OW 8599   1.403   0.034   0.287
 2567SOL    HW1 8600   1.425   6.989   0.355
 2567SOL    HW2 8601   1.315   0.076   0.309
 2568SOL     OW 8602   4.419   2.282   6.982
 2568SOL    HW1 8603   4.495   2.347   6.975
 2568SOL    HW2 8604   4.369   2.280   6.895
 2569SOL     OW 8605   3.967   1.323   3.851
 2569SOL    HW1 8606   4.001   1.258   3.783
 2569SOL    HW2 8607   3.870   1.340   3.834
 2570SOL     OW 8608   5.523   0.885   5.371
 2570SOL    HW1 8609   5.472   0.860   5.288
 2570SOL    HW2 8610   5.462   0.881   5.450
 2571SOL     OW 8611   1.181   4.870   4.539
 2571SOL    HW1 8612   1.274   4.905   4.524
 2571SOL    HW2 8613   1.145   4.834   4.453
 2572SOL     OW 8614   2.459   4.801   3.039
 2572SOL    HW1 8615   2.535   4.740   3.063
 2572SOL    HW2 8616   2.492   4.871   2.976
 2573SOL     OW 8617   0.567   1.350   1.092
 2573SOL    HW1 8618   0.606   1.391   1.174
 2573SOL    HW2 8619   0.594   1.254   1.087
 2574SOL     OW 8620   5.960   3.019   0.920
 2574SOL    HW1 8621   5.908   3.004   0.836
 2574SOL    HW2 8622   6.045   2.966   0.917
 2575SOL     OW 8623   6.018   5.761   0.213
 2575SOL    HW1 8624   6.043   5.746   0.309
 2575SOL    HW2 8625   6.064   5.843   0.179
 2576SOL     OW 8626   4.744   6.586   4.129
 2576SOL    HW1 8627   4.756   6.596   4.031
 2576SOL    HW2 8628   4.829   6.613   4.176
 2577SOL     OW 8629   2.866   4.807   2.332
 2577SOL    HW1 8630   2.814   4.724   2.314
 2577SOL    HW2 8631   2.843   4.841   2.423
 2578SOL     OW 8632   3.606   1.458   4.267
 2578SOL    HW1 8633   3.620   1.496   4.176
 2578SOL    HW2 8634   3.532   1.506   4.313
 2579SOL     OW 8635   0.690   6.481   3.429
 2579SOL    HW1 8636   0.756   6.542   3.386
 2579SOL    HW2 8637   0.737   6.407   3.477
 2580SOL     OW 8638   2.820   4.122   0.329
 2580SOL    HW1 8639   2.878   4.173   0.267
 2580SOL    HW2 8640   2.741   4.178   0.355
 2581SOL     OW 8641   2.738   6.439   5.877
 2581SOL    HW1 8642   2.722   6.345   5.907
 2581SOL    HW2 8643   2.652   6.478   5.844
 2582SOL     OW 8644   6.661   3.686   1.125
 2582SOL    HW1 8645   6.634   3.616   1.191
 2582SOL    HW2 8646   6.608   3.675   1.041
 2583SOL     OW 8647   6.847   6.524   0.878
 2583SOL    HW1 8648   6.929   6.544   0.825
 2583SOL    HW2 8649   6.830   6.425   0.879
 2584SOL     OW 8650   4.213   4.942   5.931
 2584SOL    HW1 8651   4.272   5.006   5.881
 2584SOL    HW2 8652   4.139   4.991   5.975
 2585SOL     OW 8653   3.558   5.205   6.331
 2585SOL    HW1 8654   3.482   5.267   6.350
 2585SOL    HW2 8655   3.609   5.239   6.252
 2586SOL     OW 8656   2.308   0.866   5.737
 2586SOL    HW1 8657   2.262   0.821   5.660
 2586SOL    HW2 8658   2.359   0.945   5.704
 2587SOL     OW 8659   0.230   0.750   2.650
 2587SOL    HW1 8660   0.175   0.833   2.649
 2587SOL    HW2 8661   0.232   0.711   2.558
 2588SOL     OW 8662   4.584   1.913   5.465
 2588SOL    HW1 8663   4.485   1.898   5.465
 2588SOL    HW2 8664   4.609   1.968   5.386
 2589SOL     OW 8665   1.229   6.479   0.043
 2589SOL    HW1 8666   1.162   6.493   6.996
 2589SOL    HW2 8667   1.303   6.546   0.033
 2590SOL     OW 8668   2.510   4.671   0.151
 2590SOL    HW1 8669   2.549   4.588   0.112
 2590SOL    HW2 8670   2.535   4.678   0.248
 2591SOL     OW 8671   6.177   5.606   3.957
 2591SOL    HW1 8672   6.224   5.611   4.045
 2591SOL    HW2 8673   6.080   5.589   3.973
 2592SOL     OW 8674   2.087   4.109   6.880
 2592SOL    HW1 8675   2.102   4.072   6.788
 2592SOL    HW2 8676   2.110   4.039   6.948
 2593SOL     OW 8677   3.260   5.735   0.924
 2593SOL    HW1 8678   3.212   5.686   0.852
 2593SOL    HW2 8679   3.358   5.734   0.906
 2594SOL     OW 8680   2.060   4.005   5.251
 2594SOL    HW1 8681   2.145   4.058   5.250
 2594SOL    HW2 8682   1.992   4.053   5.305
 2595SOL     OW 8683   1.512   1.646   4.589
 2595SOL    HW1 8684   1.587   1.689   4.640
 2595SOL    HW2 8685   1.544   1.620   4.498
 2596SOL     OW 8686   1.776   2.627   1.189
 2596SOL    HW1 8687   1.700   2.646   1.250
 2596SOL    HW2 8688   1.778   2.694   1.115
 2597SOL     OW 8689   0.697   5.718   6.145
 2597SOL    HW1 8690   0.659   5.670   6.224
 2597SOL    HW2 8691   0.796   5.725   6.155
 2598SOL     OW 8692   6.293   1.485   1.981
 2598SOL    HW1 8693   6.213   1.475   2.040
 2598SOL    HW2 8694   6.375   1.487   2.037
 2599SOL     OW 8695   3.222   6.948   1.700
 2599SOL    HW1 8696   3.313   6.969   1.665
 2599SOL    HW2 8697   3.157   7.017   1.668
 2600SOL     OW 8698   6.903   4.112   4.448
 2600SOL    HW1 8699   6.827   4.049   4.466
 2600SOL    HW2 8700   6.924   4.112   4.350
 2601SOL     OW 8701   0.669   1.853   2.431
 2601SOL    HW1 8702   0.606   1.922   2.396
 2601SOL    HW2 8703   0.713   1.887   2.514
 2602SOL     OW 8704   1.824   4.835   4.622
 2602SOL    HW1 8705   1.875   4.759   4.664
 2602SOL    HW2 8706   1.727   4.810   4.616
 2603SOL     OW 8707   3.131   1.072   2.569
 2603SOL    HW1 8708   3.050   1.090   2.625
 2603SOL    HW2 8709   3.136   0.975   2.547
 2604SOL     OW 8710   5.761   1.599   2.080
 2604SOL    HW1 8711   5.837   1.654   2.115
 2604SOL    HW2 8712   5.685   1.602   2.145
 2605SOL     OW 8713   1.101   3.968   1.764
 2605SOL    HW1 8714   1.020   3.940   1.713
 2605SOL    HW2 8715   1.078   3.976   1.861
 2606SOL     OW 8716   4.705   4.454   1.255
 2606SOL    HW1 8717   4.784   4.478   1.199
 2606SOL    HW2 8718   4.643   4.532   1.261
 2607SOL     OW 8719   1.705   2.051   1.374
 2607SOL    HW1 8720   1.805   2.048   1.369
 2607SOL    HW2 8721   1.667   1.975   1.322
 2608SOL     OW 8722   2.815   6.042   6.430
 2608SOL    HW1 8723   2.751   5.965   6.430
 2608SOL    HW2 8724   2.764   6.128   6.440
 2609SOL     OW 8725   0.746   0.587   1.204
 2609SOL    HW1 8726   0.717   0.573   1.299
 2609SOL    HW2 8727   0.696   0.664   1.165
 2610SOL     OW 8728   0.943   5.040   4.605
 2610SOL    HW1 8729   1.008   4.968   4.580
 2610SOL    HW2 8730   0.968   5.078   4.694
 2611SOL     OW 8731   5.043   6.581   6.866
 2611SOL    HW1 8732   4.981   6.503   6.877
 2611SOL    HW2 8733   5.011   6.657   6.922
 2612SOL     OW 8734   5.190   0.360   4.905
 2612SOL    HW1 8735   5.238   0.300   4.969
 2612SOL    HW2 8736   5.156   0.306   4.827
 2613SOL     OW 8737   0.924   5.883   6.533
 2613SOL    HW1 8738   0.824   5.880   6.542
 2613SOL    HW2 8739   0.957   5.797   6.494
 2614SOL     OW 8740   6.794   0.442   6.360
 2614SOL    HW1 8741   6.716   0.504   6.367
 2614SOL    HW2 8742   6.867   0.473   6.420
 2615SOL     OW 8743   1.264   4.041   0.829
 2615SOL    HW1 8744   1.299   3.972   0.766
 2615SOL    HW2 8745   1.280   4.011   0.923
 2616SOL     OW 8746   1.733   0.360   5.451
 2616SOL    HW1 8747   1.670   0.307   5.393
 2616SOL    HW2 8748   1.822   0.367   5.405
 2617SOL     OW 8749   5.485   0.479   0.338
 2617SOL    HW1 8750   5.496   0.578   0.330
 2617SOL    HW2 8751   5.498   0.452   0.433
 2618SOL     OW 8752   1.715   6.476   6.145
 2618SOL    HW1 8753   1.809   6.511   6.147
 2618SOL    HW2 8754   1.687   6.460   6.051
 2619SOL     OW 8755   4.233   1.684   2.139
 2619SOL    HW1 8756   4.146   1.695   2.187
 2619SOL    HW2 8757   4.252   1.587   2.126
 2620SOL     OW 8758   0.206   6.281   2.076
 2620SOL    HW1 8759   0.303   6.305   2.076
 2620SOL    HW2 8760   0.161   6.325   1.998
 2621SOL     OW 8761   1.123   6.186   3.050
 2621SOL    HW1 8762   1.043   6.222   3.001
 2621SOL    HW2 8763   1.173   6.124   2.989
 2622SOL     OW 8764   3.154   3.448   6.529
 2622SOL    HW1 8765   3.187   3.378   6.466
 2622SOL    HW2 8766   3.061   3.424   6.558
 2623SOL     OW 8767   1.078   0.108   4.066
 2623SOL    HW1 8768   1.038   0.017   4.063
 2623SOL    HW2 8769   1.021   0.171   4.012
 2624SOL     OW 8770   0.343   2.295   4.424
 2624SOL    HW1 8771   0.427   2.349   4.432
 2624SOL    HW2 8772   0.335   2.233   4.502
 2625SOL     OW 8773   2.137   5.372   5.484
 2625SOL    HW1 8774   2.130   5.412   5.575
 2625SOL    HW2 8775   2.104   5.277   5.486
 2626SOL     OW 8776   6.407   5.370   5.983
 2626SOL    HW1 8777   6.353   5.404   6.060
 2626SOL    HW2 8778   6.354   5.377   5.899
 2627SOL     OW 8779   1.036   0.016   6.084
 2627SOL    HW1 8780   0.948   7.000   6.109
 2627SOL    HW2 8781   1.023   0.075   6.004
 2628SOL     OW 8782   1.497   4.055   2.261
 2628SOL    HW1 8783   1.483   3.957   2.266
 2628SOL    HW2 8784   1.411   4.102   2.279
 2629SOL     OW 8785   4.005   3.832   3.397
 2629SOL    HW1 8786   3.931   3.899   3.390
 2629SOL    HW2 8787   4.020   3.808   3.493
 2630SOL     OW 8788   3.521   0.862   3.877
 2630SOL    HW1 8789   3.459   0.784   3.882
 2630SOL    HW2 8790   3.512   0.918   3.960
 2631SOL     OW 8791   5.863   0.651   0.114
 2631SOL    HW1 8792   5.889   0.561   0.151
 2631SOL    HW2 8793   5.833   0.710   0.188
 2632SOL     OW 8794   5.462   4.699   1.985
 2632SOL    HW1 8795   5.416   4.672   2.070
 2632SOL    HW2 8796   5.393   4.716   1.914
 2633SOL     OW 8797   6.650   3.452   5.608
 2633SOL    HW1 8798   6.750   3.463   5.603
 2633SOL    HW2 8799   6.616   3.417   5.521
 2634SOL     OW 8800   6.131   0.450   5.559
 2634SOL    HW1 8801   6.213   0.497   5.526
 2634SOL    HW2 8802   6.074   0.425   5.481
 2635SOL     OW 8803   5.968   5.447   3.696
 2635SOL    HW1 8804   5.925   5.365   3.658
 2635SOL    HW2 8805   5.947   5.525   3.637
 2636SOL     OW 8806   4.191   6.609   6.567
 2636SOL    HW1 8807   4.151   6.666   6.639
 2636SOL    HW2 8808   4.237   6.667   6.500
 2637SOL     OW 8809   1.875   1.360   3.292
 2637SOL    HW1 8810   1.865   1.277   3.238
 2637SOL    HW2 8811   1.787   1.405   3.304
 2638SOL     OW 8812   0.815   0.003   4.409
 2638SOL    HW1 8813   0.911   0.011   4.434
 2638SOL    HW2 8814   0.784   6.934   4.424
 2639SOL     OW 8815   4.235   5.030   4.739
 2639SOL    HW1 8816   4.308   5.032   4.672
 2639SOL    HW2 8817   4.273   5.040   4.831
 2640SOL     OW 8818   1.282   6.859   4.615
 2640SOL    HW1 8819   1.287   6.906   4.526
 2640SOL    HW2 8820   1.238   6.770   4.603
 2641SOL     OW 8821   5.556   1.985   6.733
 2641SOL    HW1 8822   5.546   2.058   6.800
 2641SOL    HW2 8823   5.527   1.898   6.773
 2642SOL     OW 8824   7.017   1.320   4.220
 2642SOL    HW1 8825   6.952   1.397   4.217
 2642SOL    HW2 8826   0.012   1.297   4.315
 2643SOL     OW 8827   1.226   4.114   3.550
 2643SOL    HW1 8828   1.230   4.179   3.626
 2643SOL    HW2 8829   1.250   4.023   3.584
 2644SOL     OW 8830   4.994   5.211   4.943
 2644SOL    HW1 8831   4.993   5.311   4.941
 2644SOL    HW2 8832   5.016   5.179   5.035
 2645SOL     OW 8833   5.145   5.095   3.115
 2645SOL    HW1 8834   5.182   5.091   3.208
 2645SOL    HW2 8835   5.055   5.053   3.112
 2646SOL     OW 8836   6.918   3.484   5.597
 2646SOL    HW1 8837   6.980   3.561   5.613
 2646SOL    HW2 8838   6.969   3.408   5.557
 2647SOL     OW 8839   5.051   6.918   2.145
 2647SOL    HW1 8840   5.011   6.975   2.074
 2647SOL    HW2 8841   5.122   6.859   2.106
 2648SOL     OW 8842   0.650   0.138   4.686
 2648SOL    HW1 8843   0.556   0.106   4.697
 2648SOL    HW2 8844   0.662   0.173   4.594
 2649SOL     OW 8845   4.904   2.521   1.612
 2649SOL    HW1 8846   4.870   2.612   1.635
 2649SOL    HW2 8847   4.975   2.494   1.676
 2650SOL     OW 8848   3.869   6.270   4.926
 2650SOL    HW1 8849   3.879   6.275   4.827
 2650SOL    HW2 8850   3.772   6.265   4.949
 2651SOL     OW 8851   3.946   1.865   5.017
 2651SOL    HW1 8852   4.019   1.833   5.076
 2651SOL    HW2 8853   3.979   1.872   4.923
 2652SOL     OW 8854   5.219   4.293   5.488
 2652SOL    HW1 8855   5.287   4.237   5.536
 2652SOL    HW2 8856   5.166   4.345   5.554
 2653SOL     OW 8857   2.804   6.420   0.024
 2653SOL    HW1 8858   2.854   6.401   0.109
 2653SOL    HW2 8859   2.861   6.397   6.971
 2654SOL     OW 8860   5.970   0.943   0.575
 2654SOL    HW1 8861   5.954   0.874   0.645
 2654SOL    HW2 8862   5.889   1.001   0.565
 2655SOL     OW 8863   5.181   5.716   3.051
 2655SOL    HW1 8864   5.158   5.755   2.962
 2655SOL    HW2 8865   5.098   5.711   3.108
 2656SOL     OW 8866   3.385   5.640   3.923
 2656SOL    HW1 8867   3.325   5.672   3.850
 2656SOL    HW2 8868   3.350   5.553   3.960
 2657SOL     OW 8869   1.687   3.571   0.227
 2657SOL    HW1 8870   1.695   3.657   0.278
 2657SOL    HW2 8871   1.769   3.558   0.172
 2658SOL     OW 8872   4.119   4.641   6.625
 2658SOL    HW1 8873   4.212   4.663   6.595
 2658SOL    HW2 8874   4.053   4.690   6.567
 2659SOL     OW 8875   6.688   2.616   4.750
 2659SOL    HW1 8876   6.704   2.531   4.799
 2659SOL    HW2 8877   6.749   2.687   4.784
 2660SOL     OW 8878   0.297   2.195   1.889
 2660SOL    HW1 8879   0.212   2.225   1.844
 2660SOL    HW2 8880   0.356   2.150   1.822
 2661SOL     OW 8881   1.843   1.444   1.009
 2661SOL    HW1 8882   1.754   1.410   0.979
 2661SOL    HW2 8883   1.894   1.480   0.930
 2662SOL     OW 8884   3.161   0.803   2.707
 2662SOL    HW1 8885   3.076   0.760   2.678
 2662SOL    HW2 8886   3.227   0.801   2.631
 2663SOL     OW 8887   4.290   6.604   0.345
 2663SOL    HW1 8888   4.310   6.574   0.438
 2663SOL    HW2 8889   4.265   6.524   0.289
 2664SOL     OW 8890   4.018   2.679   5.909
 2664SOL    HW1 8891   4.001   2.622   5.828
 2664SOL    HW2 8892   4.040   2.772   5.880
 2665SOL     OW 8893   1.897   3.763   5.340
 2665SOL    HW1 8894   1.798   3.760   5.322
 2665SOL    HW2 8895   1.930   3.857   5.327
 2666SOL     OW 8896   2.056   3.930   2.163
 2666SOL    HW1 8897   2.128   3.999   2.157
 2666SOL    HW2 8898   2.097   3.839   2.156
 2667SOL     OW 8899   6.508   3.774   4.250
 2667SOL    HW1 8900   6.458   3.771   4.336
 2667SOL    HW2 8901   6.599   3.813   4.266
 2668SOL     OW 8902   6.331   1.163   4.204
 2668SOL    HW1 8903   6.346   1.128   4.111
 2668SOL    HW2 8904   6.234   1.155   4.227
 2669SOL     OW 8905   2.583   1.091   0.243
 2669SOL    HW1 8906   2.489   1.101   0.211
 2669SOL    HW2 8907   2.585   1.028   0.321
 2670SOL     OW 8908   0.508   0.688   6.305
 2670SOL    HW1 8909   0.570   0.611   6.292
 2670SOL    HW2 8910   0.507   0.714   6.401
 2671SOL     OW 8911   3.985   5.262   6.000
 2671SOL    HW1 8912   4.067   5.308   6.034
 2671SOL    HW2 8913   3.987   5.166   6.029
 2672SOL     OW 8914   3.930   1.131   1.957
 2672SOL    HW1 8915   3.881   1.048   1.983
 2672SOL    HW2 8916   4.008   1.108   1.899
 2673SOL     OW 8917   4.411   0.459   2.118
 2673SOL    HW1 8918   4.376   0.515   2.043
 2673SOL    HW2 8919   4.508   0.442   2.105
 2674SOL     OW 8920   0.755   4.656   2.406
 2674SOL    HW1 8921   0.814   4.636   2.485
 2674SOL    HW2 8922   0.788   4.739   2.361
 2675SOL     OW 8923   5.591   0.415   4.512
 2675SOL    HW1 8924   5.637   0.486   4.460
 2675SOL    HW2 8925   5.616   0.325   4.475
 2676SOL     OW 8926   3.429   4.175   3.118
 2676SOL    HW1 8927   3.441   4.091   3.171
 2676SOL    HW2 8928   3.333   4.184   3.091
 2677SOL     OW 8929   2.220   4.889   1.341
 2677SOL    HW1 8930   2.272   4.970   1.369
 2677SOL    HW2 8931   2.199   4.896   1.244
 2678SOL     OW 8932   5.669   1.928   2.467
 2678SOL    HW1 8933   5.572   1.950   2.452
 2678SOL    HW2 8934   5.675   1.840   2.515
 2679SOL     OW 8935   2.099   4.578   3.839
 2679SOL    HW1 8936   2.050   4.647   3.786
 2679SOL    HW2 8937   2.042   4.496   3.847
 2680SOL     OW 8938   0.595   2.074   6.980
 2680SOL    HW1 8939   0.605   2.120   0.044
 2680SOL    HW2 8940   0.669   2.102   6.920
 2681SOL     OW 8941   1.655   2.448   4.935
 2681SOL    HW1 8942   1.687   2.541   4.949
 2681SOL    HW2 8943   1.723   2.397   4.882
 2682SOL     OW 8944   4.360   4.129   1.572
 2682SOL    HW1 8945   4.383   4.159   1.480
 2682SOL    HW2 8946   4.297   4.195   1.613
 2683SOL     OW 8947   2.360   4.325   2.433
 2683SOL    HW1 8948   2.336   4.406   2.486
 2683SOL    HW2 8949   2.341   4.243   2.488
 2684SOL     OW 8950   5.814   6.738   2.678
 2684SOL    HW1 8951   5.742   6.785   2.626
 2684SOL    HW2 8952   5.776   6.657   2.721
 2685SOL     OW 8953   0.886   6.094   5.237
 2685SOL    HW1 8954   0.943   6.098   5.319
 2685SOL    HW2 8955   0.815   6.165   5.243
 2686SOL     OW 8956   1.279   1.754   4.553
 2686SOL    HW1 8957   1.265   1.726   4.458
 2686SOL    HW2 8958   1.369   1.725   4.584
 2687SOL     OW 8959   3.592   1.389   1.542
 2687SOL    HW1 8960   3.659   1.323   1.574
 2687SOL    HW2 8961   3.522   1.341   1.488
 2688SOL     OW 8962   3.383   3.539   5.893
 2688SOL    HW1 8963   3.401   3.441   5.900
 2688SOL    HW2 8964   3.435   3.587   5.964
 2689SOL     OW 8965   1.103   3.554   2.831
 2689SOL    HW1 8966   1.184   3.502   2.804
 2689SOL    HW2 8967   1.131   3.636   2.882
 2690SOL     OW 8968   3.586   1.540   6.502
 2690SOL    HW1 8969   3.643   1.485   6.442
 2690SOL    HW2 8970   3.499   1.562   6.457
 2691SOL     OW 8971   0.416   4.717   3.892
 2691SOL    HW1 8972   0.464   4.668   3.964
 2691SOL    HW2 8973   0.408   4.657   3.811
 2692SOL     OW 8974   3.088   5.959   2.827
 2692SOL    HW1 8975   3.090   5.859   2.828
 2692SOL    HW2 8976   2.996   5.990   2.804
 2693SOL     OW 8977   1.440   5.383   3.354
 2693SOL    HW1 8978   1.495   5.302   3.332
 2693SOL    HW2 8979   1.479   5.463   3.309
 2694SOL     OW 8980   3.628   6.841   3.968
 2694SOL    HW1 8981   3.627   6.923   4.025
 2694SOL    HW2 8982   3.718   6.799   3.973
 2695SOL     OW 8983   7.008   5.036   3.506
 2695SOL    HW1 8984   0.070   5.014   3.464
 2695SOL    HW2 8985   6.941   4.966   3.482
 2696SOL     OW 8986   4.989   4.348   6.663
 2696SOL    HW1 8987   5.002   4.249   6.674
 2696SOL    HW2 8988   5.077   4.394   6.676
 2697SOL     OW 8989   4.167   2.464   0.777
 2697SOL    HW1 8990   4.266   2.468   0.788
 2697SOL    HW2 8991   4.145   2.430   0.686
 2698SOL     OW 8992   1.647   4.029   6.004
 2698SOL    HW1 8993   1.734   3.982   5.990
 2698SOL    HW2 8994   1.575   3.983   5.951
 2699SOL     OW 8995   3.530   5.968   2.213
 2699SOL    HW1 8996   3.519   6.008   2.122
 2699SOL    HW2 8997   3.492   6.031   2.282
 2700SOL     OW 8998   3.023   2.207   1.751
 2700SOL    HW1 8999   2.998   2.281   1.813
 2700SOL    HW2 9000   2.991   2.228   1.658
 2701SOL     OW 9001   5.305   3.010   4.577
 2701SOL    HW1 9002   5.282   3.052   4.490
 2701SOL    HW2 9003   5.336   3.080   4.641
 2702SOL     OW 9004   2.481   1.654   5.095
 2702SOL    HW1 9005   2.517   1.564   5.069
 2702SOL    HW2 9006   2.473   1.660   5.195
 2703SOL     OW 9007   1.539   0.011   1.884
 2703SOL    HW1 9008   1.516   0.085   1.821
 2703SOL    HW2 9009   1.634   0.021   1.915
 2704SOL     OW 9010   5.624   0.235   4.034
 2704SOL    HW1 9011   5.679   0.152   4.047
 2704SOL    HW2 9012   5.665   0.311   4.085
 2705SOL     OW 9013   6.892   6.935   5.084
 2705SOL    HW1 9014   6.892   6.994   5.165
 2705SOL    HW2 9015   6.815   6.960   5.025
 2706SOL     OW 9016   6.488   3.607   3.535
 2706SOL    HW1 9017   6.538   3.667   3.598
 2706SOL    HW2 9018   6.529   3.612   3.444
 2707SOL     OW 9019   3.962   0.336   3.332
 2707SOL    HW1 9020   4.014   0.396   3.271
 2707SOL    HW2 9021   3.952   0.246   3.290
 2708SOL     OW 9022   5.838   2.979   0.669
 2708SOL    HW1 9023   5.865   3.008   0.577
 2708SOL    HW2 9024   5.739   2.989   0.679
 2709SOL     OW 9025   4.413   0.836   4.390
 2709SOL    HW1 9026   4.465   0.837   4.475
 2709SOL    HW2 9027   4.393   0.929   4.361
 2710SOL     OW 9028   1.253   2.559   4.137
 2710SOL    HW1 9029   1.291   2.623   4.070
 2710SOL    HW2 9030   1.160   2.534   4.110
 2711SOL     OW 9031   3.547   2.015   2.505
 2711SOL    HW1 9032   3.559   1.915   2.504
 2711SOL    HW2 9033   3.493   2.043   2.426
 2712SOL     OW 9034   4.253   5.682   2.225
 2712SOL    HW1 9035   4.212   5.592   2.215
 2712SOL    HW2 9036   4.343   5.683   2.182
 2713SOL     OW 9037   3.539   4.858   6.275
 2713SOL    HW1 9038   3.486   4.828   6.355
 2713SOL    HW2 9039   3.481   4.854   6.194
 2714SOL     OW 9040   2.565   4.524   6.735
 2714SOL    HW1 9041   2.629   4.598   6.717
 2714SOL    HW2 9042   2.478   4.542   6.688
 2715SOL     OW 9043   4.286   0.877   0.784
 2715SOL    HW1 9044   4.269   0.960   0.837
 2715SOL    HW2 9045   4.200   0.831   0.764
 2716SOL     OW 9046   3.954   2.166   2.870
 2716SOL    HW1 9047   4.003   2.193   2.787
 2716SOL    HW2 9048   4.017   2.120   2.933
 2717SOL     OW 9049   0.622   1.085   2.795
 2717SOL    HW1 9050   0.556   1.011   2.809
 2717SOL    HW2 9051   0.636   1.134   2.881
 2718SOL     OW 9052   0.111   6.923   6.084
 2718SOL    HW1 9053   0.077   6.990   6.018
 2718SOL    HW2 9054   0.162   6.852   6.035
 2719SOL     OW 9055   2.079   3.537   2.490
 2719SOL    HW1 9056   2.016   3.483   2.433
 2719SOL    HW2 9057   2.077   3.502   2.583
 2720SOL     OW 9058   1.693   6.397   5.866
 2720SOL    HW1 9059   1.713   6.305   5.899
 2720SOL    HW2 9060   1.712   6.402   5.768
 2721SOL     OW 9061   3.657   5.417   1.574
 2721SOL    HW1 9062   3.567   5.382   1.597
 2721SOL    HW2 9063   3.726   5.372   1.631
 2722SOL     OW 9064   4.720   5.226   6.766
 2722SOL    HW1 9065   4.655   5.266   6.831
 2722SOL    HW2 9066   4.771   5.299   6.720
 2723SOL     OW 9067   3.175   6.684   0.534
 2723SOL    HW1 9068   3.246   6.649   0.595
 2723SOL    HW2 9069   3.176   6.784   0.536
 2724SOL     OW 9070   1.477   5.780   1.210
 2724SOL    HW1 9071   1.488   5.812   1.116
 2724SOL    HW2 9072   1.435   5.852   1.265
 2725SOL     OW 9073   5.281   3.620   5.070
 2725SOL    HW1 9074   5.347   3.669   5.014
 2725SOL    HW2 9075   5.223   3.685   5.119
 2726SOL     OW 9076   0.330   1.111   1.898
 2726SOL    HW1 9077   0.250   1.074   1.850
 2726SOL    HW2 9078   0.414   1.074   1.856
 2727SOL     OW 9079   1.694   3.973   4.827
 2727SOL    HW1 9080   1.723   3.970   4.923
 2727SOL    HW2 9081   1.742   3.902   4.776
 2728SOL     OW 9082   5.663   5.802   6.051
 2728SOL    HW1 9083   5.567   5.785   6.028
 2728SOL    HW2 9084   5.679   5.779   6.147
 2729SOL     OW 9085   5.393   5.745   6.096
 2729SOL    HW1 9086   5.390   5.812   6.170
 2729SOL    HW2 9087   5.308   5.751   6.043
 2730SOL     OW 9088   1.209   5.626   2.260
 2730SOL    HW1 9089   1.229   5.558   2.331
 2730SOL    HW2 9090   1.153   5.699   2.300
 2731SOL     OW 9091   3.335   3.368   3.909
 2731SOL    HW1 9092   3.264   3.420   3.957
 2731SOL    HW2 9093   3.294   3.319   3.832
 2732SOL     OW 9094   5.562   1.322   2.013
 2732SOL    HW1 9095   5.599   1.332   1.921
 2732SOL    HW2 9096   5.603   1.242   2.057
 2733SOL     OW 9097   0.980   0.262   5.946
 2733SOL    HW1 9098   0.908   0.330   5.936
 2733SOL    HW2 9099   1.023   0.272   6.036
 2734SOL     OW 9100   3.581   5.878   1.731
 2734SOL    HW1 9101   3.637   5.855   1.652
 2734SOL    HW2 9102   3.549   5.794   1.776
 2735SOL     OW 9103   0.625   1.182   1.458
 2735SOL    HW1 9104   0.655   1.234   1.378
 2735SOL    HW2 9105   0.601   1.089   1.431
 2736SOL     OW 9106   4.735   5.173   3.719
 2736SOL    HW1 9107   4.774   5.156   3.629
 2736SOL    HW2 9108   4.682   5.093   3.748
 2737SOL     OW 9109   2.553   2.231   6.650
 2737SOL    HW1 9110   2.491   2.310   6.653
 2737SOL    HW2 9111   2.577   2.204   6.743
 2738SOL     OW 9112   5.753   7.001   1.515
 2738SOL    HW1 9113   5.739   7.004   1.614
 2738SOL    HW2 9114   5.834   0.030   1.491
 2739SOL     OW 9115   1.005   5.338   2.190
 2739SOL    HW1 9116   1.032   5.246   2.219
 2739SOL    HW2 9117   1.086   5.397   2.189
 2740SOL     OW 9118   6.661   6.481   3.543
 2740SOL    HW1 9119   6.667   6.391   3.585
 2740SOL    HW2 9120   6.660   6.472   3.443
 2741SOL     OW 9121   1.204   1.807   4.903
 2741SOL    HW1 9122   1.204   1.792   4.804
 2741SOL    HW2 9123   1.112   1.791   4.939
 2742SOL     OW 9124   3.669   5.236   1.916
 2742SOL    HW1 9125   3.749   5.284   1.881
 2742SOL    HW2 9126   3.601   5.225   1.844
 2743SOL     OW 9127   5.920   4.481   2.778
 2743SOL    HW1 9128   5.843   4.543   2.761
 2743SOL    HW2 9129   5.999   4.535   2.808
 2744SOL     OW 9130   3.709   3.940   3.506
 2744SOL    HW1 9131   3.666   3.878   3.571
 2744SOL    HW2 9132   3.666   4.030   3.513
 2745SOL     OW 9133   6.845   0.236   5.846
 2745SOL    HW1 9134   6.832   0.309   5.913
 2745SOL    HW2 9135   6.936   0.244   5.805
 2746SOL     OW 9136   1.747   0.793   3.807
 2746SOL    HW1 9137   1.676   0.724   3.816
 2746SOL    HW2 9138   1.708   0.878   3.773
 2747SOL     OW 9139   3.629   5.820   0.640
 2747SOL    HW1 9140   3.544   5.810   0.589
 2747SOL    HW2 9141   3.645   5.916   0.661
 2748SOL     OW 9142   4.509   6.990   1.835
 2748SOL    HW1 9143   4.585   6.962   1.894
 2748SOL    HW2 9144   4.430   6.931   1.850
 2749SOL     OW 9145   1.940   3.374   0.328
 2749SOL    HW1 9146   2.001   3.389   0.250
 2749SOL    HW2 9147   1.872   3.447   0.332
 2750SOL     OW 9148   2.469   5.520   2.286
 2750SOL    HW1 9149   2.379   5.555   2.258
 2750SOL    HW2 9150   2.458   5.452   2.357
 2751SOL     OW 9151   0.518   3.397   0.883
 2751SOL    HW1 9152   0.603   3.368   0.839
 2751SOL    HW2 9153   0.517   3.497   0.890
 2752SOL     OW 9154   3.482   4.799   6.549
 2752SOL    HW1 9155   3.557   4.734   6.536
 2752SOL    HW2 9156   3.426   4.770   6.626
 2753SOL     OW 9157   6.153   5.614   5.213
 2753SOL    HW1 9158   6.067   5.569   5.189
 2753SOL    HW2 9159   6.136   5.710   5.235
 2754SOL     OW 9160   0.897   6.901   6.566
 2754SOL    HW1 9161   0.894   6.895   6.467
 2754SOL    HW2 9162   0.850   6.822   6.606
 2755SOL     OW 9163   2.860   6.679   2.858
 2755SOL    HW1 9164   2.881   6.755   2.796
 2755SOL    HW2 9165   2.900   6.698   2.948
 2756SOL     OW 9166   5.031   6.209   0.167
 2756SOL    HW1 9167   4.998   6.165   0.083
 2756SOL    HW2 9168   5.116   6.166   0.197
 2757SOL     OW 9169   0.776   5.060   1.715
 2757SOL    HW1 9170   0.834   5.117   1.773
 2757SOL    HW2 9171   0.686   5.050   1.758
 2758SOL     OW 9172   4.941   0.361   5.527
 2758SOL    HW1 9173   5.024   0.400   5.489
 2758SOL    HW2 9174   4.908   0.419   5.602
 2759SOL     OW 9175   5.732   6.340   4.379
 2759SOL    HW1 9176   5.813   6.397   4.383
 2759SOL    HW2 9177   5.753   6.249   4.417
 2760SOL     OW 9178   2.502   4.950   2.505
 2760SOL    HW1 9179   2.406   4.966   2.480
 2760SOL    HW2 9180   2.509   4.866   2.559
 2761SOL     OW 9181   2.190   5.373   2.621
 2761SOL    HW1 9182   2.206   5.451   2.682
 2761SOL    HW2 9183   2.197   5.288   2.674
 2762SOL     OW 9184   0.735   6.925   5.561
 2762SOL    HW1 9185   0.753   6.969   5.473
 2762SOL    HW2 9186   0.662   6.858   5.550
 2763SOL     OW 9187   5.232   1.643   3.783
 2763SOL    HW1 9188   5.196   1.700   3.710
 2763SOL    HW2 9189   5.331   1.635   3.774
 2764SOL     OW 9190   5.671   0.825   1.721
 2764SOL    HW1 9191   5.643   0.739   1.677
 2764SOL    HW2 9192   5.745   0.807   1.786
 2765SOL     OW 9193   5.918   1.179   2.072
 2765SOL    HW1 9194   5.824   1.155   2.050
 2765SOL    HW2 9195   5.942   1.142   2.162
 2766SOL     OW 9196   6.252   1.493   1.555
 2766SOL    HW1 9197   6.261   1.395   1.542
 2766SOL    HW2 9198   6.159   1.521   1.529
 2767SOL     OW 9199   5.724   3.724   6.458
 2767SOL    HW1 9200   5.756   3.675   6.538
 2767SOL    HW2 9201   5.625   3.713   6.449
 2768SOL     OW 9202   4.839   1.074   6.991
 2768SOL    HW1 9203   4.853   1.156   6.936
 2768SOL    HW2 9204   4.926   1.029   7.008
 2769SOL     OW 9205   0.223   4.707   1.822
 2769SOL    HW1 9206   0.264   4.784   1.871
 2769SOL    HW2 9207   0.221   4.627   1.882
 2770SOL     OW 9208   1.144   5.159   1.835
 2770SOL    HW1 9209   1.157   5.138   1.738
 2770SOL    HW2 9210   1.205   5.102   1.890
 2771SOL     OW 9211   5.794   1.626   1.162
 2771SOL    HW1 9212   5.844   1.599   1.245
 2771SOL    HW2 9213   5.696   1.630   1.182
 2772SOL     OW 9214   3.824   2.456   6.865
 2772SOL    HW1 9215   3.751   2.397   6.831
 2772SOL    HW2 9216   3.841   2.435   6.962
 2773SOL     OW 9217   3.891   4.288   6.786
 2773SOL    HW1 9218   3.883   4.310   6.689
 2773SOL    HW2 9219   3.974   4.331   6.822
 2774SOL     OW 9220   5.515   3.380   2.034
 2774SOL    HW1 9221   5.486   3.310   2.099
 2774SOL    HW2 9222   5.602   3.353   1.994
 2775SOL     OW 9223   0.294   5.823   1.465
 2775SOL    HW1 9224   0.239   5.740   1.462
 2775SOL    HW2 9225   0.254   5.892   1.406
 2776SOL     OW 9226   3.168   6.269   6.498
 2776SOL    HW1 9227   3.112   6.206   6.444
 2776SOL    HW2 9228   3.178   6.355   6.448
 2777SOL     OW 9229   3.367   1.589   2.501
 2777SOL    HW1 9230   3.301   1.609   2.429
 2777SOL    HW2 9231   3.375   1.490   2.512
 2778SOL     OW 9232   2.254   2.109   5.863
 2778SOL    HW1 9233   2.354   2.120   5.864
 2778SOL    HW2 9234   2.214   2.160   5.939
 2779SOL     OW 9235   5.195   0.445   6.741
 2779SOL    HW1 9236   5.223   0.379   6.811
 2779SOL    HW2 9237   5.140   0.400   6.672
 2780SOL     OW 9238   4.959   5.037   6.135
 2780SOL    HW1 9239   5.034   5.103   6.133
 2780SOL    HW2 9240   4.887   5.066   6.072
 2781SOL     OW 9241   5.590   4.571   1.281
 2781SOL    HW1 9242   5.499   4.593   1.248
 2781SOL    HW2 9243   5.583   4.521   1.367
 2782SOL     OW 9244   3.012   2.912   6.470
 2782SOL    HW1 9245   3.011   3.012   6.460
 2782SOL    HW2 9246   3.100   2.877   6.438
 2783SOL     OW 9247   6.992   4.764   5.352
 2783SOL    HW1 9248   0.064   4.742   5.346
 2783SOL    HW2 9249   6.949   4.748   5.263
 2784SOL     OW 9250   1.749   2.260   1.602
 2784SOL    HW1 9251   1.754   2.182   1.539
 2784SOL    HW2 9252   1.694   2.236   1.681
 2785SOL     OW 9253   6.572   0.526   0.337
 2785SOL    HW1 9254   6.562   0.450   0.272
 2785SOL    HW2 9255   6.492   0.585   0.331
 2786SOL     OW 9256   3.874   6.380   0.906
 2786SOL    HW1 9257   3.790   6.434   0.900
 2786SOL    HW2 9258   3.941   6.429   0.963
 2787SOL     OW 9259   2.148   2.744   5.931
 2787SOL    HW1 9260   2.049   2.736   5.927
 2787SOL    HW2 9261   2.183   2.782   5.845
 2788SOL     OW 9262   2.703   4.343   0.941
 2788SOL    HW1 9263   2.733   4.400   1.017
 2788SOL    HW2 9264   2.655   4.263   0.976
 2789SOL     OW 9265   0.987   1.862   4.273
 2789SOL    HW1 9266   0.944   1.882   4.185
 2789SOL    HW2 9267   1.082   1.834   4.257
 2790SOL     OW 9268   3.719   4.956   2.921
 2790SOL    HW1 9269   3.626   4.957   2.957
 2790SOL    HW2 9270   3.766   5.040   2.947
 2791SOL     OW 9271   1.338   3.451   4.760
 2791SOL    HW1 9272   1.242   3.424   4.768
 2791SOL    HW2 9273   1.393   3.395   4.823
 2792SOL     OW 9274   0.452   0.895   5.040
 2792SOL    HW1 9275   0.455   0.895   5.140
 2792SOL    HW2 9276   0.430   0.987   5.007
 2793SOL     OW 9277   5.373   1.668   2.729
 2793SOL    HW1 9278   5.312   1.598   2.766
 2793SOL    HW2 9279   5.327   1.719   2.657
 2794SOL     OW 9280   0.060   1.144   0.458
 2794SOL    HW1 9281   6.990   1.141   0.428
 2794SOL    HW2 9282   0.105   1.057   0.435
 2795SOL     OW 9283   2.986   3.900   1.396
 2795SOL    HW1 9284   3.029   3.943   1.317
 2795SOL    HW2 9285   3.054   3.843   1.444
 2796SOL     OW 9286   5.843   4.239   2.907
 2796SOL    HW1 9287   5.863   4.154   2.859
 2796SOL    HW2 9288   5.878   4.316   2.853
 2797SOL     OW 9289   4.723   5.449   5.032
 2797SOL    HW1 9290   4.665   5.526   5.057
 2797SOL    HW2 9291   4.803   5.446   5.093
 2798SOL     OW 9292   0.891   3.200   3.375
 2798SOL    HW1 9293   0.833   3.163   3.447
 2798SOL    HW2 9294   0.851   3.283   3.339
 2799SOL     OW 9295   6.544   5.125   6.170
 2799SOL    HW1 9296   6.616   5.133   6.101
 2799SOL    HW2 9297   6.555   5.198   6.238
 2800SOL     OW 9298   3.060   5.136   6.603
 2800SOL    HW1 9299   3.157   5.120   6.624
 2800SOL    HW2 9300   3.015   5.049   6.584
 2801SOL     OW 9301   4.993   5.548   2.294
 2801SOL    HW1 9302   5.010   5.641   2.327
 2801SOL    HW2 9303   4.931   5.501   2.356
 2802SOL     OW 9304   3.991   1.855   5.921
 2802SOL    HW1 9305   3.934   1.936   5.908
 2802SOL    HW2 9306   4.077   1.880   5.964
 2803SOL     OW 9307   2.439   6.666   6.115
 2803SOL    HW1 9308   2.379   6.593   6.147
 2803SOL    HW2 9309   2.384   6.745   6.086
 2804SOL     OW 9310   6.476   4.798   3.558
 2804SOL    HW1 9311   6.501   4.839   3.470
 2804SOL    HW2 9312   6.559   4.783   3.613
 2805SOL     OW 9313   5.215   3.103   1.064
 2805SOL    HW1 9314   5.245   3.100   1.160
 2805SOL    HW2 9315   5.116   3.108   1.061
 2806SOL     OW 9316   6.417   5.433   2.976
 2806SOL    HW1 9317   6.437   5.475   3.064
 2806SOL    HW2 9318   6.497   5.443   2.916
 2807SOL     OW 9319   3.856   4.843   3.529
 2807SOL    HW1 9320   3.864   4.930   3.481
 2807SOL    HW2 9321   3.846   4.769   3.461
 2808SOL     OW 9322   5.362   1.329   3.704
 2808SOL    HW1 9323   5.457   1.357   3.691
 2808SOL    HW2 9324   5.302   1.407   3.686
 2809SOL     OW 9325   5.949   2.606   0.985
 2809SOL    HW1 9326   6.040   2.599   1.027
 2809SOL    HW2 9327   5.951   2.674   0.912
 2810SOL     OW 9328   2.487   0.221   5.193
 2810SOL    HW1 9329   2.495   0.139   5.137
 2810SOL    HW2 9330   2.390   0.244   5.205
 2811SOL     OW 9331   0.659   1.133   3.061
 2811SOL    HW1 9332   0.604   1.100   3.138
 2811SOL    HW2 9333   0.754   1.144   3.091
 2812SOL     OW 9334   5.152   3.738   2.686
 2812SOL    HW1 9335   5.175   3.662   2.747
 2812SOL    HW2 9336   5.198   3.727   2.599
 2813SOL     OW 9337   5.690   6.685   6.103
 2813SOL    HW1 9338   5.768   6.648   6.055
 2813SOL    HW2 9339   5.721   6.748   6.175
 2814SOL     OW 9340   4.238   3.894   5.785
 2814SOL    HW1 9341   4.328   3.882   5.743
 2814SOL    HW2 9342   4.215   3.991   5.789
 2815SOL     OW 9343   6.870   1.041   4.695
 2815SOL    HW1 9344   6.896   1.137   4.684
 2815SOL    HW2 9345   6.864   1.018   4.792
 2816SOL     OW 9346   5.956   0.289   3.789
 2816SOL    HW1 9347   5.974   0.249   3.879
 2816SOL    HW2 9348   5.933   0.216   3.724
 2817SOL     OW 9349   1.777   1.148   1.826
 2817SOL    HW1 9350   1.872   1.169   1.849
 2817SOL    HW2 9351   1.719   1.169   1.904
 2818SOL     OW 9352   6.734   4.525   6.201
 2818SOL    HW1 9353   6.762   4.529   6.297
 2818SOL    HW2 9354   6.689   4.437   6.183
 2819SOL     OW 9355   0.342   3.191   0.201
 2819SOL    HW1 9356   0.367   3.124   0.131
 2819SOL    HW2 9357   0.313   3.276   0.157
 2820SOL     OW 9358   0.123   2.616   2.840
 2820SOL    HW1 9359   0.063   2.693   2.820
 2820SOL    HW2 9360   0.147   2.617   2.937
 2821SOL     OW 9361   1.671   4.627   5.147
 2821SOL    HW1 9362   1.722   4.710   5.125
 2821SOL    HW2 9363   1.730   4.548   5.134
 2822SOL     OW 9364   5.075   2.195   0.092
 2822SOL    HW1 9365   5.124   2.118   0.052
 2822SOL    HW2 9366   5.113   2.216   0.182
 2823SOL     OW 9367   2.371   6.807   2.217
 2823SOL    HW1 9368   2.287   6.803   2.271
 2823SOL    HW2 9369   2.350   6.839   2.125
 2824SOL     OW 9370   2.709   1.639   5.421
 2824SOL    HW1 9371   2.752   1.730   5.415
 2824SOL    HW2 9372   2.622   1.641   5.372
 2825SOL     OW 9373   6.820   6.728   1.055
 2825SOL    HW1 9374   6.728   6.754   1.086
 2825SOL    HW2 9375   6.813   6.663   0.979
 2826SOL     OW 9376   5.019   2.053   5.223
 2826SOL    HW1 9377   5.030   2.139   5.173
 2826SOL    HW2 9378   4.964   2.068   5.305
 2827SOL     OW 9379   6.029   1.107   4.921
 2827SOL    HW1 9380   5.946   1.054   4.938
 2827SOL    HW2 9381   6.069   1.136   5.008
 2828SOL     OW 9382   4.074   0.645   5.910
 2828SOL    HW1 9383   4.165   0.631   5.872
 2828SOL    HW2 9384   4.043   0.738   5.889
 2829SOL     OW 9385   3.486   6.501   6.190
 2829SOL    HW1 9386   3.564   6.489   6.129
 2829SOL    HW2 9387   3.405   6.459   6.149
 2830SOL     OW 9388   4.774   3.227   6.317
 2830SOL    HW1 9389   4.776   3.197   6.222
 2830SOL    HW2 9390   4.693   3.190   6.362
 2831SOL     OW 9391   5.680   6.233   4.111
 2831SOL    HW1 9392   5.644   6.280   4.030
 2831SOL    HW2 9393   5.667   6.291   4.191
 2832SOL     OW 9394   0.306   1.184   1.558
 2832SOL    HW1 9395   0.289   1.094   1.518
 2832SOL    HW2 9396   0.348   1.244   1.490
 2833SOL     OW 9397   5.997   2.305   1.996
 2833SOL    HW1 9398   5.979   2.215   1.958
 2833SOL    HW2 9399   5.965   2.375   1.932
 2834SOL     OW 9400   3.603   1.801   6.026
 2834SOL    HW1 9401   3.533   1.827   6.091
 2834SOL    HW2 9402   3.624   1.704   6.037
 2835SOL     OW 9403   0.624   6.603   2.417
 2835SOL    HW1 9404   0.668   6.529   2.468
 2835SOL    HW2 9405   0.682   6.684   2.418
 2836SOL     OW 9406   0.117   6.742   1.896
 2836SOL    HW1 9407   0.138   6.705   1.806
 2836SOL    HW2 9408   0.032   6.795   1.892
 2837SOL     OW 9409   5.463   3.790   3.620
 2837SOL    HW1 9410   5.481   3.824   3.712
 2837SOL    HW2 9411   5.424   3.698   3.626
 2838SOL     OW 9412   2.612   4.760   1.813
 2838SOL    HW1 9413   2.580   4.842   1.862
 2838SOL    HW2 9414   2.683   4.715   1.867
 2839SOL     OW 9415   6.077   1.778   1.452
 2839SOL    HW1 9416   6.088   1.718   1.531
 2839SOL    HW2 9417   6.080   1.725   1.368
 2840SOL     OW 9418   6.945   1.471   5.404
 2840SOL    HW1 9419   6.944   1.560   5.450
 2840SOL    HW2 9420   7.005   1.475   5.324
 2841SOL     OW 9421   1.176   5.676   1.202
 2841SOL    HW1 9422   1.218   5.590   1.175
 2841SOL    HW2 9423   1.193   5.693   1.299
 2842SOL     OW 9424   6.684   3.398   3.703
 2842SOL    HW1 9425   6.620   3.468   3.670
 2842SOL    HW2 9426   6.753   3.380   3.634
 2843SOL     OW 9427   3.582   1.067   5.170
 2843SOL    HW1 9428   3.578   0.976   5.130
 2843SOL    HW2 9429   3.581   1.060   5.270
 2844SOL     OW 9430   1.356   4.237   6.931
 2844SOL    HW1 9431   1.265   4.203   6.908
 2844SOL    HW2 9432   1.419   4.160   6.940
 2845SOL     OW 9433   0.689   3.939   6.717
 2845SOL    HW1 9434   0.621   3.977   6.653
 2845SOL    HW2 9435   0.644   3.913   6.802
 2846SOL     OW 9436   4.839   1.276   6.796
 2846SOL    HW1 9437   4.842   1.361   6.849
 2846SOL    HW2 9438   4.825   1.298   6.699
 2847SOL     OW 9439   6.269   4.309   3.676
 2847SOL    HW1 9440   6.169   4.313   3.673
 2847SOL    HW2 9441   6.306   4.401   3.680
 2848SOL     OW 9442   0.571   4.922   5.102
 2848SOL    HW1 9443   0.543   4.868   5.022
 2848SOL    HW2 9444   0.644   4.874   5.151
 2849SOL     OW 9445   2.869   1.882   0.492
 2849SOL    HW1 9446   2.805   1.944   0.447
 2849SOL    HW2 9447   2.899   1.921   0.579
 2850SOL     OW 9448   3.476   0.372   1.186
 2850SOL    HW1 9449   3.564   0.342   1.222
 2850SOL    HW2 9450   3.432   0.296   1.138
 2851SOL     OW 9451   0.897   4.335   5.782
 2851SOL    HW1 9452   0.922   4.273   5.856
 2851SOL    HW2 9453   0.910   4.289   5.694
 2852SOL     OW 9454   6.426   3.297   6.684
 2852SOL    HW1 9455   6.432   3.230   6.758
 2852SOL    HW2 9456   6.414   3.389   6.723
 2853SOL     OW 9457   3.567   2.604   1.089
 2853SOL    HW1 9458   3.595   2.523   1.141
 2853SOL    HW2 9459   3.537   2.576   0.997
 2854SOL     OW 9460   2.480   0.583   4.302
 2854SOL    HW1 9461   2.475   0.680   4.328
 2854SOL    HW2 9462   2.388   0.544   4.303
 2855SOL     OW 9463   1.959   0.736   5.386
 2855SOL    HW1 9464   1.871   0.736   5.434
 2855SOL    HW2 9465   1.944   0.760   5.290
 2856SOL     OW 9466   2.474   2.778   5.257
 2856SOL    HW1 9467   2.382   2.763   5.294
 2856SOL    HW2 9468   2.487   2.876   5.240
 2857SOL     OW 9469   2.654   2.356   1.449
 2857SOL    HW1 9470   2.629   2.290   1.379
 2857SOL    HW2 9471   2.726   2.416   1.415
 2858SOL     OW 9472   6.300   2.653   2.670
 2858SOL    HW1 9473   6.296   2.581   2.600
 2858SOL    HW2 9474   6.224   2.717   2.657
 2859SOL     OW 9475   5.160   1.191   0.714
 2859SOL    HW1 9476   5.085   1.129   0.691
 2859SOL    HW2 9477   5.209   1.156   0.794
 2860SOL     OW 9478   3.918   1.936   1.712
 2860SOL    HW1 9479   3.924   2.004   1.639
 2860SOL    HW2 9480   3.825   1.935   1.749
 2861SOL     OW 9481   3.766   5.667   5.394
 2861SOL    HW1 9482   3.851   5.672   5.342
 2861SOL    HW2 9483   3.723   5.578   5.378
 2862SOL     OW 9484   5.244   1.098   3.673
 2862SOL    HW1 9485   5.275   1.193   3.675
 2862SOL    HW2 9486   5.253   1.062   3.581
 2863SOL     OW 9487   6.292   2.234   7.010
 2863SOL    HW1 9488   6.236   2.234   6.927
 2863SOL    HW2 9489   6.387   2.214   6.986
 2864SOL     OW 9490   4.092   0.504   1.479
 2864SOL    HW1 9491   4.056   0.457   1.560
 2864SOL    HW2 9492   4.102   0.602   1.500
 2865SOL     OW 9493   4.428   4.284   5.301
 2865SOL    HW1 9494   4.350   4.332   5.260
 2865SOL    HW2 9495   4.512   4.318   5.260
 2866SOL     OW 9496   0.046   5.745   6.676
 2866SOL    HW1 9497   0.045   5.820   6.610
 2866SOL    HW2 9498   7.008   5.674   6.648
 2867SOL     OW 9499   5.976   5.038   2.737
 2867SOL    HW1 9500   6.037   4.974   2.691
 2867SOL    HW2 9501   5.989   5.130   2.698
 2868SOL     OW 9502   1.029   4.288   5.351
 2868SOL    HW1 9503   1.008   4.385   5.340
 2868SOL    HW2 9504   1.020   4.242   5.263
 2869SOL     OW 9505   6.149   0.391   2.358
 2869SOL    HW1 9506   6.080   0.463   2.351
 2869SOL    HW2 9507   6.138   0.343   2.446
 2870SOL     OW 9508   6.384   2.313   3.508
 2870SOL    HW1 9509   6.466   2.312   3.565
 2870SOL    HW2 9510   6.407   2.347   3.417
 2871SOL     OW 9511   1.851   1.796   6.505
 2871SOL    HW1 9512   1.864   1.745   6.420
 2871SOL    HW2 9513   1.769   1.853   6.497
 2872SOL     OW 9514   2.603   0.510   4.079
 2872SOL    HW1 9515   2.556   0.554   4.156
 2872SOL    HW2 9516   2.691   0.474   4.111
 2873SOL     OW 9517   1.109   5.772   2.658
 2873SOL    HW1 9518   1.150   5.764   2.749
 2873SOL    HW2 9519   1.174   5.740   2.589
 2874SOL     OW 9520   5.381   4.182   2.310
 2874SOL    HW1 9521   5.397   4.084   2.318
 2874SOL    HW2 9522   5.368   4.221   2.402
 2875SOL     OW 9523   3.684   6.147   5.978
 2875SOL    HW1 9524   3.642   6.106   5.896
 2875SOL    HW2 9525   3.761   6.091   6.008
 2876SOL     OW 9526   0.594   0.943   1.323
 2876SOL    HW1 9527   0.586   0.880   1.245
 2876SOL    HW2 9528   0.642   0.897   1.398
 2877SOL     OW 9529   3.052   2.851   5.348
 2877SOL    HW1 9530   3.026   2.940   5.311
 2877SOL    HW2 9531   3.121   2.809   5.290
 2878SOL     OW 9532   2.448   4.533   4.860
 2878SOL    HW1 9533   2.507   4.595   4.912
 2878SOL    HW2 9534   2.474   4.536   4.763
 2879SOL     OW 9535   4.959   4.830   0.070
 2879SOL    HW1 9536   5.011   4.813   0.154
 2879SOL    HW2 9537   4.886   4.895   0.089
 2880SOL     OW 9538   0.822   6.203   1.263
 2880SOL    HW1 9539   0.813   6.136   1.189
 2880SOL    HW2 9540   0.887   6.169   1.331
 2881SOL     OW 9541   6.402   5.999   0.718
 2881SOL    HW1 9542   6.321   6.034   0.670
 2881SOL    HW2 9543   6.396   5.899   0.724
 2882SOL     OW 9544   6.920   3.205   2.072
 2882SOL    HW1 9545   7.010   3.210   2.028
 2882SOL    HW2 9546   6.922   3.255   2.158
 2883SOL     OW 9547   3.570   6.894   2.857
 2883SOL    HW1 9548   3.622   6.870   2.938
 2883SOL    HW2 9549   3.626   6.878   2.775
 2884SOL     OW 9550   0.881   6.300   2.923
 2884SOL    HW1 9551   0.804   6.287   2.985
 2884SOL    HW2 9552   0.900   6.215   2.875
 2885SOL     OW 9553   0.334   2.228   2.620
 2885SOL    HW1 9554   0.293   2.307   2.665
 2885SOL    HW2 9555   0.429   2.249   2.596
 2886SOL     OW 9556   1.854   2.059   6.830
 2886SOL    HW1 9557   1.849   1.968   6.870
 2886SOL    HW2 9558   1.762   2.095   6.817
 2887SOL     OW 9559   2.006   0.256   4.854
 2887SOL    HW1 9560   1.941   0.225   4.786
 2887SOL    HW2 9561   2.071   0.183   4.875
 2888SOL     OW 9562   6.651   4.723   6.823
 2888SOL    HW1 9563   6.675   4.740   6.919
 2888SOL    HW2 9564   6.643   4.624   6.809
 2889SOL     OW 9565   0.717   0.724   1.813
 2889SOL    HW1 9566   0.695   0.769   1.900
 2889SOL    HW2 9567   0.800   0.765   1.774
 2890SOL     OW 9568   3.525   0.616   1.393
 2890SOL    HW1 9569   3.558   0.697   1.343
 2890SOL    HW2 9570   3.597   0.546   1.393
 2891SOL     OW 9571   1.828   4.088   3.911
 2891SOL    HW1 9572   1.831   4.188   3.914
 2891SOL    HW2 9573   1.826   4.058   3.815
 2892SOL     OW 9574   3.834   4.144   6.475
 2892SOL    HW1 9575   3.784   4.086   6.539
 2892SOL    HW2 9576   3.777   4.222   6.449
 2893SOL     OW 9577   2.816   6.906   5.254
 2893SOL    HW1 9578   2.852   6.853   5.177
 2893SOL    HW2 9579   2.867   6.992   5.262
 2894SOL     OW 9580   2.834   3.129   0.375
 2894SOL    HW1 9581   2.754   3.076   0.347
 2894SOL    HW2 9582   2.838   3.213   0.321
 2895SOL     OW 9583   4.018   3.079   6.656
 2895SOL    HW1 9584   3.941   3.054   6.597
 2895SOL    HW2 9585   4.006   3.037   6.746
 2896SOL     OW 9586   2.419   5.496   6.898
 2896SOL    HW1 9587   2.514   5.486   6.926
 2896SOL    HW2 9588   2.372   5.408   6.910
 2897SOL     OW 9589   2.519   6.020   3.426
 2897SOL    HW1 9590   2.616   6.036   3.405
 2897SOL    HW2 9591   2.511   5.976   3.515
 2898SOL     OW 9592   4.728   5.420   2.146
 2898SOL    HW1 9593   4.758   5.440   2.239
 2898SOL    HW2 9594   4.664   5.343   2.147
 2899SOL     OW 9595   0.092   0.003   6.685
 2899SOL    HW1 9596   0.056   6.963   6.751
 2899SOL    HW2 9597   0.106   0.091   6.730
 2900SOL     OW 9598   1.159   5.287   5.677
 2900SOL    HW1 9599   1.254   5.290   5.645
 2900SOL    HW2 9600   1.155   5.320   5.772
 2901SOL     OW 9601   2.944   0.636   2.606
 2901SOL    HW1 9602   2.856   0.602   2.639
 2901SOL    HW2 9603   2.967   0.589   2.520
 2902SOL     OW 9604   5.243   6.566   0.791
 2902SOL    HW1 9605   5.325   6.557   0.734
 2902SOL    HW2 9606   5.229   6.483   0.844
 2903SOL     OW 9607   2.534   1.035   2.014
 2903SOL    HW1 9608   2.604   1.104   1.995
 2903SOL    HW2 9609   2.501   0.996   1.928
 2904SOL     OW 9610   2.211   3.308   5.197
 2904SOL    HW1 9611   2.121   3.314   5.153
 2904SOL    HW2 9612   2.266   3.239   5.150
 2905SOL     OW 9613   1.329   1.193   2.039
 2905SOL    HW1 9614   1.334   1.095   2.019
 2905SOL    HW2 9615   1.363   1.210   2.132
 2906SOL     OW 9616   5.311   5.171   2.344
 2906SOL    HW1 9617   5.240   5.238   2.366
 2906SOL    HW2 9618   5.398   5.202   2.382
 2907SOL     OW 9619   0.348   2.101   5.278
 2907SOL    HW1 9620   0.344   2.001   5.275
 2907SOL    HW2 9621   0.432   2.130   5.324
 2908SOL     OW 9622   4.524   6.365   4.397
 2908SOL    HW1 9623   4.460   6.314   4.455
 2908SOL    HW2 9624   4.487   6.372   4.304
 2909SOL     OW 9625   1.469   5.546   4.534
 2909SOL    HW1 9626   1.440   5.604   4.458
 2909SOL    HW2 9627   1.554   5.581   4.572
 2910SOL     OW 9628   3.886   6.575   5.010
 2910SOL    HW1 9629   3.860   6.554   5.104
 2910SOL    HW2 9630   3.869   6.495   4.952
 2911SOL     OW 9631   2.191   4.527   3.531
 2911SOL    HW1 9632   2.142   4.498   3.613
 2911SOL    HW2 9633   2.208   4.447   3.473
 2912SOL     OW 9634   2.750   5.940   0.071
 2912SOL    HW1 9635   2.745   5.848   0.110
 2912SOL    HW2 9636   2.824   5.991   0.115
 2913SOL     OW 9637   1.349   3.583   2.198
 2913SOL    HW1 9638   1.434   3.530   2.189
 2913SOL    HW2 9639   1.372   3.680   2.209
 2914SOL     OW 9640   5.521   4.642   5.952
 2914SOL    HW1 9641   5.552   4.623   5.859
 2914SOL    HW2 9642   5.555   4.570   6.013
 2915SOL     OW 9643   4.323   1.120   4.293
 2915SOL    HW1 9644   4.225   1.106   4.283
 2915SOL    HW2 9645   4.340   1.191   4.362
 2916SOL     OW 9646   6.172   4.809   5.169
 2916SOL    HW1 9647   6.191   4.873   5.095
 2916SOL    HW2 9648   6.106   4.849   5.233
 2917SOL     OW 9649   4.459   0.045   1.276
 2917SOL    HW1 9650   4.549   0.085   1.260
 2917SOL    HW2 9651   4.423   0.077   1.363
 2918SOL     OW 9652   0.552   4.106   3.421
 2918SOL    HW1 9653   0.605   4.152   3.350
 2918SOL    HW2 9654   0.520   4.018   3.386
 2919SOL     OW 9655   6.235   6.520   0.611
 2919SOL    HW1 9656   6.260   6.509   0.707
 2919SOL    HW2 9657   6.273   6.444   0.558
 2920SOL     OW 9658   4.143   2.290   2.452
 2920SOL    HW1 9659   4.160   2.222   2.381
 2920SOL    HW2 9660   4.096   2.369   2.414
 2921SOL     OW 9661   0.345   1.268   2.992
 2921SOL    HW1 9662   0.399   1.215   3.057
 2921SOL    HW2 9663   0.328   1.359   3.030
 2922SOL     OW 9664   4.912   0.068   5.505
 2922SOL    HW1 9665   4.921   0.145   5.569
 2922SOL    HW2 9666   4.963   0.088   5.421
 2923SOL     OW 9667   6.698   4.881   2.117
 2923SOL    HW1 9668   6.791   4.905   2.145
 2923SOL    HW2 9669   6.643   4.964   2.107
 2924SOL     OW 9670   0.658   1.184   5.479
 2924SOL    HW1 9671   0.734   1.139   5.432
 2924SOL    HW2 9672   0.671   1.283   5.475
 2925SOL     OW 9673   5.238   2.988   1.598
 2925SOL    HW1 9674   5.169   3.060   1.610
 2925SOL    HW2 9675   5.219   2.913   1.661
 2926SOL     OW 9676   6.958   1.792   4.782
 2926SOL    HW1 9677   6.941   1.891   4.776
 2926SOL    HW2 9678   6.875   1.743   4.754
 2927SOL     OW 9679   1.272   2.568   2.305
 2927SOL    HW1 9680   1.271   2.535   2.399
 2927SOL    HW2 9681   1.321   2.503   2.247
 2928SOL     OW 9682   6.802   0.351   6.857
 2928SOL    HW1 9683   6.793   0.320   6.952
 2928SOL    HW2 9684   6.766   0.281   6.796
 2929SOL     OW 9685   0.806   0.522   6.742
 2929SOL    HW1 9686   0.822   0.594   6.809
 2929SOL    HW2 9687   0.882   0.457   6.744
 2930SOL     OW 9688   5.350   0.551   4.789
 2930SOL    HW1 9689   5.295   0.635   4.794
 2930SOL    HW2 9690   5.302   0.477   4.835
 2931SOL     OW 9691   4.852   6.388   6.332
 2931SOL    HW1 9692   4.777   6.450   6.351
 2931SOL    HW2 9693   4.882   6.400   6.237
 2932SOL     OW 9694   1.032   4.109   1.485
 2932SOL    HW1 9695   1.099   4.084   1.555
 2932SOL    HW2 9696   1.080   4.145   1.405
 2933SOL     OW 9697   5.183   2.982   3.726
 2933SOL    HW1 9698   5.214   2.887   3.736
 2933SOL    HW2 9699   5.088   2.983   3.694
 2934SOL     OW 9700   3.203   0.194   0.278
 2934SOL    HW1 9701   3.226   0.103   0.243
 2934SOL    HW2 9702   3.154   0.246   0.208
 2935SOL     OW 9703   6.322   3.912   1.108
 2935SOL    HW1 9704   6.316   3.865   1.020
 2935SOL    HW2 9705   6.333   3.845   1.181
 2936SOL     OW 9706   4.923   5.635   0.267
 2936SOL    HW1 9707   4.855   5.705   0.288
 2936SOL    HW2 9708   4.882   5.563   0.212
 2937SOL     OW 9709   3.631   5.489   0.894
 2937SOL    HW1 9710   3.616   5.543   0.811
 2937SOL    HW2 9711   3.629   5.392   0.871
 2938SOL     OW 9712   4.880   5.805   5.630
 2938SOL    HW1 9713   4.886   5.884   5.568
 2938SOL    HW2 9714   4.789   5.764   5.622
 2939SOL     OW 9715   5.869   6.817   5.287
 2939SOL    HW1 9716   5.965   6.830   5.263
 2939SOL    HW2 9717   5.811   6.864   5.220
 2940SOL     OW 9718   5.517   0.116   5.246
 2940SOL    HW1 9719   5.500   0.042   5.310
 2940SOL    HW2 9720   5.555   0.194   5.295
 2941SOL     OW 9721   0.764   2.003   5.102
 2941SOL    HW1 9722   0.732   1.952   5.182
 2941SOL    HW2 9723   0.686   2.037   5.051
 2942SOL     OW 9724   3.485   0.631   2.225
 2942SOL    HW1 9725   3.532   0.623   2.138
 2942SOL    HW2 9726   3.451   0.542   2.253
 2943SOL     OW 9727   5.887   3.483   3.094
 2943SOL    HW1 9728   5.971   3.538   3.093
 2943SOL    HW2 9729   5.884   3.426   3.013
 2944SOL     OW 9730   3.562   4.977   4.769
 2944SOL    HW1 9731   3.541   4.945   4.861
 2944SOL    HW2 9732   3.493   5.043   4.740
 2945SOL     OW 9733   3.332   3.544   3.577
 2945SOL    HW1 9734   3.313   3.597   3.659
 2945SOL    HW2 9735   3.420   3.498   3.586
 2946SOL     OW 9736   6.854   5.931   5.891
 2946SOL    HW1 9737   6.861   6.011   5.831
 2946SOL    HW2 9738   6.848   5.848   5.836
 2947SOL     OW 9739   6.842   3.749   6.604
 2947SOL    HW1 9740   6.750   3.712   6.586
 2947SOL    HW2 9741   6.879   3.786   6.519
 2948SOL     OW 9742   6.157   3.997   5.185
 2948SOL    HW1 9743   6.077   3.987   5.246
 2948SOL    HW2 9744   6.187   4.092   5.185
 2949SOL     OW 9745   1.816   6.789   0.948
 2949SOL    HW1 9746   1.889   6.800   1.017
 2949SOL    HW2 9747   1.786   6.694   0.946
 2950SOL     OW 9748   6.135   3.558   4.328
 2950SOL    HW1 9749   6.060   3.623   4.341
 2950SOL    HW2 9750   6.169   3.529   4.418
 2951SOL     OW 9751   0.220   1.514   0.457
 2951SOL    HW1 9752   0.172   1.447   0.515
 2951SOL    HW2 9753   0.310   1.534   0.497
 2952SOL     OW 9754   1.274   4.430   3.172
 2952SOL    HW1 9755   1.200   4.496   3.181
 2952SOL    HW2 9756   1.243   4.340   3.204
 2953SOL     OW 9757   4.541   2.029   1.988
 2953SOL    HW1 9758   4.595   1.958   1.943
 2953SOL    HW2 9759   4.600   2.084   2.048
 2954SOL     OW 9760   0.176   6.711   2.743
 2954SOL    HW1 9761   0.191   6.724   2.645
 2954SOL    HW2 9762   0.205   6.793   2.792
 2955SOL     OW 9763   0.758   3.318   0.736
 2955SOL    HW1 9764   0.845   3.350   0.773
 2955SOL    HW2 9765   0.758   3.328   0.637
 2956SOL     OW 9766   0.392   5.164   3.291
 2956SOL    HW1 9767   0.413   5.257   3.259
 2956SOL    HW2 9768   0.435   5.098   3.231
 2957SOL     OW 9769   0.055   3.873   1.332
 2957SOL    HW1 9770   0.011   3.926   1.259
 2957SOL    HW2 9771   7.011   3.828   1.388
 2958SOL     OW 9772   1.548   4.398   5.655
 2958SOL    HW1 9773   1.460   4.421   5.613
 2958SOL    HW2 9774   1.589   4.480   5.693
 2959SOL     OW 9775   4.890   4.766   6.139
 2959SOL    HW1 9776   4.905   4.859   6.107
 2959SOL    HW2 9777   4.881   4.705   6.060
 2960SOL     OW 9778   2.660   2.200   6.924
 2960SOL    HW1 9779   2.649   2.299   6.931
 2960SOL    HW2 9780   2.637   2.158   7.012
 2961SOL     OW 9781   5.824   3.443   4.252
 2961SOL    HW1 9782   5.917   3.461   4.282
 2961SOL    HW2 9783   5.777   3.529   4.232
 2962SOL     OW 9784   4.416   1.064   3.372
 2962SOL    HW1 9785   4.496   1.037   3.427
 2962SOL    HW2 9786   4.359   1.127   3.425
 2963SOL     OW 9787   1.814   0.991   5.425
 2963SOL    HW1 9788   1.868   0.947   5.354
 2963SOL    HW2 9789   1.789   1.083   5.395
 2964SOL     OW 9790   1.818   6.201   1.809
 2964SOL    HW1 9791   1.806   6.299   1.823
 2964SOL    HW2 9792   1.913   6.175   1.830
 2965SOL     OW 9793   0.317   1.091   5.606
 2965SOL    HW1 9794   0.309   1.150   5.526
 2965SOL    HW2 9795   0.304   0.995   5.579
 2966SOL     OW 9796   5.293   4.676   3.919
 2966SOL    HW1 9797   5.278   4.742   3.993
 2966SOL    HW2 9798   5.229   4.600   3.929
 2967SOL     OW 9799   5.501   2.492   3.916
 2967SOL    HW1 9800   5.565   2.563   3.944
 2967SOL    HW2 9801   5.510   2.476   3.817
 2968SOL     OW 9802   0.857   3.777   4.145
 2968SOL    HW1 9803   0.776   3.803   4.198
 2968SOL    HW2 9804   0.937   3.778   4.205
 2969SOL     OW 9805   5.921   1.951   4.912
 2969SOL    HW1 9806   5.964   2.029   4.867
 2969SOL    HW2 9807   5.979   1.870   4.900
 2970SOL     OW 9808   0.928   4.460   6.193
 2970SOL    HW1 9809   0.943   4.551   6.155
 2970SOL    HW2 9810   0.864   4.466   6.269
 2971SOL     OW 9811   5.770   3.131   3.684
 2971SOL    HW1 9812   5.759   3.176   3.595
 2971SOL    HW2 9813   5.725   3.185   3.755
 2972SOL     OW 9814   6.446   3.448   6.203
 2972SOL    HW1 9815   6.477   3.438   6.298
 2972SOL    HW2 9816   6.347   3.441   6.199
 2973SOL     OW 9817   5.206   0.088   3.472
 2973SOL    HW1 9818   5.230   0.107   3.377
 2973SOL    HW2 9819   5.286   0.050   3.519
 2974SOL     OW 9820   6.845   4.690   2.708
 2974SOL    HW1 9821   6.780   4.747   2.758
 2974SOL    HW2 9822   6.923   4.745   2.680
 2975SOL     OW 9823   0.389   1.184   5.367
 2975SOL    HW1 9824   0.487   1.177   5.387
 2975SOL    HW2 9825   0.362   1.280   5.367
 2976SOL     OW 9826   4.231   1.388   2.409
 2976SOL    HW1 9827   4.189   1.458   2.466
 2976SOL    HW2 9828   4.323   1.416   2.383
 2977SOL     OW 9829   2.606   6.651   4.104
 2977SOL    HW1 9830   2.578   6.717   4.034
 2977SOL    HW2 9831   2.538   6.648   4.176
 2978SOL     OW 9832   4.782   5.150   0.293
 2978SOL    HW1 9833   4.772   5.087   0.216
 2978SOL    HW2 9834   4.792   5.098   0.378
 2979SOL     OW 9835   3.853   0.331   2.931
 2979SOL    HW1 9836   3.759   0.322   2.964
 2979SOL    HW2 9837   3.916   0.288   2.995
 2980SOL     OW 9838   1.022   6.500   4.268
 2980SOL    HW1 9839   1.107   6.551   4.255
 2980SOL    HW2 9840   0.991   6.465   4.180
 2981SOL     OW 9841   1.344   1.051   5.796
 2981SOL    HW1 9842   1.326   0.962   5.754
 2981SOL    HW2 9843   1.442   1.068   5.799
 2982SOL     OW 9844   4.319   5.816   2.530
 2982SOL    HW1 9845   4.343   5.751   2.457
 2982SOL    HW2 9846   4.402   5.845   2.577
 2983SOL     OW 9847   6.763   0.815   4.587
 2983SOL    HW1 9848   6.695   0.823   4.514
 2983SOL    HW2 9849   6.794   0.906   4.614
 2984SOL     OW 9850   6.245   5.300   1.816
 2984SOL    HW1 9851   6.337   5.263   1.832
 2984SOL    HW2 9852   6.180   5.224   1.808
 2985SOL     OW 9853   0.548   2.160   4.214
 2985SOL    HW1 9854   0.519   2.075   4.257
 2985SOL    HW2 9855   0.557   2.231   4.284
 2986SOL     OW 9856   1.643   3.550   4.798
 2986SOL    HW1 9857   1.601   3.586   4.715
 2986SOL    HW2 9858   1.616   3.605   4.876
 2987SOL     OW 9859   4.102   1.283   4.668
 2987SOL    HW1 9860   4.043   1.202   4.670
 2987SOL    HW2 9861   4.062   1.351   4.607
 2988SOL     OW 9862   0.904   0.536   1.591
 2988SOL    HW1 9863   0.852   0.556   1.508
 2988SOL    HW2 9864   0.985   0.482   1.567
 2989SOL     OW 9865   6.733   4.874   1.140
 2989SOL    HW1 9866   6.706   4.779   1.160
 2989SOL    HW2 9867   6.658   4.920   1.093
 2990SOL     OW 9868   3.375   1.242   2.520
 2990SOL    HW1 9869   3.285   1.198   2.526
 2990SOL    HW2 9870   3.422   1.213   2.437
 2991SOL     OW 9871   0.492   3.982   0.180
 2991SOL    HW1 9872   0.530   3.977   0.273
 2991SOL    HW2 9873   0.393   3.979   0.185
 2992SOL     OW 9874   3.362   5.723   6.458
 2992SOL    HW1 9875   3.339   5.821   6.456
 2992SOL    HW2 9876   3.384   5.692   6.365
 2993SOL     OW 9877   1.785   4.843   1.502
 2993SOL    HW1 9878   1.791   4.821   1.405
 2993SOL    HW2 9879   1.876   4.841   1.543
 2994SOL     OW 9880   4.868   0.608   0.490
 2994SOL    HW1 9881   4.916   0.655   0.564
 2994SOL    HW2 9882   4.898   0.512   0.486
 2995SOL     OW 9883   1.350   2.202   6.838
 2995SOL    HW1 9884   1.425   2.218   6.903
 2995SOL    HW2 9885   1.263   2.228   6.880
 2996SOL     OW 9886   3.356   5.064   5.496
 2996SOL    HW1 9887   3.301   4.988   5.461
 2996SOL    HW2 9888   3.448   5.060   5.456
 2997SOL     OW 9889   5.477   6.337   1.367
 2997SOL    HW1 9890   5.558   6.285   1.341
 2997SOL    HW2 9891   5.395   6.286   1.341
 2998SOL     OW 9892   5.564   6.354   3.889
 2998SOL    HW1 9893   5.540   6.287   3.818
 2998SOL    HW2 9894   5.607   6.433   3.846
 2999SOL     OW 9895   3.665   6.684   3.243
 2999SOL    HW1 9896   3.656   6.696   3.342
 2999SOL    HW2 9897   3.619   6.758   3.195
 3000SOL     OW 9898   1.377   3.203   5.896
 3000SOL    HW1 9899   1.319   3.204   5.815
 3000SOL    HW2 9900   1.320   3.215   5.977
 3001SOL     OW 9901   4.879   0.696   5.250
 3001SOL    HW1 9902   4.852   0.708   5.154
 3001SOL    HW2 9903   4.935   0.774   5.279
 3002SOL     OW 9904   4.686   6.951   5.596
 3002SOL    HW1 9905   4.761   6.991   5.543
 3002SOL    HW2 9906   4.607   7.012   5.595
 3003SOL     OW 9907   2.645   6.159   5.963
 3003SOL    HW1 9908   2.615   6.147   6.058
 3003SOL    HW2 9909   2.565   6.161   5.903
 3004SOL     OW 9910   6.234   3.741   3.601
 3004SOL    HW1 9911   6.277   3.809   3.661
 3004SOL    HW2 9912   6.292   3.659   3.597
 3005SOL     OW 9913   3.265   3.036   1.337
 3005SOL    HW1 9914   3.330   3.091   1.284
 3005SOL    HW2 9915   3.310   3.000   1.418
 3006SOL     OW 9916   5.795   1.266   1.075
 3006SOL    HW1 9917   5.799   1.357   1.032
 3006SOL    HW2 9918   5.888   1.239   1.103
 3007SOL     OW 9919   6.357   4.761   3.068
 3007SOL    HW1 9920   6.416   4.684   3.044
 3007SOL    HW2 9921   6.277   4.761   3.009
 3008SOL     OW 9922   3.213   6.536   6.385
 3008SOL    HW1 9923   3.184   6.616   6.437
 3008SOL    HW2 9924   3.236   6.564   6.292
 3009SOL     OW 9925   1.158   0.250   2.579
 3009SOL    HW1 9926   1.090   0.259   2.652
 3009SOL    HW2 9927   1.204   0.162   2.588
 3010SOL     OW 9928   3.575   5.557   2.865
 3010SOL    HW1 9929   3.491   5.505   2.849
 3010SOL    HW2 9930   3.620   5.523   2.948
 3011SOL     OW 9931   6.376   0.373   6.770
 3011SOL    HW1 9932   6.421   0.378   6.681
 3011SOL    HW2 9933   6.417   0.300   6.824
 3012SOL     OW 9934   0.134   3.647   3.326
 3012SOL    HW1 9935   0.044   3.690   3.331
 3012SOL    HW2 9936   0.153   3.597   3.411
 3013SOL     OW 9937   6.245   5.549   2.482
 3013SOL    HW1 9938   6.167   5.503   2.438
 3013SOL    HW2 9939   6.257   5.513   2.574
 3014SOL     OW 9940   5.427   1.592   4.146
 3014SOL    HW1 9941   5.414   1.648   4.227
 3014SOL    HW2 9942   5.339   1.572   4.103
 3015SOL     OW 9943   2.403   2.535   0.461
 3015SOL    HW1 9944   2.455   2.536   0.546
 3015SOL    HW2 9945   2.414   2.623   0.414
 3016SOL     OW 9946   3.622   6.471   3.825
 3016SOL    HW1 9947   3.642   6.497   3.919
 3016SOL    HW2 9948   3.592   6.551   3.773
 3017SOL     OW 9949   1.405   6.249   1.499
 3017SOL    HW1 9950   1.461   6.180   1.453
 3017SOL    HW2 9951   1.384   6.218   1.592
 3018SOL     OW 9952   3.918   6.802   6.954
 3018SOL    HW1 9953   3.974   6.784   6.873
 3018SOL    HW2 9954   3.922   6.723   7.016
 3019SOL     OW 9955   3.078   6.120   0.995
 3019SOL    HW1 9956   3.081   6.119   1.094
 3019SOL    HW2 9957   2.996   6.170   0.964
 3020SOL     OW 9958   2.921   3.396   1.549
 3020SOL    HW1 9959   2.956   3.321   1.492
 3020SOL    HW2 9960   2.975   3.401   1.633
 3021SOL     OW 9961   1.708   2.265   6.603
 3021SOL    HW1 9962   1.634   2.330   6.585
 3021SOL    HW2 9963   1.736   2.274   6.699
 3022SOL     OW 9964   4.416   5.983   2.953
 3022SOL    HW1 9965   4.402   6.069   3.003
 3022SOL    HW2 9966   4.327   5.945   2.927
 3023SOL     OW 9967   4.073   5.852   3.735
 3023SOL    HW1 9968   4.138   5.776   3.736
 3023SOL    HW2 9969   4.042   5.870   3.828
 3024SOL     OW 9970   3.298   1.492   0.095
 3024SOL    HW1 9971   3.300   1.432   0.175
 3024SOL    HW2 9972   3.212   1.478   0.045
 3025SOL     OW 9973   2.312   3.255   1.245
 3025SOL    HW1 9974   2.322   3.157   1.232
 3025SOL    HW2 9975   2.243   3.272   1.316
 3026SOL     OW 9976   1.639   3.346   1.090
 3026SOL    HW1 9977   1.675   3.272   1.034
 3026SOL    HW2 9978   1.706   3.370   1.161
 3027SOL     OW 9979   2.809   1.154   2.237
 3027SOL    HW1 9980   2.906   1.157   2.260
 3027SOL    HW2 9981   2.798   1.115   2.146
 3028SOL     OW 9982   1.450   5.283   6.123
 3028SOL    HW1 9983   1.457   5.306   6.220
 3028SOL    HW2 9984   1.446   5.183   6.113
 3029SOL     OW 9985   5.984   5.366   4.646
 3029SOL    HW1 9986   5.915   5.300   4.617
 3029SOL    HW2 9987   6.074   5.325   4.640
 3030SOL     OW 9988   1.175   1.237   5.334
 3030SOL    HW1 9989   1.230   1.226   5.252
 3030SOL    HW2 9990   1.111   1.160   5.342
 3031SOL     OW 9991   0.551   4.137   6.561
 3031SOL    HW1 9992   0.520   4.142   6.466
 3031SOL    HW2 9993   0.632   4.195   6.572
 3032SOL     OW 9994   5.068   0.651   6.850
 3032SOL    HW1 9995   4.995   0.638   6.783
 3032SOL    HW2 9996   5.134   0.577   6.843
 3033SOL     OW 9997   0.321   3.968   6.796
 3033SOL    HW1 9998   0.405   3.933   6.836
 3033SOL    HW2 9999   0.320   4.068   6.802
 3034SOL     OW10000   3.022   6.625   3.779
 3034SOL    HW110001   3.098   6.560   3.783
 3034SOL    HW210002   2.936   6.575   3.780
 3035SOL     OW10003   6.060   1.366   0.117
 3035SOL    HW110004   6.115   1.434   0.166
 3035SOL    HW210005   5.999   1.413   0.054
 3036SOL     OW10006   1.244   3.980   6.563
 3036SOL    HW110007   1.205   3.940   6.646
 3036SOL    HW210008   1.258   4.078   6.577
 3037SOL     OW10009   6.837   5.891   4.918
 3037SOL    HW110010   6.757   5.947   4.897
 3037SOL    HW210011   6.839   5.871   5.016
 3038SOL     OW10012   5.161   0.324   5.967
 3038SOL    HW110013   5.247   0.289   6.005
 3038SOL    HW210014   5.100   0.349   6.042
 3039SOL     OW10015   0.317   4.534   1.596
 3039SOL    HW110016   0.302   4.591   1.677
 3039SOL    HW210017   0.265   4.449   1.605
 3040SOL     OW10018   2.969   3.772   6.692
 3040SOL    HW110019   2.956   3.723   6.606
 3040SOL    HW210020   2.904   3.848   6.697
 3041SOL     OW10021   2.064   2.169   5.159
 3041SOL    HW110022   2.025   2.091   5.110
 3041SOL    HW210023   2.102   2.234   5.093
 3042SOL     OW10024   4.981   0.733   1.901
 3042SOL    HW110025   4.997   0.832   1.909
 3042SOL    HW210026   4.883   0.716   1.890
 3043SOL     OW10027   0.994   5.680   0.224
 3043SOL    HW110028   0.929   5.606   0.240
 3043SOL    HW210029   1.015   5.725   0.310
 3044SOL     OW10030   3.094   3.995   5.650
 3044SOL    HW110031   3.152   3.977   5.571
 3044SOL    HW210032   3.076   3.910   5.699
 3045SOL     OW10033   4.698   1.499   2.627
 3045SOL    HW110034   4.647   1.577   2.590
 3045SOL    HW210035   4.636   1.423   2.644
 3046SOL     OW10036   1.106   3.097   5.746
 3046SOL    HW110037   1.137   3.136   5.660
 3046SOL    HW210038   1.010   3.122   5.761
 3047SOL     OW10039   6.249   6.072   2.713
 3047SOL    HW110040   6.197   6.055   2.630
 3047SOL    HW210041   6.311   5.996   2.731
 3048SOL     OW10042   3.823   3.634   1.390
 3048SOL    HW110043   3.889   3.559   1.385
 3048SOL    HW210044   3.730   3.596   1.397
 3049SOL     OW10045   1.031   0.487   1.845
 3049SOL    HW110046   1.126   0.506   1.820
 3049SOL    HW210047   0.970   0.519   1.772
 3050SOL     OW10048   3.863   5.725   3.603
 3050SOL    HW110049   3.926   5.761   3.672
 3050SOL    HW210050   3.777   5.699   3.647
 3051SOL     OW10051   2.760   5.363   6.558
 3051SOL    HW110052   2.840   5.335   6.506
 3051SOL    HW210053   2.690   5.400   6.496
 3052SOL     OW10054   4.045   0.208   2.300
 3052SOL    HW110055   4.139   0.210   2.334
 3052SOL    HW210056   4.032   0.128   2.242
 3053SOL     OW10057   6.172   0.187   0.132
 3053SOL    HW110058   6.209   0.098   0.105
 3053SOL    HW210059   6.188   0.253   0.059
 3054SOL     OW10060   0.157   3.253   0.572
 3054SOL    HW110061   0.188   3.167   0.530
 3054SOL    HW210062   0.139   3.320   0.500
 3055SOL     OW10063   5.725   6.948   3.393
 3055SOL    HW110064   5.687   6.984   3.308
 3055SOL    HW210065   5.778   6.865   3.373
 3056SOL     OW10066   0.049   0.322   6.996
 3056SOL    HW110067   0.064   0.404   0.026
 3056SOL    HW210068   6.984   0.285   7.015
 3057SOL     OW10069   5.848   4.748   2.635
 3057SOL    HW110070   5.920   4.815   2.657
 3057SOL    HW210071   5.888   4.671   2.585
 3058SOL     OW10072   6.233   5.780   0.754
 3058SOL    HW110073   6.245   5.745   0.847
 3058SOL    HW210074   6.136   5.798   0.737
 3059SOL     OW10075   0.707   2.767   4.792
 3059SOL    HW110076   0.664   2.832   4.854
 3059SOL    HW210077   0.643   2.744   4.718
 3060SOL     OW10078   0.749   6.583   1.365
 3060SOL    HW110079   0.808   6.540   1.434
 3060SOL    HW210080   0.711   6.668   1.401
 3061SOL     OW10081   6.835   1.003   4.949
 3061SOL    HW110082   6.794   1.081   4.997
 3061SOL    HW210083   6.804   0.918   4.992
 3062SOL     OW10084   2.433   6.332   1.394
 3062SOL    HW110085   2.437   6.313   1.296
 3062SOL    HW210086   2.514   6.293   1.438
 3063SOL     OW10087   1.915   4.699   1.745
 3063SOL    HW110088   1.971   4.778   1.720
 3063SOL    HW210089   1.968   4.615   1.730
 3064SOL     OW10090   6.042   3.932   3.235
 3064SOL    HW110091   6.043   4.026   3.270
 3064SOL    HW210092   6.119   3.881   3.275
 3065SOL     OW10093   1.332   0.648   0.204
 3065SOL    HW110094   1.265   0.672   0.274
 3065SOL    HW210095   1.299   0.681   0.115
 3066SOL     OW10096   6.112   4.483   0.676
 3066SOL    HW110097   6.143   4.388   0.679
 3066SOL    HW210098   6.014   4.487   0.695
 3067SOL     OW10099   4.386   0.291   4.608
 3067SOL    HW110100   4.297   0.322   4.573
 3067SOL    HW210101   4.384   0.291   4.708
 3068SOL     OW10102   5.801   5.771   1.484
 3068SOL    HW110103   5.873   5.733   1.427
 3068SOL    HW210104   5.750   5.840   1.433
 3069SOL     OW10105   1.032   5.817   2.000
 3069SOL    HW110106   0.943   5.847   1.968
 3069SOL    HW210107   1.032   5.717   2.008
 3070SOL     OW10108   1.946   1.581   2.978
 3070SOL    HW110109   1.985   1.548   3.064
 3070SOL    HW210110   2.006   1.554   2.902
 3071SOL     OW10111   6.287   0.236   4.162
 3071SOL    HW110112   6.371   0.229   4.108
 3071SOL    HW210113   6.299   0.306   4.233
 3072SOL     OW10114   0.331   6.299   2.485
 3072SOL    HW110115   0.282   6.217   2.516
 3072SOL    HW210116   0.418   6.307   2.533
 3073SOL     OW10117   0.873   3.265   5.349
 3073SOL    HW110118   0.848   3.169   5.356
 3073SOL    HW210119   0.928   3.292   5.428
 3074SOL     OW10120   4.756   3.262   0.390
 3074SOL    HW110121   4.836   3.201   0.390
 3074SOL    HW210122   4.683   3.222   0.335
 3075SOL     OW10123   2.013   6.150   1.159
 3075SOL    HW110124   2.077   6.180   1.230
 3075SOL    HW210125   1.929   6.204   1.166
 3076SOL     OW10126   6.378   0.400   5.201
 3076SOL    HW110127   6.412   0.458   5.127
 3076SOL    HW210128   6.426   0.424   5.286
 3077SOL     OW10129   6.061   4.438   4.096
 3077SOL    HW110130   6.089   4.344   4.075
 3077SOL    HW210131   6.138   4.500   4.080
 3078SOL     OW10132   1.848   3.697   2.257
 3078SOL    HW110133   1.946   3.714   2.244
 3078SOL    HW210134   1.800   3.707   2.169
 3079SOL     OW10135   0.534   2.363   5.057
 3079SOL    HW110136   0.568   2.391   4.967
 3079SOL    HW210137   0.519   2.264   5.057
 3080SOL     OW10138   6.125   4.967   1.050
 3080SOL    HW110139   6.213   4.920   1.042
 3080SOL    HW210140   6.132   5.040   1.118
 3081SOL     OW10141   0.212   4.287   6.018
 3081SOL    HW110142   0.227   4.382   5.993
 3081SOL    HW210143   0.301   4.241   6.028
 3082SOL     OW10144   3.771   6.886   2.652
 3082SOL    HW110145   3.848   6.930   2.697
 3082SOL    HW210146   3.795   6.792   2.629
 3083SOL     OW10147   3.521   0.902   2.073
 3083SOL    HW110148   3.463   0.867   2.147
 3083SOL    HW210149   3.484   0.989   2.040
 3084SOL     OW10150   4.998   5.137   4.191
 3084SOL    HW110151   4.988   5.151   4.289
 3084SOL    HW210152   4.941   5.203   4.142
 3085SOL     OW10153   6.634   5.453   2.800
 3085SOL    HW110154   6.727   5.454   2.765
 3085SOL    HW210155   6.579   5.521   2.750
 3086SOL     OW10156   5.241   1.374   2.536
 3086SOL    HW110157   5.143   1.392   2.541
 3086SOL    HW210158   5.284   1.438   2.471
 3087SOL     OW10159   5.986   4.250   3.348
 3087SOL    HW110160   5.925   4.312   3.397
 3087SOL    HW210161   5.980   4.268   3.249
 3088SOL     OW10162   2.262   4.790   5.114
 3088SOL    HW110163   2.274   4.698   5.078
 3088SOL    HW210164   2.318   4.802   5.196
 3089SOL     OW10165   1.017   2.592   6.913
 3089SOL    HW110166   1.092   2.657   6.910
 3089SOL    HW210167   1.037   2.519   6.978
 3090SOL     OW10168   1.530   1.707   1.411
 3090SOL    HW110169   1.437   1.700   1.448
 3090SOL    HW210170   1.590   1.747   1.479
 3091SOL     OW10171   2.505   0.173   0.559
 3091SOL    HW110172   2.560   0.093   0.538
 3091SOL    HW210173   2.475   0.216   0.473
 3092SOL     OW10174   6.730   6.668   0.287
 3092SOL    HW110175   6.640   6.682   0.328
 3092SOL    HW210176   6.775   6.756   0.272
 3093SOL     OW10177   6.088   5.208   5.183
 3093SOL    HW110178   6.171   5.261   5.201
 3093SOL    HW210179   6.008   5.268   5.193
 3094SOL     OW10180   3.360   5.600   4.721
 3094SOL    HW110181   3.395   5.597   4.814
 3094SOL    HW210182   3.266   5.632   4.722
 3095SOL     OW10183   2.174   4.872   4.464
 3095SOL    HW110184   2.106   4.833   4.403
 3095SOL    HW210185   2.185   4.970   4.443
 3096SOL     OW10186   6.964   6.732   5.297
 3096SOL    HW110187   6.881   6.735   5.354
 3096SOL    HW210188   6.940   6.753   5.202
 3097SOL     OW10189   0.658   2.699   0.795
 3097SOL    HW110190   0.562   2.671   0.799
 3097SOL    HW210191   0.691   2.692   0.701
 3098SOL     OW10192   2.816   3.769   0.642
 3098SOL    HW110193   2.782   3.838   0.706
 3098SOL    HW210194   2.854   3.692   0.693
 3099SOL     OW10195   0.472   6.064   5.244
 3099SOL    HW110196   0.457   6.107   5.333
 3099SOL    HW210197   0.528   5.982   5.255
 3100SOL     OW10198   6.461   6.206   5.881
 3100SOL    HW110199   6.508   6.189   5.794
 3100SOL    HW210200   6.435   6.119   5.923
 3101SOL     OW10201   4.693   6.468   5.965
 3101SOL    HW110202   4.788   6.496   5.983
 3101SOL    HW210203   4.684   6.369   5.977
 3102SOL     OW10204   1.866   4.526   1.370
 3102SOL    HW110205   1.795   4.543   1.438
 3102SOL    HW210206   1.863   4.430   1.342
 3103SOL     OW10207   3.588   2.659   0.799
 3103SOL    HW110208   3.679   2.684   0.833
 3103SOL    HW210209   3.595   2.578   0.741
 3104SOL     OW10210   5.590   6.022   4.258
 3104SOL    HW110211   5.507   6.067   4.290
 3104SOL    HW210212   5.638   6.083   4.195
 3105SOL     OW10213   5.792   6.669   3.695
 3105SOL    HW110214   5.810   6.767   3.686
 3105SOL    HW210215   5.792   6.644   3.791
 3106SOL     OW10216   6.109   2.912   3.042
 3106SOL    HW110217   6.094   2.819   3.075
 3106SOL    HW210218   6.070   2.921   2.950
 3107SOL     OW10219   3.177   0.519   3.853
 3107SOL    HW110220   3.091   0.489   3.895
 3107SOL    HW210221   3.209   0.449   3.790
 3108SOL     OW10222   2.017   0.925   4.326
 3108SOL    HW110223   1.942   0.955   4.386
 3108SOL    HW210224   2.075   1.003   4.303
 3109SOL     OW10225   4.788   6.606   2.567
 3109SOL    HW110226   4.874   6.585   2.520
 3109SOL    HW210227   4.797   6.693   2.615
 3110SOL     OW10228   0.067   3.595   2.953
 3110SOL    HW110229   0.038   3.567   2.862
 3110SOL    HW210230   0.015   3.544   3.022
 3111SOL     OW10231   6.700   4.695   3.682
 3111SOL    HW110232   6.757   4.760   3.732
 3111SOL    HW210233   6.759   4.635   3.628
 3112SOL     OW10234   4.630   3.714   6.299
 3112SOL    HW110235   4.577   3.796   6.320
 3112SOL    HW210236   4.568   3.636   6.291
 3113SOL     OW10237   2.213   6.838   3.615
 3113SOL    HW110238   2.273   6.810   3.540
 3113SOL    HW210239   2.235   6.785   3.697
 3114SOL     OW10240   4.807   3.908   0.352
 3114SOL    HW110241   4.788   4.001   0.384
 3114SOL    HW210242   4.906   3.895   0.342
 3115SOL     OW10243   3.822   4.033   0.870
 3115SOL    HW110244   3.764   3.960   0.906
 3115SOL    HW210245   3.802   4.046   0.773
 3116SOL     OW10246   6.397   2.446   6.208
 3116SOL    HW110247   6.388   2.349   6.226
 3116SOL    HW210248   6.445   2.490   6.283
 3117SOL     OW10249   4.403   3.264   5.370
 3117SOL    HW110250   4.475   3.201   5.340
 3117SOL    HW210251   4.314   3.219   5.361
 3118SOL     OW10252   7.020   5.151   0.621
 3118SOL    HW110253   6.991   5.111   0.708
 3118SOL    HW210254   6.953   5.219   0.592
 3119SOL     OW10255   1.261   4.157   5.101
 3119SOL    HW110256   1.316   4.100   5.040
 3119SOL    HW210257   1.174   4.111   5.121
 3120SOL     OW10258   2.666   5.184   4.706
 3120SOL    HW110259   2.628   5.123   4.637
 3120SOL    HW210260   2.739   5.137   4.755
 3121SOL     OW10261   0.037   1.303   2.268
 3121SOL    HW110262   0.134   1.286   2.249
 3121SOL    HW210263   0.016   1.399   2.245
 3122SOL     OW10264   2.679   5.791   6.477
 3122SOL    HW110265   2.660   5.776   6.380
 3122SOL    HW210266   2.732   5.714   6.513
 3123SOL     OW10267   3.992   6.886   4.229
 3123SOL    HW110268   3.951   6.814   4.174
 3123SOL    HW210269   4.086   6.902   4.199
 3124SOL     OW10270   4.709   1.205   5.199
 3124SOL    HW110271   4.692   1.304   5.190
 3124SOL    HW210272   4.798   1.191   5.243
 3125SOL     OW10273   6.560   1.786   5.447
 3125SOL    HW110274   6.512   1.699   5.458
 3125SOL    HW210275   6.503   1.849   5.394
 3126SOL     OW10276   4.360   5.304   6.414
 3126SOL    HW110277   4.406   5.353   6.340
 3126SOL    HW210278   4.400   5.330   6.502
 3127SOL     OW10279   1.153   2.190   3.843
 3127SOL    HW110280   1.192   2.201   3.751
 3127SOL    HW210281   1.226   2.194   3.911
 3128SOL     OW10282   2.188   1.342   0.669
 3128SOL    HW110283   2.179   1.244   0.683
 3128SOL    HW210284   2.176   1.363   0.572
 3129SOL     OW10285   7.015   4.342   5.116
 3129SOL    HW110286   0.015   4.376   5.206
 3129SOL    HW210287   0.016   4.246   5.106
 3130SOL     OW10288   2.062   4.567   2.454
 3130SOL    HW110289   2.144   4.585   2.507
 3130SOL    HW210290   1.982   4.600   2.504
 3131SOL     OW10291   0.002   3.743   2.475
 3131SOL    HW110292   7.024   3.831   2.427
 3131SOL    HW210293   0.050   3.753   2.562
 3132SOL     OW10294   5.753   5.970   5.848
 3132SOL    HW110295   5.672   6.009   5.803
 3132SOL    HW210296   5.724   5.907   5.919
 3133SOL     OW10297   2.800   1.503   3.364
 3133SOL    HW110298   2.752   1.546   3.288
 3133SOL    HW210299   2.787   1.558   3.447
 3134SOL     OW10300   4.862   3.075   1.481
 3134SOL    HW110301   4.874   3.008   1.408
 3134SOL    HW210302   4.767   3.076   1.511
 3135SOL     OW10303   3.941   2.037   3.735
 3135SOL    HW110304   3.947   1.938   3.738
 3135SOL    HW210305   3.942   2.074   3.828
 3136SOL     OW10306   6.016   5.523   6.287
 3136SOL    HW110307   6.051   5.437   6.323
 3136SOL    HW210308   6.064   5.545   6.202
 3137SOL     OW10309   5.593   1.808   4.496
 3137SOL    HW110310   5.602   1.894   4.446
 3137SOL    HW210311   5.675   1.793   4.552
 3138SOL     OW10312   6.035   0.958   4.709
 3138SOL    HW110313   6.032   1.007   4.622
 3138SOL    HW210314   6.046   1.024   4.784
 3139SOL     OW10315   5.018   6.035   5.484
 3139SOL    HW110316   5.071   6.026   5.401
 3139SOL    HW210317   5.037   6.123   5.527
 3140SOL     OW10318   6.876   6.312   6.948
 3140SOL    HW110319   6.864   6.229   7.003
 3140SOL    HW210320   6.926   6.290   6.865
 3141SOL     OW10321   1.510   5.916   0.208
 3141SOL    HW110322   1.500   5.999   0.152
 3141SOL    HW210323   1.420   5.873   0.219
 3142SOL     OW10324   4.435   6.514   6.068
 3142SOL    HW110325   4.387   6.432   6.097
 3142SOL    HW210326   4.519   6.489   6.020
 3143SOL     OW10327   6.962   1.935   6.682
 3143SOL    HW110328   6.977   1.983   6.596
 3143SOL    HW210329   7.011   1.982   6.756
 3144SOL     OW10330   1.650   3.666   6.706
 3144SOL    HW110331   1.709   3.589   6.729
 3144SOL    HW210332   1.604   3.698   6.789
 3145SOL     OW10333   2.550   5.245   3.273
 3145SOL    HW110334   2.618   5.182   3.309
 3145SOL    HW210335   2.534   5.319   3.339
 3146SOL     OW10336   1.391   0.560   3.385
 3146SOL    HW110337   1.415   0.464   3.370
 3146SOL    HW210338   1.292   0.572   3.372
 3147SOL     OW10339   4.809   3.948   0.711
 3147SOL    HW110340   4.831   3.970   0.806
 3147SOL    HW210341   4.860   3.867   0.682
 3148SOL     OW10342   4.046   5.605   4.434
 3148SOL    HW110343   4.098   5.565   4.358
 3148SOL    HW210344   3.951   5.619   4.407
 3149SOL     OW10345   3.564   0.072   5.524
 3149SOL    HW110346   3.502   7.025   5.493
 3149SOL    HW210347   3.512   0.143   5.571
 3150SOL     OW10348   5.957   6.827   4.974
 3150SOL    HW110349   5.862   6.859   4.969
 3150SOL    HW210350   5.981   6.782   4.888
 3151SOL     OW10351   4.427   1.656   6.118
 3151SOL    HW110352   4.380   1.585   6.171
 3151SOL    HW210353   4.491   1.704   6.177
 3152SOL     OW10354   0.985   5.621   1.555
 3152SOL    HW110355   0.941   5.561   1.489
 3152SOL    HW210356   1.084   5.616   1.543
 3153SOL     OW10357   5.878   4.332   2.296
 3153SOL    HW110358   5.914   4.290   2.379
 3153SOL    HW210359   5.790   4.290   2.274
 3154SOL     OW10360   5.879   2.546   5.944
 3154SOL    HW110361   5.794   2.522   5.989
 3154SOL    HW210362   5.954   2.547   6.011
 3155SOL     OW10363   5.730   5.535   0.907
 3155SOL    HW110364   5.811   5.516   0.852
 3155SOL    HW210365   5.730   5.477   0.988
 3156SOL     OW10366   3.745   3.621   3.656
 3156SOL    HW110367   3.813   3.643   3.586
 3156SOL    HW210368   3.677   3.695   3.660
 3157SOL     OW10369   2.124   3.730   4.353
 3157SOL    HW110370   2.060   3.797   4.315
 3157SOL    HW210371   2.139   3.750   4.450
 3158SOL     OW10372   4.789   6.706   1.275
 3158SOL    HW110373   4.836   6.664   1.352
 3158SOL    HW210374   4.716   6.646   1.244
 3159SOL     OW10375   4.525   5.268   6.958
 3159SOL    HW110376   4.514   5.218   0.019
 3159SOL    HW210377   4.533   5.365   6.977
 3160SOL     OW10378   4.725   4.494   6.791
 3160SOL    HW110379   4.807   4.448   6.759
 3160SOL    HW210380   4.649   4.429   6.794
 3161SOL     OW10381   1.246   1.115   2.970
 3161SOL    HW110382   1.281   1.021   2.967
 3161SOL    HW210383   1.205   1.138   2.882
 3162SOL     OW10384   0.642   5.565   6.456
 3162SOL    HW110385   0.555   5.518   6.466
 3162SOL    HW210386   0.698   5.548   6.538
 3163SOL     OW10387   3.701   3.482   6.756
 3163SOL    HW110388   3.693   3.508   6.852
 3163SOL    HW210389   3.653   3.549   6.699
 3164SOL     OW10390   5.403   3.946   0.290
 3164SOL    HW110391   5.354   3.988   0.215
 3164SOL    HW210392   5.485   3.901   0.255
 3165SOL     OW10393   0.797   1.176   2.397
 3165SOL    HW110394   0.847   1.199   2.314
 3165SOL    HW210395   0.794   1.255   2.457
 3166SOL     OW10396   5.186   3.733   6.157
 3166SOL    HW110397   5.182   3.691   6.247
 3166SOL    HW210398   5.150   3.670   6.088
 3167SOL     OW10399   0.647   4.905   1.458
 3167SOL    HW110400   0.633   4.815   1.417
 3167SOL    HW210401   0.568   4.927   1.516
 3168SOL     OW10402   5.573   3.168   1.032
 3168SOL    HW110403   5.553   3.258   0.992
 3168SOL    HW210404   5.507   3.101   0.997
 3169SOL     OW10405   0.979   2.674   4.791
 3169SOL    HW110406   1.023   2.724   4.716
 3169SOL    HW210407   0.881   2.695   4.793
 3170SOL     OW10408   4.232   0.979   6.955
 3170SOL    HW110409   4.220   1.022   6.866
 3170SOL    HW210410   4.308   1.022   7.003
 3171SOL     OW10411   5.794   6.376   2.808
 3171SOL    HW110412   5.869   6.331   2.759
 3171SOL    HW210413   5.714   6.381   2.749
 3172SOL     OW10414   6.402   6.923   5.511
 3172SOL    HW110415   6.403   6.988   5.588
 3172SOL    HW210416   6.466   6.849   5.529
 3173SOL     OW10417   2.107   0.556   1.622
 3173SOL    HW110418   2.187   0.587   1.673
 3173SOL    HW210419   2.135   0.533   1.528
 3174SOL     OW10420   2.710   3.006   6.094
 3174SOL    HW110421   2.794   3.060   6.092
 3174SOL    HW210422   2.729   2.916   6.133
 3175SOL     OW10423   1.642   6.493   0.701
 3175SOL    HW110424   1.650   6.401   0.739
 3175SOL    HW210425   1.583   6.491   0.621
 3176SOL     OW10426   1.507   4.308   6.379
 3176SOL    HW110427   1.521   4.306   6.478
 3176SOL    HW210428   1.532   4.219   6.340
 3177SOL     OW10429   5.416   5.491   6.155
 3177SOL    HW110430   5.501   5.460   6.112
 3177SOL    HW210431   5.404   5.589   6.139
 3178SOL     OW10432   0.559   4.415   1.830
 3178SOL    HW110433   0.490   4.465   1.778
 3178SOL    HW210434   0.550   4.317   1.812
 3179SOL     OW10435   1.406   1.248   2.305
 3179SOL    HW110436   1.313   1.237   2.340
 3179SOL    HW210437   1.470   1.198   2.363
 3180SOL     OW10438   5.812   0.861   6.019
 3180SOL    HW110439   5.714   0.879   6.016
 3180SOL    HW210440   5.828   0.763   6.031
 3181SOL     OW10441   1.024   0.788   3.280
 3181SOL    HW110442   1.033   0.743   3.368
 3181SOL    HW210443   0.977   0.876   3.292
 3182SOL     OW10444   1.533   5.940   5.482
 3182SOL    HW110445   1.599   5.919   5.410
 3182SOL    HW210446   1.441   5.925   5.448
 3183SOL     OW10447   4.270   4.006   1.275
 3183SOL    HW110448   4.247   4.099   1.303
 3183SOL    HW210449   4.352   4.008   1.218
 3184SOL     OW10450   2.787   1.899   2.274
 3184SOL    HW110451   2.816   1.990   2.245
 3184SOL    HW210452   2.867   1.848   2.308
 3185SOL     OW10453   6.973   6.841   6.303
 3185SOL    HW110454   6.886   6.793   6.295
 3185SOL    HW210455   7.021   6.838   6.215
 3186SOL     OW10456   3.687   1.007   2.783
 3186SOL    HW110457   3.590   1.028   2.776
 3186SOL    HW210458   3.741   1.090   2.770
 3187SOL     OW10459   3.391   4.591   0.588
 3187SOL    HW110460   3.307   4.639   0.611
 3187SOL    HW210461   3.370   4.501   0.552
 3188SOL     OW10462   4.040   6.068   3.592
 3188SOL    HW110463   3.955   6.053   3.542
 3188SOL    HW210464   4.076   5.981   3.623
 3189SOL     OW10465   1.328   6.760   3.133
 3189SOL    HW110466   1.402   6.816   3.170
 3189SOL    HW210467   1.247   6.817   3.118
 3190SOL     OW10468   1.443   6.180   2.674
 3190SOL    HW110469   1.345   6.175   2.694
 3190SOL    HW210470   1.459   6.248   2.603
 3191SOL     OW10471   4.058   0.733   0.750
 3191SOL    HW110472   4.080   0.652   0.804
 3191SOL    HW210473   3.961   0.754   0.760
 3192SOL     OW10474   0.025   2.906   2.181
 3192SOL    HW110475   0.089   2.950   2.118
 3192SOL    HW210476   6.956   2.924   2.152
 3193SOL     OW10477   4.561   2.587   5.834
 3193SOL    HW110478   4.650   2.545   5.851
 3193SOL    HW210479   4.493   2.515   5.815
 3194SOL     OW10480   0.873   3.218   5.802
 3194SOL    HW110481   0.924   3.272   5.869
 3194SOL    HW210482   0.795   3.175   5.847
 3195SOL     OW10483   0.587   2.951   3.269
 3195SOL    HW110484   0.552   3.028   3.323
 3195SOL    HW210485   0.666   2.910   3.316
 3196SOL     OW10486   6.830   0.081   5.291
 3196SOL    HW110487   6.752   0.112   5.346
 3196SOL    HW210488   6.887   0.020   5.346
 3197SOL     OW10489   1.485   4.262   3.827
 3197SOL    HW110490   1.445   4.337   3.774
 3197SOL    HW210491   1.522   4.194   3.764
 3198SOL     OW10492   0.438   2.537   5.958
 3198SOL    HW110493   0.533   2.515   5.982
 3198SOL    HW210494   0.412   2.487   5.876
 3199SOL     OW10495   4.634   2.170   1.558
 3199SOL    HW110496   4.674   2.228   1.629
 3199SOL    HW210497   4.546   2.134   1.590
 3200SOL     OW10498   6.932   2.069   0.618
 3200SOL    HW110499   0.004   2.048   0.606
 3200SOL    HW210500   6.888   1.997   0.671
 3201SOL     OW10501   4.607   4.580   3.864
 3201SOL    HW110502   4.515   4.598   3.900
 3201SOL    HW210503   4.637   4.490   3.895
 3202SOL     OW10504   1.798   5.314   1.698
 3202SOL    HW110505   1.786   5.372   1.779
 3202SOL    HW210506   1.813   5.219   1.726
 3203SOL     OW10507   6.800   0.372   1.205
 3203SOL    HW110508   6.752   0.335   1.125
 3203SOL    HW210509   6.757   0.339   1.289
 3204SOL     OW10510   6.733   5.805   1.993
 3204SOL    HW110511   6.658   5.739   1.994
 3204SOL    HW210512   6.696   5.898   1.992
 3205SOL     OW10513   0.743   3.553   3.775
 3205SOL    HW110514   0.744   3.632   3.715
 3205SOL    HW210515   0.702   3.475   3.728
 3206SOL     OW10516   1.512   6.656   6.365
 3206SOL    HW110517   1.472   6.746   6.384
 3206SOL    HW210518   1.594   6.667   6.310
 3207SOL     OW10519   0.404   0.685   4.513
 3207SOL    HW110520   0.415   0.593   4.475
 3207SOL    HW210521   0.492   0.731   4.515
 3208SOL     OW10522   4.998   6.731   4.818
 3208SOL    HW110523   5.094   6.727   4.791
 3208SOL    HW210524   4.945   6.666   4.764
 3209SOL     OW10525   2.393   0.419   3.953
 3209SOL    HW110526   2.465   0.475   3.992
 3209SOL    HW210527   2.350   0.364   4.025
 3210SOL     OW10528   6.739   4.492   2.551
 3210SOL    HW110529   6.742   4.541   2.464
 3210SOL    HW210530   6.774   4.551   2.624
 3211SOL     OW10531   1.728   4.241   2.293
 3211SOL    HW110532   1.820   4.222   2.329
 3211SOL    HW210533   1.676   4.155   2.289
 3212SOL     OW10534   5.032   1.915   6.480
 3212SOL    HW110535   4.988   1.992   6.527
 3212SOL    HW210536   4.962   1.854   6.444
 3213SOL     OW10537   6.121   6.156   2.361
 3213SOL    HW110538   6.134   6.211   2.279
 3213SOL    HW210539   6.081   6.068   2.337
 3214SOL     OW10540   4.042   5.880   6.239
 3214SOL    HW110541   3.954   5.872   6.286
 3214SOL    HW210542   4.112   5.830   6.291
 3215SOL     OW10543   5.802   1.729   6.643
 3215SOL    HW110544   5.813   1.828   6.644
 3215SOL    HW210545   5.705   1.706   6.646
 3216SOL     OW10546   5.718   7.020   3.107
 3216SOL    HW110547   5.799   6.963   3.090
 3216SOL    HW210548   5.667   0.005   3.021
 3217SOL     OW10549   6.432   4.397   2.233
 3217SOL    HW110550   6.371   4.319   2.245
 3217SOL    HW210551   6.471   4.395   2.141
 3218SOL     OW10552   3.182   0.660   3.445
 3218SOL    HW110553   3.139   0.601   3.514
 3218SOL    HW210554   3.193   0.609   3.360
 3219SOL     OW10555   6.480   0.563   3.834
 3219SOL    HW110556   6.489   0.467   3.858
 3219SOL    HW210557   6.459   0.571   3.736
 3220SOL     OW10558   6.608   3.556   5.282
 3220SOL    HW110559   6.654   3.486   5.337
 3220SOL    HW210560   6.574   3.629   5.343
 3221SOL     OW10561   3.079   6.816   3.442
 3221SOL    HW110562   3.026   6.845   3.362
 3221SOL    HW210563   3.107   6.721   3.430
 3222SOL     OW10564   5.871   2.325   3.045
 3222SOL    HW110565   5.799   2.326   2.975
 3222SOL    HW210566   5.958   2.352   3.003
 3223SOL     OW10567   2.016   5.176   5.244
 3223SOL    HW110568   2.079   5.145   5.173
 3223SOL    HW210569   2.051   5.150   5.334
 3224SOL     OW10570   4.039   4.839   0.008
 3224SOL    HW110571   4.017   4.767   6.968
 3224SOL    HW210572   4.108   4.806   0.072
 3225SOL     OW10573   2.349   3.637   6.866
 3225SOL    HW110574   2.271   3.675   6.816
 3225SOL    HW210575   2.345   3.667   6.961
 3226SOL     OW10576   1.516   0.822   4.124
 3226SOL    HW110577   1.430   0.782   4.093
 3226SOL    HW210578   1.561   0.760   4.188
 3227SOL     OW10579   3.085   1.430   6.082
 3227SOL    HW110580   3.004   1.405   6.134
 3227SOL    HW210581   3.165   1.382   6.119
 3228SOL     OW10582   5.751   3.598   4.639
 3228SOL    HW110583   5.681   3.640   4.581
 3228SOL    HW210584   5.835   3.651   4.634
 3229SOL     OW10585   4.048   1.990   5.351
 3229SOL    HW110586   4.000   1.944   5.425
 3229SOL    HW210587   4.117   1.928   5.313
 3230SOL     OW10588   1.096   0.790   3.720
 3230SOL    HW110589   1.146   0.706   3.742
 3230SOL    HW210590   0.999   0.778   3.743
 3231SOL     OW10591   5.740   6.084   1.034
 3231SOL    HW110592   5.660   6.025   1.022
 3231SOL    HW210593   5.815   6.050   0.978
 3232SOL     OW10594   2.047   4.925   4.095
 3232SOL    HW110595   2.027   4.915   4.192
 3232SOL    HW210596   2.085   4.839   4.060
 3233SOL     OW10597   0.617   4.116   1.307
 3233SOL    HW110598   0.630   4.029   1.355
 3233SOL    HW210599   0.704   4.144   1.265
 3234SOL     OW10600   0.731   1.876   5.775
 3234SOL    HW110601   0.777   1.945   5.720
 3234SOL    HW210602   0.752   1.890   5.872
 3235SOL     OW10603   5.283   6.840   2.351
 3235SOL    HW110604   5.345   6.918   2.351
 3235SOL    HW210605   5.208   6.857   2.415
 3236SOL     OW10606   0.331   3.177   1.813
 3236SOL    HW110607   0.410   3.177   1.874
 3236SOL    HW210608   0.337   3.101   1.749
 3237SOL     OW10609   2.977   0.473   4.394
 3237SOL    HW110610   2.921   0.556   4.393
 3237SOL    HW210611   3.037   0.472   4.314
 3238SOL     OW10612   0.218   6.477   6.671
 3238SOL    HW110613   0.182   6.448   6.583
 3238SOL    HW210614   0.295   6.419   6.697
 3239SOL     OW10615   6.287   6.499   5.577
 3239SOL    HW110616   6.280   6.474   5.480
 3239SOL    HW210617   6.273   6.418   5.634
 3240SOL     OW10618   1.014   1.221   4.589
 3240SOL    HW110619   1.011   1.252   4.684
 3240SOL    HW210620   1.109   1.206   4.562
 3241SOL     OW10621   5.407   0.725   3.518
 3241SOL    HW110622   5.363   0.651   3.568
 3241SOL    HW210623   5.430   0.695   3.426
 3242SOL     OW10624   3.644   6.770   0.179
 3242SOL    HW110625   3.569   6.813   0.229
 3242SOL    HW210626   3.703   6.721   0.242
 3243SOL     OW10627   3.621   5.161   0.645
 3243SOL    HW110628   3.673   5.079   0.620
 3243SOL    HW210629   3.672   5.242   0.617
 3244SOL     OW10630   2.962   5.915   6.620
 3244SOL    HW110631   2.894   5.956   6.560
 3244SOL    HW210632   2.986   5.979   6.693
 3245SOL     OW10633   4.059   2.909   6.320
 3245SOL    HW110634   3.961   2.891   6.326
 3245SOL    HW210635   4.102   2.885   6.407
 3246SOL     OW10636   5.538   6.616   3.230
 3246SOL    HW110637   5.569   6.615   3.325
 3246SOL    HW210638   5.501   6.707   3.208
 3247SOL     OW10639   0.591   2.390   4.406
 3247SOL    HW110640   0.583   2.467   4.342
 3247SOL    HW210641   0.687   2.368   4.420
 3248SOL     OW10642   6.143   3.546   2.040
 3248SOL    HW110643   6.083   3.579   1.967
 3248SOL    HW210644   6.088   3.527   2.122
 3249SOL     OW10645   2.180   4.260   5.119
 3249SOL    HW110646   2.227   4.172   5.107
 3249SOL    HW210647   2.208   4.322   5.046
 3250SOL     OW10648   4.356   6.766   1.948
 3250SOL    HW110649   4.420   6.720   1.886
 3250SOL    HW210650   4.399   6.779   2.037
 3251SOL     OW10651   3.324   0.640   3.201
 3251SOL    HW110652   3.417   0.654   3.235
 3251SOL    HW210653   3.324   0.646   3.101
 3252SOL     OW10654   3.284   1.774   3.213
 3252SOL    HW110655   3.300   1.736   3.122
 3252SOL    HW210656   3.230   1.710   3.267
 3253SOL     OW10657   4.908   3.572   1.293
 3253SOL    HW110658   4.896   3.476   1.268
 3253SOL    HW210659   4.895   3.583   1.391
 3254SOL     OW10660   4.938   4.545   2.986
 3254SOL    HW110661   4.850   4.552   2.940
 3254SOL    HW210662   4.982   4.458   2.962
 3255SOL     OW10663   4.370   5.259   0.463
 3255SOL    HW110664   4.328   5.350   0.457
 3255SOL    HW210665   4.399   5.241   0.557
 3256SOL     OW10666   6.302   6.110   5.553
 3256SOL    HW110667   6.244   6.180   5.512
 3256SOL    HW210668   6.246   6.043   5.601
 3257SOL     OW10669   1.969   2.415   0.836
 3257SOL    HW110670   1.926   2.423   0.926
 3257SOL    HW210671   2.068   2.413   0.847
 3258SOL     OW10672   5.970   7.014   1.786
 3258SOL    HW110673   5.952   0.085   1.765
 3258SOL    HW210674   5.993   7.005   1.883
 3259SOL     OW10675   4.654   0.032   3.964
 3259SOL    HW110676   4.702   0.048   4.051
 3259SOL    HW210677   4.642   6.959   3.950
 3260SOL     OW10678   1.705   2.397   6.868
 3260SOL    HW110679   1.744   2.440   6.950
 3260SOL    HW210680   1.682   2.468   6.802
 3261SOL     OW10681   4.145   6.981   2.108
 3261SOL    HW110682   4.188   0.045   2.095
 3261SOL    HW210683   4.210   6.909   2.087
 3262SOL     OW10684   4.211   1.888   2.818
 3262SOL    HW110685   4.198   1.906   2.915
 3262SOL    HW210686   4.139   1.934   2.766
 3263SOL     OW10687   3.965   6.230   1.363
 3263SOL    HW110688   3.937   6.324   1.346
 3263SOL    HW210689   3.885   6.170   1.355
 3264SOL     OW10690   5.104   4.948   6.347
 3264SOL    HW110691   5.050   4.954   6.264
 3264SOL    HW210692   5.198   4.923   6.325
 3265SOL     OW10693   4.612   0.492   6.482
 3265SOL    HW110694   4.524   0.470   6.525
 3265SOL    HW210695   4.676   0.416   6.497
 3266SOL     OW10696   0.505   1.350   6.599
 3266SOL    HW110697   0.465   1.425   6.546
 3266SOL    HW210698   0.433   1.295   6.640
 3267SOL     OW10699   3.304   2.681   1.220
 3267SOL    HW110700   3.372   2.622   1.175
 3267SOL    HW210701   3.289   2.649   1.314
 3268SOL     OW10702   0.484   4.201   6.316
 3268SOL    HW110703   0.401   4.150   6.339
 3268SOL    HW210704   0.538   4.148   6.251
 3269SOL     OW10705   4.698   3.327   1.073
 3269SOL    HW110706   4.683   3.406   1.132
 3269SOL    HW210707   4.630   3.326   1.001
 3270SOL     OW10708   1.303   6.447   4.756
 3270SOL    HW110709   1.248   6.526   4.786
 3270SOL    HW210710   1.248   6.364   4.762
 3271SOL     OW10711   6.156   1.852   0.962
 3271SOL    HW110712   6.166   1.848   0.863
 3271SOL    HW210713   6.210   1.779   1.004
 3272SOL     OW10714   4.964   0.336   0.467
 3272SOL    HW110715   4.943   0.344   0.370
 3272SOL    HW210716   4.910   0.261   0.507
 3273SOL     OW10717   6.704   6.576   2.497
 3273SOL    HW110718   6.746   6.629   2.424
 3273SOL    HW210719   6.732   6.480   2.489
 3274SOL     OW10720   3.303   2.410   6.058
 3274SOL    HW110721   3.295   2.507   6.031
 3274SOL    HW210722   3.350   2.360   5.985
 3275SOL     OW10723   3.052   1.375   6.443
 3275SOL    HW110724   3.093   1.465   6.429
 3275SOL    HW210725   2.971   1.366   6.385
 3276SOL     OW10726   2.894   6.249   0.408
 3276SOL    HW110727   2.956   6.234   0.486
 3276SOL    HW210728   2.913   6.338   0.367
 3277SOL     OW10729   6.764   6.609   4.946
 3277SOL    HW110730   6.702   6.654   5.010
 3277SOL    HW210731   6.801   6.526   4.988
 3278SOL     OW10732   1.044   1.103   6.908
 3278SOL    HW110733   1.021   1.195   6.939
 3278SOL    HW210734   1.084   1.052   6.984
 3279SOL     OW10735   1.557   0.061   1.312
 3279SOL    HW110736   1.561   7.025   1.233
 3279SOL    HW210737   1.572   0.155   1.281
 3280SOL     OW10738   1.662   4.521   6.188
 3280SOL    HW110739   1.703   4.481   6.107
 3280SOL    HW210740   1.626   4.449   6.247
 3281SOL     OW10741   2.705   5.682   0.225
 3281SOL    HW110742   2.772   5.718   0.290
 3281SOL    HW210743   2.620   5.661   0.273
 3282SOL     OW10744   2.412   5.322   2.452
 3282SOL    HW110745   2.336   5.343   2.513
 3282SOL    HW210746   2.490   5.289   2.505
 3283SOL     OW10747   2.308   0.632   3.342
 3283SOL    HW110748   2.401   0.603   3.321
 3283SOL    HW210749   2.264   0.565   3.401
 3284SOL     OW10750   6.566   3.480   0.195
 3284SOL    HW110751   6.599   3.573   0.212
 3284SOL    HW210752   6.487   3.483   0.135
 3285SOL     OW10753   0.550   1.787   4.052
 3285SOL    HW110754   0.599   1.866   4.015
 3285SOL    HW210755   0.597   1.703   4.025
 3286SOL     OW10756   3.269   3.922   5.452
 3286SOL    HW110757   3.228   3.980   5.383
 3286SOL    HW210758   3.368   3.920   5.439
 3287SOL     OW10759   1.593   5.216   0.805
 3287SOL    HW110760   1.675   5.269   0.824
 3287SOL    HW210761   1.614   5.118   0.811
 3288SOL     OW10762   0.426   6.378   6.830
 3288SOL    HW110763   0.517   6.421   6.828
 3288SOL    HW210764   0.436   6.280   6.842
 3289SOL     OW10765   2.427   5.460   4.311
 3289SOL    HW110766   2.358   5.388   4.325
 3289SOL    HW210767   2.440   5.510   4.396
 3290SOL     OW10768   6.859   5.132   1.575
 3290SOL    HW110769   6.873   5.087   1.487
 3290SOL    HW210770   6.838   5.063   1.644
 3291SOL     OW10771   1.921   6.615   1.261
 3291SOL    HW110772   1.922   6.712   1.238
 3291SOL    HW210773   1.831   6.577   1.241
 3292SOL     OW10774   1.011   6.288   6.126
 3292SOL    HW110775   1.000   6.203   6.074
 3292SOL    HW210776   0.925   6.311   6.171
 3293SOL     OW10777   6.948   1.121   2.943
 3293SOL    HW110778   6.857   1.121   2.984
 3293SOL    HW210779   6.941   1.105   2.845
 3294SOL     OW10780   0.552   0.554   0.457
 3294SOL    HW110781   0.623   0.539   0.389
 3294SOL    HW210782   0.593   0.570   0.546
 3295SOL     OW10783   1.655   2.783   6.451
 3295SOL    HW110784   1.556   2.772   6.447
 3295SOL    HW210785   1.686   2.834   6.371
 3296SOL     OW10786   1.195   6.699   2.573
 3296SOL    HW110787   1.229   6.725   2.483
 3296SOL    HW210788   1.214   6.602   2.589
 3297SOL     OW10789   3.268   2.589   6.752
 3297SOL    HW110790   3.181   2.624   6.718
 3297SOL    HW210791   3.310   2.531   6.682
 3298SOL     OW10792   6.314   3.448   3.025
 3298SOL    HW110793   6.232   3.501   3.049
 3298SOL    HW210794   6.293   3.351   3.031
 3299SOL     OW10795   2.477   0.004   5.021
 3299SOL    HW110796   2.426   6.951   4.984
 3299SOL    HW210797   2.478   0.078   4.953
 3300SOL     OW10798   6.172   7.001   5.350
 3300SOL    HW110799   6.262   6.978   5.390
 3300SOL    HW210800   6.147   6.932   5.283
 3301SOL     OW10801   0.478   3.734   2.868
 3301SOL    HW110802   0.554   3.798   2.878
 3301SOL    HW210803   0.403   3.760   2.930
 3302SOL     OW10804   1.048   4.364   3.647
 3302SOL    HW110805   1.056   4.402   3.739
 3302SOL    HW210806   0.978   4.292   3.647
 3303SOL     OW10807   3.526   3.754   3.033
 3303SOL    HW110808   3.558   3.661   3.012
 3303SOL    HW210809   3.595   3.801   3.089
 3304SOL     OW10810   0.679   6.051   4.529
 3304SOL    HW110811   0.674   6.112   4.450
 3304SOL    HW210812   0.709   6.103   4.609
 3305SOL     OW10813   1.909   1.237   2.208
 3305SOL    HW110814   1.933   1.325   2.168
 3305SOL    HW210815   1.921   1.241   2.308
 3306SOL     OW10816   1.049   3.863   3.203
 3306SOL    HW110817   1.146   3.841   3.215
 3306SOL    HW210818   1.021   3.931   3.271
 3307SOL     OW10819   0.454   6.131   6.900
 3307SOL    HW110820   0.386   6.058   6.901
 3307SOL    HW210821   0.511   6.125   6.982
 3308SOL     OW10822   4.108   5.962   0.722
 3308SOL    HW110823   4.028   5.905   0.742
 3308SOL    HW210824   4.081   6.058   0.723
 3309SOL     OW10825   6.935   4.978   3.167
 3309SOL    HW110826   6.872   4.942   3.236
 3309SOL    HW210827   6.986   5.055   3.206
 3310SOL     OW10828   1.404   6.250   1.953
 3310SOL    HW110829   1.431   6.344   1.933
 3310SOL    HW210830   1.335   6.249   2.025
 3311SOL     OW10831   4.072   6.525   1.010
 3311SOL    HW110832   4.141   6.455   1.026
 3311SOL    HW210833   4.100   6.582   0.933
 3312SOL     OW10834   2.770   3.595   0.319
 3312SOL    HW110835   2.784   3.692   0.341
 3312SOL    HW210836   2.788   3.539   0.399
 3313SOL     OW10837   6.659   5.368   4.074
 3313SOL    HW110838   6.742   5.363   4.018
 3313SOL    HW210839   6.590   5.305   4.038
 3314SOL     OW10840   0.731   3.541   5.433
 3314SOL    HW110841   0.640   3.580   5.418
 3314SOL    HW210842   0.733   3.448   5.395
 3315SOL     OW10843   6.280   1.745   3.346
 3315SOL    HW110844   6.225   1.819   3.306
 3315SOL    HW210845   6.349   1.716   3.280
 3316SOL     OW10846   4.466   1.428   0.257
 3316SOL    HW110847   4.426   1.520   0.256
 3316SOL    HW210848   4.496   1.406   0.350
 3317SOL     OW10849   3.990   2.569   1.639
 3317SOL    HW110850   3.896   2.557   1.668
 3317SOL    HW210851   4.033   2.642   1.692
 3318SOL     OW10852   2.978   5.629   4.981
 3318SOL    HW110853   2.898   5.574   5.004
 3318SOL    HW210854   2.993   5.697   5.053
 3319SOL     OW10855   0.513   5.676   5.050
 3319SOL    HW110856   0.579   5.604   5.072
 3319SOL    HW210857   0.548   5.732   4.975
 3320SOL     OW10858   0.156   0.775   6.496
 3320SOL    HW110859   0.195   0.719   6.569
 3320SOL    HW210860   0.086   0.836   6.533
 3321SOL     OW10861   3.525   4.163   3.475
 3321SOL    HW110862   3.431   4.141   3.502
 3321SOL    HW210863   3.529   4.256   3.438
 3322SOL     OW10864   4.262   1.764   1.387
 3322SOL    HW110865   4.285   1.667   1.392
 3322SOL    HW210866   4.163   1.775   1.390
 3323SOL     OW10867   2.519   5.022   0.207
 3323SOL    HW110868   2.490   4.997   0.114
 3323SOL    HW210869   2.609   5.066   0.204
 3324SOL     OW10870   0.658   1.957   0.787
 3324SOL    HW110871   0.635   2.006   0.871
 3324SOL    HW210872   0.575   1.943   0.733
 3325SOL     OW10873   1.979   3.188   0.785
 3325SOL    HW110874   1.947   3.096   0.808
 3325SOL    HW210875   1.904   3.239   0.743
 3326SOL     OW10876   6.609   1.005   1.470
 3326SOL    HW110877   6.636   0.910   1.454
 3326SOL    HW210878   6.682   1.051   1.521
 3327SOL     OW10879   3.153   5.879   2.312
 3327SOL    HW110880   3.153   5.783   2.285
 3327SOL    HW210881   3.098   5.891   2.394
 3328SOL     OW10882   4.648   0.746   2.469
 3328SOL    HW110883   4.717   0.773   2.403
 3328SOL    HW210884   4.567   0.712   2.421
 3329SOL     OW10885   5.100   0.593   5.047
 3329SOL    HW110886   5.045   0.570   5.128
 3329SOL    HW210887   5.134   0.509   5.005
 3330SOL     OW10888   6.866   5.408   2.664
 3330SOL    HW110889   6.865   5.483   2.598
 3330SOL    HW210890   6.877   5.321   2.616
 3331SOL     OW10891   2.194   2.982   3.082
 3331SOL    HW110892   2.188   3.066   3.135
 3331SOL    HW210893   2.258   2.919   3.126
 3332SOL     OW10894   3.676   5.312   1.296
 3332SOL    HW110895   3.648   5.359   1.380
 3332SOL    HW210896   3.607   5.328   1.225
 3333SOL     OW10897   2.486   3.030   1.725
 3333SOL    HW110898   2.581   3.008   1.701
 3333SOL    HW210899   2.478   3.128   1.741
 3334SOL     OW10900   1.732   2.087   2.394
 3334SOL    HW110901   1.811   2.029   2.410
 3334SOL    HW210902   1.651   2.030   2.380
 3335SOL     OW10903   3.985   4.513   5.517
 3335SOL    HW110904   3.938   4.425   5.515
 3335SOL    HW210905   4.022   4.529   5.609
 3336SOL     OW10906   5.080   5.790   3.995
 3336SOL    HW110907   5.098   5.700   4.034
 3336SOL    HW210908   5.082   5.785   3.895
 3337SOL     OW10909   3.359   3.276   3.271
 3337SOL    HW110910   3.332   3.267   3.367
 3337SOL    HW210911   3.307   3.211   3.216
 3338SOL     OW10912   2.734   2.693   1.593
 3338SOL    HW110913   2.758   2.649   1.507
 3338SOL    HW210914   2.698   2.625   1.657
 3339SOL     OW10915   1.730   6.745   5.955
 3339SOL    HW110916   1.658   6.675   5.942
 3339SOL    HW210917   1.811   6.702   5.995
 3340SOL     OW10918   3.687   0.760   4.355
 3340SOL    HW110919   3.757   0.745   4.286
 3340SOL    HW210920   3.600   0.783   4.311
 3341SOL     OW10921   1.875   4.025   2.973
 3341SOL    HW110922   1.838   4.118   2.970
 3341SOL    HW210923   1.803   3.962   3.003
 3342SOL     OW10924   6.893   0.301   2.130
 3342SOL    HW110925   6.967   0.352   2.174
 3342SOL    HW210926   6.806   0.330   2.167
 3343SOL     OW10927   4.585   5.047   5.987
 3343SOL    HW110928   4.551   5.141   5.984
 3343SOL    HW210929   4.678   5.045   5.949
 3344SOL     OW10930   0.538   3.332   2.633
 3344SOL    HW110931   0.547   3.239   2.668
 3344SOL    HW210932   0.550   3.397   2.708
 3345SOL     OW10933   6.364   4.464   0.112
 3345SOL    HW110934   6.309   4.382   0.126
 3345SOL    HW210935   6.308   4.545   0.129
 3346SOL     OW10936   1.559   1.049   0.654
 3346SOL    HW110937   1.647   1.006   0.637
 3346SOL    HW210938   1.493   1.019   0.585
 3347SOL     OW10939   0.230   3.444   6.278
 3347SOL    HW110940   0.292   3.397   6.341
 3347SOL    HW210941   0.226   3.394   6.191
 3348SOL     OW10942   3.475   3.923   6.062
 3348SOL    HW110943   3.378   3.922   6.037
 3348SOL    HW210944   3.488   3.982   6.141
 3349SOL     OW10945   1.823   4.391   3.897
 3349SOL    HW110946   1.727   4.396   3.870
 3349SOL    HW210947   1.880   4.375   3.817
 3350SOL     OW10948   0.849   3.947   4.484
 3350SOL    HW110949   0.872   4.033   4.529
 3350SOL    HW210950   0.930   3.908   4.442
 3351SOL     OW10951   4.915   0.855   1.303
 3351SOL    HW110952   4.907   0.951   1.329
 3351SOL    HW210953   5.003   0.819   1.333
 3352SOL     OW10954   6.255   1.192   6.971
 3352SOL    HW110955   6.202   1.116   6.931
 3352SOL    HW210956   6.214   1.219   0.032
 3353SOL     OW10957   2.636   0.141   1.005
 3353SOL    HW110958   2.722   0.110   0.965
 3353SOL    HW210959   2.618   0.088   1.088
 3354SOL     OW10960   2.842   4.492   6.223
 3354SOL    HW110961   2.903   4.485   6.302
 3354SOL    HW210962   2.829   4.402   6.182
 3355SOL     OW10963   1.913   0.864   4.694
 3355SOL    HW110964   1.858   0.917   4.629
 3355SOL    HW210965   1.854   0.825   4.764
 3356SOL     OW10966   1.698   7.022   5.528
 3356SOL    HW110967   1.727   0.030   5.438
 3356SOL    HW210968   1.747   6.937   5.550
 3357SOL     OW10969   2.984   3.173   1.952
 3357SOL    HW110970   2.968   3.130   1.864
 3357SOL    HW210971   2.905   3.229   1.976
 3358SOL     OW10972   7.005   0.305   1.574
 3358SOL    HW110973   6.984   0.304   1.672
 3358SOL    HW210974   6.922   0.330   1.523
 3359SOL     OW10975   0.037   6.483   4.233
 3359SOL    HW110976   0.024   6.425   4.153
 3359SOL    HW210977   0.017   6.430   4.316
 3360SOL     OW10978   0.884   3.370   4.546
 3360SOL    HW110979   0.850   3.405   4.460
 3360SOL    HW210980   0.960   3.307   4.529
 3361SOL     OW10981   6.297   6.955   5.031
 3361SOL    HW110982   6.268   0.014   5.078
 3361SOL    HW210983   6.295   6.970   4.932
 3362SOL     OW10984   3.877   0.785   4.155
 3362SOL    HW110985   3.823   0.773   4.071
 3362SOL    HW210986   3.974   0.788   4.132
 3363SOL     OW10987   5.742   3.527   6.659
 3363SOL    HW110988   5.719   3.432   6.640
 3363SOL    HW210989   5.660   3.577   6.687
 3364SOL     OW10990   1.864   3.562   3.570
 3364SOL    HW110991   1.774   3.566   3.614
 3364SOL    HW210992   1.864   3.621   3.489
 3365SOL     OW10993   2.265   4.156   3.682
 3365SOL    HW110994   2.235   4.061   3.697
 3365SOL    HW210995   2.300   4.193   3.768
 3366SOL     OW10996   6.012   3.894   3.860
 3366SOL    HW110997   6.010   3.917   3.762
 3366SOL    HW210998   6.093   3.840   3.880
 3367SOL     OW10999   3.670   3.380   3.695
 3367SOL    HW111000   3.749   3.325   3.721
 3367SOL    HW211001   3.698   3.473   3.675
 3368SOL     OW11002   1.893   6.762   2.150
 3368SOL    HW111003   1.798   6.739   2.170
 3368SOL    HW211004   1.941   6.681   2.117
 3369SOL     OW11005   5.265   2.520   0.890
 3369SOL    HW111006   5.210   2.519   0.973
 3369SOL    HW211007   5.268   2.613   0.852
 3370SOL     OW11008   0.866   5.665   2.596
 3370SOL    HW111009   0.807   5.661   2.676
 3370SOL    HW211010   0.958   5.694   2.622
 3371SOL     OW11011   2.043   2.554   2.682
 3371SOL    HW111012   2.112   2.569   2.752
 3371SOL    HW211013   2.085   2.515   2.600
 3372SOL     OW11014   5.796   3.452   2.468
 3372SOL    HW111015   5.838   3.465   2.558
 3372SOL    HW211016   5.723   3.385   2.474
 3373SOL     OW11017   6.308   3.179   1.490
 3373SOL    HW111018   6.394   3.214   1.528
 3373SOL    HW211019   6.237   3.249   1.499
 3374SOL     OW11020   0.470   0.070   4.014
 3374SOL    HW111021   0.414   0.030   3.941
 3374SOL    HW211022   0.488   0.001   4.084
 3375SOL     OW11023   6.746   4.682   5.937
 3375SOL    HW111024   6.657   4.664   5.893
 3375SOL    HW211025   6.746   4.644   6.029
 3376SOL     OW11026   3.051   3.695   4.532
 3376SOL    HW111027   3.008   3.785   4.522
 3376SOL    HW211028   3.018   3.652   4.616
 3377SOL     OW11029   6.283   4.994   3.185
 3377SOL    HW111030   6.229   5.065   3.139
 3377SOL    HW211031   6.313   4.926   3.119
 3378SOL     OW11032   1.347   6.290   0.447
 3378SOL    HW111033   1.320   6.269   0.353
 3378SOL    HW211034   1.428   6.237   0.471
 3379SOL     OW11035   6.770   4.276   3.301
 3379SOL    HW111036   6.689   4.308   3.350
 3379SOL    HW211037   6.746   4.254   3.206
 3380SOL     OW11038   3.094   4.597   0.515
 3380SOL    HW111039   3.024   4.526   0.508
 3380SOL    HW211040   3.051   4.687   0.517
 3381SOL     OW11041   1.897   3.489   6.470
 3381SOL    HW111042   1.992   3.458   6.463
 3381SOL    HW211043   1.895   3.586   6.494
 3382SOL     OW11044   0.035   3.000   0.726
 3382SOL    HW111045   0.114   2.996   0.665
 3382SOL    HW211046   7.004   3.079   0.703
 3383SOL     OW11047   4.637   5.499   0.020
 3383SOL    HW111048   4.611   5.554   0.100
 3383SOL    HW211049   4.722   5.451   0.040
 3384SOL     OW11050   2.807   4.391   6.656
 3384SOL    HW111051   2.783   4.303   6.615
 3384SOL    HW211052   2.724   4.444   6.673
 3385SOL     OW11053   0.231   2.031   4.286
 3385SOL    HW111054   0.255   2.103   4.351
 3385SOL    HW211055   0.302   1.962   4.285
 3386SOL     OW11056   0.732   4.498   4.996
 3386SOL    HW111057   0.732   4.595   5.021
 3386SOL    HW211058   0.767   4.444   5.072
 3387SOL     OW11059   6.137   0.703   3.288
 3387SOL    HW111060   6.085   0.788   3.297
 3387SOL    HW211061   6.074   0.627   3.271
 3388SOL     OW11062   0.011   3.337   0.758
 3388SOL    HW111063   0.077   3.307   0.688
 3388SOL    HW211064   6.946   3.301   0.736
 3389SOL     OW11065   5.667   6.323   0.383
 3389SOL    HW111066   5.569   6.326   0.404
 3389SOL    HW211067   5.713   6.402   0.425
 3390SOL     OW11068   2.973   6.288   6.199
 3390SOL    HW111069   3.033   6.213   6.227
 3390SOL    HW211070   2.923   6.322   6.278
 3391SOL     OW11071   5.957   3.782   4.606
 3391SOL    HW111072   5.935   3.863   4.552
 3391SOL    HW211073   6.053   3.759   4.594
 3392SOL     OW11074   4.825   6.936   5.975
 3392SOL    HW111075   4.733   6.963   6.002
 3392SOL    HW211076   4.820   6.868   5.902
 3393SOL     OW11077   5.278   5.751   0.769
 3393SOL    HW111078   5.339   5.681   0.807
 3393SOL    HW211079   5.237   5.803   0.844
 3394SOL     OW11080   3.172   5.789   1.383
 3394SOL    HW111081   3.163   5.876   1.433
 3394SOL    HW211082   3.231   5.803   1.304
 3395SOL     OW11083   2.633   6.880   3.464
 3395SOL    HW111084   2.546   6.872   3.417
 3395SOL    HW211085   2.634   6.965   3.518
 3396SOL     OW11086   5.030   1.520   4.558
 3396SOL    HW111087   4.970   1.536   4.480
 3396SOL    HW211088   4.979   1.473   4.631
 3397SOL     OW11089   2.196   6.105   0.159
 3397SOL    HW111090   2.257   6.165   0.211
 3397SOL    HW211091   2.244   6.020   0.138
 3398SOL     OW11092   0.021   2.336   4.839
 3398SOL    HW111093   7.017   2.390   4.919
 3398SOL    HW211094   0.029   2.240   4.865
 3399SOL     OW11095   6.451   5.931   1.688
 3399SOL    HW111096   6.359   5.911   1.654
 3399SOL    HW211097   6.447   6.011   1.747
 3400SOL     OW11098   4.847   1.654   6.169
 3400SOL    HW111099   4.799   1.567   6.177
 3400SOL    HW211100   4.902   1.655   6.086
 3401SOL     OW11101   6.036   3.447   5.571
 3401SOL    HW111102   6.063   3.379   5.640
 3401SOL    HW211103   6.030   3.403   5.482
 3402SOL     OW11104   5.837   3.571   1.457
 3402SOL    HW111105   5.858   3.518   1.375
 3402SOL    HW211106   5.750   3.539   1.496
 3403SOL     OW11107   5.171   6.793   6.723
 3403SOL    HW111108   5.198   6.836   6.809
 3403SOL    HW211109   5.103   6.722   6.741
 3404SOL     OW11110   5.060   4.330   5.041
 3404SOL    HW111111   5.059   4.391   5.120
 3404SOL    HW211112   5.064   4.384   4.957
 3405SOL     OW11113   4.926   6.342   6.910
 3405SOL    HW111114   4.942   6.260   6.855
 3405SOL    HW211115   4.834   6.337   6.950
 3406SOL     OW11116   2.373   5.157   1.359
 3406SOL    HW111117   2.347   5.253   1.358
 3406SOL    HW211118   2.428   5.138   1.440
 3407SOL     OW11119   1.177   3.825   6.841
 3407SOL    HW111120   1.131   3.903   6.884
 3407SOL    HW211121   1.110   3.755   6.817
 3408SOL     OW11122   4.761   1.482   3.292
 3408SOL    HW111123   4.718   1.511   3.378
 3408SOL    HW211124   4.787   1.386   3.298
 3409SOL     OW11125   4.383   6.922   0.771
 3409SOL    HW111126   4.452   6.983   0.809
 3409SOL    HW211127   4.387   6.925   0.671
 3410SOL     OW11128   6.321   0.344   3.204
 3410SOL    HW111129   6.259   0.270   3.229
 3410SOL    HW211130   6.395   0.350   3.271
 3411SOL     OW11131   5.771   1.942   6.964
 3411SOL    HW111132   5.778   2.037   6.993
 3411SOL    HW211133   5.677   1.910   6.976
 3412SOL     OW11134   5.734   3.214   1.975
 3412SOL    HW111135   5.794   3.253   1.905
 3412SOL    HW211136   5.786   3.149   2.030
 3413SOL     OW11137   0.048   2.432   6.442
 3413SOL    HW111138   0.014   2.375   6.516
 3413SOL    HW211139   0.143   2.407   6.420
 3414SOL     OW11140   3.031   4.315   1.193
 3414SOL    HW111141   3.058   4.356   1.281
 3414SOL    HW211142   2.935   4.289   1.196
 3415SOL     OW11143   1.433   1.701   6.424
 3415SOL    HW111144   1.424   1.787   6.474
 3415SOL    HW211145   1.461   1.719   6.330
 3416SOL     OW11146   5.993   0.084   6.887
 3416SOL    HW111147   5.939   0.140   6.824
 3416SOL    HW211148   6.062   0.141   6.932
 3417SOL     OW11149   5.210   6.502   3.715
 3417SOL    HW111150   5.147   6.466   3.647
 3417SOL    HW211151   5.250   6.426   3.766
 3418SOL     OW11152   4.585   5.050   1.125
 3418SOL    HW111153   4.513   5.088   1.183
 3418SOL    HW211154   4.654   5.120   1.107
 3419SOL     OW11155   2.438   5.696   5.163
 3419SOL    HW111156   2.470   5.645   5.083
 3419SOL    HW211157   2.426   5.634   5.240
 3420SOL     OW11158   4.649   2.225   2.144
 3420SOL    HW111159   4.738   2.270   2.139
 3420SOL    HW211160   4.625   2.206   2.239
 3421SOL     OW11161   6.614   2.691   4.055
 3421SOL    HW111162   6.621   2.763   3.986
 3421SOL    HW211163   6.528   2.701   4.105
 3422SOL     OW11164   2.472   6.119   0.591
 3422SOL    HW111165   2.395   6.172   0.626
 3422SOL    HW211166   2.515   6.168   0.515
 3423SOL     OW11167   1.238   4.144   5.867
 3423SOL    HW111168   1.330   4.171   5.898
 3423SOL    HW211169   1.172   4.212   5.897
 3424SOL     OW11170   4.399   0.641   1.779
 3424SOL    HW111171   4.388   0.693   1.694
 3424SOL    HW211172   4.319   0.656   1.837
 3425SOL     OW11173   6.212   3.771   0.364
 3425SOL    HW111174   6.201   3.820   0.451
 3425SOL    HW211175   6.198   3.834   0.288
 3426SOL     OW11176   5.518   3.377   6.506
 3426SOL    HW111177   5.589   3.318   6.468
 3426SOL    HW211178   5.507   3.458   6.448
 3427SOL     OW11179   1.337   2.554   0.871
 3427SOL    HW111180   1.342   2.594   0.962
 3427SOL    HW211181   1.338   2.454   0.879
 3428SOL     OW11182   4.763   6.447   5.474
 3428SOL    HW111183   4.733   6.353   5.489
 3428SOL    HW211184   4.710   6.508   5.533
 3429SOL     OW11185   6.056   7.019   1.221
 3429SOL    HW111186   6.014   6.988   1.136
 3429SOL    HW211187   6.061   6.943   1.286
 3430SOL     OW11188   2.114   4.613   5.417
 3430SOL    HW111189   2.056   4.545   5.371
 3430SOL    HW211190   2.198   4.568   5.448
 3431SOL     OW11191   0.361   4.811   2.787
 3431SOL    HW111192   0.380   4.729   2.734
 3431SOL    HW211193   0.432   4.823   2.856
 3432SOL     OW11194   1.555   4.190   0.198
 3432SOL    HW111195   1.633   4.189   0.260
 3432SOL    HW211196   1.536   4.283   0.168
 3433SOL     OW11197   2.638   1.839   6.607
 3433SOL    HW111198   2.539   1.838   6.596
 3433SOL    HW211199   2.677   1.912   6.552
 3434SOL     OW11200   3.249   2.376   1.622
 3434SOL    HW111201   3.183   2.356   1.694
 3434SOL    HW211202   3.312   2.299   1.612
 3435SOL     OW11203   2.217   1.290   1.052
 3435SOL    HW111204   2.253   1.382   1.036
 3435SOL    HW211205   2.245   1.259   1.143
 3436SOL     OW11206   3.610   7.004   6.645
 3436SOL    HW111207   3.555   0.061   6.631
 3436SOL    HW211208   3.671   6.990   6.567
 3437SOL     OW11209   1.260   6.913   6.182
 3437SOL    HW111210   1.335   6.963   6.225
 3437SOL    HW211211   1.193   6.978   6.145
 3438SOL     OW11212   1.650   3.815   1.195
 3438SOL    HW111213   1.576   3.761   1.154
 3438SOL    HW211214   1.649   3.801   1.294
 3439SOL     OW11215   2.599   5.340   1.776
 3439SOL    HW111216   2.636   5.427   1.744
 3439SOL    HW211217   2.530   5.357   1.847
 3440SOL     OW11218   3.985   3.760   4.970
 3440SOL    HW111219   4.071   3.710   4.976
 3440SOL    HW211220   3.996   3.850   5.014
 3441SOL     OW11221   5.784   4.872   5.629
 3441SOL    HW111222   5.848   4.920   5.689
 3441SOL    HW211223   5.821   4.871   5.536
 3442SOL     OW11224   2.750   2.885   1.294
 3442SOL    HW111225   2.766   2.797   1.339
 3442SOL    HW211226   2.807   2.891   1.212
 3443SOL     OW11227   0.841   6.150   2.452
 3443SOL    HW111228   0.817   6.234   2.501
 3443SOL    HW211229   0.788   6.074   2.488
 3444SOL     OW11230   6.179   3.613   6.507
 3444SOL    HW111231   6.216   3.520   6.501
 3444SOL    HW211232   6.124   3.621   6.590
 3445SOL     OW11233   5.805   4.957   3.304
 3445SOL    HW111234   5.738   4.963   3.378
 3445SOL    HW211235   5.867   5.036   3.308
 3446SOL     OW11236   5.243   1.088   0.977
 3446SOL    HW111237   5.316   1.143   1.016
 3446SOL    HW211238   5.156   1.114   1.018
 3447SOL     OW11239   4.846   0.888   6.626
 3447SOL    HW111240   4.889   0.913   6.539
 3447SOL    HW211241   4.844   0.788   6.634
 3448SOL     OW11242   1.833   5.595   5.042
 3448SOL    HW111243   1.754   5.533   5.039
 3448SOL    HW211244   1.803   5.688   5.023
 3449SOL     OW11245   0.052   4.365   5.388
 3449SOL    HW111246   0.081   4.277   5.426
 3449SOL    HW211247   0.127   4.431   5.396
 3450SOL     OW11248   2.276   6.597   1.526
 3450SOL    HW111249   2.276   6.625   1.430
 3450SOL    HW211250   2.275   6.497   1.531
 3451SOL     OW11251   2.380   1.700   1.701
 3451SOL    HW111252   2.442   1.745   1.637
 3451SOL    HW211253   2.310   1.651   1.649
 3452SOL     OW11254   4.121   0.574   4.506
 3452SOL    HW111255   4.199   0.628   4.537
 3452SOL    HW211256   4.136   0.544   4.412
 3453SOL     OW11257   3.972   6.546   5.947
 3453SOL    HW111258   3.983   6.603   6.028
 3453SOL    HW211259   4.036   6.574   5.876
 3454SOL     OW11260   0.635   3.008   1.383
 3454SOL    HW111261   0.542   3.045   1.395
 3454SOL    HW211262   0.638   2.953   1.300
 3455SOL     OW11263   0.873   3.187   4.979
 3455SOL    HW111264   0.848   3.134   4.897
 3455SOL    HW211265   0.791   3.221   5.023
 3456SOL     OW11266   5.782   5.804   3.340
 3456SOL    HW111267   5.734   5.748   3.273
 3456SOL    HW211268   5.715   5.850   3.399
 3457SOL     OW11269   3.294   4.537   6.049
 3457SOL    HW111270   3.319   4.444   6.074
 3457SOL    HW211271   3.195   4.544   6.039
 3458SOL     OW11272   4.104   1.380   1.616
 3458SOL    HW111273   4.191   1.330   1.622
 3458SOL    HW211274   4.103   1.454   1.683
 3459SOL     OW11275   4.465   6.187   2.423
 3459SOL    HW111276   4.438   6.122   2.352
 3459SOL    HW211277   4.428   6.277   2.401
 3460SOL     OW11278   4.104   1.685   4.803
 3460SOL    HW111279   4.084   1.619   4.875
 3460SOL    HW211280   4.144   1.637   4.724
 3461SOL     OW11281   5.868   5.395   4.918
 3461SOL    HW111282   5.775   5.388   4.883
 3461SOL    HW211283   5.933   5.370   4.846
 3462SOL     OW11284   1.401   3.545   6.599
 3462SOL    HW111285   1.486   3.581   6.637
 3462SOL    HW211286   1.351   3.496   6.671
 3463SOL     OW11287   4.903   4.543   1.055
 3463SOL    HW111288   4.890   4.569   0.959
 3463SOL    HW211289   4.992   4.498   1.065
 3464SOL     OW11290   0.447   4.419   5.145
 3464SOL    HW111291   0.371   4.421   5.211
 3464SOL    HW211292   0.449   4.506   5.095
 3465SOL     OW11293   0.906   1.151   1.475
 3465SOL    HW111294   0.808   1.162   1.492
 3465SOL    HW211295   0.933   1.211   1.400
 3466SOL     OW11296   6.444   3.849   5.365
 3466SOL    HW111297   6.493   3.936   5.363
 3466SOL    HW211298   6.432   3.818   5.460
 3467SOL     OW11299   1.939   2.283   0.159
 3467SOL    HW111300   1.967   2.279   0.063
 3467SOL    HW211301   1.865   2.350   0.169
 3468SOL     OW11302   3.844   6.336   3.417
 3468SOL    HW111303   3.874   6.315   3.324
 3468SOL    HW211304   3.894   6.416   3.451
 3469SOL     OW11305   5.223   3.560   2.883
 3469SOL    HW111306   5.197   3.558   2.980
 3469SOL    HW211307   5.323   3.552   2.875
 3470SOL     OW11308   0.023   5.399   1.520
 3470SOL    HW111309   0.056   5.374   1.610
 3470SOL    HW211310   6.960   5.446   1.529
 3471SOL     OW11311   4.269   0.094   5.155
 3471SOL    HW111312   4.253   0.002   5.119
 3471SOL    HW211313   4.188   0.150   5.140
 3472SOL     OW11314   3.559   0.966   5.876
 3472SOL    HW111315   3.473   1.006   5.845
 3472SOL    HW211316   3.617   0.946   5.796
 3473SOL     OW11317   4.914   0.890   4.867
 3473SOL    HW111318   4.833   0.860   4.917
 3473SOL    HW211319   4.993   0.889   4.929
 3474SOL     OW11320   4.673   4.744   0.647
 3474SOL    HW111321   4.765   4.738   0.607
 3474SOL    HW211322   4.680   4.772   0.742
 3475SOL     OW11323   2.008   5.900   5.259
 3475SOL    HW111324   2.071   5.877   5.185
 3475SOL    HW211325   1.995   5.820   5.317
 3476SOL     OW11326   4.726   1.111   4.309
 3476SOL    HW111327   4.804   1.167   4.336
 3476SOL    HW211328   4.741   1.017   4.339
 3477SOL     OW11329   4.914   6.139   1.423
 3477SOL    HW111330   4.918   6.044   1.455
 3477SOL    HW211331   4.890   6.198   1.500
 3478SOL     OW11332   4.081   4.426   6.909
 3478SOL    HW111333   4.079   4.374   6.995
 3478SOL    HW211334   4.167   4.475   6.901
 3479SOL     OW11335   0.658   0.444   1.749
 3479SOL    HW111336   0.589   0.409   1.685
 3479SOL    HW211337   0.680   0.539   1.726
 3480SOL     OW11338   1.267   1.333   4.115
 3480SOL    HW111339   1.213   1.249   4.106
 3480SOL    HW211340   1.338   1.334   4.044
 3481SOL     OW11341   2.532   0.025   6.499
 3481SOL    HW111342   2.498   7.012   6.413
 3481SOL    HW211343   2.631   0.034   6.494
 3482SOL     OW11344   1.077   1.548   0.913
 3482SOL    HW111345   1.066   1.646   0.928
 3482SOL    HW211346   1.173   1.522   0.928
 3483SOL     OW11347   3.815   0.368   0.936
 3483SOL    HW111348   3.884   0.329   0.997
 3483SOL    HW211349   3.789   0.458   0.971
 3484SOL     OW11350   3.101   3.569   3.459
 3484SOL    HW111351   3.091   3.527   3.368
 3484SOL    HW211352   3.197   3.572   3.484
 3485SOL     OW11353   0.122   1.346   4.910
 3485SOL    HW111354   0.146   1.371   4.816
 3485SOL    HW211355   0.093   1.250   4.912
 3486SOL     OW11356   4.450   1.849   2.225
 3486SOL    HW111357   4.447   1.933   2.170
 3486SOL    HW211358   4.376   1.788   2.197
 3487SOL     OW11359   0.030   0.672   6.980
 3487SOL    HW111360   0.120   0.672   6.937
 3487SOL    HW211361   0.036   0.627   0.043
 3488SOL     OW11362   6.029   3.214   4.102
 3488SOL    HW111363   5.934   3.186   4.090
 3488SOL    HW211364   6.036   3.313   4.090
 3489SOL     OW11365   2.656   6.734   0.907
 3489SOL    HW111366   2.742   6.784   0.899
 3489SOL    HW211367   2.610   6.759   0.992
 3490SOL     OW11368   3.722   3.354   0.521
 3490SOL    HW111369   3.678   3.435   0.483
 3490SOL    HW211370   3.678   3.330   0.608
 3491SOL     OW11371   0.121   3.002   4.877
 3491SOL    HW111372   0.095   2.934   4.808
 3491SOL    HW211373   0.132   3.091   4.833
 3492SOL     OW11374   5.845   4.940   6.532
 3492SOL    HW111375   5.746   4.951   6.522
 3492SOL    HW211376   5.867   4.924   6.628
 3493SOL     OW11377   6.725   5.059   0.641
 3493SOL    HW111378   6.734   5.149   0.682
 3493SOL    HW211379   6.763   5.061   0.548
 3494SOL     OW11380   3.123   0.032   0.832
 3494SOL    HW111381   3.090   0.126   0.825
 3494SOL    HW211382   3.221   0.030   0.817
 3495SOL     OW11383   5.243   4.915   0.391
 3495SOL    HW111384   5.275   4.927   0.485
 3495SOL    HW211385   5.161   4.857   0.391
 3496SOL     OW11386   1.504   4.243   0.529
 3496SOL    HW111387   1.428   4.247   0.593
 3496SOL    HW211388   1.567   4.319   0.546
 3497SOL     OW11389   4.846   6.660   3.827
 3497SOL    HW111390   4.825   6.636   3.732
 3497SOL    HW211391   4.942   6.685   3.835
 3498SOL     OW11392   2.473   1.318   1.926
 3498SOL    HW111393   2.461   1.380   2.004
 3498SOL    HW211394   2.387   1.309   1.877
 3499SOL     OW11395   5.947   3.626   3.429
 3499SOL    HW111396   5.981   3.553   3.488
 3499SOL    HW211397   5.848   3.619   3.422
 3500SOL     OW11398   6.687   3.030   0.395
 3500SOL    HW111399   6.758   3.100   0.389
 3500SOL    HW211400   6.730   2.939   0.396
 3501SOL     OW11401   1.121   4.340   4.350
 3501SOL    HW111402   1.124   4.425   4.297
 3501SOL    HW211403   1.050   4.281   4.312
 3502SOL     OW11404   0.574   3.648   1.452
 3502SOL    HW111405   0.525   3.581   1.396
 3502SOL    HW211406   0.561   3.627   1.549
 3503SOL     OW11407   4.912   6.372   3.980
 3503SOL    HW111408   4.991   6.413   4.026
 3503SOL    HW211409   4.864   6.311   4.043
 3504SOL     OW11410   2.121   3.202   2.393
 3504SOL    HW111411   2.021   3.205   2.395
 3504SOL    HW211412   2.157   3.185   2.485
 3505SOL     OW11413   4.478   5.617   5.139
 3505SOL    HW111414   4.546   5.631   5.211
 3505SOL    HW211415   4.418   5.541   5.164
 3506SOL     OW11416   5.379   4.884   2.197
 3506SOL    HW111417   5.356   4.963   2.254
 3506SOL    HW211418   5.361   4.906   2.101
 3507SOL     OW11419   0.755   0.908   5.724
 3507SOL    HW111420   0.854   0.891   5.729
 3507SOL    HW211421   0.706   0.824   5.747
 3508SOL     OW11422   5.944   2.995   6.331
 3508SOL    HW111423   5.913   3.046   6.251
 3508SOL    HW211424   5.891   2.911   6.339
 3509SOL     OW11425   6.865   6.092   1.120
 3509SOL    HW111426   6.923   6.027   1.070
 3509SOL    HW211427   6.893   6.185   1.099
 3510SOL     OW11428   1.672   3.089   1.979
 3510SOL    HW111429   1.647   3.183   2.002
 3510SOL    HW211430   1.633   3.026   2.046
 3511SOL     OW11431   0.846   1.333   5.317
 3511SOL    HW111432   0.905   1.252   5.315
 3511SOL    HW211433   0.772   1.322   5.250
 3512SOL     OW11434   3.325   3.447   1.280
 3512SOL    HW111435   3.261   3.521   1.259
 3512SOL    HW211436   3.297   3.365   1.231
 3513SOL     OW11437   5.938   4.738   1.031
 3513SOL    HW111438   6.020   4.794   1.019
 3513SOL    HW211439   5.886   4.772   1.109
 3514SOL     OW11440   1.307   6.877   1.762
 3514SOL    HW111441   1.380   6.900   1.697
 3514SOL    HW211442   1.240   6.951   1.764
 3515SOL     OW11443   3.219   6.139   3.518
 3515SOL    HW111444   3.308   6.094   3.517
 3515SOL    HW211445   3.174   6.124   3.430
 3516SOL     OW11446   2.908   1.265   0.548
 3516SOL    HW111447   2.899   1.167   0.564
 3516SOL    HW211448   2.913   1.313   0.635
 3517SOL     OW11449   0.791   1.040   6.505
 3517SOL    HW111450   0.692   1.028   6.500
 3517SOL    HW211451   0.827   1.061   6.415
 3518SOL     OW11452   4.437   2.820   6.190
 3518SOL    HW111453   4.353   2.769   6.209
 3518SOL    HW211454   4.469   2.797   6.098
 3519SOL     OW11455   2.477   6.777   1.141
 3519SOL    HW111456   2.513   6.846   1.204
 3519SOL    HW211457   2.452   6.695   1.193
 3520SOL     OW11458   4.045   5.591   1.295
 3520SOL    HW111459   4.092   5.678   1.312
 3520SOL    HW211460   3.965   5.583   1.355
 3521SOL     OW11461   5.810   2.246   0.568
 3521SOL    HW111462   5.880   2.207   0.507
 3521SOL    HW211463   5.808   2.345   0.556
 3522SOL     OW11464   3.233   5.281   2.148
 3522SOL    HW111465   3.219   5.377   2.124
 3522SOL    HW211466   3.245   5.228   2.064
 3523SOL     OW11467   1.840   5.074   5.649
 3523SOL    HW111468   1.768   5.047   5.584
 3523SOL    HW211469   1.807   5.149   5.706
 3524SOL     OW11470   2.518   6.706   1.580
 3524SOL    HW111471   2.593   6.640   1.578
 3524SOL    HW211472   2.430   6.657   1.584
 3525SOL     OW11473   1.476   2.833   2.294
 3525SOL    HW111474   1.386   2.853   2.332
 3525SOL    HW211475   1.491   2.734   2.293
 3526SOL     OW11476   2.555   0.395   3.003
 3526SOL    HW111477   2.619   0.321   3.023
 3526SOL    HW211478   2.510   0.378   2.916
 3527SOL     OW11479   4.714   3.298   6.005
 3527SOL    HW111480   4.789   3.361   6.024
 3527SOL    HW211481   4.748   3.204   6.005
 3528SOL     OW11482   0.614   6.475   4.613
 3528SOL    HW111483   0.648   6.541   4.679
 3528SOL    HW211484   0.676   6.471   4.534
 3529SOL     OW11485   3.804   6.167   6.987
 3529SOL    HW111486   3.730   6.151   6.922
 3529SOL    HW211487   3.867   6.234   6.948
 3530SOL     OW11488   1.524   5.797   2.793
 3530SOL    HW111489   1.613   5.813   2.838
 3530SOL    HW211490   1.451   5.826   2.854
 3531SOL     OW11491   4.345   3.583   6.838
 3531SOL    HW111492   4.402   3.644   6.892
 3531SOL    HW211493   4.350   3.609   6.742
 3532SOL     OW11494   1.959   6.795   0.182
 3532SOL    HW111495   1.977   6.702   0.215
 3532SOL    HW211496   1.876   6.830   0.226
 3533SOL     OW11497   1.433   1.298   3.889
 3533SOL    HW111498   1.440   1.329   3.795
 3533SOL    HW211499   1.436   1.198   3.892
 3534SOL     OW11500   5.244   1.250   4.731
 3534SOL    HW111501   5.261   1.228   4.636
 3534SOL    HW211502   5.278   1.177   4.790
 3535SOL     OW11503   4.568   6.009   6.796
 3535SOL    HW111504   4.554   5.917   6.833
 3535SOL    HW211505   4.554   6.076   6.868
 3536SOL     OW11506   1.018   4.460   3.392
 3536SOL    HW111507   1.045   4.556   3.402
 3536SOL    HW211508   1.056   4.406   3.467
 3537SOL     OW11509   2.606   4.761   0.391
 3537SOL    HW111510   2.592   4.839   0.330
 3537SOL    HW211511   2.620   4.795   0.484
 3538SOL     OW11512   2.728   0.658   4.705
 3538SOL    HW111513   2.788   0.731   4.673
 3538SOL    HW211514   2.783   0.588   4.751
 3539SOL     OW11515   5.412   5.814   6.522
 3539SOL    HW111516   5.414   5.849   6.615
 3539SOL    HW211517   5.398   5.715   6.524
 3540SOL     OW11518   2.773   4.040   6.700
 3540SOL    HW111519   2.730   4.034   6.790
 3540SOL    HW211520   2.723   3.982   6.635
 3541SOL     OW11521   1.966   2.945   1.662
 3541SOL    HW111522   1.970   2.957   1.762
 3541SOL    HW211523   2.049   2.898   1.631
 3542SOL     OW11524   5.548   1.460   6.405
 3542SOL    HW111525   5.522   1.369   6.436
 3542SOL    HW211526   5.511   1.475   6.313
 3543SOL     OW11527   0.425   2.295   3.324
 3543SOL    HW111528   0.358   2.300   3.398
 3543SOL    HW211529   0.447   2.199   3.305
 3544SOL     OW11530   2.757   4.264   6.925
 3544SOL    HW111531   2.754   4.327   6.847
 3544SOL    HW211532   2.683   4.196   6.915
 3545SOL     OW11533   3.642   6.319   1.482
 3545SOL    HW111534   3.659   6.232   1.436
 3545SOL    HW211535   3.725   6.349   1.529
 3546SOL     OW11536   6.708   4.968   2.496
 3546SOL    HW111537   6.771   5.023   2.552
 3546SOL    HW211538   6.733   4.872   2.502
 3547SOL     OW11539   0.801   3.870   5.166
 3547SOL    HW111540   0.702   3.853   5.163
 3547SOL    HW211541   0.842   3.815   5.238
 3548SOL     OW11542   5.649   0.468   5.186
 3548SOL    HW111543   5.667   0.565   5.202
 3548SOL    HW211544   5.627   0.423   5.272
 3549SOL     OW11545   2.828   6.763   0.307
 3549SOL    HW111546   2.814   6.767   0.406
 3549SOL    HW211547   2.743   6.736   0.262
 3550SOL     OW11548   5.394   0.873   5.143
 3550SOL    HW111549   5.434   0.800   5.087
 3550SOL    HW211550   5.298   0.883   5.119
 3551SOL     OW11551   4.588   1.935   4.411
 3551SOL    HW111552   4.561   2.001   4.340
 3551SOL    HW211553   4.673   1.965   4.453
 3552SOL     OW11554   0.117   6.871   3.298
 3552SOL    HW111555   0.059   6.953   3.298
 3552SOL    HW211556   0.202   6.890   3.347
 3553SOL     OW11557   5.457   5.868   6.782
 3553SOL    HW111558   5.472   5.778   6.823
 3553SOL    HW211559   5.495   5.939   6.841
 3554SOL     OW11560   5.689   3.690   0.466
 3554SOL    HW111561   5.698   3.756   0.541
 3554SOL    HW211562   5.750   3.613   0.482
 3555SOL     OW11563   3.042   2.099   4.828
 3555SOL    HW111564   2.949   2.064   4.833
 3555SOL    HW211565   3.070   2.131   4.918
 3556SOL     OW11566   5.455   1.312   5.504
 3556SOL    HW111567   5.501   1.401   5.501
 3556SOL    HW211568   5.508   1.245   5.452
 3557SOL     OW11569   5.925   0.472   0.744
 3557SOL    HW111570   5.915   0.522   0.830
 3557SOL    HW211571   6.021   0.446   0.732
 3558SOL     OW11572   3.755   5.631   2.132
 3558SOL    HW111573   3.723   5.688   2.208
 3558SOL    HW211574   3.698   5.550   2.125
 3559SOL     OW11575   5.018   6.895   5.660
 3559SOL    HW111576   4.963   6.961   5.608
 3559SOL    HW211577   4.959   6.849   5.727
 3560SOL     OW11578   2.012   5.139   3.901
 3560SOL    HW111579   2.049   5.047   3.907
 3560SOL    HW211580   1.969   5.152   3.811
 3561SOL     OW11581   4.663   3.763   5.394
 3561SOL    HW111582   4.583   3.787   5.449
 3561SOL    HW211583   4.635   3.705   5.318
 3562SOL     OW11584   2.253   1.764   6.066
 3562SOL    HW111585   2.305   1.777   5.981
 3562SOL    HW211586   2.225   1.854   6.100
 3563SOL     OW11587   6.386   2.964   4.872
 3563SOL    HW111588   6.359   2.931   4.962
 3563SOL    HW211589   6.317   3.030   4.839
 3564SOL     OW11590   5.919   3.732   1.687
 3564SOL    HW111591   5.907   3.694   1.595
 3564SOL    HW211592   5.837   3.717   1.741
 3565SOL     OW11593   3.892   6.046   3.862
 3565SOL    HW111594   3.954   6.021   3.788
 3565SOL    HW211595   3.810   6.089   3.825
 3566SOL     OW11596   1.601   6.908   5.036
 3566SOL    HW111597   1.653   6.829   5.070
 3566SOL    HW211598   1.505   6.882   5.025
 3567SOL     OW11599   6.561   3.448   6.429
 3567SOL    HW111600   6.557   3.527   6.490
 3567SOL    HW211601   6.654   3.411   6.431
 3568SOL     OW11602   5.325   4.289   6.208
 3568SOL    HW111603   5.423   4.271   6.200
 3568SOL    HW211604   5.285   4.294   6.117
 3569SOL     OW11605   1.947   1.309   4.630
 3569SOL    HW111606   1.993   1.242   4.688
 3569SOL    HW211607   1.871   1.265   4.582
 3570SOL     OW11608   6.345   1.960   3.724
 3570SOL    HW111609   6.363   2.033   3.790
 3570SOL    HW211610   6.429   1.939   3.674
 3571SOL     OW11611   6.564   6.136   5.640
 3571SOL    HW111612   6.483   6.127   5.582
 3571SOL    HW211613   6.638   6.078   5.604
 3572SOL     OW11614   6.269   5.859   4.334
 3572SOL    HW111615   6.176   5.823   4.337
 3572SOL    HW211616   6.266   5.958   4.350
 3573SOL     OW11617   1.262   2.650   2.786
 3573SOL    HW111618   1.207   2.568   2.769
 3573SOL    HW211619   1.211   2.730   2.755
 3574SOL     OW11620   6.821   3.596   0.579
 3574SOL    HW111621   6.889   3.631   0.514
 3574SOL    HW211622   6.859   3.518   0.628
 3575SOL     OW11623   6.481   5.076   1.654
 3575SOL    HW111624   6.528   5.158   1.685
 3575SOL    HW211625   6.527   4.995   1.691
 3576SOL     OW11626   0.300   1.698   6.160
 3576SOL    HW111627   0.289   1.728   6.065
 3576SOL    HW211628   0.396   1.709   6.187
 3577SOL     OW11629   1.659   3.032   0.318
 3577SOL    HW111630   1.580   3.077   0.277
 3577SOL    HW211631   1.743   3.061   0.271
 3578SOL     OW11632   3.976   5.374   0.918
 3578SOL    HW111633   3.897   5.321   0.887
 3578SOL    HW211634   3.944   5.460   0.958
 3579SOL     OW11635   0.228   4.592   4.713
 3579SOL    HW111636   0.231   4.504   4.666
 3579SOL    HW211637   0.138   4.633   4.701
 3580SOL     OW11638   6.753   2.367   2.305
 3580SOL    HW111639   6.826   2.333   2.246
 3580SOL    HW211640   6.723   2.295   2.367
 3581SOL     OW11641   6.742   0.747   2.929
 3581SOL    HW111642   6.841   0.749   2.914
 3581SOL    HW211643   6.723   0.721   3.024
 3582SOL     OW11644   1.017   0.897   5.566
 3582SOL    HW111645   1.110   0.907   5.601
 3582SOL    HW211646   1.016   0.827   5.494
 3583SOL     OW11647   1.859   5.575   0.382
 3583SOL    HW111648   1.876   5.604   0.477
 3583SOL    HW211649   1.770   5.610   0.352
 3584SOL     OW11650   4.699   6.208   6.066
 3584SOL    HW111651   4.750   6.168   6.142
 3584SOL    HW211652   4.603   6.216   6.091
 3585SOL     OW11653   2.578   4.831   3.684
 3585SOL    HW111654   2.494   4.877   3.712
 3585SOL    HW211655   2.572   4.803   3.588
 3586SOL     OW11656   6.877   2.379   6.238
 3586SOL    HW111657   6.921   2.446   6.178
 3586SOL    HW211658   6.939   2.356   6.313
 3587SOL     OW11659   4.077   7.007   6.589
 3587SOL    HW111660   4.154   0.045   6.594
 3587SOL    HW211661   3.995   0.031   6.563
 3588SOL     OW11662   1.888   1.423   5.651
 3588SOL    HW111663   1.822   1.408   5.725
 3588SOL    HW211664   1.843   1.409   5.563
 3589SOL     OW11665   3.320   0.883   5.213
 3589SOL    HW111666   3.359   0.830   5.138
 3589SOL    HW211667   3.230   0.917   5.187
 3590SOL     OW11668   2.117   5.478   6.619
 3590SOL    HW111669   2.095   5.572   6.593
 3590SOL    HW211670   2.098   5.417   6.543
 3591SOL     OW11671   5.242   2.365   5.339
 3591SOL    HW111672   5.228   2.458   5.306
 3591SOL    HW211673   5.330   2.358   5.386
 3592SOL     OW11674   4.887   2.835   2.337
 3592SOL    HW111675   4.844   2.794   2.257
 3592SOL    HW211676   4.927   2.923   2.312
 3593SOL     OW11677   1.615   5.169   3.484
 3593SOL    HW111678   1.641   5.180   3.388
 3593SOL    HW211679   1.622   5.257   3.531
 3594SOL     OW11680   3.061   1.072   4.159
 3594SOL    HW111681   2.968   1.042   4.182
 3594SOL    HW211682   3.096   1.018   4.083
 3595SOL     OW11683   3.249   5.946   5.412
 3595SOL    HW111684   3.234   5.886   5.490
 3595SOL    HW211685   3.174   6.012   5.405
 3596SOL     OW11686   6.754   2.738   3.105
 3596SOL    HW111687   6.701   2.715   3.023
 3596SOL    HW211688   6.692   2.767   3.178
 3597SOL     OW11689   3.780   5.549   3.953
 3597SOL    HW111690   3.855   5.595   4.001
 3597SOL    HW211691   3.743   5.476   4.010
 3598SOL     OW11692   1.158   6.959   6.779
 3598SOL    HW111693   1.210   0.005   6.731
 3598SOL    HW211694   1.185   6.957   6.875
 3599SOL     OW11695   0.321   1.248   4.193
 3599SOL    HW111696   0.223   1.227   4.193
 3599SOL    HW211697   0.373   1.166   4.168
 3600SOL     OW11698   5.755   1.085   0.650
 3600SOL    HW111699   5.832   1.148   0.662
 3600SOL    HW211700   5.672   1.138   0.632
 3601SOL     OW11701   6.496   3.918   6.037
 3601SOL    HW111702   6.575   3.858   6.035
 3601SOL    HW211703   6.413   3.864   6.053
 3602SOL     OW11704   2.192   1.431   0.372
 3602SOL    HW111705   2.113   1.422   0.310
 3602SOL    HW211706   2.274   1.448   0.319
 3603SOL     OW11707   4.535   4.905   4.730
 3603SOL    HW111708   4.479   4.862   4.659
 3603SOL    HW211709   4.622   4.934   4.691
 3604SOL     OW11710   0.354   2.827   2.878
 3604SOL    HW111711   0.282   2.893   2.857
 3604SOL    HW211712   0.319   2.757   2.940
 3605SOL     OW11713   6.011   3.660   6.706
 3605SOL    HW111714   5.957   3.731   6.750
 3605SOL    HW211715   5.954   3.580   6.689
 3606SOL     OW11716   0.732   4.666   4.698
 3606SOL    HW111717   0.772   4.627   4.781
 3606SOL    HW211718   0.776   4.625   4.618
 3607SOL     OW11719   5.221   6.890   0.178
 3607SOL    HW111720   5.270   6.935   0.253
 3607SOL    HW211721   5.261   6.800   0.161
 3608SOL     OW11722   0.428   2.706   2.328
 3608SOL    HW111723   0.446   2.763   2.408
 3608SOL    HW211724   0.496   2.634   2.321
 3609SOL     OW11725   6.914   0.304   4.582
 3609SOL    HW111726   6.984   0.354   4.634
 3609SOL    HW211727   6.886   0.223   4.634
 3610SOL     OW11728   1.018   6.834   5.564
 3610SOL    HW111729   0.933   6.884   5.549
 3610SOL    HW211730   1.020   6.753   5.506
 3611SOL     OW11731   3.605   5.041   5.372
 3611SOL    HW111732   3.642   4.955   5.335
 3611SOL    HW211733   3.575   5.099   5.297
 3612SOL     OW11734   0.962   0.106   1.546
 3612SOL    HW111735   0.956   0.102   1.447
 3612SOL    HW211736   0.959   0.201   1.577
 3613SOL     OW11737   5.086   5.630   6.640
 3613SOL    HW111738   5.174   5.595   6.609
 3613SOL    HW211739   5.062   5.710   6.586
 3614SOL     OW11740   3.285   2.984   3.389
 3614SOL    HW111741   3.268   2.989   3.290
 3614SOL    HW211742   3.382   2.963   3.404
 3615SOL     OW11743   6.224   5.889   6.419
 3615SOL    HW111744   6.126   5.869   6.415
 3615SOL    HW211745   6.241   5.981   6.384
 3616SOL     OW11746   0.315   2.308   5.464
 3616SOL    HW111747   0.294   2.220   5.421
 3616SOL    HW211748   0.380   2.358   5.408
 3617SOL     OW11749   6.991   1.155   6.245
 3617SOL    HW111750   6.965   1.113   6.332
 3617SOL    HW211751   0.065   1.159   6.238
 3618SOL     OW11752   2.066   1.926   6.579
 3618SOL    HW111753   1.985   1.872   6.554
 3618SOL    HW211754   2.081   1.920   6.677
 3619SOL     OW11755   6.192   2.092   4.326
 3619SOL    HW111756   6.147   2.054   4.246
 3619SOL    HW211757   6.289   2.068   4.324
 3620SOL     OW11758   6.023   6.697   5.522
 3620SOL    HW111759   5.962   6.757   5.469
 3620SOL    HW211760   6.083   6.648   5.459
 3621SOL     OW11761   1.778   3.778   5.860
 3621SOL    HW111762   1.850   3.723   5.819
 3621SOL    HW211763   1.711   3.718   5.904
 3622SOL     OW11764   0.679   2.888   1.659
 3622SOL    HW111765   0.734   2.879   1.576
 3622SOL    HW211766   0.717   2.831   1.731
 3623SOL     OW11767   5.664   4.919   3.568
 3623SOL    HW111768   5.628   4.837   3.523
 3623SOL    HW211769   5.589   4.978   3.596
 3624SOL     OW11770   2.827   6.674   2.139
 3624SOL    HW111771   2.905   6.678   2.201
 3624SOL    HW211772   2.816   6.581   2.104
 3625SOL     OW11773   6.789   3.486   4.727
 3625SOL    HW111774   6.711   3.425   4.739
 3625SOL    HW211775   6.761   3.565   4.672
 3626SOL     OW11776   2.474   3.717   5.318
 3626SOL    HW111777   2.470   3.793   5.253
 3626SOL    HW211778   2.407   3.648   5.292
 3627SOL     OW11779   2.951   3.764   3.553
 3627SOL    HW111780   2.897   3.770   3.469
 3627SOL    HW211781   3.023   3.695   3.543
 3628SOL     OW11782   2.702   5.080   1.983
 3628SOL    HW111783   2.765   5.050   2.055
 3628SOL    HW211784   2.751   5.135   1.916
 3629SOL     OW11785   6.140   1.923   5.448
 3629SOL    HW111786   6.128   2.020   5.465
 3629SOL    HW211787   6.054   1.883   5.417
 3630SOL     OW11788   6.526   1.990   4.236
 3630SOL    HW111789   6.556   1.941   4.155
 3630SOL    HW211790   6.588   2.066   4.256
 3631SOL     OW11791   2.685   1.155   4.992
 3631SOL    HW111792   2.762   1.192   4.940
 3631SOL    HW211793   2.631   1.094   4.934
 3632SOL     OW11794   4.919   1.037   0.715
 3632SOL    HW111795   4.897   1.034   0.617
 3632SOL    HW211796   4.840   1.004   0.768
 3633SOL     OW11797   2.056   2.934   5.684
 3633SOL    HW111798   2.058   3.023   5.730
 3633SOL    HW211799   2.134   2.927   5.622
 3634SOL     OW11800   1.620   6.232   5.218
 3634SOL    HW111801   1.544   6.193   5.270
 3634SOL    HW211802   1.584   6.278   5.136
 3635SOL     OW11803   2.596   1.470   5.658
 3635SOL    HW111804   2.690   1.436   5.660
 3635SOL    HW211805   2.596   1.569   5.670
 3636SOL     OW11806   0.731   5.263   5.689
 3636SOL    HW111807   0.700   5.304   5.775
 3636SOL    HW211808   0.773   5.333   5.631
 3637SOL     OW11809   5.294   1.050   1.763
 3637SOL    HW111810   5.215   0.990   1.749
 3637SOL    HW211811   5.303   1.112   1.685
 3638SOL     OW11812   0.010   4.276   3.360
 3638SOL    HW111813   6.939   4.258   3.344
 3638SOL    HW211814   0.065   4.198   3.330
 3639SOL     OW11815   2.736   5.085   0.889
 3639SOL    HW111816   2.711   5.094   0.985
 3639SOL    HW211817   2.654   5.097   0.832
 3640SOL     OW11818   3.342   5.894   1.152
 3640SOL    HW111819   3.312   5.856   1.064
 3640SOL    HW211820   3.407   5.969   1.136
 3641SOL     OW11821   2.660   1.491   4.767
 3641SOL    HW111822   2.694   1.578   4.803
 3641SOL    HW211823   2.730   1.421   4.778
 3642SOL     OW11824   5.466   0.517   3.958
 3642SOL    HW111825   5.555   0.504   3.914
 3642SOL    HW211826   5.445   0.615   3.962
 3643SOL     OW11827   2.962   4.820   4.743
 3643SOL    HW111828   3.061   4.818   4.750
 3643SOL    HW211829   2.922   4.768   4.819
 3644SOL     OW11830   6.672   0.684   0.907
 3644SOL    HW111831   6.751   0.739   0.934
 3644SOL    HW211832   6.669   0.675   0.808
 3645SOL     OW11833   4.461   1.227   3.666
 3645SOL    HW111834   4.410   1.284   3.730
 3645SOL    HW211835   4.556   1.257   3.662
 3646SOL     OW11836   0.070   5.107   5.352
 3646SOL    HW111837   0.012   5.060   5.419
 3646SOL    HW211838   0.014   5.171   5.299
 3647SOL     OW11839   2.057   3.001   1.310
 3647SOL    HW111840   2.124   3.002   1.384
 3647SOL    HW211841   2.072   2.921   1.252
 3648SOL     OW11842   3.590   5.744   2.331
 3648SOL    HW111843   3.569   5.829   2.283
 3648SOL    HW211844   3.549   5.747   2.422
 3649SOL     OW11845   4.167   3.465   0.726
 3649SOL    HW111846   4.132   3.457   0.633
 3649SOL    HW211847   4.265   3.443   0.726
 3650SOL     OW11848   0.768   5.993   1.765
 3650SOL    HW111849   0.674   5.991   1.798
 3650SOL    HW211850   0.786   5.912   1.708
 3651SOL     OW11851   1.163   6.181   2.709
 3651SOL    HW111852   1.140   6.186   2.612
 3651SOL    HW211853   1.104   6.113   2.753
 3652SOL     OW11854   4.439   5.610   3.153
 3652SOL    HW111855   4.471   5.702   3.175
 3652SOL    HW211856   4.355   5.616   3.099
 3653SOL     OW11857   0.208   1.582   2.727
 3653SOL    HW111858   0.245   1.587   2.820
 3653SOL    HW211859   0.112   1.554   2.730
 3654SOL     OW11860   1.474   6.659   1.074
 3654SOL    HW111861   1.465   6.632   1.170
 3654SOL    HW211862   1.416   6.600   1.018
 3655SOL     OW11863   1.764   0.575   4.718
 3655SOL    HW111864   1.681   0.606   4.670
 3655SOL    HW211865   1.843   0.587   4.658
 3656SOL     OW11866   2.089   2.713   2.052
 3656SOL    HW111867   2.065   2.619   2.076
 3656SOL    HW211868   2.006   2.763   2.029
 3657SOL     OW11869   3.879   5.855   0.824
 3657SOL    HW111870   3.837   5.764   0.816
 3657SOL    HW211871   3.876   5.885   0.919
 3658SOL     OW11872   0.911   6.424   5.585
 3658SOL    HW111873   0.827   6.375   5.605
 3658SOL    HW211874   0.939   6.477   5.666
 3659SOL     OW11875   2.121   4.346   6.760
 3659SOL    HW111876   2.074   4.274   6.811
 3659SOL    HW211877   2.220   4.332   6.764
 3660SOL     OW11878   4.498   5.855   2.106
 3660SOL    HW111879   4.440   5.927   2.143
 3660SOL    HW211880   4.584   5.895   2.073
 3661SOL     OW11881   5.001   1.260   0.371
 3661SOL    HW111882   5.091   1.280   0.409
 3661SOL    HW211883   4.952   1.346   0.356
 3662SOL     OW11884   3.239   0.297   5.388
 3662SOL    HW111885   3.166   0.278   5.454
 3662SOL    HW211886   3.286   0.211   5.366
 3663SOL     OW11887   1.694   2.474   0.107
 3663SOL    HW111888   1.655   2.425   0.185
 3663SOL    HW211889   1.625   2.536   0.069
 3664SOL     OW11890   5.348   1.551   0.526
 3664SOL    HW111891   5.271   1.587   0.578
 3664SOL    HW211892   5.425   1.533   0.587
 3665SOL     OW11893   0.563   0.053   5.241
 3665SOL    HW111894   0.581   0.115   5.317
 3665SOL    HW211895   0.549   0.105   5.157
 3666SOL     OW11896   1.889   3.791   4.715
 3666SOL    HW111897   1.866   3.694   4.706
 3666SOL    HW211898   1.988   3.803   4.706
 3667SOL     OW11899   6.372   0.831   6.343
 3667SOL    HW111900   6.290   0.775   6.351
 3667SOL    HW211901   6.390   0.849   6.246
 3668SOL     OW11902   1.553   6.942   2.466
 3668SOL    HW111903   1.549   7.001   2.385
 3668SOL    HW211904   1.632   6.967   2.521
 3669SOL     OW11905   6.764   2.695   3.479
 3669SOL    HW111906   6.692   2.725   3.416
 3669SOL    HW211907   6.765   2.595   3.482
 3670SOL     OW11908   2.223   5.733   5.652
 3670SOL    HW111909   2.127   5.705   5.652
 3670SOL    HW211910   2.240   5.793   5.574
 3671SOL     OW11911   0.865   0.567   3.186
 3671SOL    HW111912   0.890   0.663   3.200
 3671SOL    HW211913   0.942   0.509   3.212
 3672SOL     OW11914   6.362   0.908   0.127
 3672SOL    HW111915   6.458   0.881   0.118
 3672SOL    HW211916   6.309   0.873   0.050
 3673SOL     OW11917   4.940   0.814   0.289
 3673SOL    HW111918   4.964   0.737   0.348
 3673SOL    HW211919   5.023   0.851   0.246
 3674SOL     OW11920   1.140   6.952   0.258
 3674SOL    HW111921   1.050   6.911   0.271
 3674SOL    HW211922   1.140   0.021   0.290
 3675SOL     OW11923   2.319   2.497   5.171
 3675SOL    HW111924   2.302   2.524   5.076
 3675SOL    HW211925   2.267   2.557   5.232
 3676SOL     OW11926   3.225   5.157   4.095
 3676SOL    HW111927   3.233   5.167   4.194
 3676SOL    HW211928   3.252   5.065   4.068
 3677SOL     OW11929   6.444   6.640   4.009
 3677SOL    HW111930   6.515   6.664   4.076
 3677SOL    HW211931   6.483   6.579   3.940
 3678SOL     OW11932   1.520   2.063   3.594
 3678SOL    HW111933   1.582   2.129   3.551
 3678SOL    HW211934   1.522   1.978   3.543
 3679SOL     OW11935   0.225   0.543   1.915
 3679SOL    HW111936   0.273   0.631   1.911
 3679SOL    HW211937   0.130   0.555   1.889
 3680SOL     OW11938   6.861   3.231   3.902
 3680SOL    HW111939   6.808   3.221   3.818
 3680SOL    HW211940   6.957   3.209   3.883
 3681SOL     OW11941   0.288   6.651   6.095
 3681SOL    HW111942   0.363   6.691   6.044
 3681SOL    HW211943   0.293   6.681   6.191
 3682SOL     OW11944   6.612   2.133   5.822
 3682SOL    HW111945   6.662   2.115   5.907
 3682SOL    HW211946   6.602   2.047   5.771
 3683SOL     OW11947   6.322   6.521   4.381
 3683SOL    HW111948   6.260   6.457   4.334
 3683SOL    HW211949   6.314   6.612   4.340
 3684SOL     OW11950   1.271   3.751   1.925
 3684SOL    HW111951   1.215   3.760   1.843
 3684SOL    HW211952   1.330   3.670   1.916
 3685SOL     OW11953   6.078   6.322   7.009
 3685SOL    HW111954   6.134   6.387   0.034
 3685SOL    HW211955   6.137   6.254   6.966
 3686SOL     OW11956   6.586   4.548   1.849
 3686SOL    HW111957   6.510   4.532   1.786
 3686SOL    HW211958   6.588   4.477   1.919
 3687SOL     OW11959   3.568   0.700   6.798
 3687SOL    HW111960   3.535   0.670   6.887
 3687SOL    HW211961   3.668   0.706   6.799
 3688SOL     OW11962   1.399   3.387   6.958
 3688SOL    HW111963   1.439   3.455   7.018
 3688SOL    HW211964   1.369   3.308   7.011
 3689SOL     OW11965   1.714   1.282   4.428
 3689SOL    HW111966   1.651   1.265   4.351
 3689SOL    HW211967   1.727   1.380   4.439
 3690SOL     OW11968   5.561   0.289   5.716
 3690SOL    HW111969   5.647   0.238   5.717
 3690SOL    HW211970   5.571   0.372   5.771
 3691SOL     OW11971   2.741   3.466   0.577
 3691SOL    HW111972   2.720   3.370   0.591
 3691SOL    HW211973   2.780   3.505   0.660
 3692SOL     OW11974   2.182   0.081   4.939
 3692SOL    HW111975   2.259   0.084   5.002
 3692SOL    HW211976   2.213   0.046   4.850
 3693SOL     OW11977   3.042   2.129   3.232
 3693SOL    HW111978   3.139   2.136   3.254
 3693SOL    HW211979   2.988   2.158   3.311
 3694SOL     OW11980   1.674   6.227   3.271
 3694SOL    HW111981   1.754   6.168   3.279
 3694SOL    HW211982   1.692   6.315   3.314
 3695SOL     OW11983   2.308   1.775   2.572
 3695SOL    HW111984   2.306   1.733   2.663
 3695SOL    HW211985   2.403   1.789   2.544
 3696SOL     OW11986   4.386   0.214   6.196
 3696SOL    HW111987   4.304   0.192   6.248
 3696SOL    HW211988   4.361   0.253   6.108
 3697SOL     OW11989   6.894   6.648   3.704
 3697SOL    HW111990   6.819   6.585   3.686
 3697SOL    HW211991   6.860   6.726   3.756
 3698SOL     OW11992   2.996   0.146   5.857
 3698SOL    HW111993   3.063   0.072   5.850
 3698SOL    HW211994   3.038   0.225   5.901
 3699SOL     OW11995   6.729   4.179   2.803
 3699SOL    HW111996   6.659   4.119   2.765
 3699SOL    HW211997   6.818   4.134   2.799
 3700SOL     OW11998   6.723   0.389   4.136
 3700SOL    HW111999   6.724   0.488   4.142
 3700SOL    HW212000   6.757   0.349   4.222
 3701SOL     OW12001   6.487   0.943   4.546
 3701SOL    HW112002   6.506   1.039   4.525
 3701SOL    HW212003   6.458   0.896   4.463
 3702SOL     OW12004   4.048   0.399   0.620
 3702SOL    HW112005   4.121   0.331   0.631
 3702SOL    HW212006   4.040   0.452   0.705
 3703SOL     OW12007   3.484   4.516   6.352
 3703SOL    HW112008   3.546   4.562   6.288
 3703SOL    HW212009   3.536   4.448   6.405
 3704SOL     OW12010   2.999   0.928   2.869
 3704SOL    HW112011   3.065   0.890   2.805
 3704SOL    HW212012   3.042   0.936   2.959
 3705SOL     OW12013   5.214   0.538   3.597
 3705SOL    HW112014   5.252   0.478   3.667
 3705SOL    HW212015   5.203   0.488   3.511
 3706SOL     OW12016   2.141   2.819   4.211
 3706SOL    HW112017   2.176   2.872   4.288
 3706SOL    HW212018   2.041   2.823   4.210
 3707SOL     OW12019   5.273   2.439   5.920
 3707SOL    HW112020   5.226   2.516   5.962
 3707SOL    HW212021   5.299   2.463   5.826
 3708SOL     OW12022   6.287   0.629   6.590
 3708SOL    HW112023   6.200   0.680   6.589
 3708SOL    HW212024   6.299   0.585   6.679
 3709SOL     OW12025   3.494   0.574   6.033
 3709SOL    HW112026   3.443   0.508   6.088
 3709SOL    HW212027   3.578   0.600   6.080
 3710SOL     OW12028   6.946   5.090   0.906
 3710SOL    HW112029   6.846   5.081   0.916
 3710SOL    HW212030   6.991   5.025   0.967
 3711SOL     OW12031   0.001   5.626   2.387
 3711SOL    HW112032   0.024   5.704   2.329
 3711SOL    HW212033   6.961   5.654   2.457
 3712SOL     OW12034   1.368   6.478   6.641
 3712SOL    HW112035   1.404   6.552   6.697
 3712SOL    HW212036   1.319   6.516   6.562
 3713SOL     OW12037   3.694   6.330   5.249
 3713SOL    HW112038   3.700   6.294   5.342
 3713SOL    HW212039   3.666   6.257   5.186
 3714SOL     OW12040   4.183   0.057   4.774
 3714SOL    HW112041   4.227   0.139   4.809
 3714SOL    HW212042   4.118   0.081   4.702
 3715SOL     OW12043   5.517   5.095   4.554
 3715SOL    HW112044   5.427   5.096   4.511
 3715SOL    HW212045   5.533   5.005   4.595
 3716SOL     OW12046   0.363   6.996   4.805
 3716SOL    HW112047   0.318   0.044   4.754
 3716SOL    HW212048   0.335   6.907   4.768
 3717SOL     OW12049   5.740   6.208   1.350
 3717SOL    HW112050   5.788   6.142   1.409
 3717SOL    HW212051   5.713   6.162   1.265
 3718SOL     OW12052   1.108   6.083   6.908
 3718SOL    HW112053   1.144   6.137   6.984
 3718SOL    HW212054   1.179   6.069   6.839
 3719SOL     OW12055   4.209   5.333   6.127
 3719SOL    HW112056   4.189   5.296   6.218
 3719SOL    HW212057   4.193   5.432   6.127
 3720SOL     OW12058   6.451   1.681   6.428
 3720SOL    HW112059   6.510   1.738   6.370
 3720SOL    HW212060   6.386   1.631   6.370
 3721SOL     OW12061   5.510   4.765   0.409
 3721SOL    HW112062   5.597   4.791   0.366
 3721SOL    HW212063   5.434   4.806   0.358
 3722SOL     OW12064   6.902   5.956   2.873
 3722SOL    HW112065   7.000   5.948   2.852
 3722SOL    HW212066   6.872   6.050   2.857
 3723SOL     OW12067   4.733   0.539   1.168
 3723SOL    HW112068   4.736   0.634   1.135
 3723SOL    HW212069   4.724   0.540   1.268
 3724SOL     OW12070   1.257   5.808   0.036
 3724SOL    HW112071   1.158   5.818   0.046
 3724SOL    HW212072   1.281   5.807   6.964
 3725SOL     OW12073   6.586   5.967   6.522
 3725SOL    HW112074   6.580   6.059   6.484
 3725SOL    HW212075   6.624   5.905   6.453
 3726SOL     OW12076   5.627   4.030   1.555
 3726SOL    HW112077   5.597   3.981   1.636
 3726SOL    HW212078   5.726   4.023   1.546
 3727SOL     OW12079   1.717   2.976   5.000
 3727SOL    HW112080   1.656   3.009   4.929
 3727SOL    HW212081   1.664   2.929   5.070
 3728SOL     OW12082   2.075   3.062   0.062
 3728SOL    HW112083   2.086   2.977   0.010
 3728SOL    HW212084   2.122   3.136   0.014
 3729SOL     OW12085   1.414   1.901   3.419
 3729SOL    HW112086   1.478   1.901   3.342
 3729SOL    HW212087   1.325   1.936   3.389
 3730SOL     OW12088   3.269   1.802   6.812
 3730SOL    HW112089   3.287   1.719   6.759
 3730SOL    HW212090   3.170   1.811   6.826
 3731SOL     OW12091   4.657   0.471   0.625
 3731SOL    HW112092   4.705   0.384   0.641
 3731SOL    HW212093   4.713   0.529   0.566
 3732SOL     OW12094   2.297   3.543   5.270
 3732SOL    HW112095   2.262   3.573   5.182
 3732SOL    HW212096   2.277   3.446   5.283
 3733SOL     OW12097   2.973   4.072   1.643
 3733SOL    HW112098   2.997   4.058   1.547
 3733SOL    HW212099   2.873   4.079   1.652
 3734SOL     OW12100   4.697   1.027   2.239
 3734SOL    HW112101   4.678   1.095   2.309
 3734SOL    HW212102   4.788   0.989   2.254
 3735SOL     OW12103   2.431   2.501   2.646
 3735SOL    HW112104   2.343   2.465   2.677
 3735SOL    HW212105   2.439   2.488   2.547
 3736SOL     OW12106   6.293   2.307   0.947
 3736SOL    HW112107   6.382   2.276   0.915
 3736SOL    HW212108   6.224   2.289   0.877
 3737SOL     OW12109   4.873   0.245   3.056
 3737SOL    HW112110   4.925   0.255   3.142
 3737SOL    HW212111   4.839   0.334   3.028
 3738SOL     OW12112   0.052   6.548   3.899
 3738SOL    HW112113   0.008   6.480   3.958
 3738SOL    HW212114   7.021   6.563   3.818
 3739SOL     OW12115   0.884   3.967   2.362
 3739SOL    HW112116   0.810   3.908   2.329
 3739SOL    HW212117   0.950   3.981   2.288
 3740SOL     OW12118   5.066   1.463   6.613
 3740SOL    HW112119   5.112   1.387   6.566
 3740SOL    HW212120   5.113   1.482   6.699
 3741SOL     OW12121   4.431   3.420   0.770
 3741SOL    HW112122   4.466   3.511   0.791
 3741SOL    HW212123   4.466   3.391   0.681
 3742SOL     OW12124   3.575   2.519   5.479
 3742SOL    HW112125   3.511   2.554   5.548
 3742SOL    HW212126   3.547   2.428   5.449
 3743SOL     OW12127   6.491   5.005   6.455
 3743SOL    HW112128   6.504   5.001   6.356
 3743SOL    HW212129   6.564   4.955   6.501
 3744SOL     OW12130   0.235   5.088   3.985
 3744SOL    HW112131   0.174   5.165   3.998
 3744SOL    HW212132   0.290   5.073   4.067
 3745SOL     OW12133   3.497   5.736   2.586
 3745SOL    HW112134   3.498   5.668   2.660
 3745SOL    HW212135   3.446   5.816   2.615
 3746SOL     OW12136   4.387   1.741   1.732
 3746SOL    HW112137   4.461   1.740   1.664
 3746SOL    HW212138   4.416   1.691   1.813
 3747SOL     OW12139   3.352   0.911   6.999
 3747SOL    HW112140   3.276   0.930   6.937
 3747SOL    HW212141   3.420   0.983   6.992
 3748SOL     OW12142   6.011   0.614   2.407
 3748SOL    HW112143   5.968   0.617   2.497
 3748SOL    HW212144   6.093   0.672   2.407
 3749SOL     OW12145   2.170   6.954   4.679
 3749SOL    HW112146   2.210   6.987   4.593
 3749SOL    HW212147   2.080   6.915   4.661
 3750SOL     OW12148   0.332   3.914   0.672
 3750SOL    HW112149   0.321   3.984   0.742
 3750SOL    HW212150   0.320   3.955   0.581
 3751SOL     OW12151   0.133   4.548   2.625
 3751SOL    HW112152   0.079   4.523   2.545
 3751SOL    HW212153   0.072   4.567   2.702
 3752SOL     OW12154   6.953   0.595   6.505
 3752SOL    HW112155   6.927   0.567   6.598
 3752SOL    HW212156   0.024   0.623   6.505
 3753SOL     OW12157   6.927   0.732   4.082
 3753SOL    HW112158   6.929   0.667   4.159
 3753SOL    HW212159   6.836   0.733   4.042
 3754SOL     OW12160   1.930   1.674   1.114
 3754SOL    HW112161   1.884   1.596   1.071
 3754SOL    HW212162   1.916   1.756   1.059
 3755SOL     OW12163   2.403   4.530   4.143
 3755SOL    HW112164   2.339   4.453   4.141
 3755SOL    HW212165   2.441   4.544   4.052
 3756SOL     OW12166   2.958   6.317   6.858
 3756SOL    HW112167   3.001   6.227   6.853
 3756SOL    HW212168   2.997   6.376   6.787
 3757SOL     OW12169   6.076   4.726   1.783
 3757SOL    HW112170   5.992   4.734   1.836
 3757SOL    HW212171   6.053   4.714   1.686
 3758SOL     OW12172   2.034   0.148   3.136
 3758SOL    HW112173   1.938   0.125   3.119
 3758SOL    HW212174   2.085   0.064   3.157
 3759SOL     OW12175   5.089   0.255   4.390
 3759SOL    HW112176   5.159   0.317   4.424
 3759SOL    HW212177   5.009   0.307   4.360
 3760SOL     OW12178   0.387   0.556   3.381
 3760SOL    HW112179   0.350   0.506   3.303
 3760SOL    HW212180   0.410   0.492   3.454
 3761SOL     OW12181   4.862   1.021   3.767
 3761SOL    HW112182   4.794   0.969   3.819
 3761SOL    HW212183   4.892   0.967   3.689
 3762SOL     OW12184   0.649   3.450   2.402
 3762SOL    HW112185   0.610   3.418   2.315
 3762SOL    HW212186   0.617   3.393   2.477
 3763SOL     OW12187   0.456   5.127   0.721
 3763SOL    HW112188   0.502   5.177   0.794
 3763SOL    HW212189   0.442   5.032   0.748
 3764SOL     OW12190   2.176   6.876   2.397
 3764SOL    HW112191   2.084   6.874   2.359
 3764SOL    HW212192   2.206   6.971   2.408
 3765SOL     OW12193   6.150   2.534   1.598
 3765SOL    HW112194   6.165   2.439   1.623
 3765SOL    HW212195   6.170   2.593   1.676
 3766SOL     OW12196   0.723   3.398   3.305
 3766SOL    HW112197   0.666   3.416   3.225
 3766SOL    HW212198   0.792   3.470   3.314
 3767SOL     OW12199   1.515   4.825   5.976
 3767SOL    HW112200   1.599   4.819   6.029
 3767SOL    HW212201   1.470   4.735   5.976
 3768SOL     OW12202   1.194   0.518   4.657
 3768SOL    HW112203   1.098   0.544   4.645
 3768SOL    HW212204   1.220   0.529   4.753
 3769SOL     OW12205   5.601   5.885   4.558
 3769SOL    HW112206   5.624   5.845   4.469
 3769SOL    HW212207   5.665   5.852   4.627
 3770SOL     OW12208   1.206   0.898   0.738
 3770SOL    HW112209   1.253   0.950   0.809
 3770SOL    HW212210   1.179   0.809   0.775
 3771SOL     OW12211   6.848   4.634   0.854
 3771SOL    HW112212   6.934   4.668   0.816
 3771SOL    HW212213   6.773   4.694   0.828
 3772SOL     OW12214   1.835   5.990   0.558
 3772SOL    HW112215   1.934   5.987   0.543
 3772SOL    HW212216   1.789   5.928   0.494
 3773SOL     OW12217   5.528   3.933   5.947
 3773SOL    HW112218   5.605   3.980   5.990
 3773SOL    HW212219   5.449   3.937   6.008
 3774SOL     OW12220   6.174   5.514   1.289
 3774SOL    HW112221   6.205   5.562   1.207
 3774SOL    HW212222   6.177   5.415   1.272
 3775SOL     OW12223   4.317   5.194   4.199
 3775SOL    HW112224   4.323   5.270   4.135
 3775SOL    HW212225   4.226   5.193   4.241
 3776SOL     OW12226   3.538   2.817   6.691
 3776SOL    HW112227   3.500   2.779   6.776
 3776SOL    HW212228   3.597   2.750   6.648
 3777SOL     OW12229   3.053   6.494   4.066
 3777SOL    HW112230   3.001   6.570   4.105
 3777SOL    HW212231   3.124   6.530   4.005
 3778SOL     OW12232   3.182   5.256   5.199
 3778SOL    HW112233   3.148   5.171   5.160
 3778SOL    HW212234   3.173   5.330   5.132
 3779SOL     OW12235   6.653   5.160   6.991
 3779SOL    HW112236   6.574   5.098   6.995
 3779SOL    HW212237   6.735   5.108   6.970
 3780SOL     OW12238   5.880   3.970   1.515
 3780SOL    HW112239   5.921   3.905   1.578
 3780SOL    HW212240   5.941   4.049   1.504
 3781SOL     OW12241   3.040   5.939   4.889
 3781SOL    HW112242   2.958   5.899   4.930
 3781SOL    HW212243   3.024   6.036   4.871
 3782SOL     OW12244   5.243   5.860   1.686
 3782SOL    HW112245   5.324   5.903   1.725
 3782SOL    HW212246   5.160   5.900   1.726
 3783SOL     OW12247   5.069   5.130   5.190
 3783SOL    HW112248   5.033   5.038   5.207
 3783SOL    HW212249   5.034   5.193   5.259
 3784SOL     OW12250   6.194   1.770   4.249
 3784SOL    HW112251   6.168   1.798   4.341
 3784SOL    HW212252   6.291   1.744   4.248
 3785SOL     OW12253   1.259   4.006   4.674
 3785SOL    HW112254   1.311   3.994   4.589
 3785SOL    HW212255   1.197   4.084   4.664
 3786SOL     OW12256   2.576   2.479   4.798
 3786SOL    HW112257   2.595   2.523   4.886
 3786SOL    HW212258   2.581   2.548   4.726
 3787SOL     OW12259   4.503   6.933   3.154
 3787SOL    HW112260   4.595   6.964   3.180
 3787SOL    HW212261   4.492   6.942   3.055
 3788SOL     OW12262   6.773   3.900   5.362
 3788SOL    HW112263   6.800   3.859   5.274
 3788SOL    HW212264   6.781   3.831   5.434
 3789SOL     OW12265   1.251   2.919   2.472
 3789SOL    HW112266   1.158   2.885   2.465
 3789SOL    HW212267   1.291   2.893   2.560
 3790SOL     OW12268   0.940   6.448   1.215
 3790SOL    HW112269   0.947   6.525   1.278
 3790SOL    HW212270   0.883   6.376   1.255
 3791SOL     OW12271   5.240   0.782   6.119
 3791SOL    HW112272   5.289   0.762   6.204
 3791SOL    HW212273   5.197   0.872   6.125
 3792SOL     OW12274   6.956   0.591   4.317
 3792SOL    HW112275   6.997   0.679   4.339
 3792SOL    HW212276   0.001   0.520   4.322
 3793SOL     OW12277   4.989   5.160   0.008
 3793SOL    HW112278   5.059   5.159   0.079
 3793SOL    HW212279   4.973   5.066   7.000
 3794SOL     OW12280   1.841   3.743   6.529
 3794SOL    HW112281   1.780   3.736   6.608
 3794SOL    HW212282   1.917   3.804   6.550
 3795SOL     OW12283   2.225   5.377   1.624
 3795SOL    HW112284   2.169   5.457   1.604
 3795SOL    HW212285   2.283   5.395   1.704
 3796SOL     OW12286   4.072   2.083   6.796
 3796SOL    HW112287   4.119   1.995   6.796
 3796SOL    HW212288   4.010   2.088   6.718
 3797SOL     OW12289   1.200   4.553   2.916
 3797SOL    HW112290   1.159   4.634   2.957
 3797SOL    HW212291   1.163   4.471   2.959
 3798SOL     OW12292   1.763   6.918   3.242
 3798SOL    HW112293   1.758   6.828   3.285
 3798SOL    HW212294   1.777   6.988   3.312
 3799SOL     OW12295   6.902   1.917   2.661
 3799SOL    HW112296   6.932   2.012   2.671
 3799SOL    HW212297   6.982   1.857   2.658
 3800SOL     OW12298   5.922   2.047   2.807
 3800SOL    HW112299   6.006   2.064   2.755
 3800SOL    HW212300   5.883   2.134   2.836
 3801SOL     OW12301   5.577   0.572   1.960
 3801SOL    HW112302   5.491   0.550   1.914
 3801SOL    HW212303   5.557   0.611   2.050
 3802SOL     OW12304   5.704   2.204   2.217
 3802SOL    HW112305   5.757   2.122   2.193
 3802SOL    HW212306   5.765   2.283   2.220
 3803SOL     OW12307   3.140   3.930   4.232
 3803SOL    HW112308   3.180   3.995   4.167
 3803SOL    HW212309   3.113   3.979   4.315
 3804SOL     OW12310   3.235   6.442   3.807
 3804SOL    HW112311   3.196   6.357   3.844
 3804SOL    HW212312   3.295   6.419   3.730
 3805SOL     OW12313   2.628   2.980   0.206
 3805SOL    HW112314   2.551   3.031   0.169
 3805SOL    HW212315   2.601   2.885   0.222
 3806SOL     OW12316   3.717   4.294   0.839
 3806SOL    HW112317   3.790   4.362   0.850
 3806SOL    HW212318   3.752   4.204   0.866
 3807SOL     OW12319   1.796   4.387   4.182
 3807SOL    HW112320   1.836   4.411   4.093
 3807SOL    HW212321   1.700   4.362   4.170
 3808SOL     OW12322   3.784   6.600   6.669
 3808SOL    HW112323   3.882   6.622   6.658
 3808SOL    HW212324   3.774   6.528   6.737
 3809SOL     OW12325   4.971   2.269   1.083
 3809SOL    HW112326   4.921   2.297   1.165
 3809SOL    HW212327   5.021   2.347   1.045
 3810SOL     OW12328   6.619   2.211   1.693
 3810SOL    HW112329   6.542   2.157   1.728
 3810SOL    HW212330   6.619   2.301   1.737
 3811SOL     OW12331   0.321   5.853   5.129
 3811SOL    HW112332   0.367   5.934   5.166
 3811SOL    HW212333   0.384   5.776   5.130
 3812SOL     OW12334   4.643   6.779   0.099
 3812SOL    HW112335   4.574   6.784   0.171
 3812SOL    HW212336   4.626   6.852   0.032
 3813SOL     OW12337   6.674   3.712   0.202
 3813SOL    HW112338   6.717   3.742   0.118
 3813SOL    HW212339   6.623   3.788   0.243
 3814SOL     OW12340   6.134   0.184   4.723
 3814SOL    HW112341   6.150   0.085   4.726
 3814SOL    HW212342   6.208   0.228   4.673
 3815SOL     OW12343   5.493   3.580   0.048
 3815SOL    HW112344   5.493   3.576   6.973
 3815SOL    HW212345   5.412   3.533   0.083
 3816SOL     OW12346   1.072   5.909   5.795
 3816SOL    HW112347   0.990   5.923   5.741
 3816SOL    HW212348   1.152   5.943   5.745
 3817SOL     OW12349   4.914   3.370   2.377
 3817SOL    HW112350   4.922   3.274   2.351
 3817SOL    HW212351   4.957   3.385   2.466
 3818SOL     OW12352   7.004   0.300   1.873
 3818SOL    HW112353   6.996   0.400   1.866
 3818SOL    HW212354   6.935   0.266   1.936
 3819SOL     OW12355   6.806   4.016   3.902
 3819SOL    HW112356   6.748   3.938   3.925
 3819SOL    HW212357   6.803   4.082   3.977
 3820SOL     OW12358   5.083   0.237   4.688
 3820SOL    HW112359   5.028   0.164   4.646
 3820SOL    HW212360   5.142   0.278   4.618
 3821SOL     OW12361   1.138   0.172   0.370
 3821SOL    HW112362   1.207   0.244   0.368
 3821SOL    HW212363   1.050   0.209   0.342
 3822SOL     OW12364   4.855   1.462   1.024
 3822SOL    HW112365   4.932   1.423   0.973
 3822SOL    HW212366   4.842   1.558   0.996
 3823SOL     OW12367   4.878   4.790   5.789
 3823SOL    HW112368   4.862   4.706   5.840
 3823SOL    HW212369   4.976   4.802   5.774
 3824SOL     OW12370   2.026   3.342   6.695
 3824SOL    HW112371   2.101   3.352   6.762
 3824SOL    HW212372   1.944   3.386   6.731
 3825SOL     OW12373   1.504   4.230   5.901
 3825SOL    HW112374   1.534   4.289   5.826
 3825SOL    HW212375   1.576   4.163   5.920
 3826SOL     OW12376   6.016   4.315   3.099
 3826SOL    HW112377   5.956   4.293   3.022
 3826SOL    HW212378   6.106   4.274   3.084
 3827SOL     OW12379   1.595   1.422   1.918
 3827SOL    HW112380   1.624   1.349   1.982
 3827SOL    HW212381   1.667   1.436   1.851
 3828SOL     OW12382   3.804   3.801   4.772
 3828SOL    HW112383   3.817   3.900   4.782
 3828SOL    HW212384   3.853   3.754   4.845
 3829SOL     OW12385   0.574   4.108   2.910
 3829SOL    HW112386   0.621   4.020   2.907
 3829SOL    HW212387   0.475   4.093   2.917
 3830SOL     OW12388   0.159   1.052   4.636
 3830SOL    HW112389   0.132   1.054   4.732
 3830SOL    HW212390   0.258   1.043   4.629
 3831SOL     OW12391   4.319   1.802   3.299
 3831SOL    HW112392   4.279   1.817   3.389
 3831SOL    HW212393   4.314   1.705   3.276
 3832SOL     OW12394   0.434   0.899   2.825
 3832SOL    HW112395   0.461   0.867   2.916
 3832SOL    HW212396   0.361   0.841   2.789
 3833SOL     OW12397   1.142   0.640   5.892
 3833SOL    HW112398   1.078   0.626   5.817
 3833SOL    HW212399   1.092   0.649   5.978
 3834SOL     OW12400   4.984   4.171   0.596
 3834SOL    HW112401   4.927   4.103   0.641
 3834SOL    HW212402   4.946   4.262   0.612
 3835SOL     OW12403   4.093   5.962   4.791
 3835SOL    HW112404   4.002   5.992   4.819
 3835SOL    HW212405   4.140   6.037   4.746
 3836SOL     OW12406   6.837   5.772   6.402
 3836SOL    HW112407   6.789   5.696   6.445
 3836SOL    HW212408   6.879   5.741   6.317
 3837SOL     OW12409   4.271   4.851   5.080
 3837SOL    HW112410   4.193   4.886   5.030
 3837SOL    HW212411   4.356   4.884   5.038
 3838SOL     OW12412   1.676   1.922   3.237
 3838SOL    HW112413   1.750   1.924   3.171
 3838SOL    HW212414   1.707   1.960   3.324
 3839SOL     OW12415   4.118   0.665   2.837
 3839SOL    HW112416   4.193   0.599   2.847
 3839SOL    HW212417   4.059   0.637   2.760
 3840SOL     OW12418   2.779   0.802   0.185
 3840SOL    HW112419   2.693   0.751   0.174
 3840SOL    HW212420   2.855   0.738   0.186
 3841SOL     OW12421   6.530   4.526   3.254
 3841SOL    HW112422   6.624   4.504   3.281
 3841SOL    HW212423   6.521   4.520   3.154
 3842SOL     OW12424   2.252   2.969   5.507
 3842SOL    HW112425   2.323   3.033   5.477
 3842SOL    HW212426   2.246   2.893   5.442
 3843SOL     OW12427   5.786   2.508   0.607
 3843SOL    HW112428   5.836   2.573   0.665
 3843SOL    HW212429   5.751   2.556   0.527
 3844SOL     OW12430   1.589   5.272   0.088
 3844SOL    HW112431   1.511   5.321   0.050
 3844SOL    HW212432   1.671   5.329   0.081
 3845SOL     OW12433   2.688   6.526   0.694
 3845SOL    HW112434   2.697   6.612   0.744
 3845SOL    HW212435   2.776   6.502   0.653
 3846SOL     OW12436   0.912   2.767   3.932
 3846SOL    HW112437   0.924   2.805   4.023
 3846SOL    HW212438   0.941   2.671   3.932
 3847SOL     OW12439   6.590   0.996   5.511
 3847SOL    HW112440   6.662   0.941   5.468
 3847SOL    HW212441   6.580   0.970   5.607
 3848SOL     OW12442   5.172   3.833   2.343
 3848SOL    HW112443   5.073   3.826   2.349
 3848SOL    HW212444   5.214   3.748   2.374
 3849SOL     OW12445   0.129   5.936   6.492
 3849SOL    HW112446   0.068   5.972   6.421
 3849SOL    HW212447   0.163   6.011   6.548
 3850SOL     OW12448   2.563   2.581   1.145
 3850SOL    HW112449   2.519   2.665   1.177
 3850SOL    HW212450   2.496   2.508   1.140
 3851SOL     OW12451   0.059   5.347   3.648
 3851SOL    HW112452   0.140   5.296   3.619
 3851SOL    HW212453   0.005   5.292   3.711
 3852SOL     OW12454   3.575   6.094   5.122
 3852SOL    HW112455   3.653   6.034   5.136
 3852SOL    HW212456   3.493   6.051   5.159
 3853SOL     OW12457   2.462   1.176   3.779
 3853SOL    HW112458   2.439   1.103   3.714
 3853SOL    HW212459   2.529   1.238   3.737
 3854SOL     OW12460   1.399   2.463   2.533
 3854SOL    HW112461   1.400   2.369   2.501
 3854SOL    HW212462   1.384   2.465   2.632
 3855SOL     OW12463   4.659   6.568   0.381
 3855SOL    HW112464   4.703   6.579   0.291
 3855SOL    HW212465   4.702   6.630   0.447
 3856SOL     OW12466   0.506   2.037   6.073
 3856SOL    HW112467   0.490   2.080   5.985
 3856SOL    HW212468   0.597   1.997   6.075
 3857SOL     OW12469   2.294   0.761   5.984
 3857SOL    HW112470   2.221   0.812   6.029
 3857SOL    HW212471   2.325   0.811   5.903
 3858SOL     OW12472   3.701   1.414   5.166
 3858SOL    HW112473   3.759   1.332   5.163
 3858SOL    HW212474   3.753   1.492   5.134
 3859SOL     OW12475   5.217   0.227   0.898
 3859SOL    HW112476   5.233   0.193   0.990
 3859SOL    HW212477   5.255   0.319   0.889
 3860SOL     OW12478   1.775   0.998   4.467
 3860SOL    HW112479   1.773   1.097   4.462
 3860SOL    HW212480   1.685   0.963   4.492
 3861SOL     OW12481   4.479   5.579   2.037
 3861SOL    HW112482   4.553   5.523   2.073
 3861SOL    HW212483   4.500   5.676   2.053
 3862SOL     OW12484   0.889   6.446   3.985
 3862SOL    HW112485   0.806   6.481   4.029
 3862SOL    HW212486   0.883   6.459   3.886
 3863SOL     OW12487   4.480   0.844   0.608
 3863SOL    HW112488   4.397   0.872   0.656
 3863SOL    HW212489   4.457   0.781   0.534
 3864SOL     OW12490   2.207   0.861   4.582
 3864SOL    HW112491   2.119   0.886   4.624
 3864SOL    HW212492   2.262   0.810   4.648
 3865SOL     OW12493   4.261   0.395   0.045
 3865SOL    HW112494   4.270   0.338   0.126
 3865SOL    HW212495   4.200   0.472   0.065
 3866SOL     OW12496   2.724   2.781   6.457
 3866SOL    HW112497   2.816   2.810   6.485
 3866SOL    HW212498   2.660   2.855   6.474
 3867SOL     OW12499   1.173   4.359   2.692
 3867SOL    HW112500   1.087   4.396   2.657
 3867SOL    HW212501   1.219   4.428   2.748
 3868SOL     OW12502   3.229   1.299   0.306
 3868SOL    HW112503   3.314   1.255   0.338
 3868SOL    HW212504   3.195   1.250   0.226
 3869SOL     OW12505   6.257   3.014   3.282
 3869SOL    HW112506   6.189   3.011   3.209
 3869SOL    HW212507   6.337   2.960   3.256
 3870SOL     OW12508   6.684   0.279   3.280
 3870SOL    HW112509   6.625   0.322   3.349
 3870SOL    HW212510   6.780   0.292   3.305
 3871SOL     OW12511   3.184   6.177   3.850
 3871SOL    HW112512   3.123   6.119   3.903
 3871SOL    HW212513   3.221   6.124   3.773
 3872SOL     OW12514   3.743   2.912   4.270
 3872SOL    HW112515   3.785   2.830   4.231
 3872SOL    HW212516   3.647   2.891   4.293
 3873SOL     OW12517   5.044   2.636   0.627
 3873SOL    HW112518   5.114   2.673   0.687
 3873SOL    HW212519   4.954   2.645   0.671
 3874SOL     OW12520   3.878   6.731   1.042
 3874SOL    HW112521   3.917   6.812   0.999
 3874SOL    HW212522   3.947   6.659   1.047
 3875SOL     OW12523   2.090   1.984   4.725
 3875SOL    HW112524   2.118   2.056   4.789
 3875SOL    HW212525   2.083   1.897   4.773
 3876SOL     OW12526   4.543   6.206   0.733
 3876SOL    HW112527   4.605   6.245   0.665
 3876SOL    HW212528   4.558   6.250   0.822
 3877SOL     OW12529   6.823   1.883   0.780
 3877SOL    HW112530   6.790   1.806   0.726
 3877SOL    HW212531   6.777   1.883   0.869
 3878SOL     OW12532   4.678   0.329   4.578
 3878SOL    HW112533   4.578   0.319   4.575
 3878SOL    HW212534   4.716   0.264   4.644
 3879SOL     OW12535   5.269   4.390   6.604
 3879SOL    HW112536   5.277   4.290   6.600
 3879SOL    HW212537   5.359   4.431   6.594
 3880SOL     OW12538   5.496   4.454   4.816
 3880SOL    HW112539   5.528   4.375   4.867
 3880SOL    HW212540   5.401   4.440   4.789
 3881SOL     OW12541   1.239   3.508   0.947
 3881SOL    HW112542   1.255   3.412   0.972
 3881SOL    HW212543   1.244   3.518   0.848
 3882SOL     OW12544   1.045   1.137   0.249
 3882SOL    HW112545   1.134   1.101   0.221
 3882SOL    HW212546   1.017   1.209   0.186
 3883SOL     OW12547   4.546   0.117   2.936
 3883SOL    HW112548   4.472   0.149   2.877
 3883SOL    HW212549   4.574   0.190   2.997
 3884SOL     OW12550   0.507   6.212   3.382
 3884SOL    HW112551   0.413   6.239   3.399
 3884SOL    HW212552   0.569   6.272   3.434
 3885SOL     OW12553   5.585   6.989   2.868
 3885SOL    HW112554   5.580   6.892   2.889
 3885SOL    HW212555   5.541   7.008   2.781
 3886SOL     OW12556   4.326   6.579   5.609
 3886SOL    HW112557   4.322   6.673   5.576
 3886SOL    HW212558   4.331   6.516   5.531
 3887SOL     OW12559   1.024   6.280   0.753
 3887SOL    HW112560   0.974   6.327   0.826
 3887SOL    HW212561   0.979   6.193   0.733
 3888SOL     OW12562   5.810   6.105   4.469
 3888SOL    HW112563   5.752   6.030   4.500
 3888SOL    HW212564   5.870   6.073   4.396
 3889SOL     OW12565   5.833   2.490   6.809
 3889SOL    HW112566   5.926   2.465   6.780
 3889SOL    HW212567   5.769   2.469   6.735
 3890SOL     OW12568   5.496   4.315   4.293
 3890SOL    HW112569   5.419   4.268   4.250
 3890SOL    HW212570   5.495   4.298   4.391
 3891SOL     OW12571   5.384   4.381   4.046
 3891SOL    HW112572   5.295   4.422   4.069
 3891SOL    HW212573   5.453   4.413   4.112
 3892SOL     OW12574   0.205   2.565   0.942
 3892SOL    HW112575   0.120   2.578   0.993
 3892SOL    HW212576   0.207   2.472   0.904
 3893SOL     OW12577   4.526   3.641   1.323
 3893SOL    HW112578   4.512   3.550   1.364
 3893SOL    HW212579   4.538   3.709   1.395
 3894SOL     OW12580   5.113   0.625   6.337
 3894SOL    HW112581   5.030   0.572   6.324
 3894SOL    HW212582   5.176   0.607   6.261
 3895SOL     OW12583   1.305   0.488   4.927
 3895SOL    HW112584   1.213   0.451   4.942
 3895SOL    HW212585   1.352   0.495   5.015
 3896SOL     OW12586   0.641   0.846   6.707
 3896SOL    HW112587   0.740   0.852   6.725
 3896SOL    HW212588   0.616   0.750   6.693
 3897SOL     OW12589   4.695   6.038   2.008
 3897SOL    HW112590   4.794   6.029   1.991
 3897SOL    HW212591   4.680   6.097   2.086
 3898SOL     OW12592   4.265   2.869   0.183
 3898SOL    HW112593   4.200   2.795   0.164
 3898SOL    HW212594   4.251   2.943   0.118
 3899SOL     OW12595   4.507   6.771   6.169
 3899SOL    HW112596   4.536   6.849   6.114
 3899SOL    HW212597   4.466   6.702   6.110
 3900SOL     OW12598   5.410   3.234   4.017
 3900SOL    HW112599   5.318   3.208   3.989
 3900SOL    HW212600   5.409   3.264   4.112
 3901SOL     OW12601   3.443   0.388   5.809
 3901SOL    HW112602   3.464   0.480   5.840
 3901SOL    HW212603   3.355   0.360   5.848
 3902SOL     OW12604   5.702   3.141   2.351
 3902SOL    HW112605   5.689   3.178   2.443
 3902SOL    HW212606   5.632   3.073   2.332
 3903SOL     OW12607   4.061   6.769   0.551
 3903SOL    HW112608   3.983   6.812   0.506
 3903SOL    HW212609   4.061   6.671   0.533
 3904SOL     OW12610   1.353   0.467   6.483
 3904SOL    HW112611   1.439   0.418   6.469
 3904SOL    HW212612   1.373   0.560   6.514
 3905SOL     OW12613   6.771   6.939   6.576
 3905SOL    HW112614   6.680   6.931   6.534
 3905SOL    HW212615   6.831   6.868   6.538
 3906SOL     OW12616   5.419   6.240   6.300
 3906SOL    HW112617   5.466   6.320   6.338
 3906SOL    HW212618   5.464   6.214   6.215
 3907SOL     OW12619   5.354   1.271   4.258
 3907SOL    HW112620   5.319   1.359   4.291
 3907SOL    HW212621   5.414   1.286   4.180
 3908SOL     OW12622   1.118   2.296   6.961
 3908SOL    HW112623   1.091   2.223   7.023
 3908SOL    HW212624   1.166   2.368   7.013
 3909SOL     OW12625   5.359   5.908   4.753
 3909SOL    HW112626   5.407   5.835   4.803
 3909SOL    HW212627   5.386   5.904   4.656
 3910SOL     OW12628   3.722   4.045   2.794
 3910SOL    HW112629   3.723   4.084   2.886
 3910SOL    HW212630   3.768   3.956   2.795
 3911SOL     OW12631   6.077   1.730   5.129
 3911SOL    HW112632   6.027   1.671   5.065
 3911SOL    HW212633   6.130   1.798   5.077
 3912SOL     OW12634   5.242   1.896   5.111
 3912SOL    HW112635   5.290   1.969   5.062
 3912SOL    HW212636   5.159   1.933   5.152
 3913SOL     OW12637   1.779   0.079   6.572
 3913SOL    HW112638   1.774   7.005   6.557
 3913SOL    HW212639   1.696   0.110   6.618
 3914SOL     OW12640   2.860   0.197   0.549
 3914SOL    HW112641   2.773   0.222   0.592
 3914SOL    HW212642   2.842   0.142   0.467
 3915SOL     OW12643   5.565   5.886   1.003
 3915SOL    HW112644   5.472   5.859   1.027
 3915SOL    HW212645   5.573   5.893   0.903
 3916SOL     OW12646   0.996   0.216   3.001
 3916SOL    HW112647   0.970   0.228   2.905
 3916SOL    HW212648   0.914   0.216   3.058
 3917SOL     OW12649   1.027   6.533   6.892
 3917SOL    HW112650   1.072   6.586   6.820
 3917SOL    HW212651   0.964   6.592   6.943
 3918SOL     OW12652   5.428   5.616   1.588
 3918SOL    HW112653   5.377   5.671   1.521
 3918SOL    HW212654   5.379   5.531   1.605
 3919SOL     OW12655   4.554   6.906   0.490
 3919SOL    HW112656   4.495   6.881   0.412
 3919SOL    HW212657   4.583   6.823   0.536
 3920SOL     OW12658   2.529   3.758   0.400
 3920SOL    HW112659   2.531   3.771   0.301
 3920SOL    HW212660   2.619   3.781   0.438
 3921SOL     OW12661   0.348   3.866   1.395
 3921SOL    HW112662   0.253   3.850   1.370
 3921SOL    HW212663   0.401   3.781   1.385
 3922SOL     OW12664   6.536   4.006   2.145
 3922SOL    HW112665   6.474   4.057   2.086
 3922SOL    HW212666   6.576   3.931   2.093
 3923SOL     OW12667   6.913   0.857   0.594
 3923SOL    HW112668   6.935   0.861   0.496
 3923SOL    HW212669   6.828   0.807   0.607
 3924SOL     OW12670   6.241   4.856   4.021
 3924SOL    HW112671   6.241   4.760   3.993
 3924SOL    HW212672   6.148   4.892   4.018
 3925SOL     OW12673   1.642   4.612   1.512
 3925SOL    HW112674   1.684   4.700   1.534
 3925SOL    HW212675   1.572   4.625   1.441
 3926SOL     OW12676   4.518   4.866   2.290
 3926SOL    HW112677   4.557   4.812   2.216
 3926SOL    HW212678   4.591   4.900   2.349
 3927SOL     OW12679   6.519   2.440   5.083
 3927SOL    HW112680   6.507   2.527   5.131
 3927SOL    HW212681   6.613   2.408   5.096
 3928SOL     OW12682   4.822   6.612   6.635
 3928SOL    HW112683   4.851   6.643   6.726
 3928SOL    HW212684   4.739   6.661   6.608
 3929SOL     OW12685   1.022   0.400   5.026
 3929SOL    HW112686   1.004   0.482   5.081
 3929SOL    HW212687   0.955   0.394   4.952
 3930SOL     OW12688   2.967   2.227   4.554
 3930SOL    HW112689   3.016   2.217   4.468
 3930SOL    HW212690   3.028   2.203   4.630
 3931SOL     OW12691   1.244   1.698   1.458
 3931SOL    HW112692   1.252   1.607   1.498
 3931SOL    HW212693   1.236   1.766   1.531
 3932SOL     OW12694   0.920   3.599   3.374
 3932SOL    HW112695   0.952   3.591   3.279
 3932SOL    HW212696   0.941   3.690   3.409
 3933SOL     OW12697   2.265   6.876   6.078
 3933SOL    HW112698   2.281   6.921   6.165
 3933SOL    HW212699   2.208   6.934   6.020
 3934SOL     OW12700   6.033   0.205   6.454
 3934SOL    HW112701   6.103   0.136   6.471
 3934SOL    HW212702   6.015   0.212   6.356
 3935SOL     OW12703   3.447   0.277   0.120
 3935SOL    HW112704   3.445   0.204   0.051
 3935SOL    HW212705   3.370   0.264   0.183
 3936SOL     OW12706   6.440   5.054   4.839
 3936SOL    HW112707   6.421   5.110   4.920
 3936SOL    HW212708   6.487   5.109   4.770
 3937SOL     OW12709   0.336   1.976   2.738
 3937SOL    HW112710   0.319   2.053   2.675
 3937SOL    HW212711   0.402   1.913   2.697
 3938SOL     OW12712   1.351   1.600   3.473
 3938SOL    HW112713   1.397   1.662   3.536
 3938SOL    HW212714   1.375   1.624   3.379
 3939SOL     OW12715   2.570   2.515   2.925
 3939SOL    HW112716   2.660   2.490   2.890
 3939SOL    HW212717   2.513   2.548   2.849
 3940SOL     OW12718   4.476   4.044   1.122
 3940SOL    HW112719   4.559   4.098   1.109
 3940SOL    HW212720   4.429   4.034   1.035
 3941SOL     OW12721   5.254   4.679   5.913
 3941SOL    HW112722   5.215   4.688   6.005
 3941SOL    HW212723   5.351   4.657   5.921
 3942SOL     OW12724   0.163   6.076   6.973
 3942SOL    HW112725   0.118   5.987   6.975
 3942SOL    HW212726   0.120   6.133   6.903
 3943SOL     OW12727   0.922   2.564   4.221
 3943SOL    HW112728   0.894   2.503   4.295
 3943SOL    HW212729   0.969   2.511   4.150
 3944SOL     OW12730   4.604   2.760   5.116
 3944SOL    HW112731   4.639   2.846   5.079
 3944SOL    HW212732   4.676   2.715   5.170
 3945SOL     OW12733   0.377   1.744   0.430
 3945SOL    HW112734   0.293   1.744   0.376
 3945SOL    HW212735   0.429   1.661   0.410
 3946SOL     OW12736   5.087   4.507   3.973
 3946SOL    HW112737   5.062   4.482   3.880
 3946SOL    HW212738   5.060   4.434   4.036
 3947SOL     OW12739   4.604   6.296   6.703
 3947SOL    HW112740   4.621   6.291   6.802
 3947SOL    HW212741   4.675   6.351   6.660
 3948SOL     OW12742   6.978   4.683   2.061
 3948SOL    HW112743   7.013   4.697   2.153
 3948SOL    HW212744   0.010   4.618   2.012
 3949SOL     OW12745   5.404   6.108   3.190
 3949SOL    HW112746   5.493   6.149   3.169
 3949SOL    HW212747   5.338   6.137   3.121
 3950SOL     OW12748   1.219   4.930   0.409
 3950SOL    HW112749   1.270   4.972   0.334
 3950SOL    HW212750   1.221   4.830   0.398
 3951SOL     OW12751   4.782   0.209   1.869
 3951SOL    HW112752   4.715   0.173   1.935
 3951SOL    HW212753   4.734   0.257   1.796
 3952SOL     OW12754   6.992   2.765   1.576
 3952SOL    HW112755   6.938   2.691   1.616
 3952SOL    HW212756   0.062   2.736   1.565
 3953SOL     OW12757   4.229   4.274   1.330
 3953SOL    HW112758   4.311   4.320   1.298
 3953SOL    HW212759   4.199   4.314   1.417
 3954SOL     OW12760   3.900   5.978   6.017
 3954SOL    HW112761   3.969   5.933   6.073
 3954SOL    HW212762   3.859   5.911   5.955
 3955SOL     OW12763   2.851   1.140   6.425
 3955SOL    HW112764   2.776   1.076   6.441
 3955SOL    HW212765   2.938   1.095   6.440
 3956SOL     OW12766   1.273   0.828   2.280
 3956SOL    HW112767   1.354   0.815   2.337
 3956SOL    HW212768   1.197   0.774   2.317
 3957SOL     OW12769   3.743   0.094   4.398
 3957SOL    HW112770   3.786   0.030   4.461
 3957SOL    HW212771   3.703   0.043   4.322
 3958SOL     OW12772   6.079   1.535   4.058
 3958SOL    HW112773   6.107   1.598   4.130
 3958SOL    HW212774   6.134   1.552   3.976
 3959SOL     OW12775   5.424   5.217   0.354
 3959SOL    HW112776   5.381   5.293   0.306
 3959SOL    HW212777   5.402   5.222   0.451
 3960SOL     OW12778   5.121   1.096   5.818
 3960SOL    HW112779   5.112   1.009   5.769
 3960SOL    HW212780   5.082   1.169   5.763
 3961SOL     OW12781   4.345   0.661   3.054
 3961SOL    HW112782   4.328   0.760   3.051
 3961SOL    HW212783   4.359   0.633   3.149
 3962SOL     OW12784   1.397   5.034   6.111
 3962SOL    HW112785   1.430   4.949   6.071
 3962SOL    HW212786   1.299   5.028   6.129
 3963SOL     OW12787   4.455   5.519   2.396
 3963SOL    HW112788   4.444   5.455   2.472
 3963SOL    HW212789   4.371   5.521   2.342
 3964SOL     OW12790   4.876   4.728   3.782
 3964SOL    HW112791   4.958   4.696   3.735
 3964SOL    HW212792   4.809   4.654   3.786
 3965SOL     OW12793   4.931   3.246   4.171
 3965SOL    HW112794   4.880   3.214   4.250
 3965SOL    HW212795   4.943   3.345   4.176
 3966SOL     OW12796   3.697   6.356   6.533
 3966SOL    HW112797   3.605   6.377   6.499
 3966SOL    HW212798   3.741   6.440   6.564
 3967SOL     OW12799   2.161   4.076   1.853
 3967SOL    HW112800   2.202   3.986   1.868
 3967SOL    HW212801   2.155   4.094   1.755
 3968SOL     OW12802   4.355   0.415   1.108
 3968SOL    HW112803   4.421   0.437   1.036
 3968SOL    HW212804   4.299   0.337   1.080
 3969SOL     OW12805   1.497   4.638   1.987
 3969SOL    HW112806   1.464   4.650   2.080
 3969SOL    HW212807   1.477   4.544   1.956
 3970SOL     OW12808   5.056   6.033   2.857
 3970SOL    HW112809   4.991   6.101   2.823
 3970SOL    HW212810   5.012   5.943   2.860
 3971SOL     OW12811   2.739   5.464   4.352
 3971SOL    HW112812   2.790   5.524   4.291
 3971SOL    HW212813   2.641   5.470   4.332
 3972SOL     OW12814   1.539   4.311   6.707
 3972SOL    HW112815   1.503   4.218   6.707
 3972SOL    HW212816   1.571   4.334   6.799
 3973SOL     OW12817   1.301   5.680   0.598
 3973SOL    HW112818   1.285   5.581   0.605
 3973SOL    HW212819   1.277   5.711   0.506
 3974SOL     OW12820   1.821   0.216   5.797
 3974SOL    HW112821   1.790   0.184   5.886
 3974SOL    HW212822   1.742   0.239   5.740
 3975SOL     OW12823   5.006   1.205   6.317
 3975SOL    HW112824   4.969   1.118   6.285
 3975SOL    HW212825   5.095   1.222   6.274
 3976SOL     OW12826   2.277   6.364   3.175
 3976SOL    HW112827   2.344   6.328   3.110
 3976SOL    HW212828   2.272   6.304   3.255
 3977SOL     OW12829   0.987   3.147   6.314
 3977SOL    HW112830   0.971   3.158   6.412
 3977SOL    HW212831   1.084   3.132   6.297
 3978SOL     OW12832   5.983   4.807   3.539
 3978SOL    HW112833   5.902   4.849   3.496
 3978SOL    HW212834   6.065   4.833   3.488
 3979SOL     OW12835   3.795   1.230   6.465
 3979SOL    HW112836   3.816   1.137   6.436
 3979SOL    HW212837   3.768   1.230   6.562
 3980SOL     OW12838   5.568   6.491   6.348
 3980SOL    HW112839   5.642   6.531   6.402
 3980SOL    HW212840   5.499   6.562   6.329
 3981SOL     OW12841   4.395   5.956   0.711
 3981SOL    HW112842   4.295   5.967   0.716
 3981SOL    HW212843   4.438   6.046   0.705
 3982SOL     OW12844   2.355   6.920   2.727
 3982SOL    HW112845   2.287   6.971   2.675
 3982SOL    HW212846   2.380   6.837   2.677
 3983SOL     OW12847   5.393   5.121   3.937
 3983SOL    HW112848   5.390   5.200   3.999
 3983SOL    HW212849   5.310   5.067   3.948
 3984SOL     OW12850   6.342   1.135   2.009
 3984SOL    HW112851   6.354   1.195   2.088
 3984SOL    HW212852   6.291   1.054   2.037
 3985SOL     OW12853   3.505   5.189   6.836
 3985SOL    HW112854   3.465   5.167   6.748
 3985SOL    HW212855   3.441   5.166   6.909
 3986SOL     OW12856   4.838   1.896   3.214
 3986SOL    HW112857   4.739   1.889   3.218
 3986SOL    HW212858   4.865   1.948   3.133
 3987SOL     OW12859   3.568   5.314   3.836
 3987SOL    HW112860   3.639   5.268   3.783
 3987SOL    HW212861   3.610   5.377   3.901
 3988SOL     OW12862   3.837   4.992   6.897
 3988SOL    HW112863   3.888   4.908   6.916
 3988SOL    HW212864   3.879   5.069   6.944
 3989SOL     OW12865   6.905   1.986   0.105
 3989SOL    HW112866   6.847   2.048   0.051
 3989SOL    HW212867   6.904   2.014   0.201
 3990SOL     OW12868   5.094   2.596   2.003
 3990SOL    HW112869   5.086   2.663   1.928
 3990SOL    HW212870   5.047   2.512   1.978
 3991SOL     OW12871   0.085   1.488   1.705
 3991SOL    HW112872   0.073   1.484   1.606
 3991SOL    HW212873   0.066   1.398   1.745
 3992SOL     OW12874   2.872   2.456   0.726
 3992SOL    HW112875   2.842   2.486   0.817
 3992SOL    HW212876   2.883   2.356   0.726
 3993SOL     OW12877   1.588   2.585   2.372
 3993SOL    HW112878   1.667   2.580   2.433
 3993SOL    HW212879   1.505   2.564   2.425
 3994SOL     OW12880   2.755   0.314   5.975
 3994SOL    HW112881   2.700   0.230   5.969
 3994SOL    HW212882   2.844   0.292   6.014
 3995SOL     OW12883   1.884   3.593   5.651
 3995SOL    HW112884   1.959   3.616   5.589
 3995SOL    HW212885   1.797   3.608   5.605
 3996SOL     OW12886   0.174   6.558   5.682
 3996SOL    HW112887   0.157   6.573   5.585
 3996SOL    HW212888   0.234   6.479   5.694
 3997SOL     OW12889   5.537   1.229   4.066
 3997SOL    HW112890   5.524   1.186   3.977
 3997SOL    HW212891   5.633   1.255   4.077
 3998SOL     OW12892   3.373   1.223   4.406
 3998SOL    HW112893   3.473   1.226   4.409
 3998SOL    HW212894   3.340   1.272   4.325
 3999SOL     OW12895   6.017   2.612   4.455
 3999SOL    HW112896   6.062   2.688   4.409
 3999SOL    HW212897   6.040   2.527   4.408
 4000SOL     OW12898   2.878   6.720   4.081
 4000SOL    HW112899   2.787   6.682   4.096
 4000SOL    HW212900   2.877   6.781   4.002
 4001SOL     OW12901   2.604   1.694   3.830
 4001SOL    HW112902   2.537   1.652   3.891
 4001SOL    HW212903   2.582   1.791   3.819
 4002SOL     OW12904   2.653   3.747   1.649
 4002SOL    HW112905   2.558   3.776   1.665
 4002SOL    HW212906   2.687   3.790   1.565
 4003SOL     OW12907   3.148   0.491   4.151
 4003SOL    HW112908   3.183   0.582   4.130
 4003SOL    HW212909   3.089   0.460   4.077
 4004SOL     OW12910   6.678   2.252   4.328
 4004SOL    HW112911   6.686   2.309   4.246
 4004SOL    HW212912   6.615   2.296   4.393
 4005SOL     OW12913   4.628   5.912   6.237
 4005SOL    HW112914   4.721   5.946   6.250
 4005SOL    HW212915   4.565   5.967   6.292
 4006SOL     OW12916   3.709   5.156   2.228
 4006SOL    HW112917   3.651   5.140   2.148
 4006SOL    HW212918   3.660   5.213   2.294
 4007SOL     OW12919   0.154   2.635   6.655
 4007SOL    HW112920   0.087   2.596   6.593
 4007SOL    HW212921   0.109   2.665   6.739
 4008SOL     OW12922   2.781   2.276   4.785
 4008SOL    HW112923   2.861   2.301   4.729
 4008SOL    HW212924   2.723   2.357   4.798
 4009SOL     OW12925   3.973   3.266   2.522
 4009SOL    HW112926   4.032   3.300   2.449
 4009SOL    HW212927   3.926   3.183   2.491
 4010SOL     OW12928   2.370   2.804   1.870
 4010SOL    HW112929   2.458   2.853   1.869
 4010SOL    HW212930   2.385   2.709   1.895
 4011SOL     OW12931   0.652   2.243   1.921
 4011SOL    HW112932   0.723   2.183   1.957
 4011SOL    HW212933   0.637   2.224   1.824
 4012SOL     OW12934   6.768   4.299   2.228
 4012SOL    HW112935   6.697   4.270   2.292
 4012SOL    HW212936   6.761   4.397   2.213
 4013SOL     OW12937   4.156   1.973   4.478
 4013SOL    HW112938   4.092   1.901   4.450
 4013SOL    HW212939   4.104   2.054   4.506
 4014SOL     OW12940   6.005   6.471   2.523
 4014SOL    HW112941   6.005   6.393   2.587
 4014SOL    HW212942   6.061   6.545   2.561
 4015SOL     OW12943   4.310   4.126   6.360
 4015SOL    HW112944   4.276   4.175   6.280
 4015SOL    HW212945   4.233   4.084   6.408
 4016SOL     OW12946   2.895   5.946   5.524
 4016SOL    HW112947   2.853   5.966   5.613
 4016SOL    HW212948   2.980   5.895   5.538
 4017SOL     OW12949   6.912   5.888   0.161
 4017SOL    HW112950   6.885   5.919   0.252
 4017SOL    HW212951   6.899   5.789   0.155
 4018SOL     OW12952   4.110   5.826   1.897
 4018SOL    HW112953   4.076   5.913   1.932
 4018SOL    HW212954   4.189   5.842   1.838
 4019SOL     OW12955   5.270   4.292   2.524
 4019SOL    HW112956   5.259   4.357   2.600
 4019SOL    HW212957   5.188   4.235   2.517
 4020SOL     OW12958   4.791   2.629   5.279
 4020SOL    HW112959   4.877   2.602   5.235
 4020SOL    HW212960   4.807   2.644   5.377
 4021SOL     OW12961   2.879   4.958   5.642
 4021SOL    HW112962   2.857   4.993   5.733
 4021SOL    HW212963   2.872   5.033   5.576
 4022SOL     OW12964   5.355   1.169   0.120
 4022SOL    HW112965   5.285   1.229   0.082
 4022SOL    HW212966   5.402   1.216   0.194
 4023SOL     OW12967   6.403   1.903   4.998
 4023SOL    HW112968   6.335   1.970   4.968
 4023SOL    HW212969   6.380   1.871   5.090
 4024SOL     OW12970   4.018   5.076   3.870
 4024SOL    HW112971   4.050   5.028   3.788
 4024SOL    HW212972   4.024   5.015   3.948
 4025SOL     OW12973   0.828   4.188   3.632
 4025SOL    HW112974   0.764   4.168   3.706
 4025SOL    HW212975   0.780   4.180   3.544
 4026SOL     OW12976   5.520   6.126   3.763
 4026SOL    HW112977   5.488   6.083   3.848
 4026SOL    HW212978   5.441   6.146   3.705
 4027SOL     OW12979   4.228   4.773   1.921
 4027SOL    HW112980   4.297   4.846   1.928
 4027SOL    HW212981   4.262   4.691   1.967
 4028SOL     OW12982   2.629   1.385   3.693
 4028SOL    HW112983   2.663   1.395   3.786
 4028SOL    HW212984   2.706   1.375   3.630
 4029SOL     OW12985   1.578   4.710   5.552
 4029SOL    HW112986   1.611   4.682   5.642
 4029SOL    HW212987   1.578   4.631   5.491
 4030SOL     OW12988   0.870   1.996   5.586
 4030SOL    HW112989   0.934   1.922   5.569
 4030SOL    HW212990   0.919   2.083   5.591
 4031SOL     OW12991   4.223   5.883   4.023
 4031SOL    HW112992   4.261   5.792   4.037
 4031SOL    HW212993   4.159   5.905   4.097
 4032SOL     OW12994   5.750   0.434   4.173
 4032SOL    HW112995   5.703   0.502   4.117
 4032SOL    HW212996   5.849   0.442   4.160
 4033SOL     OW12997   3.021   3.717   5.298
 4033SOL    HW112998   3.026   3.811   5.332
 4033SOL    HW212999   3.058   3.654   5.367
 4034SOL     OW13000   0.033   2.409   3.616
 4034SOL    HW113001   0.071   2.493   3.654
 4034SOL    HW213002   6.965   2.427   3.583
 4035SOL     OW13003   0.388   4.693   0.132
 4035SOL    HW113004   0.427   4.619   0.187
 4035SOL    HW213005   0.290   4.677   0.120
 4036SOL     OW13006   6.355   6.805   2.880
 4036SOL    HW113007   6.430   6.758   2.833
 4036SOL    HW213008   6.380   6.901   2.896
 4037SOL     OW13009   0.189   3.523   6.854
 4037SOL    HW113010   0.181   3.583   6.774
 4037SOL    HW213011   0.160   3.431   6.829
 4038SOL     OW13012   5.873   4.529   3.891
 4038SOL    HW113013   5.830   4.600   3.947
 4038SOL    HW213014   5.927   4.469   3.950
 4039SOL     OW13015   5.297   6.100   0.245
 4039SOL    HW113016   5.372   6.164   0.230
 4039SOL    HW213017   5.312   6.049   0.329
 4040SOL     OW13018   2.975   6.312   1.480
 4040SOL    HW113019   3.011   6.330   1.388
 4040SOL    HW213020   3.002   6.221   1.510
 4041SOL     OW13021   1.483   6.508   3.433
 4041SOL    HW113022   1.402   6.460   3.400
 4041SOL    HW213023   1.505   6.477   3.526
 4042SOL     OW13024   6.243   4.991   2.088
 4042SOL    HW113025   6.316   4.940   2.043
 4042SOL    HW213026   6.272   5.017   2.181
 4043SOL     OW13027   6.281   1.623   1.028
 4043SOL    HW113028   6.346   1.585   1.094
 4043SOL    HW213029   6.246   1.550   0.969
 4044SOL     OW13030   5.598   6.634   3.512
 4044SOL    HW113031   5.668   6.652   3.582
 4044SOL    HW213032   5.516   6.597   3.556
 4045SOL     OW13033   2.418   5.779   5.972
 4045SOL    HW113034   2.404   5.856   6.036
 4045SOL    HW213035   2.349   5.709   5.989
 4046SOL     OW13036   0.842   3.302   1.141
 4046SOL    HW113037   0.892   3.363   1.202
 4046SOL    HW213038   0.746   3.330   1.136
 4047SOL     OW13039   2.921   3.659   1.642
 4047SOL    HW113040   2.841   3.696   1.689
 4047SOL    HW213041   2.910   3.561   1.628
 4048SOL     OW13042   5.391   0.473   0.948
 4048SOL    HW113043   5.465   0.445   1.010
 4048SOL    HW213044   5.430   0.518   0.868
 4049SOL     OW13045   5.307   6.995   4.871
 4049SOL    HW113046   5.329   6.903   4.840
 4049SOL    HW213047   5.218   6.994   4.917
 4050SOL     OW13048   2.546   0.657   0.974
 4050SOL    HW113049   2.531   0.559   0.991
 4050SOL    HW213050   2.466   0.695   0.928
 4051SOL     OW13051   3.482   4.240   1.452
 4051SOL    HW113052   3.482   4.324   1.399
 4051SOL    HW213053   3.424   4.250   1.532
 4052SOL     OW13054   0.578   0.324   0.819
 4052SOL    HW113055   0.486   0.359   0.806
 4052SOL    HW213056   0.644   0.395   0.795
 4053SOL     OW13057   3.672   4.936   3.712
 4053SOL    HW113058   3.701   5.031   3.708
 4053SOL    HW213059   3.721   4.883   3.643
 4054SOL     OW13060   4.425   2.518   0.888
 4054SOL    HW113061   4.459   2.581   0.958
 4054SOL    HW213062   4.494   2.508   0.816
 4055SOL     OW13063   3.655   2.068   6.735
 4055SOL    HW113064   3.708   2.068   6.651
 4055SOL    HW213065   3.703   2.017   6.806
 4056SOL     OW13066   4.201   3.819   0.472
 4056SOL    HW113067   4.145   3.749   0.516
 4056SOL    HW213068   4.151   3.905   0.471
 4057SOL     OW13069   5.155   3.150   6.923
 4057SOL    HW113070   5.198   3.234   6.888
 4057SOL    HW213071   5.191   3.072   6.872
 4058SOL     OW13072   1.596   0.957   5.139
 4058SOL    HW113073   1.674   0.958   5.076
 4058SOL    HW213074   1.592   0.869   5.187
 4059SOL     OW13075   0.464   1.912   4.292
 4059SOL    HW113076   0.456   1.850   4.215
 4059SOL    HW213077   0.524   1.872   4.362
 4060SOL     OW13078   4.604   5.279   4.567
 4060SOL    HW113079   4.612   5.215   4.491
 4060SOL    HW213080   4.546   5.356   4.540
 4061SOL     OW13081   3.015   3.055   1.715
 4061SOL    HW113082   3.109   3.032   1.740
 4061SOL    HW213083   3.011   3.086   1.620
 4062SOL     OW13084   2.456   0.178   3.241
 4062SOL    HW113085   2.425   0.095   3.196
 4062SOL    HW213086   2.526   0.223   3.185
 4063SOL     OW13087   3.016   5.306   6.400
 4063SOL    HW113088   3.089   5.359   6.358
 4063SOL    HW213089   3.052   5.255   6.478
 4064SOL     OW13090   0.184   0.130   3.919
 4064SOL    HW113091   0.195   0.142   4.018
 4064SOL    HW213092   0.235   0.202   3.871
 4065SOL     OW13093   5.511   5.550   6.830
 4065SOL    HW113094   5.446   5.478   6.856
 4065SOL    HW213095   5.593   5.508   6.791
 4066SOL     OW13096   5.836   4.489   1.598
 4066SOL    HW113097   5.892   4.563   1.560
 4066SOL    HW213098   5.854   4.480   1.695
 4067SOL     OW13099   5.833   0.780   1.957
 4067SOL    HW113100   5.743   0.737   1.964
 4067SOL    HW213101   5.866   0.803   2.048
 4068SOL     OW13102   6.321   0.323   3.632
 4068SOL    HW113103   6.230   0.282   3.620
 4068SOL    HW213104   6.371   0.273   3.703
 4069SOL     OW13105   6.810   5.474   1.092
 4069SOL    HW113106   6.724   5.521   1.117
 4069SOL    HW213107   6.860   5.531   1.027
 4070SOL     OW13108   1.610   3.135   2.995
 4070SOL    HW113109   1.533   3.143   3.058
 4070SOL    HW213110   1.609   3.212   2.931
 4071SOL     OW13111   1.558   6.485   4.089
 4071SOL    HW113112   1.501   6.402   4.086
 4071SOL    HW213113   1.511   6.555   4.142
 4072SOL     OW13114   0.791   0.700   4.353
 4072SOL    HW113115   0.781   0.601   4.350
 4072SOL    HW213116   0.888   0.724   4.361
 4073SOL     OW13117   1.862   5.566   6.251
 4073SOL    HW113118   1.923   5.522   6.317
 4073SOL    HW213119   1.801   5.629   6.299
 4074SOL     OW13120   2.133   2.868   0.712
 4074SOL    HW113121   2.089   2.862   0.802
 4074SOL    HW213122   2.063   2.860   0.641
 4075SOL     OW13123   4.808   1.230   3.410
 4075SOL    HW113124   4.903   1.256   3.426
 4075SOL    HW213125   4.753   1.247   3.492
 4076SOL     OW13126   2.004   2.842   3.936
 4076SOL    HW113127   1.919   2.811   3.977
 4076SOL    HW213128   1.987   2.924   3.880
 4077SOL     OW13129   2.616   1.578   0.487
 4077SOL    HW113130   2.664   1.575   0.575
 4077SOL    HW213131   2.613   1.486   0.448
 4078SOL     OW13132   5.524   3.939   1.779
 4078SOL    HW113133   5.565   3.877   1.846
 4078SOL    HW213134   5.440   3.899   1.743
 4079SOL     OW13135   0.469   1.230   3.859
 4079SOL    HW113136   0.495   1.218   3.955
 4079SOL    HW213137   0.540   1.283   3.813
 4080SOL     OW13138   3.565   3.290   1.733
 4080SOL    HW113139   3.512   3.251   1.809
 4080SOL    HW213140   3.536   3.384   1.718
 4081SOL     OW13141   2.433   2.288   6.130
 4081SOL    HW113142   2.422   2.310   6.033
 4081SOL    HW213143   2.458   2.370   6.181
 4082SOL     OW13144   1.445   2.492   4.750
 4082SOL    HW113145   1.358   2.474   4.703
 4082SOL    HW213146   1.428   2.550   4.829
 4083SOL     OW13147   5.464   5.412   3.106
 4083SOL    HW113148   5.380   5.404   3.160
 4083SOL    HW213149   5.539   5.368   3.155
 4084SOL     OW13150   5.044   0.753   3.642
 4084SOL    HW113151   4.979   0.720   3.574
 4084SOL    HW213152   5.128   0.699   3.636
 4085SOL     OW13153   3.942   4.803   2.408
 4085SOL    HW113154   3.985   4.878   2.458
 4085SOL    HW213155   3.845   4.824   2.393
 4086SOL     OW13156   6.291   5.087   6.069
 4086SOL    HW113157   6.314   5.003   6.020
 4086SOL    HW213158   6.365   5.111   6.131
 4087SOL     OW13159   2.083   6.964   2.130
 4087SOL    HW113160   2.086   6.874   2.088
 4087SOL    HW213161   2.016   6.964   2.205
 4088SOL     OW13162   0.533   2.116   4.958
 4088SOL    HW113163   0.543   2.040   4.894
 4088SOL    HW213164   0.441   2.155   4.949
 4089SOL     OW13165   0.975   0.656   2.894
 4089SOL    HW113166   1.037   0.718   2.845
 4089SOL    HW213167   0.943   0.585   2.831
 4090SOL     OW13168   2.865   1.346   6.247
 4090SOL    HW113169   2.838   1.270   6.305
 4090SOL    HW213170   2.787   1.406   6.231
 4091SOL     OW13171   3.026   6.145   1.261
 4091SOL    HW113172   3.051   6.098   1.346
 4091SOL    HW213173   2.949   6.098   1.219
 4092SOL     OW13174   5.684   2.666   3.989
 4092SOL    HW113175   5.638   2.728   4.053
 4092SOL    HW213176   5.781   2.691   3.983
 4093SOL     OW13177   5.136   4.666   3.668
 4093SOL    HW113178   5.154   4.707   3.757
 4093SOL    HW213179   5.193   4.710   3.598
 4094SOL     OW13180   6.955   5.363   0.251
 4094SOL    HW113181   0.007   5.376   0.188
 4094SOL    HW213182   6.879   5.321   0.202
 4095SOL     OW13183   0.645   5.017   6.801
 4095SOL    HW113184   0.720   5.035   6.737
 4095SOL    HW213185   0.604   4.929   6.780
 4096SOL     OW13186   0.645   1.441   6.793
 4096SOL    HW113187   0.688   1.375   6.854
 4096SOL    HW213188   0.612   1.395   6.711
 4097SOL     OW13189   6.815   4.740   5.116
 4097SOL    HW113190   6.882   4.763   5.046
 4097SOL    HW213191   6.783   4.646   5.102
 4098SOL     OW13192   1.820   4.276   3.503
 4098SOL    HW113193   1.743   4.330   3.534
 4098SOL    HW213194   1.819   4.271   3.403
 4099SOL     OW13195   4.600   4.387   6.284
 4099SOL    HW113196   4.579   4.347   6.373
 4099SOL    HW213197   4.555   4.475   6.275
 4100SOL     OW13198   1.585   0.163   4.009
 4100SOL    HW113199   1.626   0.208   3.930
 4100SOL    HW213200   1.486   0.154   3.996
 4101SOL     OW13201   6.048   6.176   0.330
 4101SOL    HW113202   5.954   6.147   0.317
 4101SOL    HW213203   6.101   6.158   0.247
 4102SOL     OW13204   1.009   0.881   0.535
 4102SOL    HW113205   0.960   0.966   0.516
 4102SOL    HW213206   1.080   0.899   0.604
 4103SOL     OW13207   1.685   6.662   3.331
 4103SOL    HW113208   1.659   6.656   3.235
 4103SOL    HW213209   1.610   6.627   3.388
 4104SOL     OW13210   1.729   5.920   4.438
 4104SOL    HW113211   1.711   5.855   4.364
 4104SOL    HW213212   1.761   6.007   4.400
 4105SOL     OW13213   4.666   1.214   0.811
 4105SOL    HW113214   4.763   1.235   0.798
 4105SOL    HW213215   4.639   1.139   0.751
 4106SOL     OW13216   1.074   1.305   3.233
 4106SOL    HW113217   1.029   1.389   3.205
 4106SOL    HW213218   1.010   1.248   3.285
 4107SOL     OW13219   0.517   6.713   0.065
 4107SOL    HW113220   0.443   6.659   0.104
 4107SOL    HW213221   0.493   6.742   6.998
 4108SOL     OW13222   6.864   5.856   5.175
 4108SOL    HW113223   6.949   5.892   5.214
 4108SOL    HW213224   6.820   5.797   5.243
 4109SOL     OW13225   5.963   6.592   3.195
 4109SOL    HW113226   5.916   6.662   3.141
 4109SOL    HW213227   5.962   6.505   3.145
 4110SOL     OW13228   5.161   2.916   0.284
 4110SOL    HW113229   5.220   2.930   0.204
 4110SOL    HW213230   5.154   2.818   0.304
 4111SOL     OW13231   6.572   3.868   3.976
 4111SOL    HW113232   6.499   3.932   4.001
 4111SOL    HW213233   6.546   3.776   4.005
 4112SOL     OW13234   4.834   6.636   5.303
 4112SOL    HW113235   4.863   6.724   5.339
 4112SOL    HW213236   4.838   6.567   5.376
 4113SOL     OW13237   4.259   5.281   4.978
 4113SOL    HW113238   4.331   5.292   4.909
 4113SOL    HW213239   4.184   5.226   4.939
 4114SOL     OW13240   0.327   1.423   1.367
 4114SOL    HW113241   0.364   1.474   1.445
 4114SOL    HW213242   0.400   1.367   1.328
 4115SOL     OW13243   4.684   6.209   4.052
 4115SOL    HW113244   4.697   6.120   4.010
 4115SOL    HW213245   4.625   6.265   3.993
 4116SOL     OW13246   5.346   3.352   3.241
 4116SOL    HW113247   5.332   3.316   3.149
 4116SOL    HW213248   5.259   3.384   3.278
 4117SOL     OW13249   1.654   1.535   3.493
 4117SOL    HW113250   1.624   1.463   3.555
 4117SOL    HW213251   1.618   1.518   3.401
 4118SOL     OW13252   0.209   6.194   6.550
 4118SOL    HW113253   0.287   6.145   6.511
 4118SOL    HW213254   0.184   6.269   6.489
 4119SOL     OW13255   0.602   0.755   4.001
 4119SOL    HW113256   0.570   0.663   4.022
 4119SOL    HW213257   0.552   0.791   3.923
 4120SOL     OW13258   1.807   0.679   6.345
 4120SOL    HW113259   1.708   0.692   6.348
 4120SOL    HW213260   1.830   0.619   6.268
 4121SOL     OW13261   6.454   0.251   1.975
 4121SOL    HW113262   6.472   0.172   1.917
 4121SOL    HW213263   6.505   0.241   2.061
 4122SOL     OW13264   6.655   4.289   3.046
 4122SOL    HW113265   6.568   4.247   3.071
 4122SOL    HW213266   6.685   4.256   2.957
 4123SOL     OW13267   4.681   4.705   2.035
 4123SOL    HW113268   4.639   4.616   2.052
 4123SOL    HW213269   4.771   4.708   2.079
 4124SOL     OW13270   6.182   5.468   0.146
 4124SOL    HW113271   6.156   5.444   0.239
 4124SOL    HW213272   6.099   5.476   0.089
 4125SOL     OW13273   6.096   1.584   1.242
 4125SOL    HW113274   6.142   1.600   1.155
 4125SOL    HW213275   6.084   1.485   1.255
 4126SOL     OW13276   1.719   2.922   2.404
 4126SOL    HW113277   1.645   2.904   2.338
 4126SOL    HW213278   1.806   2.892   2.365
 4127SOL     OW13279   4.361   1.820   4.556
 4127SOL    HW113280   4.451   1.843   4.519
 4127SOL    HW213281   4.293   1.884   4.521
 4128SOL     OW13282   0.918   3.520   7.009
 4128SOL    HW113283   0.984   3.459   0.027
 4128SOL    HW213284   0.829   3.510   0.028
 4129SOL     OW13285   2.482   2.869   1.035
 4129SOL    HW113286   2.576   2.864   1.000
 4129SOL    HW213287   2.481   2.922   1.119
 4130SOL     OW13288   6.152   3.209   0.681
 4130SOL    HW113289   6.196   3.298   0.669
 4130SOL    HW213290   6.217   3.146   0.723
 4131SOL     OW13291   4.807   6.978   3.317
 4131SOL    HW113292   4.881   6.913   3.333
 4131SOL    HW213293   4.809   0.024   3.386
 4132SOL     OW13294   0.913   5.133   4.094
 4132SOL    HW113295   0.880   5.221   4.060
 4132SOL    HW213296   0.923   5.138   4.194
 4133SOL     OW13297   5.576   0.783   2.933
 4133SOL    HW113298   5.673   0.776   2.955
 4133SOL    HW213299   5.559   0.740   2.845
 4134SOL     OW13300   1.544   3.753   1.444
 4134SOL    HW113301   1.593   3.810   1.510
 4134SOL    HW213302   1.446   3.776   1.447
 4135SOL     OW13303   6.823   1.599   1.873
 4135SOL    HW113304   6.762   1.649   1.935
 4135SOL    HW213305   6.918   1.607   1.906
 4136SOL     OW13306   1.437   4.750   1.347
 4136SOL    HW113307   1.465   4.743   1.251
 4136SOL    HW213308   1.419   4.846   1.370
 4137SOL     OW13309   1.359   2.621   0.389
 4137SOL    HW113310   1.433   2.687   0.396
 4137SOL    HW213311   1.356   2.565   0.472
 4138SOL     OW13312   5.484   0.874   0.600
 4138SOL    HW113313   5.479   0.925   0.686
 4138SOL    HW213314   5.522   0.933   0.529
 4139SOL     OW13315   2.022   3.426   2.725
 4139SOL    HW113316   1.977   3.338   2.709
 4139SOL    HW213317   2.048   3.433   2.821
 4140SOL     OW13318   1.925   0.949   6.304
 4140SOL    HW113319   1.915   0.860   6.347
 4140SOL    HW213320   1.835   0.990   6.289
 4141SOL     OW13321   4.685   0.245   6.217
 4141SOL    HW113322   4.698   0.265   6.120
 4141SOL    HW213323   4.587   0.246   6.238
 4142SOL     OW13324   0.910   4.459   2.595
 4142SOL    HW113325   0.920   4.430   2.500
 4142SOL    HW213326   0.877   4.383   2.650
 4143SOL     OW13327   5.312   2.975   0.524
 4143SOL    HW113328   5.280   2.953   0.432
 4143SOL    HW213329   5.287   3.069   0.546
 4144SOL     OW13330   6.137   1.087   0.738
 4144SOL    HW113331   6.232   1.060   0.720
 4144SOL    HW213332   6.075   1.028   0.686
 4145SOL     OW13333   0.060   6.603   1.597
 4145SOL    HW113334   0.132   6.534   1.604
 4145SOL    HW213335   7.008   6.566   1.547
 4146SOL     OW13336   4.478   5.865   3.200
 4146SOL    HW113337   4.440   5.916   3.276
 4146SOL    HW213338   4.450   5.907   3.114
 4147SOL     OW13339   4.570   4.236   5.947
 4147SOL    HW113340   4.536   4.151   5.989
 4147SOL    HW213341   4.540   4.314   6.002
 4148SOL     OW13342   2.464   1.460   6.006
 4148SOL    HW113343   2.531   1.424   5.941
 4148SOL    HW213344   2.382   1.488   5.956
 4149SOL     OW13345   2.574   3.269   6.161
 4149SOL    HW113346   2.487   3.226   6.139
 4149SOL    HW213347   2.639   3.254   6.087
 4150SOL     OW13348   5.569   1.907   5.841
 4150SOL    HW113349   5.519   1.824   5.814
 4150SOL    HW213350   5.511   1.987   5.826
 4151SOL     OW13351   2.727   6.282   4.242
 4151SOL    HW113352   2.826   6.286   4.232
 4151SOL    HW213353   2.684   6.305   4.154
 4152SOL     OW13354   2.781   4.510   1.126
 4152SOL    HW113355   2.865   4.554   1.157
 4152SOL    HW213356   2.705   4.540   1.182
 4153SOL     OW13357   6.990   5.763   1.392
 4153SOL    HW113358   6.916   5.724   1.447
 4153SOL    HW213359   0.026   5.690   1.362
 4154SOL     OW13360   1.188   6.438   3.411
 4154SOL    HW113361   1.238   6.458   3.327
 4154SOL    HW213362   1.116   6.372   3.392
 4155SOL     OW13363   0.239   0.910   1.158
 4155SOL    HW113364   0.281   0.998   1.137
 4155SOL    HW213365   0.240   0.853   1.075
 4156SOL     OW13366   6.882   5.431   6.211
 4156SOL    HW113367   6.861   5.526   6.187
 4156SOL    HW213368   6.972   5.427   6.253
 4157SOL     OW13369   6.661   6.387   1.719
 4157SOL    HW113370   6.718   6.332   1.658
 4157SOL    HW213371   6.646   6.477   1.679
 4158SOL     OW13372   0.998   2.845   1.783
 4158SOL    HW113373   0.992   2.927   1.726
 4158SOL    HW213374   0.931   2.850   1.857
 4159SOL     OW13375   3.599   1.157   3.983
 4159SOL    HW113376   3.594   1.126   3.888
 4159SOL    HW213377   3.518   1.125   4.033
 4160SOL     OW13378   6.404   6.328   6.676
 4160SOL    HW113379   6.332   6.359   6.614
 4160SOL    HW213380   6.374   6.246   6.724
 4161SOL     OW13381   3.948   3.166   1.570
 4161SOL    HW113382   3.892   3.162   1.654
 4161SOL    HW213383   4.041   3.195   1.594
 4162SOL     OW13384   4.936   5.886   1.517
 4162SOL    HW113385   4.926   5.917   1.612
 4162SOL    HW213386   4.951   5.787   1.516
 4163SOL     OW13387   3.394   6.638   1.201
 4163SOL    HW113388   3.423   6.713   1.262
 4163SOL    HW213389   3.442   6.646   1.114
 4164SOL     OW13390   6.519   0.226   5.577
 4164SOL    HW113391   6.550   0.265   5.490
 4164SOL    HW213392   6.419   0.222   5.577
 4165SOL     OW13393   3.838   1.185   5.185
 4165SOL    HW113394   3.748   1.140   5.184
 4165SOL    HW213395   3.894   1.148   5.111
 4166SOL     OW13396   5.365   1.285   1.609
 4166SOL    HW113397   5.459   1.316   1.626
 4166SOL    HW213398   5.326   1.336   1.533
 4167SOL     OW13399   3.943   4.986   4.994
 4167SOL    HW113400   3.883   5.064   5.015
 4167SOL    HW213401   3.928   4.956   4.900
 4168SOL     OW13402   4.569   4.258   6.816
 4168SOL    HW113403   4.603   4.165   6.823
 4168SOL    HW213404   4.484   4.267   6.869
 4169SOL     OW13405   5.002   3.468   4.926
 4169SOL    HW113406   5.087   3.519   4.927
 4169SOL    HW213407   4.933   3.515   4.981
 4170SOL     OW13408   0.131   3.261   3.598
 4170SOL    HW113409   0.151   3.226   3.507
 4170SOL    HW213410   0.139   3.187   3.665
 4171SOL     OW13411   0.694   2.968   0.854
 4171SOL    HW113412   0.680   2.870   0.838
 4171SOL    HW213413   0.733   3.009   0.772
 4172SOL     OW13414   2.721   4.730   0.892
 4172SOL    HW113415   2.641   4.711   0.949
 4172SOL    HW213416   2.784   4.652   0.897
 4173SOL     OW13417   4.765   3.013   5.075
 4173SOL    HW113418   4.725   3.066   5.149
 4173SOL    HW213419   4.843   3.063   5.036
 4174SOL     OW13420   3.218   0.472   4.743
 4174SOL    HW113421   3.204   0.568   4.770
 4174SOL    HW213422   3.316   0.456   4.729
 4175SOL     OW13423   1.339   4.559   6.689
 4175SOL    HW113424   1.334   4.584   6.786
 4175SOL    HW213425   1.403   4.483   6.678
 4176SOL     OW13426   5.015   0.336   6.203
 4176SOL    HW113427   4.935   0.380   6.243
 4176SOL    HW213428   5.023   0.242   6.238
 4177SOL     OW13429   4.626   4.608   3.372
 4177SOL    HW113430   4.552   4.615   3.305
 4177SOL    HW213431   4.713   4.596   3.325
 4178SOL     OW13432   4.232   5.382   1.650
 4178SOL    HW113433   4.263   5.383   1.745
 4178SOL    HW213434   4.295   5.436   1.594
 4179SOL     OW13435   5.339   3.049   4.986
 4179SOL    HW113436   5.409   3.103   4.939
 4179SOL    HW213437   5.254   3.101   4.989
 4180SOL     OW13438   4.317   4.363   0.234
 4180SOL    HW113439   4.400   4.407   0.270
 4180SOL    HW213440   4.237   4.413   0.265
 4181SOL     OW13441   4.341   0.428   5.128
 4181SOL    HW113442   4.259   0.374   5.144
 4181SOL    HW213443   4.421   0.379   5.164
 4182SOL     OW13444   6.964   6.744   4.194
 4182SOL    HW113445   0.015   6.783   4.143
 4182SOL    HW213446   6.994   6.660   4.240
 4183SOL     OW13447   3.562   2.264   1.423
 4183SOL    HW113448   3.522   2.246   1.512
 4183SOL    HW213449   3.603   2.180   1.387
 4184SOL     OW13450   3.263   5.207   3.601
 4184SOL    HW113451   3.313   5.124   3.625
 4184SOL    HW213452   3.189   5.221   3.666
 4185SOL     OW13453   6.285   3.580   2.754
 4185SOL    HW113454   6.191   3.611   2.770
 4185SOL    HW213455   6.303   3.499   2.810
 4186SOL     OW13456   1.641   6.137   0.399
 4186SOL    HW113457   1.599   6.051   0.373
 4186SOL    HW213458   1.727   6.119   0.448
 4187SOL     OW13459   1.568   4.004   6.565
 4187SOL    HW113460   1.496   3.943   6.596
 4187SOL    HW213461   1.570   4.005   6.465
 4188SOL     OW13462   4.983   0.002   0.164
 4188SOL    HW113463   4.935   0.005   0.252
 4188SOL    HW213464   5.073   6.985   0.177
 4189SOL     OW13465   5.249   5.095   3.365
 4189SOL    HW113466   5.216   5.114   3.457
 4189SOL    HW213467   5.341   5.057   3.369
 4190SOL     OW13468   6.829   6.250   0.877
 4190SOL    HW113469   6.750   6.189   0.871
 4190SOL    HW213470   6.911   6.196   0.893
 4191SOL     OW13471   4.348   4.459   5.935
 4191SOL    HW113472   4.258   4.435   5.971
 4191SOL    HW213473   4.339   4.539   5.875
 4192SOL     OW13474   1.077   3.363   1.625
 4192SOL    HW113475   1.096   3.277   1.577
 4192SOL    HW213476   0.996   3.407   1.586
 4193SOL     OW13477   6.998   6.844   0.667
 4193SOL    HW113478   6.964   6.766   0.615
 4193SOL    HW213479   6.984   6.928   0.614
 4194SOL     OW13480   4.374   0.959   4.887
 4194SOL    HW113481   4.283   0.928   4.916
 4194SOL    HW213482   4.444   0.909   4.939
 4195SOL     OW13483   4.061   5.883   1.214
 4195SOL    HW113484   4.007   5.933   1.146
 4195SOL    HW213485   4.006   5.870   1.296
 4196SOL     OW13486   6.437   2.395   2.573
 4196SOL    HW113487   6.512   2.452   2.540
 4196SOL    HW213488   6.419   2.321   2.509
 4197SOL     OW13489   3.351   6.869   6.144
 4197SOL    HW113490   3.440   6.822   6.143
 4197SOL    HW213491   3.278   6.803   6.161
 4198SOL     OW13492   6.034   1.267   2.869
 4198SOL    HW113493   6.060   1.210   2.792
 4198SOL    HW213494   6.096   1.346   2.874
 4199SOL     OW13495   0.453   3.693   6.340
 4199SOL    HW113496   0.469   3.624   6.269
 4199SOL    HW213497   0.538   3.740   6.360
 4200SOL     OW13498   4.726   1.290   3.694
 4200SOL    HW113499   4.779   1.208   3.715
 4200SOL    HW213500   4.727   1.351   3.773
 4201SOL     OW13501   5.411   0.213   3.020
 4201SOL    HW113502   5.430   0.303   2.981
 4201SOL    HW213503   5.427   0.142   2.951
 4202SOL     OW13504   4.609   4.831   0.956
 4202SOL    HW113505   4.600   4.914   1.011
 4202SOL    HW213506   4.611   4.751   1.015
 4203SOL     OW13507   6.273   5.402   6.913
 4203SOL    HW113508   6.256   5.422   7.010
 4203SOL    HW213509   6.370   5.412   6.894
 4204SOL     OW13510   2.783   3.343   6.010
 4204SOL    HW113511   2.861   3.284   6.032
 4204SOL    HW213512   2.770   3.410   6.082
 4205SOL     OW13513   3.811   5.647   5.068
 4205SOL    HW113514   3.889   5.680   5.122
 4205SOL    HW213515   3.835   5.648   4.971
 4206SOL     OW13516   1.509   2.235   4.817
 4206SOL    HW113517   1.495   2.327   4.779
 4206SOL    HW213518   1.562   2.243   4.902
 4207SOL     OW13519   1.320   3.197   1.675
 4207SOL    HW113520   1.345   3.217   1.580
 4207SOL    HW213521   1.269   3.273   1.714
 4208SOL     OW13522   2.035   3.510   5.054
 4208SOL    HW113523   2.064   3.591   5.104
 4208SOL    HW213524   1.935   3.505   5.052
 4209SOL     OW13525   0.178   5.868   3.072
 4209SOL    HW113526   0.277   5.876   3.082
 4209SOL    HW213527   0.136   5.860   3.162
 4210SOL     OW13528   4.006   3.158   4.761
 4210SOL    HW113529   4.055   3.205   4.834
 4210SOL    HW213530   4.058   3.078   4.732
 4211SOL     OW13531   4.169   2.273   5.567
 4211SOL    HW113532   4.150   2.348   5.504
 4211SOL    HW213533   4.084   2.222   5.584
 4212SOL     OW13534   6.810   1.875   3.321
 4212SOL    HW113535   6.763   1.962   3.335
 4212SOL    HW213536   6.811   1.824   3.407
 4213SOL     OW13537   3.515   1.236   3.178
 4213SOL    HW113538   3.535   1.182   3.097
 4213SOL    HW213539   3.440   1.194   3.229
 4214SOL     OW13540   0.572   5.187   4.308
 4214SOL    HW113541   0.596   5.230   4.395
 4214SOL    HW213542   0.605   5.093   4.308
 4215SOL     OW13543   4.702   6.456   5.139
 4215SOL    HW113544   4.759   6.377   5.115
 4215SOL    HW213545   4.759   6.524   5.185
 4216SOL     OW13546   2.565   6.103   2.511
 4216SOL    HW113547   2.598   6.085   2.419
 4216SOL    HW213548   2.483   6.049   2.529
 4217SOL     OW13549   0.599   0.740   2.151
 4217SOL    HW113550   0.552   0.752   2.238
 4217SOL    HW213551   0.680   0.799   2.149
 4218SOL     OW13552   2.680   1.048   1.566
 4218SOL    HW113553   2.623   1.131   1.570
 4218SOL    HW213554   2.629   0.971   1.604
 4219SOL     OW13555   4.090   6.363   3.621
 4219SOL    HW113556   4.077   6.269   3.591
 4219SOL    HW213557   4.017   6.388   3.684
 4220SOL     OW13558   4.399   2.048   1.652
 4220SOL    HW113559   4.402   1.965   1.708
 4220SOL    HW213560   4.307   2.060   1.615
 4221SOL     OW13561   0.350   5.852   6.895
 4221SOL    HW113562   0.352   5.802   6.808
 4221SOL    HW213563   0.260   5.841   6.938
 4222SOL     OW13564   4.788   2.381   3.419
 4222SOL    HW113565   4.831   2.471   3.419
 4222SOL    HW213566   4.696   2.388   3.459
 4223SOL     OW13567   4.153   3.363   2.327
 4223SOL    HW113568   4.144   3.397   2.233
 4223SOL    HW213569   4.237   3.400   2.367
 4224SOL     OW13570   4.999   3.668   4.730
 4224SOL    HW113571   4.955   3.598   4.786
 4224SOL    HW213572   4.998   3.756   4.778
 4225SOL     OW13573   6.971   2.927   5.691
 4225SOL    HW113574   0.038   2.910   5.725
 4225SOL    HW213575   6.948   2.859   5.622
 4226SOL     OW13576   1.042   5.382   4.724
 4226SOL    HW113577   0.958   5.331   4.739
 4226SOL    HW213578   1.031   5.440   4.643
 4227SOL     OW13579   5.407   5.729   2.181
 4227SOL    HW113580   5.336   5.797   2.162
 4227SOL    HW213581   5.430   5.732   2.278
 4228SOL     OW13582   1.344   5.535   3.793
 4228SOL    HW113583   1.264   5.578   3.835
 4228SOL    HW213584   1.407   5.506   3.865
 4229SOL     OW13585   6.126   4.768   5.764
 4229SOL    HW113586   6.080   4.856   5.751
 4229SOL    HW213587   6.058   4.695   5.764
 4230SOL     OW13588   0.744   1.101   1.957
 4230SOL    HW113589   0.779   1.157   1.882
 4230SOL    HW213590   0.820   1.076   2.018
 4231SOL     OW13591   5.400   1.323   5.921
 4231SOL    HW113592   5.432   1.249   5.980
 4231SOL    HW213593   5.443   1.316   5.831
 4232SOL     OW13594   1.862   5.242   4.094
 4232SOL    HW113595   1.917   5.186   4.032
 4232SOL    HW213596   1.890   5.224   4.189
 4233SOL     OW13597   5.296   6.324   3.960
 4233SOL    HW113598   5.396   6.324   3.958
 4233SOL    HW213599   5.263   6.230   3.961
 4234SOL     OW13600   2.359   5.499   5.821
 4234SOL    HW113601   2.298   5.522   5.897
 4234SOL    HW213602   2.351   5.568   5.749
 4235SOL     OW13603   6.844   5.002   6.132
 4235SOL    HW113604   6.880   5.094   6.116
 4235SOL    HW213605   6.846   4.950   6.047
 4236SOL     OW13606   0.843   5.540   1.767
 4236SOL    HW113607   0.765   5.597   1.794
 4236SOL    HW213608   0.891   5.583   1.690
 4237SOL     OW13609   6.439   3.941   3.280
 4237SOL    HW113610   6.527   3.978   3.310
 4237SOL    HW213611   6.371   3.956   3.352
 4238SOL     OW13612   2.667   0.290   3.408
 4238SOL    HW113613   2.632   0.218   3.348
 4238SOL    HW213614   2.642   0.380   3.371
 4239SOL     OW13615   4.008   0.934   2.875
 4239SOL    HW113616   4.074   0.861   2.891
 4239SOL    HW213617   3.985   0.938   2.778
 4240SOL     OW13618   0.617   5.987   0.909
 4240SOL    HW113619   0.554   5.914   0.883
 4240SOL    HW213620   0.623   6.054   0.835
 4241SOL     OW13621   6.412   2.168   6.668
 4241SOL    HW113622   6.376   2.097   6.728
 4241SOL    HW213623   6.346   2.188   6.596
 4242SOL     OW13624   2.194   2.237   3.744
 4242SOL    HW113625   2.216   2.292   3.663
 4242SOL    HW213626   2.251   2.266   3.820
 4243SOL     OW13627   5.319   1.151   3.264
 4243SOL    HW113628   5.283   1.082   3.328
 4243SOL    HW213629   5.251   1.167   3.192
 4244SOL     OW13630   3.561   3.331   2.353
 4244SOL    HW113631   3.635   3.385   2.313
 4244SOL    HW213632   3.599   3.269   2.422
 4245SOL     OW13633   5.851   2.197   5.882
 4245SOL    HW113634   5.765   2.193   5.933
 4245SOL    HW213635   5.922   2.238   5.940
 4246SOL     OW13636   0.103   3.924   2.214
 4246SOL    HW113637   0.123   3.880   2.127
 4246SOL    HW213638   0.007   3.912   2.237
 4247SOL     OW13639   7.013   5.740   5.505
 4247SOL    HW113640   0.054   5.789   5.448
 4247SOL    HW213641   0.004   5.642   5.499
 4248SOL     OW13642   1.143   2.888   5.389
 4248SOL    HW113643   1.100   2.805   5.425
 4248SOL    HW213644   1.073   2.945   5.345
 4249SOL     OW13645   5.815   3.083   5.754
 4249SOL    HW113646   5.725   3.104   5.716
 4249SOL    HW213647   5.820   2.986   5.777
 4250SOL     OW13648   6.525   5.086   3.545
 4250SOL    HW113649   6.432   5.063   3.571
 4250SOL    HW213650   6.539   5.065   3.448
 4251SOL     OW13651   5.648   4.395   0.403
 4251SOL    HW113652   5.580   4.430   0.337
 4251SOL    HW213653   5.616   4.308   0.440
 4252SOL     OW13654   0.551   5.100   5.405
 4252SOL    HW113655   0.601   5.118   5.489
 4252SOL    HW213656   0.510   5.009   5.409
 4253SOL     OW13657   4.550   0.959   1.512
 4253SOL    HW113658   4.550   0.985   1.609
 4253SOL    HW213659   4.500   0.873   1.501
 4254SOL     OW13660   2.156   3.841   1.424
 4254SOL    HW113661   2.179   3.783   1.346
 4254SOL    HW213662   2.223   3.915   1.432
 4255SOL     OW13663   6.540   3.350   4.245
 4255SOL    HW113664   6.630   3.310   4.231
 4255SOL    HW213665   6.527   3.427   4.183
 4256SOL     OW13666   1.703   6.903   1.599
 4256SOL    HW113667   1.730   6.814   1.635
 4256SOL    HW213668   1.609   6.899   1.566
 4257SOL     OW13669   3.410   1.924   5.101
 4257SOL    HW113670   3.377   1.847   5.047
 4257SOL    HW213671   3.455   1.990   5.041
 4258SOL     OW13672   5.788   6.488   2.354
 4258SOL    HW113673   5.866   6.484   2.417
 4258SOL    HW213674   5.728   6.409   2.371
 4259SOL     OW13675   2.695   2.441   0.055
 4259SOL    HW113676   2.653   2.523   0.016
 4259SOL    HW213677   2.653   2.421   0.144
 4260SOL     OW13678   4.721   5.516   3.319
 4260SOL    HW113679   4.775   5.587   3.273
 4260SOL    HW213680   4.770   5.429   3.315
 4261SOL     OW13681   2.233   6.311   1.627
 4261SOL    HW113682   2.171   6.305   1.705
 4261SOL    HW213683   2.294   6.232   1.626
 4262SOL     OW13684   1.354   5.050   6.417
 4262SOL    HW113685   1.385   5.028   6.324
 4262SOL    HW213686   1.387   4.980   6.480
 4263SOL     OW13687   2.314   4.471   5.521
 4263SOL    HW113688   2.329   4.539   5.594
 4263SOL    HW213689   2.401   4.430   5.496
 4264SOL     OW13690   0.431   1.276   0.182
 4264SOL    HW113691   0.351   1.251   0.236
 4264SOL    HW213692   0.438   1.376   0.176
 4265SOL     OW13693   6.923   1.682   0.584
 4265SOL    HW113694   6.997   1.644   0.640
 4265SOL    HW213695   6.960   1.707   0.494
 4266SOL     OW13696   2.725   5.201   0.299
 4266SOL    HW113697   2.656   5.253   0.350
 4266SOL    HW213698   2.786   5.265   0.252
 4267SOL     OW13699   1.760   3.458   5.063
 4267SOL    HW113700   1.769   3.370   5.109
 4267SOL    HW213701   1.727   3.444   4.970
 4268SOL     OW13702   2.112   1.032   0.667
 4268SOL    HW113703   2.178   1.013   0.595
 4268SOL    HW213704   2.036   1.086   0.630
 4269SOL     OW13705   3.419   3.217   0.467
 4269SOL    HW113706   3.407   3.194   0.370
 4269SOL    HW213707   3.451   3.137   0.517
 4270SOL     OW13708   3.356   3.093   4.992
 4270SOL    HW113709   3.373   3.156   5.068
 4270SOL    HW213710   3.356   2.999   5.025
 4271SOL     OW13711   0.684   0.096   5.741
 4271SOL    HW113712   0.762   0.150   5.773
 4271SOL    HW213713   0.715   0.026   5.677
 4272SOL     OW13714   6.554   4.676   5.364
 4272SOL    HW113715   6.605   4.591   5.348
 4272SOL    HW213716   6.457   4.662   5.346
 4273SOL     OW13717   5.106   6.911   5.283
 4273SOL    HW113718   5.126   6.997   5.330
 4273SOL    HW213719   5.146   6.834   5.334
 4274SOL     OW13720   1.521   6.779   3.847
 4274SOL    HW113721   1.544   6.832   3.929
 4274SOL    HW213722   1.523   6.839   3.767
 4275SOL     OW13723   0.418   0.513   5.957
 4275SOL    HW113724   0.378   0.560   5.878
 4275SOL    HW213725   0.353   0.446   5.992
 4276SOL     OW13726   2.267   4.486   2.859
 4276SOL    HW113727   2.238   4.398   2.820
 4276SOL    HW213728   2.322   4.470   2.940
 4277SOL     OW13729   0.002   5.034   3.775
 4277SOL    HW113730   0.095   5.030   3.812
 4277SOL    HW213731   0.005   5.033   3.676
 4278SOL     OW13732   6.607   5.982   4.784
 4278SOL    HW113733   6.625   6.068   4.736
 4278SOL    HW213734   6.559   5.920   4.722
 4279SOL     OW13735   3.068   6.450   4.984
 4279SOL    HW113736   3.140   6.422   5.047
 4279SOL    HW213737   3.093   6.536   4.940
 4280SOL     OW13738   6.357   2.255   5.141
 4280SOL    HW113739   6.291   2.253   5.066
 4280SOL    HW213740   6.424   2.327   5.124
 4281SOL     OW13741   1.884   4.427   5.121
 4281SOL    HW113742   1.819   4.373   5.068
 4281SOL    HW213743   1.914   4.375   5.201
 4282SOL     OW13744   2.293   2.658   0.984
 4282SOL    HW113745   2.368   2.722   1.002
 4282SOL    HW213746   2.289   2.638   0.887
 4283SOL     OW13747   1.774   0.373   4.267
 4283SOL    HW113748   1.774   0.277   4.240
 4283SOL    HW213749   1.865   0.400   4.296
 4284SOL     OW13750   5.476   1.543   2.151
 4284SOL    HW113751   5.494   1.514   2.245
 4284SOL    HW213752   5.510   1.472   2.088
 4285SOL     OW13753   1.140   0.358   5.379
 4285SOL    HW113754   1.185   0.437   5.336
 4285SOL    HW213755   1.208   0.305   5.430
 4286SOL     OW13756   4.686   5.977   0.229
 4286SOL    HW113757   4.720   6.061   0.271
 4286SOL    HW213758   4.702   5.900   0.290
 4287SOL     OW13759   5.570   0.286   4.760
 4287SOL    HW113760   5.582   0.342   4.678
 4287SOL    HW213761   5.635   0.315   4.830
 4288SOL     OW13762   1.423   0.202   3.174
 4288SOL    HW113763   1.346   0.266   3.165
 4288SOL    HW213764   1.398   0.114   3.134
 4289SOL     OW13765   5.510   2.487   1.362
 4289SOL    HW113766   5.596   2.464   1.317
 4289SOL    HW213767   5.440   2.422   1.334
 4290SOL     OW13768   2.458   0.496   2.481
 4290SOL    HW113769   2.443   0.582   2.530
 4290SOL    HW213770   2.371   0.460   2.449
 4291SOL     OW13771   5.948   2.727   0.327
 4291SOL    HW113772   5.909   2.656   0.268
 4291SOL    HW213773   5.874   2.775   0.375
 4292SOL     OW13774   6.297   3.759   5.644
 4292SOL    HW113775   6.245   3.742   5.727
 4292SOL    HW213776   6.236   3.755   5.565
 4293SOL     OW13777   6.211   3.351   6.537
 4293SOL    HW113778   6.297   3.331   6.585
 4293SOL    HW213779   6.150   3.273   6.544
 4294SOL     OW13780   4.601   2.172   6.019
 4294SOL    HW113781   4.507   2.138   6.012
 4294SOL    HW213782   4.607   2.239   6.092
 4295SOL     OW13783   3.547   6.890   4.377
 4295SOL    HW113784   3.640   6.853   4.378
 4295SOL    HW213785   3.481   6.815   4.373
 4296SOL     OW13786   2.352   1.866   1.243
 4296SOL    HW113787   2.260   1.850   1.278
 4296SOL    HW213788   2.349   1.873   1.143
 4297SOL     OW13789   5.348   0.205   5.061
 4297SOL    HW113790   5.420   0.180   5.126
 4297SOL    HW213791   5.371   0.171   4.970
 4298SOL     OW13792   2.474   5.768   1.245
 4298SOL    HW113793   2.523   5.693   1.288
 4298SOL    HW213794   2.376   5.759   1.263
 4299SOL     OW13795   0.756   3.290   6.147
 4299SOL    HW113796   0.828   3.251   6.204
 4299SOL    HW213797   0.722   3.221   6.083
 4300SOL     OW13798   3.535   1.329   6.846
 4300SOL    HW113799   3.561   1.412   6.896
 4300SOL    HW213800   3.435   1.320   6.846
 4301SOL     OW13801   2.357   1.914   0.991
 4301SOL    HW113802   2.399   1.937   0.904
 4301SOL    HW213803   2.258   1.926   0.984
 4302SOL     OW13804   0.899   6.255   6.825
 4302SOL    HW113805   0.944   6.341   6.849
 4302SOL    HW213806   0.963   6.179   6.834
 4303SOL     OW13807   6.585   3.811   2.426
 4303SOL    HW113808   6.551   3.900   2.396
 4303SOL    HW213809   6.526   3.775   2.498
 4304SOL     OW13810   3.294   3.371   4.259
 4304SOL    HW113811   3.245   3.285   4.247
 4304SOL    HW213812   3.383   3.353   4.302
 4305SOL     OW13813   6.456   0.906   3.757
 4305SOL    HW113814   6.554   0.917   3.738
 4305SOL    HW213815   6.410   0.876   3.673
 4306SOL     OW13816   6.610   4.293   6.147
 4306SOL    HW113817   6.587   4.245   6.062
 4306SOL    HW213818   6.560   4.250   6.223
 4307SOL     OW13819   4.817   4.075   5.860
 4307SOL    HW113820   4.748   4.095   5.930
 4307SOL    HW213821   4.778   4.089   5.770
 4308SOL     OW13822   5.170   5.611   4.637
 4308SOL    HW113823   5.196   5.537   4.700
 4308SOL    HW213824   5.251   5.664   4.613
 4309SOL     OW13825   1.384   1.087   0.874
 4309SOL    HW113826   1.442   1.083   0.792
 4309SOL    HW213827   1.442   1.091   0.955
 4310SOL     OW13828   1.495   2.148   2.803
 4310SOL    HW113829   1.554   2.192   2.735
 4310SOL    HW213830   1.526   2.054   2.818
 4311SOL     OW13831   0.979   6.070   3.542
 4311SOL    HW113832   1.031   6.009   3.482
 4311SOL    HW213833   0.976   6.162   3.503
 4312SOL     OW13834   2.359   5.901   2.047
 4312SOL    HW113835   2.414   5.821   2.023
 4312SOL    HW213836   2.318   5.888   2.137
 4313SOL     OW13837   4.958   1.537   1.574
 4313SOL    HW113838   4.880   1.561   1.632
 4313SOL    HW213839   4.931   1.544   1.478
 4314SOL     OW13840   5.120   2.661   3.119
 4314SOL    HW113841   5.037   2.716   3.125
 4314SOL    HW213842   5.177   2.677   3.200
 4315SOL     OW13843   2.659   0.492   1.934
 4315SOL    HW113844   2.721   0.564   1.906
 4315SOL    HW213845   2.589   0.529   1.996
 4316SOL     OW13846   5.500   0.556   1.258
 4316SOL    HW113847   5.404   0.564   1.286
 4316SOL    HW213848   5.512   0.474   1.202
 4317SOL     OW13849   3.342   1.082   4.063
 4317SOL    HW113850   3.258   1.030   4.044
 4317SOL    HW213851   3.318   1.176   4.088
 4318SOL     OW13852   0.810   3.768   3.107
 4318SOL    HW113853   0.827   3.670   3.096
 4318SOL    HW213854   0.887   3.808   3.157
 4319SOL     OW13855   2.901   3.391   6.677
 4319SOL    HW113856   2.866   3.350   6.761
 4319SOL    HW213857   2.873   3.487   6.673
 4320SOL     OW13858   1.076   6.832   2.776
 4320SOL    HW113859   1.131   6.784   2.707
 4320SOL    HW213860   1.024   6.906   2.732
 4321SOL     OW13861   6.626   0.395   5.387
 4321SOL    HW113862   6.652   0.382   5.291
 4321SOL    HW213863   6.615   0.493   5.405
 4322SOL     OW13864   6.215   1.039   6.505
 4322SOL    HW113865   6.128   1.012   6.463
 4322SOL    HW213866   6.290   0.991   6.460
 4323SOL     OW13867   5.708   2.876   2.810
 4323SOL    HW113868   5.651   2.942   2.761
 4323SOL    HW213869   5.671   2.784   2.797
 4324SOL     OW13870   6.058   4.038   6.667
 4324SOL    HW113871   6.114   4.027   6.584
 4324SOL    HW213872   6.118   4.032   6.747
 4325SOL     OW13873   2.072   1.358   6.670
 4325SOL    HW113874   2.107   1.436   6.619
 4325SOL    HW213875   2.141   1.286   6.672
 4326SOL     OW13876   6.036   3.285   5.338
 4326SOL    HW113877   6.044   3.352   5.265
 4326SOL    HW213878   6.055   3.193   5.302
 4327SOL     OW13879   5.670   5.549   2.359
 4327SOL    HW113880   5.701   5.614   2.428
 4327SOL    HW213881   5.732   5.552   2.281
 4328SOL     OW13882   4.969   4.782   6.529
 4328SOL    HW113883   5.005   4.855   6.472
 4328SOL    HW213884   4.936   4.707   6.471
 4329SOL     OW13885   3.745   1.702   5.082
 4329SOL    HW113886   3.738   1.722   5.180
 4329SOL    HW213887   3.802   1.772   5.038
 4330SOL     OW13888   1.645   0.502   5.902
 4330SOL    HW113889   1.719   0.559   5.867
 4330SOL    HW213890   1.622   0.431   5.835
 4331SOL     OW13891   5.562   2.633   6.633
 4331SOL    HW113892   5.557   2.534   6.650
 4331SOL    HW213893   5.654   2.666   6.655
 4332SOL     OW13894   4.893   3.122   2.230
 4332SOL    HW113895   4.988   3.113   2.200
 4332SOL    HW213896   4.832   3.094   2.155
 4333SOL     OW13897   5.598   1.643   5.016
 4333SOL    HW113898   5.572   1.546   5.020
 4333SOL    HW213899   5.548   1.689   4.943
 4334SOL     OW13900   3.138   2.074   2.054
 4334SOL    HW113901   3.080   2.125   1.990
 4334SOL    HW213902   3.209   2.026   2.004
 4335SOL     OW13903   3.257   4.081   4.485
 4335SOL    HW113904   3.324   4.108   4.416
 4335SOL    HW213905   3.304   4.046   4.565
 4336SOL     OW13906   1.841   6.895   4.727
 4336SOL    HW113907   1.840   6.805   4.769
 4336SOL    HW213908   1.787   6.958   4.782
 4337SOL     OW13909   0.537   4.915   0.130
 4337SOL    HW113910   0.494   4.982   0.070
 4337SOL    HW213911   0.485   4.830   0.127
 4338SOL     OW13912   6.006   5.853   4.523
 4338SOL    HW113913   6.092   5.813   4.555
 4338SOL    HW213914   5.935   5.783   4.522
 4339SOL     OW13915   6.626   2.278   5.377
 4339SOL    HW113916   6.639   2.309   5.471
 4339SOL    HW213917   6.529   2.280   5.354
 4340SOL     OW13918   5.347   3.551   1.554
 4340SOL    HW113919   5.266   3.503   1.519
 4340SOL    HW213920   5.373   3.511   1.642
 4341SOL     OW13921   1.679   3.808   2.061
 4341SOL    HW113922   1.687   3.740   1.988
 4341SOL    HW213923   1.736   3.886   2.040
 4342SOL     OW13924   0.453   2.790   2.587
 4342SOL    HW113925   0.365   2.765   2.626
 4342SOL    HW213926   0.527   2.759   2.647
 4343SOL     OW13927   2.945   1.209   0.852
 4343SOL    HW113928   3.026   1.264   0.868
 4343SOL    HW213929   2.938   1.138   0.923
 4344SOL     OW13930   1.711   4.168   3.283
 4344SOL    HW113931   1.631   4.133   3.234
 4344SOL    HW213932   1.732   4.107   3.360
 4345SOL     OW13933   1.965   2.445   5.246
 4345SOL    HW113934   1.937   2.493   5.163
 4345SOL    HW213935   1.997   2.354   5.223
 4346SOL     OW13936   1.759   3.345   1.954
 4346SOL    HW113937   1.842   3.373   2.001
 4346SOL    HW213938   1.780   3.271   1.889
 4347SOL     OW13939   6.346   0.061   2.303
 4347SOL    HW113940   6.285   0.053   2.382
 4347SOL    HW213941   6.294   0.098   2.226
 4348SOL     OW13942   1.180   3.772   1.028
 4348SOL    HW113943   1.115   3.783   0.953
 4348SOL    HW213944   1.194   3.675   1.047
 4349SOL     OW13945   0.244   1.381   3.872
 4349SOL    HW113946   0.322   1.325   3.843
 4349SOL    HW213947   0.192   1.331   3.941
 4350SOL     OW13948   5.462   2.589   4.236
 4350SOL    HW113949   5.370   2.595   4.199
 4350SOL    HW213950   5.502   2.500   4.214
 4351SOL     OW13951   3.038   5.650   2.593
 4351SOL    HW113952   3.003   5.557   2.599
 4351SOL    HW213953   3.074   5.678   2.682
 4352SOL     OW13954   0.213   1.872   2.043
 4352SOL    HW113955   0.166   1.904   2.125
 4352SOL    HW213956   0.292   1.931   2.025
 4353SOL     OW13957   2.287   5.782   6.617
 4353SOL    HW113958   2.348   5.704   6.604
 4353SOL    HW213959   2.230   5.766   6.697
 4354SOL     OW13960   2.213   0.105   7.009
 4354SOL    HW113961   2.286   0.086   6.944
 4354SOL    HW213962   2.179   0.198   6.995
 4355SOL     OW13963   3.985   0.765   0.497
 4355SOL    HW113964   4.023   0.770   0.589
 4355SOL    HW213965   4.012   0.847   0.445
 4356SOL     OW13966   4.322   4.085   0.828
 4356SOL    HW113967   4.321   4.096   0.729
 4356SOL    HW213968   4.284   3.995   0.852
 4357SOL     OW13969   6.497   0.092   0.286
 4357SOL    HW113970   6.589   0.084   0.325
 4357SOL    HW213971   6.431   0.045   0.345
 4358SOL     OW13972   1.182   6.420   1.452
 4358SOL    HW113973   1.084   6.424   1.469
 4358SOL    HW213974   1.220   6.336   1.491
 4359SOL     OW13975   0.882   2.062   4.054
 4359SOL    HW113976   0.949   2.097   4.120
 4359SOL    HW213977   0.806   2.126   4.047
 4360SOL     OW13978   0.578   3.407   1.178
 4360SOL    HW113979   0.507   3.406   1.248
 4360SOL    HW213980   0.537   3.386   1.089
 4361SOL     OW13981   4.884   2.348   2.086
 4361SOL    HW113982   4.848   2.424   2.033
 4361SOL    HW213983   4.948   2.382   2.155
 4362SOL     OW13984   6.280   4.236   5.166
 4362SOL    HW113985   6.281   4.326   5.122
 4362SOL    HW213986   6.373   4.203   5.177
 4363SOL     OW13987   5.111   2.829   5.586
 4363SOL    HW113988   5.196   2.809   5.538
 4363SOL    HW213989   5.044   2.757   5.567
 4364SOL     OW13990   3.442   4.135   4.312
 4364SOL    HW113991   3.532   4.108   4.347
 4364SOL    HW213992   3.449   4.155   4.214
 4365SOL     OW13993   4.298   2.241   2.661
 4365SOL    HW113994   4.222   2.258   2.597
 4365SOL    HW213995   4.372   2.304   2.641
 4366SOL     OW13996   6.084   5.749   1.381
 4366SOL    HW113997   6.051   5.796   1.299
 4366SOL    HW213998   6.121   5.660   1.356
 4367SOL     OW13999   1.308   6.011   5.671
 4367SOL    HW114000   1.287   6.100   5.632
 4367SOL    HW214001   1.405   6.007   5.695
 4368SOL     OW14002   5.198   4.470   1.730
 4368SOL    HW114003   5.217   4.379   1.769
 4368SOL    HW214004   5.118   4.509   1.776
 4369SOL     OW14005   4.323   5.099   2.321
 4369SOL    HW114006   4.359   5.009   2.295
 4369SOL    HW214007   4.277   5.093   2.409
 4370SOL     OW14008   5.677   4.680   4.035
 4370SOL    HW114009   5.641   4.773   4.034
 4370SOL    HW214010   5.668   4.642   4.127
 4371SOL     OW14011   6.177   0.940   2.121
 4371SOL    HW114012   6.129   0.982   2.199
 4371SOL    HW214013   6.127   0.960   2.037
 4372SOL     OW14014   4.654   1.998   3.472
 4372SOL    HW114015   4.596   1.983   3.552
 4372SOL    HW214016   4.750   1.996   3.500
 4373SOL     OW14017   6.617   1.495   6.593
 4373SOL    HW114018   6.704   1.525   6.553
 4373SOL    HW214019   6.542   1.516   6.530
 4374SOL     OW14020   1.506   1.917   2.347
 4374SOL    HW114021   1.410   1.934   2.371
 4374SOL    HW214022   1.517   1.923   2.248
 4375SOL     OW14023   2.890   6.191   4.598
 4375SOL    HW114024   2.949   6.134   4.541
 4375SOL    HW214025   2.795   6.161   4.587
 4376SOL     OW14026   6.711   0.331   2.988
 4376SOL    HW114027   6.686   0.337   3.084
 4376SOL    HW214028   6.811   0.326   2.980
 4377SOL     OW14029   6.109   4.348   6.904
 4377SOL    HW114030   6.103   4.279   6.833
 4377SOL    HW214031   6.028   4.343   6.963
 4378SOL     OW14032   2.246   0.362   3.542
 4378SOL    HW114033   2.204   0.338   3.454
 4378SOL    HW214034   2.276   0.279   3.589
 4379SOL     OW14035   2.850   1.306   4.815
 4379SOL    HW114036   2.901   1.250   4.749
 4379SOL    HW214037   2.908   1.380   4.848
 4380SOL     OW14038   0.953   1.570   1.479
 4380SOL    HW114039   1.008   1.546   1.400
 4380SOL    HW214040   1.007   1.560   1.562
 4381SOL     OW14041   2.231   6.018   5.417
 4381SOL    HW114042   2.309   6.053   5.365
 4381SOL    HW214043   2.149   6.019   5.359
 4382SOL     OW14044   6.918   3.596   4.938
 4382SOL    HW114045   6.919   3.526   5.010
 4382SOL    HW214046   6.880   3.558   4.854
 4383SOL     OW14047   5.334   2.267   6.122
 4383SOL    HW114048   5.311   2.327   6.046
 4383SOL    HW214049   5.272   2.188   6.121
 4384SOL     OW14050   6.802   6.265   3.126
 4384SOL    HW114051   6.787   6.215   3.211
 4384SOL    HW214052   6.893   6.304   3.125
 4385SOL     OW14053   5.832   1.809   4.632
 4385SOL    HW114054   5.891   1.867   4.688
 4385SOL    HW214055   5.876   1.721   4.616
 4386SOL     OW14056   1.303   3.326   5.275
 4386SOL    HW114057   1.256   3.291   5.194
 4386SOL    HW214058   1.400   3.300   5.270
 4387SOL     OW14059   0.393   2.468   0.481
 4387SOL    HW114060   0.384   2.402   0.555
 4387SOL    HW214061   0.346   2.434   0.400
 4388SOL     OW14062   4.798   2.226   6.288
 4388SOL    HW114063   4.850   2.191   6.366
 4388SOL    HW214064   4.847   2.206   6.204
 4389SOL     OW14065   6.858   3.801   1.514
 4389SOL    HW114066   6.786   3.866   1.491
 4389SOL    HW214067   6.819   3.726   1.567
 4390SOL     OW14068   5.817   0.946   1.198
 4390SOL    HW114069   5.834   1.002   1.279
 4390SOL    HW214070   5.814   0.850   1.224
 4391SOL     OW14071   1.863   5.759   6.034
 4391SOL    HW114072   1.836   5.666   6.009
 4391SOL    HW214073   1.923   5.755   6.115
 4392SOL     OW14074   1.245   1.751   4.267
 4392SOL    HW114075   1.342   1.776   4.258
 4392SOL    HW214076   1.236   1.652   4.260
 4393SOL     OW14077   5.031   6.711   1.831
 4393SOL    HW114078   5.041   6.810   1.833
 4393SOL    HW214079   5.077   6.674   1.750
 4394SOL     OW14080   1.803   0.110   1.120
 4394SOL    HW114081   1.834   0.059   1.040
 4394SOL    HW214082   1.815   0.053   1.202
 4395SOL     OW14083   2.599   5.966   1.079
 4395SOL    HW114084   2.583   5.969   0.981
 4395SOL    HW214085   2.569   5.877   1.115
 4396SOL     OW14086   2.230   0.795   3.556
 4396SOL    HW114087   2.233   0.753   3.465
 4396SOL    HW214088   2.136   0.802   3.586
 4397SOL     OW14089   3.032   1.822   3.933
 4397SOL    HW114090   2.951   1.764   3.921
 4397SOL    HW214091   3.083   1.792   4.013
 4398SOL     OW14092   2.179   3.173   6.235
 4398SOL    HW114093   2.127   3.094   6.200
 4398SOL    HW214094   2.241   3.206   6.164
 4399SOL     OW14095   2.787   6.429   2.349
 4399SOL    HW114096   2.884   6.451   2.359
 4399SOL    HW214097   2.776   6.356   2.281
 4400SOL     OW14098   1.511   6.189   4.480
 4400SOL    HW114099   1.482   6.106   4.528
 4400SOL    HW214100   1.534   6.167   4.385
 4401SOL     OW14101   3.093   6.413   5.461
 4401SOL    HW114102   3.065   6.358   5.540
 4401SOL    HW214103   3.019   6.474   5.434
 4402SOL     OW14104   0.986   0.362   3.360
 4402SOL    HW114105   0.898   0.327   3.328
 4402SOL    HW214106   1.052   0.287   3.366
 4403SOL     OW14107   1.520   5.227   1.123
 4403SOL    HW114108   1.561   5.265   1.040
 4403SOL    HW214109   1.567   5.264   1.203
 4404SOL     OW14110   0.964   5.692   6.113
 4404SOL    HW114111   1.048   5.661   6.157
 4404SOL    HW214112   0.962   5.661   6.018
 4405SOL     OW14113   2.017   4.320   3.705
 4405SOL    HW114114   2.084   4.246   3.707
 4405SOL    HW214115   1.962   4.313   3.622
 4406SOL     OW14116   5.872   3.656   1.987
 4406SOL    HW114117   5.785   3.697   1.963
 4406SOL    HW214118   5.864   3.611   2.076
 4407SOL     OW14119   0.099   6.443   2.414
 4407SOL    HW114120   0.026   6.435   2.482
 4407SOL    HW214121   0.180   6.394   2.446
 4408SOL     OW14122   4.285   0.339   0.835
 4408SOL    HW114123   4.365   0.284   0.856
 4408SOL    HW214124   4.309   0.411   0.770
 4409SOL     OW14125   3.877   0.784   2.269
 4409SOL    HW114126   3.935   0.866   2.270
 4409SOL    HW214127   3.800   0.797   2.331
 4410SOL     OW14128   1.195   5.900   1.045
 4410SOL    HW114129   1.208   5.825   1.109
 4410SOL    HW214130   1.187   5.864   0.952
 4411SOL     OW14131   3.123   4.412   5.546
 4411SOL    HW114132   3.209   4.425   5.595
 4411SOL    HW214133   3.066   4.345   5.594
 4412SOL     OW14134   4.425   6.403   3.125
 4412SOL    HW114135   4.497   6.459   3.166
 4412SOL    HW214136   4.336   6.444   3.144
 4413SOL     OW14137   3.600   0.019   4.174
 4413SOL    HW114138   3.551   6.997   4.247
 4413SOL    HW214139   3.535   0.053   4.107
 4414SOL     OW14140   4.757   4.347   1.828
 4414SOL    HW114141   4.702   4.327   1.909
 4414SOL    HW214142   4.753   4.269   1.765
 4415SOL     OW14143   3.071   3.388   1.766
 4415SOL    HW114144   3.015   3.320   1.814
 4415SOL    HW214145   3.128   3.341   1.699
 4416SOL     OW14146   4.133   2.246   3.733
 4416SOL    HW114147   4.109   2.316   3.800
 4416SOL    HW214148   4.058   2.179   3.727
 4417SOL     OW14149   0.470   3.606   3.432
 4417SOL    HW114150   0.501   3.642   3.520
 4417SOL    HW214151   0.377   3.569   3.442
 4418SOL     OW14152   6.265   6.982   0.699
 4418SOL    HW114153   6.346   6.988   0.756
 4418SOL    HW214154   6.200   0.028   0.726
 4419SOL     OW14155   6.274   5.767   6.675
 4419SOL    HW114156   6.251   5.670   6.664
 4419SOL    HW214157   6.271   5.813   6.586
 4420SOL     OW14158   3.685   2.232   0.767
 4420SOL    HW114159   3.618   2.158   0.768
 4420SOL    HW214160   3.643   2.314   0.729
 4421SOL     OW14161   1.795   2.357   4.517
 4421SOL    HW114162   1.853   2.334   4.439
 4421SOL    HW214163   1.708   2.396   4.485
 4422SOL     OW14164   0.100   4.642   0.077
 4422SOL    HW114165   0.121   4.544   0.087
 4422SOL    HW214166   0.038   4.654   7.025
 4423SOL     OW14167   5.494   3.879   5.643
 4423SOL    HW114168   5.503   3.836   5.733
 4423SOL    HW214169   5.584   3.881   5.598
 4424SOL     OW14170   4.940   6.063   4.268
 4424SOL    HW114171   4.878   6.135   4.298
 4424SOL    HW214172   4.889   5.994   4.215
 4425SOL     OW14173   1.649   5.632   1.685
 4425SOL    HW114174   1.689   5.622   1.594
 4425SOL    HW214175   1.597   5.717   1.689
 4426SOL     OW14176   1.317   0.219   4.022
 4426SOL    HW114177   1.234   0.165   4.037
 4426SOL    HW214178   1.327   0.287   4.094
 4427SOL     OW14179   3.557   5.832   3.130
 4427SOL    HW114180   3.546   5.766   3.205
 4427SOL    HW214181   3.655   5.843   3.111
 4428SOL     OW14182   5.613   0.811   3.734
 4428SOL    HW114183   5.700   0.848   3.701
 4428SOL    HW214184   5.553   0.792   3.657
 4429SOL     OW14185   2.867   5.899   3.574
 4429SOL    HW114186   2.961   5.873   3.551
 4429SOL    HW214187   2.843   5.983   3.524
 4430SOL     OW14188   5.260   4.716   4.949
 4430SOL    HW114189   5.225   4.696   5.041
 4430SOL    HW214190   5.339   4.777   4.956
 4431SOL     OW14191   3.427   0.587   3.921
 4431SOL    HW114192   3.341   0.560   3.878
 4431SOL    HW214193   3.488   0.508   3.924
 4432SOL     OW14194   1.420   3.769   6.193
 4432SOL    HW114195   1.377   3.849   6.236
 4432SOL    HW214196   1.511   3.794   6.159
 4433SOL     OW14197   1.116   1.197   4.899
 4433SOL    HW114198   1.209   1.232   4.909
 4433SOL    HW214199   1.057   1.270   4.865
 4434SOL     OW14200   6.642   0.667   1.726
 4434SOL    HW114201   6.596   0.755   1.740
 4434SOL    HW214202   6.676   0.633   1.813
 4435SOL     OW14203   2.920   4.159   0.627
 4435SOL    HW114204   2.822   4.176   0.634
 4435SOL    HW214205   2.944   4.135   0.533
 4436SOL     OW14206   4.559   1.788   1.541
 4436SOL    HW114207   4.630   1.792   1.470
 4436SOL    HW214208   4.482   1.846   1.514
 4437SOL     OW14209   0.065   4.056   1.851
 4437SOL    HW114210   6.995   4.031   1.830
 4437SOL    HW214211   0.114   3.975   1.884
 4438SOL     OW14212   3.809   0.418   6.094
 4438SOL    HW114213   3.774   0.331   6.129
 4438SOL    HW214214   3.902   0.405   6.059
 4439SOL     OW14215   2.361   6.499   2.190
 4439SOL    HW114216   2.365   6.598   2.198
 4439SOL    HW214217   2.447   6.464   2.151
 4440SOL     OW14218   2.132   4.946   0.133
 4440SOL    HW114219   2.128   5.044   0.114
 4440SOL    HW214220   2.121   4.930   0.231
 4441SOL     OW14221   0.611   1.192   7.005
 4441SOL    HW114222   0.557   1.182   6.921
 4441SOL    HW214223   0.551   1.227   0.052
 4442SOL     OW14224   1.768   4.470   6.665
 4442SOL    HW114225   1.700   4.397   6.655
 4442SOL    HW214226   1.783   4.488   6.762
 4443SOL     OW14227   0.293   5.160   6.349
 4443SOL    HW114228   0.278   5.080   6.407
 4443SOL    HW214229   0.389   5.166   6.325
 4444SOL     OW14230   5.403   4.066   6.816
 4444SOL    HW114231   5.412   4.158   6.854
 4444SOL    HW214232   5.421   3.999   6.888
 4445SOL     OW14233   0.327   5.985   0.179
 4445SOL    HW114234   0.258   6.010   0.112
 4445SOL    HW214235   0.306   5.895   0.218
 4446SOL     OW14236   5.451   1.034   0.818
 4446SOL    HW114237   5.389   1.022   0.895
 4446SOL    HW214238   5.545   1.011   0.847
 4447SOL     OW14239   4.823   5.334   5.741
 4447SOL    HW114240   4.886   5.303   5.669
 4447SOL    HW214241   4.857   5.419   5.780
 4448SOL     OW14242   3.473   7.014   1.585
 4448SOL    HW114243   3.456   0.072   1.531
 4448SOL    HW214244   3.547   0.006   1.650
 4449SOL     OW14245   3.648   1.535   6.118
 4449SOL    HW114246   3.731   1.509   6.169
 4449SOL    HW214247   3.573   1.476   6.145
 4450SOL     OW14248   3.331   0.444   0.610
 4450SOL    HW114249   3.420   0.415   0.572
 4450SOL    HW214250   3.258   0.402   0.557
 4451SOL     OW14251   4.806   4.106   3.666
 4451SOL    HW114252   4.872   4.117   3.591
 4451SOL    HW214253   4.735   4.176   3.658
 4452SOL     OW14254   5.119   6.311   4.795
 4452SOL    HW114255   5.066   6.344   4.717
 4452SOL    HW214256   5.074   6.231   4.835
 4453SOL     OW14257   0.430   3.674   0.999
 4453SOL    HW114258   0.383   3.660   0.912
 4453SOL    HW214259   0.366   3.661   1.075
 4454SOL     OW14260   1.042   2.332   0.464
 4454SOL    HW114261   1.029   2.431   0.465
 4454SOL    HW214262   0.955   2.287   0.443
 4455SOL     OW14263   6.883   6.389   5.059
 4455SOL    HW114264   6.945   6.354   4.988
 4455SOL    HW214265   6.900   6.342   5.145
 4456SOL     OW14266   2.023   6.925   4.241
 4456SOL    HW114267   2.025   7.023   4.259
 4456SOL    HW214268   1.947   6.903   4.180
 4457SOL     OW14269   0.962   2.086   4.900
 4457SOL    HW114270   0.888   2.043   4.952
 4457SOL    HW214271   1.050   2.050   4.932
 4458SOL     OW14272   2.138   3.815   0.694
 4458SOL    HW114273   2.075   3.880   0.652
 4458SOL    HW214274   2.227   3.820   0.649
 4459SOL     OW14275   1.307   2.736   3.938
 4459SOL    HW114276   1.265   2.754   3.849
 4459SOL    HW214277   1.407   2.735   3.928
 4460SOL     OW14278   0.273   3.479   4.460
 4460SOL    HW114279   0.235   3.494   4.368
 4460SOL    HW214280   0.239   3.551   4.521
 4461SOL     OW14281   2.365   0.715   1.374
 4461SOL    HW114282   2.416   0.630   1.359
 4461SOL    HW214283   2.313   0.736   1.291
 4462SOL     OW14284   5.908   4.919   2.216
 4462SOL    HW114285   5.862   4.986   2.275
 4462SOL    HW214286   5.865   4.919   2.126
 4463SOL     OW14287   6.083   2.260   0.766
 4463SOL    HW114288   6.041   2.313   0.693
 4463SOL    HW214289   6.016   2.196   0.805
 4464SOL     OW14290   0.801   5.832   0.078
 4464SOL    HW114291   0.829   5.859   7.011
 4464SOL    HW214292   0.870   5.772   0.117
 4465SOL     OW14293   1.757   5.870   0.810
 4465SOL    HW114294   1.790   5.900   0.721
 4465SOL    HW214295   1.821   5.898   0.881
 4466SOL     OW14296   1.862   2.012   3.455
 4466SOL    HW114297   1.947   2.058   3.429
 4466SOL    HW214298   1.796   2.079   3.490
 4467SOL     OW14299   3.329   5.993   3.194
 4467SOL    HW114300   3.374   5.908   3.167
 4467SOL    HW214301   3.385   6.041   3.262
 4468SOL     OW14302   0.972   3.717   1.627
 4468SOL    HW114303   0.933   3.657   1.557
 4468SOL    HW214304   1.045   3.669   1.676
 4469SOL     OW14305   3.081   6.440   0.978
 4469SOL    HW114306   3.074   6.348   1.018
 4469SOL    HW214307   3.070   6.508   1.050
 4470SOL     OW14308   1.322   0.494   2.109
 4470SOL    HW114309   1.297   0.590   2.095
 4470SOL    HW214310   1.263   0.454   2.179
 4471SOL     OW14311   1.619   1.512   6.126
 4471SOL    HW114312   1.665   1.589   6.081
 4471SOL    HW214313   1.564   1.463   6.059
 4472SOL     OW14314   1.767   3.052   1.273
 4472SOL    HW114315   1.864   3.034   1.286
 4472SOL    HW214316   1.726   3.084   1.359
 4473SOL     OW14317   0.621   3.428   4.646
 4473SOL    HW114318   0.603   3.452   4.742
 4473SOL    HW214319   0.720   3.416   4.633
 4474SOL     OW14320   2.821   0.018   1.272
 4474SOL    HW114321   2.735   0.057   1.306
 4474SOL    HW214322   2.866   6.992   1.346
 4475SOL     OW14323   0.672   3.908   1.468
 4475SOL    HW114324   0.719   3.941   1.550
 4475SOL    HW214325   0.646   3.812   1.481
 4476SOL     OW14326   4.740   1.392   4.032
 4476SOL    HW114327   4.816   1.330   4.051
 4476SOL    HW214328   4.654   1.348   4.058
 4477SOL     OW14329   2.113   0.513   6.052
 4477SOL    HW114330   2.178   0.587   6.031
 4477SOL    HW214331   2.097   0.459   5.969
 4478SOL     OW14332   1.595   0.620   0.180
 4478SOL    HW114333   1.620   0.590   0.088
 4478SOL    HW214334   1.495   0.616   0.190
 4479SOL     OW14335   1.558   3.003   0.819
 4479SOL    HW114336   1.485   2.935   0.819
 4479SOL    HW214337   1.595   3.012   0.727
 4480SOL     OW14338   0.566   5.941   3.973
 4480SOL    HW114339   0.562   5.895   3.885
 4480SOL    HW214340   0.657   5.981   3.985
 4481SOL     OW14341   2.450   4.390   6.224
 4481SOL    HW114342   2.390   4.315   6.198
 4481SOL    HW214343   2.511   4.413   6.147
 4482SOL     OW14344   2.808   5.613   6.663
 4482SOL    HW114345   2.882   5.637   6.601
 4482SOL    HW214346   2.792   5.514   6.660
 4483SOL     OW14347   0.438   3.385   1.410
 4483SOL    HW114348   0.366   3.324   1.441
 4483SOL    HW214349   0.522   3.368   1.461
 4484SOL     OW14350   2.944   2.755   7.007
 4484SOL    HW114351   3.038   2.789   7.005
 4484SOL    HW214352   2.944   2.655   7.000
 4485SOL     OW14353   5.608   2.550   4.887
 4485SOL    HW114354   5.574   2.642   4.870
 4485SOL    HW214355   5.661   2.519   4.808
 4486SOL     OW14356   4.403   5.048   5.466
 4486SOL    HW114357   4.481   5.067   5.405
 4486SOL    HW214358   4.324   5.102   5.436
 4487SOL     OW14359   1.167   2.742   0.239
 4487SOL    HW114360   1.208   2.680   0.305
 4487SOL    HW214361   1.238   2.780   0.180
 4488SOL     OW14362   0.171   3.818   3.961
 4488SOL    HW114363   0.234   3.878   4.010
 4488SOL    HW214364   0.109   3.874   3.905
 4489SOL     OW14365   3.908   5.417   5.609
 4489SOL    HW114366   3.929   5.374   5.521
 4489SOL    HW214367   3.993   5.438   5.658
 4490SOL     OW14368   5.215   1.638   0.837
 4490SOL    HW114369   5.207   1.694   0.754
 4490SOL    HW214370   5.164   1.681   0.911
 4491SOL     OW14371   1.064   2.919   3.042
 4491SOL    HW114372   1.140   2.918   2.976
 4491SOL    HW214373   0.979   2.941   2.994
 4492SOL     OW14374   5.357   0.750   1.498
 4492SOL    HW114375   5.420   0.691   1.548
 4492SOL    HW214376   5.394   0.768   1.407
 4493SOL     OW14377   4.536   1.009   4.664
 4493SOL    HW114378   4.527   1.099   4.621
 4493SOL    HW214379   4.479   1.006   4.747
 4494SOL     OW14380   0.131   0.752   0.678
 4494SOL    HW114381   0.045   0.797   0.657
 4494SOL    HW214382   0.165   0.704   0.597
 4495SOL     OW14383   4.629   5.824   1.736
 4495SOL    HW114384   4.618   5.922   1.719
 4495SOL    HW214385   4.539   5.780   1.741
 4496SOL     OW14386   3.613   6.045   6.512
 4496SOL    HW114387   3.527   6.088   6.484
 4496SOL    HW214388   3.595   5.953   6.547
 4497SOL     OW14389   3.994   1.862   6.330
 4497SOL    HW114390   4.083   1.894   6.297
 4497SOL    HW214391   4.002   1.767   6.360
 4498SOL     OW14392   0.870   5.825   5.381
 4498SOL    HW114393   0.891   5.903   5.439
 4498SOL    HW214394   0.902   5.741   5.424
 4499SOL     OW14395   5.850   1.983   2.072
 4499SOL    HW114396   5.760   1.960   2.034
 4499SOL    HW214397   5.916   1.994   1.998
 4500SOL     OW14398   3.552   5.893   6.840
 4500SOL    HW114399   3.494   5.905   6.920
 4500SOL    HW214400   3.593   5.982   6.815
 4501SOL     OW14401   5.310   0.880   2.637
 4501SOL    HW114402   5.279   0.808   2.699
 4501SOL    HW214403   5.382   0.934   2.681
 4502SOL     OW14404   0.463   3.522   6.885
 4502SOL    HW114405   0.364   3.523   6.871
 4502SOL    HW214406   0.508   3.565   6.807
 4503SOL     OW14407   3.278   6.981   2.449
 4503SOL    HW114408   3.195   6.936   2.414
 4503SOL    HW214409   3.359   6.935   2.410
 4504SOL     OW14410   0.468   2.050   3.215
 4504SOL    HW114411   0.529   2.068   3.138
 4504SOL    HW214412   0.377   2.027   3.181
 4505SOL     OW14413   6.329   3.969   2.953
 4505SOL    HW114414   6.250   3.978   2.893
 4505SOL    HW214415   6.298   3.949   3.046
 4506SOL     OW14416   4.744   2.826   4.785
 4506SOL    HW114417   4.722   2.860   4.877
 4506SOL    HW214418   4.838   2.851   4.762
 4507SOL     OW14419   6.087   2.845   3.435
 4507SOL    HW114420   6.131   2.902   3.365
 4507SOL    HW214421   6.111   2.881   3.526
 4508SOL     OW14422   0.405   5.498   0.736
 4508SOL    HW114423   0.481   5.502   0.671
 4508SOL    HW214424   0.331   5.558   0.706
 4509SOL     OW14425   4.768   2.823   2.575
 4509SOL    HW114426   4.700   2.752   2.555
 4509SOL    HW214427   4.830   2.832   2.497
 4510SOL     OW14428   4.331   1.342   4.521
 4510SOL    HW114429   4.426   1.313   4.532
 4510SOL    HW214430   4.273   1.292   4.585
 4511SOL     OW14431   0.648   4.221   0.831
 4511SOL    HW114432   0.624   4.174   0.916
 4511SOL    HW214433   0.726   4.281   0.846
 4512SOL     OW14434   3.015   2.612   6.220
 4512SOL    HW114435   2.999   2.528   6.170
 4512SOL    HW214436   3.114   2.625   6.233
 4513SOL     OW14437   1.439   6.557   0.513
 4513SOL    HW114438   1.397   6.467   0.522
 4513SOL    HW214439   1.369   6.624   0.489
 4514SOL     OW14440   3.039   3.564   6.894
 4514SOL    HW114441   3.007   3.608   6.810
 4514SOL    HW214442   2.987   3.598   6.972
 4515SOL     OW14443   4.116   0.152   6.321
 4515SOL    HW114444   4.071   0.241   6.329
 4515SOL    HW214445   4.169   0.134   6.404
 4516SOL     OW14446   3.573   1.550   4.905
 4516SOL    HW114447   3.625   1.482   4.852
 4516SOL    HW214448   3.635   1.596   4.969
 4517SOL     OW14449   3.771   0.504   5.767
 4517SOL    HW114450   3.767   0.433   5.697
 4517SOL    HW214451   3.734   0.467   5.853
 4518SOL     OW14452   1.499   0.476   1.002
 4518SOL    HW114453   1.589   0.443   0.974
 4518SOL    HW214454   1.496   0.485   1.101
 4519SOL     OW14455   5.290   6.412   6.540
 4519SOL    HW114456   5.359   6.356   6.585
 4519SOL    HW214457   5.333   6.492   6.499
 4520SOL     OW14458   4.650   6.805   5.097
 4520SOL    HW114459   4.557   6.823   5.065
 4520SOL    HW214460   4.648   6.729   5.163
 4521SOL     OW14461   4.550   2.394   4.568
 4521SOL    HW114462   4.569   2.304   4.608
 4521SOL    HW214463   4.596   2.465   4.621
 4522SOL     OW14464   4.994   4.175   3.485
 4522SOL    HW114465   4.999   4.233   3.403
 4522SOL    HW214466   5.080   4.180   3.534
 4523SOL     OW14467   0.215   3.237   6.106
 4523SOL    HW114468   0.270   3.156   6.128
 4523SOL    HW214469   0.178   3.228   6.013
 4524SOL     OW14470   0.797   3.244   2.883
 4524SOL    HW114471   0.793   3.284   2.792
 4524SOL    HW214472   0.705   3.246   2.924
 4525SOL     OW14473   2.970   1.580   5.489
 4525SOL    HW114474   2.873   1.598   5.504
 4525SOL    HW214475   3.007   1.649   5.426
 4526SOL     OW14476   0.336   6.784   5.716
 4526SOL    HW114477   0.294   6.844   5.648
 4526SOL    HW214478   0.280   6.702   5.727
 4527SOL     OW14479   6.440   0.449   2.931
 4527SOL    HW114480   6.401   0.502   3.006
 4527SOL    HW214481   6.529   0.412   2.958
 4528SOL     OW14482   4.027   0.842   5.289
 4528SOL    HW114483   3.976   0.903   5.228
 4528SOL    HW214484   3.967   0.767   5.318
 4529SOL     OW14485   2.492   1.237   5.316
 4529SOL    HW114486   2.500   1.254   5.217
 4529SOL    HW214487   2.472   1.323   5.363
 4530SOL     OW14488   3.185   5.555   5.365
 4530SOL    HW114489   3.264   5.597   5.409
 4530SOL    HW214490   3.183   5.457   5.387
 4531SOL     OW14491   0.913   4.966   5.932
 4531SOL    HW114492   0.982   5.037   5.924
 4531SOL    HW214493   0.881   4.940   5.841
 4532SOL     OW14494   5.958   0.643   2.922
 4532SOL    HW114495   5.881   0.594   2.962
 4532SOL    HW214496   6.043   0.612   2.965
 4533SOL     OW14497   3.115   0.521   2.397
 4533SOL    HW114498   3.196   0.472   2.364
 4533SOL    HW214499   3.050   0.456   2.437
 4534SOL     OW14500   4.669   1.687   4.190
 4534SOL    HW114501   4.592   1.631   4.221
 4534SOL    HW214502   4.645   1.784   4.196
 4535SOL     OW14503   2.651   1.769   1.004
 4535SOL    HW114504   2.566   1.736   1.045
 4535SOL    HW214505   2.695   1.694   0.955
 4536SOL     OW14506   2.662   1.260   5.884
 4536SOL    HW114507   2.630   1.211   5.965
 4536SOL    HW214508   2.756   1.235   5.864
 4537SOL     OW14509   3.572   2.867   3.724
 4537SOL    HW114510   3.520   2.941   3.767
 4537SOL    HW214511   3.558   2.783   3.778
 4538SOL     OW14512   0.183   2.155   0.544
 4538SOL    HW114513   0.185   2.055   0.553
 4538SOL    HW214514   0.273   2.192   0.568
 4539SOL     OW14515   1.362   6.105   5.254
 4539SOL    HW114516   1.295   6.049   5.303
 4539SOL    HW214517   1.421   6.047   5.198
 4540SOL     OW14518   0.559   0.619   7.012
 4540SOL    HW114519   0.502   0.597   6.932
 4540SOL    HW214520   0.644   0.661   6.981
 4541SOL     OW14521   4.555   2.828   5.922
 4541SOL    HW114522   4.529   2.739   5.885
 4541SOL    HW214523   4.643   2.856   5.883
 4542SOL     OW14524   6.699   2.493   1.426
 4542SOL    HW114525   6.756   2.511   1.506
 4542SOL    HW214526   6.749   2.436   1.362
 4543SOL     OW14527   3.671   2.172   0.299
 4543SOL    HW114528   3.684   2.115   0.380
 4543SOL    HW214529   3.587   2.145   0.252
 4544SOL     OW14530   5.611   5.980   0.710
 4544SOL    HW114531   5.587   5.891   0.672
 4544SOL    HW214532   5.685   6.021   0.656
 4545SOL     OW14533   2.009   3.156   5.321
 4545SOL    HW114534   2.034   3.062   5.344
 4545SOL    HW214535   2.079   3.219   5.353
 4546SOL     OW14536   3.329   1.543   6.746
 4546SOL    HW114537   3.274   1.468   6.785
 4546SOL    HW214538   3.416   1.506   6.713
 4547SOL     OW14539   6.824   0.256   0.077
 4547SOL    HW114540   6.786   0.163   0.071
 4547SOL    HW214541   6.868   0.268   0.166
 4548SOL     OW14542   2.296   2.760   2.593
 4548SOL    HW114543   2.227   2.704   2.547
 4548SOL    HW214544   2.342   2.704   2.662
 4549SOL     OW14545   5.880   3.716   4.029
 4549SOL    HW114546   5.939   3.779   3.977
 4549SOL    HW214547   5.794   3.703   3.980
 4550SOL     OW14548   1.154   4.161   3.145
 4550SOL    HW114549   1.081   4.198   3.089
 4550SOL    HW214550   1.115   4.120   3.228
 4551SOL     OW14551   1.081   3.552   4.410
 4551SOL    HW114552   1.010   3.500   4.362
 4551SOL    HW214553   1.164   3.497   4.418
 4552SOL     OW14554   5.628   1.337   1.668
 4552SOL    HW114555   5.658   1.255   1.717
 4552SOL    HW214556   5.684   1.415   1.698
 4553SOL     OW14557   6.111   5.275   6.383
 4553SOL    HW114558   6.125   5.227   6.470
 4553SOL    HW214559   6.053   5.220   6.323
 4554SOL     OW14560   0.136   5.983   2.832
 4554SOL    HW114561   0.153   6.081   2.835
 4554SOL    HW214562   0.159   5.942   2.920
 4555SOL     OW14563   1.336   1.056   6.545
 4555SOL    HW114564   1.252   1.036   6.595
 4555SOL    HW214565   1.391   1.122   6.597
 4556SOL     OW14566   5.780   4.239   5.969
 4556SOL    HW114567   5.858   4.267   5.913
 4556SOL    HW214568   5.810   4.221   6.062
 4557SOL     OW14569   6.459   4.923   2.737
 4557SOL    HW114570   6.429   4.916   2.642
 4557SOL    HW214571   6.542   4.868   2.750
 4558SOL     OW14572   6.704   3.313   5.356
 4558SOL    HW114573   6.752   3.270   5.432
 4558SOL    HW214574   6.716   3.258   5.273
 4559SOL     OW14575   6.895   2.564   2.503
 4559SOL    HW114576   6.929   2.575   2.410
 4559SOL    HW214577   6.928   2.639   2.560
 4560SOL     OW14578   5.722   5.118   2.835
 4560SOL    HW114579   5.816   5.099   2.806
 4560SOL    HW214580   5.703   5.216   2.826
 4561SOL     OW14581   3.774   2.086   4.394
 4561SOL    HW114582   3.738   2.127   4.478
 4561SOL    HW214583   3.705   2.026   4.354
 4562SOL     OW14584   2.574   1.395   1.108
 4562SOL    HW114585   2.579   1.295   1.112
 4562SOL    HW214586   2.665   1.432   1.087
 4563SOL     OW14587   0.357   3.914   1.661
 4563SOL    HW114588   0.446   3.897   1.702
 4563SOL    HW214589   0.359   3.893   1.564
 4564SOL     OW14590   0.504   3.827   2.113
 4564SOL    HW114591   0.459   3.903   2.160
 4564SOL    HW214592   0.595   3.814   2.151
 4565SOL     OW14593   1.597   6.145   5.707
 4565SOL    HW114594   1.605   6.087   5.626
 4565SOL    HW214595   1.675   6.128   5.767
 4566SOL     OW14596   5.844   4.480   1.899
 4566SOL    HW114597   5.755   4.467   1.943
 4566SOL    HW214598   5.914   4.494   1.969
 4567SOL     OW14599   0.356   0.425   6.448
 4567SOL    HW114600   0.364   0.502   6.385
 4567SOL    HW214601   0.432   0.428   6.513
 4568SOL     OW14602   0.932   5.486   3.209
 4568SOL    HW114603   1.021   5.464   3.249
 4568SOL    HW214604   0.943   5.562   3.144
 4569SOL     OW14605   2.316   0.900   3.269
 4569SOL    HW114606   2.387   0.944   3.324
 4569SOL    HW214607   2.315   0.802   3.288
 4570SOL     OW14608   5.771   5.770   2.003
 4570SOL    HW114609   5.746   5.727   1.916
 4570SOL    HW214610   5.688   5.785   2.057
 4571SOL     OW14611   3.049   3.530   6.249
 4571SOL    HW114612   3.102   3.504   6.168
 4571SOL    HW214613   2.955   3.552   6.221
 4572SOL     OW14614   2.743   2.967   1.648
 4572SOL    HW114615   2.832   3.012   1.654
 4572SOL    HW214616   2.756   2.870   1.630
 4573SOL     OW14617   1.843   6.104   1.423
 4573SOL    HW114618   1.940   6.124   1.435
 4573SOL    HW214619   1.789   6.177   1.467
 4574SOL     OW14620   6.162   1.578   0.642
 4574SOL    HW114621   6.216   1.662   0.638
 4574SOL    HW214622   6.214   1.503   0.600
 4575SOL     OW14623   6.696   6.573   4.668
 4575SOL    HW114624   6.608   6.526   4.669
 4575SOL    HW214625   6.729   6.584   4.762
 4576SOL     OW14626   2.869   5.077   4.856
 4576SOL    HW114627   2.890   4.979   4.845
 4576SOL    HW214628   2.832   5.092   4.948
 4577SOL     OW14629   2.092   1.461   2.792
 4577SOL    HW114630   2.152   1.541   2.789
 4577SOL    HW214631   2.124   1.397   2.861
 4578SOL     OW14632   1.041   1.086   1.973
 4578SOL    HW114633   1.084   1.101   1.884
 4578SOL    HW214634   1.080   1.004   2.016
 4579SOL     OW14635   3.507   1.594   2.223
 4579SOL    HW114636   3.590   1.616   2.172
 4579SOL    HW214637   3.464   1.678   2.255
 4580SOL     OW14638   0.060   2.589   0.370
 4580SOL    HW114639   0.135   2.609   0.308
 4580SOL    HW214640   0.030   2.673   0.415
 4581SOL     OW14641   3.341   0.418   1.615
 4581SOL    HW114642   3.320   0.484   1.543
 4581SOL    HW214643   3.294   0.444   1.700
 4582SOL     OW14644   6.058   1.006   3.560
 4582SOL    HW114645   6.103   1.001   3.471
 4582SOL    HW214646   6.106   1.072   3.617
 4583SOL     OW14647   1.514   6.755   6.757
 4583SOL    HW114648   1.505   6.801   6.669
 4583SOL    HW214649   1.609   6.758   6.787
 4584SOL     OW14650   1.725   0.626   5.528
 4584SOL    HW114651   1.746   0.634   5.626
 4584SOL    HW214652   1.716   0.530   5.503
 4585SOL     OW14653   1.310   3.728   3.231
 4585SOL    HW114654   1.388   3.710   3.172
 4585SOL    HW214655   1.305   3.658   3.302
 4586SOL     OW14656   5.552   4.460   6.526
 4586SOL    HW114657   5.627   4.518   6.559
 4586SOL    HW214658   5.553   4.459   6.426
 4587SOL     OW14659   3.192   3.767   4.736
 4587SOL    HW114660   3.201   3.782   4.638
 4587SOL    HW214661   3.122   3.697   4.752
 4588SOL     OW14662   2.800   4.062   5.924
 4588SOL    HW114663   2.724   4.087   5.864
 4588SOL    HW214664   2.845   3.979   5.889
 4589SOL     OW14665   5.469   0.035   2.316
 4589SOL    HW114666   5.398   0.106   2.315
 4589SOL    HW214667   5.559   0.077   2.318
 4590SOL     OW14668   3.474   5.237   1.733
 4590SOL    HW114669   3.449   5.171   1.662
 4590SOL    HW214670   3.409   5.231   1.809
 4591SOL     OW14671   2.123   0.370   5.816
 4591SOL    HW114672   2.051   0.322   5.766
 4591SOL    HW214673   2.192   0.403   5.751
 4592SOL     OW14674   2.224   1.482   3.804
 4592SOL    HW114675   2.272   1.457   3.889
 4592SOL    HW214676   2.196   1.578   3.809
 4593SOL     OW14677   1.220   6.310   4.405
 4593SOL    HW114678   1.158   6.387   4.420
 4593SOL    HW214679   1.262   6.317   4.315
 4594SOL     OW14680   1.888   0.389   2.787
 4594SOL    HW114681   1.851   0.438   2.708
 4594SOL    HW214682   1.912   0.454   2.858
 4595SOL     OW14683   5.265   1.683   6.045
 4595SOL    HW114684   5.168   1.664   6.031
 4595SOL    HW214685   5.282   1.781   6.035
 4596SOL     OW14686   0.542   1.053   2.430
 4596SOL    HW114687   0.493   1.112   2.493
 4596SOL    HW214688   0.633   1.091   2.412
 4597SOL     OW14689   2.451   6.173   6.755
 4597SOL    HW114690   2.455   6.085   6.707
 4597SOL    HW214691   2.525   6.178   6.822
 4598SOL     OW14692   2.326   5.236   6.936
 4598SOL    HW114693   2.377   5.152   6.951
 4598SOL    HW214694   2.265   5.252   7.014
 4599SOL     OW14695   2.424   4.997   3.470
 4599SOL    HW114696   2.514   5.031   3.442
 4599SOL    HW214697   2.361   5.074   3.479
 4600SOL     OW14698   7.007   6.106   6.346
 4600SOL    HW114699   7.004   6.132   6.249
 4600SOL    HW214700   6.926   6.140   6.393
 4601SOL     OW14701   1.370   1.107   5.137
 4601SOL    HW114702   1.365   1.185   5.074
 4601SOL    HW214703   1.462   1.068   5.135
 4602SOL     OW14704   2.931   2.476   6.982
 4602SOL    HW114705   2.983   2.399   7.020
 4602SOL    HW214706   2.836   2.470   7.013
 4603SOL     OW14707   4.999   6.582   1.074
 4603SOL    HW114708   4.929   6.625   1.131
 4603SOL    HW214709   5.058   6.652   1.035
 4604SOL     OW14710   5.309   6.952   5.832
 4604SOL    HW114711   5.331   0.019   5.800
 4604SOL    HW214712   5.212   6.948   5.857
 4605SOL     OW14713   3.385   0.136   2.213
 4605SOL    HW114714   3.286   0.139   2.196
 4605SOL    HW214715   3.411   0.042   2.239
 4606SOL     OW14716   6.675   6.726   4.129
 4606SOL    HW114717   6.770   6.723   4.159
 4606SOL    HW214718   6.621   6.780   4.194
 4607SOL     OW14719   1.887   2.870   1.951
 4607SOL    HW114720   1.815   2.806   1.925
 4607SOL    HW214721   1.847   2.951   1.993
 4608SOL     OW14722   0.397   3.278   4.556
 4608SOL    HW114723   0.348   3.346   4.500
 4608SOL    HW214724   0.479   3.320   4.594
 4609SOL     OW14725   4.663   6.345   6.968
 4609SOL    HW114726   4.671   6.420   0.007
 4609SOL    HW214727   4.633   6.262   7.016
 4610SOL     OW14728   5.380   2.568   0.485
 4610SOL    HW114729   5.388   2.473   0.517
 4610SOL    HW214730   5.403   2.630   0.561
 4611SOL     OW14731   1.291   0.500   6.166
 4611SOL    HW114732   1.237   0.538   6.091
 4611SOL    HW214733   1.235   0.436   6.218
 4612SOL     OW14734   1.850   0.026   1.400
 4612SOL    HW114735   1.766   7.015   1.440
 4612SOL    HW214736   1.903   0.073   1.471
 4613SOL     OW14737   1.751   4.786   1.954
 4613SOL    HW114738   1.668   4.732   1.963
 4613SOL    HW214739   1.809   4.746   1.883
 4614SOL     OW14740   7.015   3.672   4.372
 4614SOL    HW114741   0.062   3.693   4.437
 4614SOL    HW214742   6.932   3.723   4.396
 4615SOL     OW14743   0.805   2.186   0.439
 4615SOL    HW114744   0.743   2.255   0.475
 4615SOL    HW214745   0.760   2.096   0.439
 4616SOL     OW14746   6.321   2.840   5.119
 4616SOL    HW114747   6.331   2.826   5.217
 4616SOL    HW214748   6.232   2.806   5.089
 4617SOL     OW14749   0.310   2.461   2.747
 4617SOL    HW114750   0.226   2.514   2.760
 4617SOL    HW214751   0.382   2.498   2.805
 4618SOL     OW14752   1.968   4.919   5.843
 4618SOL    HW114753   1.923   4.960   5.764
 4618SOL    HW214754   2.027   4.844   5.813
 4619SOL     OW14755   3.859   6.544   5.282
 4619SOL    HW114756   3.791   6.473   5.264
 4619SOL    HW214757   3.934   6.506   5.336
 4620SOL     OW14758   1.411   5.356   2.710
 4620SOL    HW114759   1.484   5.403   2.762
 4620SOL    HW214760   1.452   5.285   2.653
 4621SOL     OW14761   4.706   0.571   2.114
 4621SOL    HW114762   4.782   0.597   2.174
 4621SOL    HW214763   4.721   0.610   2.023
 4622SOL     OW14764   4.709   5.794   1.367
 4622SOL    HW114765   4.792   5.841   1.396
 4622SOL    HW214766   4.713   5.698   1.397
 4623SOL     OW14767   2.743   4.893   1.308
 4623SOL    HW114768   2.714   4.933   1.394
 4623SOL    HW214769   2.739   4.793   1.314
 4624SOL     OW14770   4.271   1.422   2.131
 4624SOL    HW114771   4.354   1.375   2.162
 4624SOL    HW214772   4.197   1.406   2.196
 4625SOL     OW14773   1.759   5.609   1.412
 4625SOL    HW114774   1.752   5.517   1.373
 4625SOL    HW214775   1.839   5.655   1.374
 4626SOL     OW14776   3.989   3.864   2.257
 4626SOL    HW114777   3.957   3.942   2.203
 4626SOL    HW214778   4.014   3.895   2.349
 4627SOL     OW14779   5.770   6.549   5.009
 4627SOL    HW114780   5.858   6.583   5.044
 4627SOL    HW214781   5.714   6.626   4.978
 4628SOL     OW14782   5.805   5.004   3.788
 4628SOL    HW114783   5.750   4.967   3.714
 4628SOL    HW214784   5.776   5.098   3.807
 4629SOL     OW14785   2.239   6.292   6.570
 4629SOL    HW114786   2.170   6.351   6.613
 4629SOL    HW214787   2.304   6.262   6.640
 4630SOL     OW14788   1.583   3.432   2.252
 4630SOL    HW114789   1.542   3.351   2.211
 4630SOL    HW214790   1.682   3.421   2.257
 4631SOL     OW14791   0.711   0.619   3.424
 4631SOL    HW114792   0.769   0.587   3.349
 4631SOL    HW214793   0.633   0.670   3.387
 4632SOL     OW14794   3.279   4.876   2.713
 4632SOL    HW114795   3.186   4.904   2.737
 4632SOL    HW214796   3.276   4.790   2.662
 4633SOL     OW14797   5.031   0.856   4.184
 4633SOL    HW114798   4.971   0.848   4.105
 4633SOL    HW214799   5.038   0.952   4.211
 4634SOL     OW14800   2.953   3.621   4.768
 4634SOL    HW114801   2.917   3.528   4.762
 4634SOL    HW214802   2.929   3.661   4.857
 4635SOL     OW14803   5.172   6.036   0.815
 4635SOL    HW114804   5.078   6.004   0.806
 4635SOL    HW214805   5.222   6.022   0.730
 4636SOL     OW14806   1.899   5.664   0.632
 4636SOL    HW114807   1.851   5.681   0.718
 4636SOL    HW214808   1.980   5.723   0.627
 4637SOL     OW14809   2.578   0.575   2.245
 4637SOL    HW114810   2.614   0.667   2.259
 4637SOL    HW214811   2.547   0.537   2.332
 4638SOL     OW14812   2.960   4.842   6.738
 4638SOL    HW114813   2.991   4.856   6.832
 4638SOL    HW214814   3.035   4.805   6.683
 4639SOL     OW14815   2.090   2.344   1.282
 4639SOL    HW114816   2.029   2.286   1.229
 4639SOL    HW214817   2.104   2.303   1.373
 4640SOL     OW14818   6.353   2.830   6.155
 4640SOL    HW114819   6.452   2.846   6.159
 4640SOL    HW214820   6.316   2.877   6.075
 4641SOL     OW14821   0.614   5.587   4.522
 4641SOL    HW114822   0.643   5.657   4.457
 4641SOL    HW214823   0.514   5.583   4.525
 4642SOL     OW14824   0.524   1.760   3.295
 4642SOL    HW114825   0.566   1.712   3.218
 4642SOL    HW214826   0.522   1.858   3.275
 4643SOL     OW14827   6.934   1.712   0.113
 4643SOL    HW114828   6.918   1.810   0.119
 4643SOL    HW214829   6.984   1.691   0.029
 4644SOL     OW14830   0.976   1.208   0.552
 4644SOL    HW114831   1.031   1.268   0.609
 4644SOL    HW214832   1.021   1.195   0.463
 4645SOL     OW14833   1.217   1.634   3.879
 4645SOL    HW114834   1.289   1.565   3.872
 4645SOL    HW214835   1.258   1.725   3.871
 4646SOL     OW14836   2.006   4.773   3.679
 4646SOL    HW114837   1.930   4.734   3.627
 4646SOL    HW214838   2.078   4.803   3.617
 4647SOL     OW14839   1.509   6.806   2.814
 4647SOL    HW114840   1.526   6.709   2.795
 4647SOL    HW214841   1.415   6.829   2.789
 4648SOL     OW14842   2.543   1.290   4.581
 4648SOL    HW114843   2.618   1.223   4.586
 4648SOL    HW214844   2.560   1.364   4.646
 4649SOL     OW14845   5.711   0.495   0.572
 4649SOL    HW114846   5.783   0.452   0.518
 4649SOL    HW214847   5.748   0.524   0.660
 4650SOL     OW14848   5.388   6.023   1.250
 4650SOL    HW114849   5.316   6.087   1.278
 4650SOL    HW214850   5.375   5.996   1.155
 4651SOL     OW14851   6.085   3.374   6.266
 4651SOL    HW114852   6.117   3.351   6.358
 4651SOL    HW214853   5.998   3.422   6.273
 4652SOL     OW14854   0.511   6.237   4.182
 4652SOL    HW114855   0.502   6.148   4.137
 4652SOL    HW214856   0.453   6.239   4.263
 4653SOL     OW14857   5.433   5.449   0.632
 4653SOL    HW114858   5.421   5.351   0.649
 4653SOL    HW214859   5.431   5.499   0.718
 4654SOL     OW14860   0.237   6.641   5.067
 4654SOL    HW114861   0.146   6.677   5.046
 4654SOL    HW214862   0.307   6.702   5.030
 4655SOL     OW14863   4.644   2.793   0.966
 4655SOL    HW114864   4.744   2.791   0.976
 4655SOL    HW214865   4.618   2.873   0.912
 4656SOL     OW14866   0.957   1.297   1.245
 4656SOL    HW114867   0.963   1.383   1.194
 4656SOL    HW214868   0.874   1.248   1.216
 4657SOL     OW14869   5.682   6.816   1.973
 4657SOL    HW114870   5.602   6.843   2.027
 4657SOL    HW214871   5.721   6.897   1.930
 4658SOL     OW14872   2.407   2.624   5.993
 4658SOL    HW114873   2.330   2.686   5.983
 4658SOL    HW214874   2.431   2.615   6.090
 4659SOL     OW14875   3.249   4.862   0.623
 4659SOL    HW114876   3.228   4.902   0.534
 4659SOL    HW214877   3.165   4.854   0.677
 4660SOL     OW14878   1.186   6.376   3.946
 4660SOL    HW114879   1.235   6.376   4.033
 4660SOL    HW214880   1.208   6.460   3.896
 4661SOL     OW14881   0.863   2.980   5.373
 4661SOL    HW114882   0.869   2.896   5.319
 4661SOL    HW214883   0.905   2.964   5.463
 4662SOL     OW14884   2.592   6.050   4.675
 4662SOL    HW114885   2.582   5.978   4.745
 4662SOL    HW214886   2.541   6.131   4.704
 4663SOL     OW14887   1.629   0.028   0.501
 4663SOL    HW114888   1.614   0.127   0.495
 4663SOL    HW214889   1.560   7.012   0.560
 4664SOL     OW14890   6.303   6.147   6.903
 4664SOL    HW114891   6.231   6.084   6.877
 4664SOL    HW214892   6.391   6.099   6.904
 4665SOL     OW14893   2.262   0.473   4.487
 4665SOL    HW114894   2.230   0.506   4.575
 4665SOL    HW214895   2.196   0.499   4.416
 4666SOL     OW14896   1.950   1.712   5.700
 4666SOL    HW114897   2.015   1.726   5.775
 4666SOL    HW214898   1.943   1.614   5.680
 4667SOL     OW14899   6.518   3.538   1.321
 4667SOL    HW114900   6.548   3.444   1.338
 4667SOL    HW214901   6.461   3.569   1.397
 4668SOL     OW14902   4.273   2.304   4.531
 4668SOL    HW114903   4.358   2.355   4.536
 4668SOL    HW214904   4.261   2.266   4.439
 4669SOL     OW14905   5.285   6.905   6.918
 4669SOL    HW114906   5.254   6.920   7.012
 4669SOL    HW214907   5.377   6.943   6.907
 4670SOL     OW14908   1.101   3.314   0.598
 4670SOL    HW114909   1.046   3.245   0.552
 4670SOL    HW214910   1.094   3.301   0.697
 4671SOL     OW14911   0.252   3.863   0.056
 4671SOL    HW114912   0.233   3.936   0.121
 4671SOL    HW214913   0.212   3.885   6.993
 4672SOL     OW14914   2.887   4.212   6.148
 4672SOL    HW114915   2.864   4.140   6.213
 4672SOL    HW214916   2.869   4.181   6.055
 4673SOL     OW14917   5.881   0.274   6.684
 4673SOL    HW114918   5.942   0.263   6.606
 4673SOL    HW214919   5.871   0.371   6.707
 4674SOL     OW14920   1.207   1.940   0.636
 4674SOL    HW114921   1.242   2.026   0.672
 4674SOL    HW214922   1.267   1.865   0.665
 4675SOL     OW14923   2.614   6.612   0.123
 4675SOL    HW114924   2.683   6.546   0.096
 4675SOL    HW214925   2.560   6.575   0.199
 4676SOL     OW14926   0.599   6.190   3.728
 4676SOL    HW114927   0.638   6.114   3.780
 4676SOL    HW214928   0.505   6.205   3.758
 4677SOL     OW14929   4.396   0.460   6.667
 4677SOL    HW114930   4.311   0.513   6.665
 4677SOL    HW214931   4.439   0.468   6.756
 4678SOL     OW14932   2.244   4.726   0.038
 4678SOL    HW114933   2.208   4.807   0.084
 4678SOL    HW214934   2.323   4.691   0.089
 4679SOL     OW14935   3.300   0.899   6.262
 4679SOL    HW114936   3.246   0.931   6.183
 4679SOL    HW214937   3.395   0.887   6.234
 4680SOL     OW14938   2.068   4.954   0.507
 4680SOL    HW114939   1.971   4.978   0.503
 4680SOL    HW214940   2.101   4.960   0.601
 4681SOL     OW14941   0.016   5.464   5.479
 4681SOL    HW114942   6.953   5.419   5.494
 4681SOL    HW214943   0.071   5.458   5.563
 4682SOL     OW14944   4.243   6.367   0.702
 4682SOL    HW114945   4.278   6.451   0.659
 4682SOL    HW214946   4.276   6.362   0.796
 4683SOL     OW14947   6.161   4.536   2.927
 4683SOL    HW114948   6.157   4.450   2.977
 4683SOL    HW214949   6.159   4.612   2.991
 4684SOL     OW14950   1.750   1.814   4.694
 4684SOL    HW114951   1.805   1.738   4.729
 4684SOL    HW214952   1.760   1.893   4.754
 4685SOL     OW14953   5.245   5.104   4.811
 4685SOL    HW114954   5.267   5.183   4.753
 4685SOL    HW214955   5.192   5.134   4.890
 4686SOL     OW14956   4.471   5.996   6.551
 4686SOL    HW114957   4.503   6.012   6.644
 4686SOL    HW214958   4.515   6.061   6.489
 4687SOL     OW14959   6.282   5.450   4.588
 4687SOL    HW114960   6.309   5.429   4.682
 4687SOL    HW214961   6.340   5.400   4.524
 4688SOL     OW14962   0.305   2.867   6.592
 4688SOL    HW114963   0.220   2.816   6.577
 4688SOL    HW214964   0.349   2.835   6.676
 4689SOL     OW14965   0.238   6.256   5.235
 4689SOL    HW114966   0.239   6.250   5.135
 4689SOL    HW214967   0.297   6.332   5.264
 4690SOL     OW14968   1.499   1.794   0.042
 4690SOL    HW114969   1.503   1.697   0.064
 4690SOL    HW214970   1.409   1.817   0.006
 4691SOL     OW14971   2.485   5.249   0.887
 4691SOL    HW114972   2.513   5.344   0.902
 4691SOL    HW214973   2.421   5.221   0.958
 4692SOL     OW14974   0.318   5.216   3.558
 4692SOL    HW114975   0.333   5.126   3.599
 4692SOL    HW214976   0.302   5.206   3.460
 4693SOL     OW14977   0.569   1.122   4.109
 4693SOL    HW114978   0.608   1.195   4.166
 4693SOL    HW214979   0.567   1.037   4.161
 4694SOL     OW14980   1.769   1.797   6.928
 4694SOL    HW114981   1.678   1.816   6.965
 4694SOL    HW214982   1.772   1.702   6.896
 4695SOL     OW14983   3.564   3.077   2.240
 4695SOL    HW114984   3.652   3.030   2.233
 4695SOL    HW214985   3.578   3.167   2.282
 4696SOL     OW14986   6.624   2.917   6.199
 4696SOL    HW114987   6.646   2.829   6.241
 4696SOL    HW214988   6.692   2.985   6.228
 4697SOL     OW14989   1.011   5.103   0.154
 4697SOL    HW114990   1.092   5.162   0.153
 4697SOL    HW214991   0.981   5.089   0.248
 4698SOL     OW14992   5.511   3.566   0.725
 4698SOL    HW114993   5.525   3.496   0.795
 4698SOL    HW214994   5.523   3.525   0.635
 4699SOL     OW14995   6.946   0.271   2.716
 4699SOL    HW114996   6.968   0.230   2.628
 4699SOL    HW214997   6.847   0.271   2.729
 4700SOL     OW14998   5.079   1.406   0.879
 4700SOL    HW114999   5.120   1.491   0.846
 4700SOL    HW215000   5.125   1.328   0.836
 4701SOL     OW15001   0.480   1.049   0.785
 4701SOL    HW115002   0.386   1.082   0.773
 4701SOL    HW215003   0.533   1.118   0.835
 4702SOL     OW15004   3.637   3.637   0.524
 4702SOL    HW115005   3.539   3.634   0.507
 4702SOL    HW215006   3.654   3.647   0.622
 4703SOL     OW15007   2.132   0.691   2.320
 4703SOL    HW115008   2.079   0.675   2.402
 4703SOL    HW215009   2.191   0.771   2.333
 4704SOL     OW15010   5.683   6.614   1.137
 4704SOL    HW115011   5.682   6.684   1.065
 4704SOL    HW215012   5.697   6.524   1.096
 4705SOL     OW15013   3.390   3.799   4.144
 4705SOL    HW115014   3.423   3.846   4.062
 4705SOL    HW215015   3.311   3.847   4.180
 4706SOL     OW15016   4.309   5.803   6.991
 4706SOL    HW115017   4.402   5.789   6.958
 4706SOL    HW215018   4.245   5.764   6.925
 4707SOL     OW15019   2.759   5.685   0.551
 4707SOL    HW115020   2.747   5.691   0.650
 4707SOL    HW215021   2.674   5.652   0.510
 4708SOL     OW15022   2.316   2.203   1.845
 4708SOL    HW115023   2.380   2.230   1.916
 4708SOL    HW215024   2.345   2.242   1.757
 4709SOL     OW15025   4.275   5.112   5.719
 4709SOL    HW115026   4.302   5.122   5.623
 4709SOL    HW215027   4.179   5.138   5.730
 4710SOL     OW15028   4.390   1.148   0.136
 4710SOL    HW115029   4.385   1.112   0.229
 4710SOL    HW215030   4.374   1.247   0.138
 4711SOL     OW15031   3.494   0.388   2.487
 4711SOL    HW115032   3.428   0.314   2.503
 4711SOL    HW215033   3.560   0.389   2.561
 4712SOL     OW15034   2.094   4.695   0.482
 4712SOL    HW115035   2.082   4.794   0.490
 4712SOL    HW215036   2.190   4.671   0.494
 4713SOL     OW15037   1.723   5.353   0.522
 4713SOL    HW115038   1.741   5.376   0.618
 4713SOL    HW215039   1.735   5.434   0.465
 4714SOL     OW15040   2.894   2.161   1.329
 4714SOL    HW115041   2.794   2.167   1.332
 4714SOL    HW215042   2.933   2.222   1.399
 4715SOL     OW15043   6.915   2.911   3.589
 4715SOL    HW115044   6.933   2.886   3.685
 4715SOL    HW215045   6.878   2.832   3.541
 4716SOL     OW15046   3.352   5.738   0.242
 4716SOL    HW115047   3.407   5.656   0.260
 4716SOL    HW215048   3.264   5.711   0.203
 4717SOL     OW15049   1.275   6.023   3.373
 4717SOL    HW115050   1.312   5.930   3.371
 4717SOL    HW215051   1.267   6.058   3.280
 4718SOL     OW15052   5.930   1.113   6.091
 4718SOL    HW115053   5.978   1.116   6.003
 4718SOL    HW215054   5.869   1.033   6.093
 4719SOL     OW15055   4.294   3.641   1.173
 4719SOL    HW115056   4.362   3.636   1.246
 4719SOL    HW215057   4.204   3.664   1.212
 4720SOL     OW15058   2.298   0.569   5.723
 4720SOL    HW115059   2.299   0.634   5.799
 4720SOL    HW215060   2.375   0.506   5.732
 4721SOL     OW15061   1.602   2.115   1.810
 4721SOL    HW115062   1.518   2.090   1.762
 4721SOL    HW215063   1.675   2.051   1.784
 4722SOL     OW15064   2.129   0.320   0.671
 4722SOL    HW115065   2.160   0.322   0.576
 4722SOL    HW215066   2.036   0.358   0.677
 4723SOL     OW15067   2.559   0.004   7.000
 4723SOL    HW115068   2.515   0.038   6.917
 4723SOL    HW215069   2.649   6.992   6.977
 4724SOL     OW15070   3.948   6.851   1.959
 4724SOL    HW115071   4.027   6.892   2.005
 4724SOL    HW215072   3.864   6.894   1.993
 4725SOL     OW15073   4.815   6.452   3.455
 4725SOL    HW115074   4.796   6.545   3.488
 4725SOL    HW215075   4.754   6.387   3.502
 4726SOL     OW15076   0.285   4.678   6.266
 4726SOL    HW115077   0.320   4.766   6.297
 4726SOL    HW215078   0.355   4.607   6.278
 4727SOL     OW15079   6.894   5.621   0.045
 4727SOL    HW115080   6.807   5.581   0.073
 4727SOL    HW215081   6.966   5.552   0.053
 4728SOL     OW15082   0.187   0.975   6.798
 4728SOL    HW115083   0.114   1.022   6.847
 4728SOL    HW215084   0.151   0.934   6.715
 4729SOL     OW15085   3.161   0.634   1.837
 4729SOL    HW115086   3.253   0.672   1.832
 4729SOL    HW215087   3.094   0.709   1.832
 4730SOL     OW15088   2.027   6.808   5.256
 4730SOL    HW115089   2.079   6.866   5.319
 4730SOL    HW215090   1.984   6.734   5.308
 4731SOL     OW15091   5.548   1.366   5.020
 4731SOL    HW115092   5.594   1.307   5.086
 4731SOL    HW215093   5.581   1.346   4.927
 4732SOL     OW15094   0.104   2.735   6.938
 4732SOL    HW115095   0.108   2.833   6.954
 4732SOL    HW215096   0.148   2.687   7.014
 4733SOL     OW15097   6.810   3.996   3.025
 4733SOL    HW115098   6.875   3.942   2.973
 4733SOL    HW215099   6.741   4.035   2.964
 4734SOL     OW15100   4.104   4.071   6.518
 4734SOL    HW115101   4.147   4.101   6.603
 4734SOL    HW215102   4.017   4.119   6.506
 4735SOL     OW15103   1.411   4.711   3.839
 4735SOL    HW115104   1.367   4.745   3.922
 4735SOL    HW215105   1.349   4.720   3.762
 4736SOL     OW15106   1.050   0.774   0.130
 4736SOL    HW115107   0.992   0.839   0.180
 4736SOL    HW215108   1.033   0.682   0.163
 4737SOL     OW15109   2.146   5.146   1.672
 4737SOL    HW115110   2.185   5.235   1.646
 4737SOL    HW215111   2.202   5.105   1.744
 4738SOL     OW15112   0.204   6.277   2.813
 4738SOL    HW115113   0.133   6.323   2.760
 4738SOL    HW215114   0.288   6.331   2.809
 4739SOL     OW15115   4.670   1.173   1.080
 4739SOL    HW115116   4.636   1.080   1.098
 4739SOL    HW215117   4.661   1.192   0.982
 4740SOL     OW15118   1.084   1.355   2.927
 4740SOL    HW115119   1.013   1.409   2.974
 4740SOL    HW215120   1.130   1.296   2.993
 4741SOL     OW15121   4.165   3.703   1.599
 4741SOL    HW115122   4.145   3.707   1.501
 4741SOL    HW215123   4.244   3.761   1.619
 4742SOL     OW15124   3.402   7.012   0.743
 4742SOL    HW115125   3.459   6.946   0.694
 4742SOL    HW215126   3.460   0.057   0.784
 4743SOL     OW15127   2.509   4.769   1.504
 4743SOL    HW115128   2.420   4.724   1.510
 4743SOL    HW215129   2.539   4.799   1.595
 4744SOL     OW15130   2.239   6.239   0.695
 4744SOL    HW115131   2.187   6.300   0.636
 4744SOL    HW215132   2.201   6.243   0.788
 4745SOL     OW15133   1.232   4.642   0.385
 4745SOL    HW115134   1.199   4.589   0.306
 4745SOL    HW215135   1.300   4.588   0.434
 4746SOL     OW15136   4.718   5.688   4.701
 4746SOL    HW115137   4.680   5.729   4.784
 4746SOL    HW215138   4.729   5.589   4.715
 4747SOL     OW15139   1.469   2.230   1.402
 4747SOL    HW115140   1.500   2.296   1.470
 4747SOL    HW215141   1.548   2.190   1.355
 4748SOL     OW15142   1.485   6.953   3.219
 4748SOL    HW115143   1.583   6.934   3.223
 4748SOL    HW215144   1.465   0.012   3.269
 4749SOL     OW15145   1.876   0.610   6.919
 4749SOL    HW115146   1.930   0.526   6.924
 4749SOL    HW215147   1.794   0.593   6.864
 4750SOL     OW15148   5.613   3.223   5.612
 4750SOL    HW115149   5.543   3.287   5.578
 4750SOL    HW215150   5.682   3.209   5.540
 4751SOL     OW15151   4.517   0.537   3.278
 4751SOL    HW115152   4.475   0.495   3.359
 4751SOL    HW215153   4.575   0.470   3.232
 4752SOL     OW15154   4.642   1.879   0.083
 4752SOL    HW115155   4.609   1.894   7.015
 4752SOL    HW215156   4.714   1.945   0.105
 4753SOL     OW15157   3.550   5.677   4.998
 4753SOL    HW115158   3.510   5.716   5.081
 4753SOL    HW215159   3.650   5.671   5.010
 4754SOL     OW15160   4.840   4.550   5.930
 4754SOL    HW115161   4.742   4.572   5.935
 4754SOL    HW215162   4.856   4.461   5.973
 4755SOL     OW15163   1.756   0.917   1.728
 4755SOL    HW115164   1.673   0.872   1.759
 4755SOL    HW215165   1.762   1.008   1.769
 4756SOL     OW15166   6.249   3.945   6.473
 4756SOL    HW115167   6.307   4.026   6.479
 4756SOL    HW215168   6.261   3.901   6.384
 4757SOL     OW15169   2.003   3.838   1.709
 4757SOL    HW115170   2.074   3.852   1.779
 4757SOL    HW215171   1.916   3.876   1.741
 4758SOL     OW15172   2.376   6.607   3.217
 4758SOL    HW115173   2.332   6.519   3.205
 4758SOL    HW215174   2.415   6.637   3.130
 4759SOL     OW15175   1.061   5.043   1.097
 4759SOL    HW115176   1.059   5.027   0.999
 4759SOL    HW215177   0.985   4.995   1.140
 4760SOL     OW15178   2.165   5.844   0.970
 4760SOL    HW115179   2.088   5.889   1.015
 4760SOL    HW215180   2.248   5.898   0.985
 4761SOL     OW15181   6.644   6.300   1.274
 4761SOL    HW115182   6.587   6.222   1.298
 4761SOL    HW215183   6.738   6.283   1.301
 4762SOL     OW15184   2.205   6.776   1.958
 4762SOL    HW115185   2.140   6.743   1.890
 4762SOL    HW215186   2.271   6.837   1.914
 4763SOL     OW15187   5.395   4.886   1.663
 4763SOL    HW115188   5.392   4.787   1.650
 4763SOL    HW215189   5.447   4.928   1.588
 4764SOL     OW15190   4.113   3.371   6.531
 4764SOL    HW115191   4.190   3.433   6.543
 4764SOL    HW215192   4.053   3.377   6.611
 4765SOL     OW15193   3.222   1.439   4.541
 4765SOL    HW115194   3.236   1.344   4.512
 4765SOL    HW215195   3.124   1.459   4.542
 4766SOL     OW15196   0.733   0.083   4.140
 4766SOL    HW115197   0.764   0.052   4.229
 4766SOL    HW215198   0.679   0.010   4.097
 4767SOL     OW15199   1.623   4.207   4.645
 4767SOL    HW115200   1.633   4.115   4.684
 4767SOL    HW215201   1.693   4.267   4.684
 4768SOL     OW15202   4.020   2.674   6.875
 4768SOL    HW115203   3.979   2.587   6.849
 4768SOL    HW215204   4.106   2.658   6.922
 4769SOL     OW15205   2.825   5.391   1.211
 4769SOL    HW115206   2.864   5.369   1.122
 4769SOL    HW215207   2.898   5.395   1.279
 4770SOL     OW15208   0.279   0.959   6.020
 4770SOL    HW115209   0.199   0.966   5.960
 4770SOL    HW215210   0.320   1.049   6.031
 4771SOL     OW15211   2.140   6.689   5.034
 4771SOL    HW115212   2.111   6.739   5.116
 4771SOL    HW215213   2.214   6.740   4.989
 4772SOL     OW15214   2.796   5.843   2.250
 4772SOL    HW115215   2.854   5.853   2.331
 4772SOL    HW215216   2.841   5.782   2.184
 4773SOL     OW15217   2.271   5.088   5.112
 4773SOL    HW115218   2.369   5.070   5.121
 4773SOL    HW215219   2.224   5.007   5.079
 4774SOL     OW15220   1.817   3.839   7.013
 4774SOL    HW115221   1.752   3.878   0.053
 4774SOL    HW215222   1.803   3.882   6.924
 4775SOL     OW15223   6.191   6.552   5.302
 4775SOL    HW115224   6.184   6.629   5.238
 4775SOL    HW215225   6.276   6.502   5.286
 4776SOL     OW15226   0.520   0.831   6.059
 4776SOL    HW115227   0.507   0.774   6.140
 4776SOL    HW215228   0.440   0.889   6.046
 4777SOL     OW15229   0.703   6.722   1.636
 4777SOL    HW115230   0.606   6.731   1.615
 4777SOL    HW215231   0.742   6.813   1.653
 4778SOL     OW15232   1.727   2.550   5.685
 4778SOL    HW115233   1.730   2.649   5.699
 4778SOL    HW215234   1.729   2.530   5.588
 4779SOL     OW15235   4.918   0.968   3.429
 4779SOL    HW115236   4.831   0.918   3.430
 4779SOL    HW215237   4.899   1.067   3.432
 4780SOL     OW15238   6.655   3.042   4.899
 4780SOL    HW115239   6.567   2.995   4.891
 4780SOL    HW215240   6.653   3.127   4.846
 4781SOL     OW15241   2.423   6.226   2.740
 4781SOL    HW115242   2.346   6.275   2.700
 4781SOL    HW215243   2.496   6.216   2.672
 4782SOL     OW15244   6.939   6.176   4.359
 4782SOL    HW115245   6.983   6.087   4.345
 4782SOL    HW215246   6.849   6.175   4.314
 4783SOL     OW15247   6.584   3.373   1.054
 4783SOL    HW115248   6.579   3.455   0.998
 4783SOL    HW215249   6.590   3.292   0.995
 4784SOL     OW15250   5.443   2.939   6.687
 4784SOL    HW115251   5.472   3.020   6.739
 4784SOL    HW215252   5.477   2.945   6.593
 4785SOL     OW15253   0.970   5.598   3.712
 4785SOL    HW115254   1.033   5.659   3.759
 4785SOL    HW215255   0.924   5.647   3.638
 4786SOL     OW15256   1.952   6.275   0.105
 4786SOL    HW115257   1.931   6.202   0.041
 4786SOL    HW215258   2.043   6.260   0.144
 4787SOL     OW15259   3.468   0.881   4.248
 4787SOL    HW115260   3.430   0.972   4.265
 4787SOL    HW215261   3.395   0.819   4.219
 4788SOL     OW15262   5.524   6.557   6.767
 4788SOL    HW115263   5.493   6.469   6.729
 4788SOL    HW215264   5.623   6.563   6.759
 4789SOL     OW15265   5.194   0.924   3.070
 4789SOL    HW115266   5.235   1.013   3.055
 4789SOL    HW215267   5.095   0.929   3.055
 4790SOL     OW15268   6.643   2.132   4.650
 4790SOL    HW115269   6.610   2.215   4.604
 4790SOL    HW215270   6.635   2.055   4.587
 4791SOL     OW15271   6.976   1.404   0.313
 4791SOL    HW115272   6.981   1.435   0.218
 4791SOL    HW215273   0.012   1.325   0.325
 4792SOL     OW15274   2.229   2.576   2.871
 4792SOL    HW115275   2.199   2.599   2.963
 4792SOL    HW215276   2.263   2.482   2.869
 4793SOL     OW15277   0.922   4.181   5.576
 4793SOL    HW115278   0.865   4.101   5.556
 4793SOL    HW215279   0.970   4.209   5.493
 4794SOL     OW15280   3.704   0.972   4.553
 4794SOL    HW115281   3.687   1.068   4.532
 4794SOL    HW215282   3.679   0.915   4.475
 4795SOL     OW15283   0.237   0.709   5.735
 4795SOL    HW115284   0.263   0.756   5.820
 4795SOL    HW215285   0.140   0.682   5.741
 4796SOL     OW15286   3.685   1.321   4.764
 4796SOL    HW115287   3.748   1.244   4.774
 4796SOL    HW215288   3.716   1.380   4.689
 4797SOL     OW15289   1.181   5.926   4.577
 4797SOL    HW115290   1.157   5.884   4.665
 4797SOL    HW215291   1.279   5.946   4.576
 4798SOL     OW15292   4.544   4.662   6.368
 4798SOL    HW115293   4.487   4.642   6.447
 4798SOL    HW215294   4.509   4.744   6.322
 4799SOL     OW15295   3.526   2.988   6.470
 4799SOL    HW115296   3.514   3.077   6.515
 4799SOL    HW215297   3.508   2.915   6.536
 4800SOL     OW15298   1.024   5.342   0.469
 4800SOL    HW115299   1.104   5.352   0.527
 4800SOL    HW215300   0.989   5.248   0.476
 4801SOL     OW15301   4.939   2.802   1.671
 4801SOL    HW115302   4.851   2.821   1.713
 4801SOL    HW215303   4.929   2.794   1.572
 4802SOL     OW15304   6.952   0.039   4.010
 4802SOL    HW115305   0.019   0.078   4.015
 4802SOL    HW215306   6.959   6.965   4.000
 4803SOL     OW15307   5.320   3.968   6.129
 4803SOL    HW115308   5.263   4.050   6.121
 4803SOL    HW215309   5.262   3.889   6.148
 4804SOL     OW15310   5.193   1.795   0.580
 4804SOL    HW115311   5.116   1.751   0.534
 4804SOL    HW215312   5.162   1.881   0.621
 4805SOL     OW15313   6.170   1.214   0.989
 4805SOL    HW115314   6.150   1.307   0.958
 4805SOL    HW215315   6.141   1.148   0.920
 4806SOL     OW15316   0.911   1.039   2.819
 4806SOL    HW115317   0.864   1.116   2.777
 4806SOL    HW215318   1.010   1.049   2.807
 4807SOL     OW15319   1.037   3.369   5.962
 4807SOL    HW115320   1.044   3.361   6.061
 4807SOL    HW215321   1.016   3.463   5.937
 4808SOL     OW15322   4.274   5.551   0.084
 4808SOL    HW115323   4.269   5.631   0.024
 4808SOL    HW215324   4.341   5.568   0.157
 4809SOL     OW15325   3.624   4.677   1.502
 4809SOL    HW115326   3.564   4.739   1.453
 4809SOL    HW215327   3.570   4.613   1.557
 4810SOL     OW15328   0.599   4.161   3.957
 4810SOL    HW115329   0.599   4.256   3.924
 4810SOL    HW215330   0.541   4.105   3.897
 4811SOL     OW15331   3.527   4.143   4.030
 4811SOL    HW115332   3.608   4.097   4.067
 4811SOL    HW215333   3.527   4.136   3.931
 4812SOL     OW15334   0.582   0.383   2.276
 4812SOL    HW115335   0.602   0.285   2.264
 4812SOL    HW215336   0.601   0.431   2.190
 4813SOL     OW15337   6.110   1.304   5.837
 4813SOL    HW115338   6.115   1.356   5.923
 4813SOL    HW215339   6.132   1.209   5.855
 4814SOL     OW15340   6.439   4.250   1.681
 4814SOL    HW115341   6.397   4.338   1.703
 4814SOL    HW215342   6.463   4.248   1.584
 4815SOL     OW15343   5.063   5.009   2.726
 4815SOL    HW115344   5.112   5.087   2.764
 4815SOL    HW215345   5.100   4.988   2.635
 4816SOL     OW15346   1.288   0.925   2.020
 4816SOL    HW115347   1.217   0.866   1.981
 4816SOL    HW215348   1.287   0.917   2.120
 4817SOL     OW15349   4.337   1.771   0.815
 4817SOL    HW115350   4.340   1.694   0.879
 4817SOL    HW215351   4.389   1.848   0.854
 4818SOL     OW15352   3.553   0.171   5.096
 4818SOL    HW115353   3.643   0.201   5.062
 4818SOL    HW215354   3.487   0.173   5.021
 4819SOL     OW15355   2.320   0.424   0.824
 4819SOL    HW115356   2.414   0.415   0.793
 4819SOL    HW215357   2.258   0.386   0.755
 4820SOL     OW15358   5.917   4.119   2.080
 4820SOL    HW115359   5.848   4.189   2.100
 4820SOL    HW215360   5.979   4.152   2.008
 4821SOL     OW15361   0.204   4.303   1.612
 4821SOL    HW115362   0.182   4.253   1.696
 4821SOL    HW215363   0.247   4.241   1.547
 4822SOL     OW15364   2.210   3.889   2.922
 4822SOL    HW115365   2.142   3.922   2.988
 4822SOL    HW215366   2.258   3.967   2.882
 4823SOL     OW15367   0.850   1.004   4.582
 4823SOL    HW115368   0.921   1.070   4.607
 4823SOL    HW215369   0.828   1.014   4.485
 4824SOL     OW15370   5.482   2.803   2.279
 4824SOL    HW115371   5.504   2.750   2.360
 4824SOL    HW215372   5.422   2.751   2.219
 4825SOL     OW15373   0.856   3.511   2.682
 4825SOL    HW115374   0.869   3.412   2.678
 4825SOL    HW215375   0.940   3.554   2.718
 4826SOL     OW15376   6.231   6.128   0.517
 4826SOL    HW115377   6.162   6.137   0.445
 4826SOL    HW215378   6.308   6.187   0.498
 4827SOL     OW15379   4.802   0.788   1.035
 4827SOL    HW115380   4.856   0.830   1.108
 4827SOL    HW215381   4.857   0.782   0.952
 4828SOL     OW15382   5.660   3.782   0.722
 4828SOL    HW115383   5.629   3.848   0.790
 4828SOL    HW215384   5.607   3.697   0.732
 4829SOL     OW15385   3.195   0.409   6.418
 4829SOL    HW115386   3.267   0.425   6.485
 4829SOL    HW215387   3.150   0.497   6.396
 4830SOL     OW15388   4.350   6.877   4.748
 4830SOL    HW115389   4.292   6.958   4.742
 4830SOL    HW215390   4.437   6.895   4.703
 4831SOL     OW15391   6.138   3.740   5.885
 4831SOL    HW115392   6.205   3.723   5.957
 4831SOL    HW215393   6.058   3.681   5.899
 4832SOL     OW15394   2.537   3.817   6.009
 4832SOL    HW115395   2.511   3.724   6.034
 4832SOL    HW215396   2.478   3.882   6.058
 4833SOL     OW15397   4.707   1.254   2.410
 4833SOL    HW115398   4.782   1.318   2.391
 4833SOL    HW215399   4.708   1.230   2.507
 4834SOL     OW15400   4.532   1.589   1.946
 4834SOL    HW115401   4.449   1.574   2.000
 4834SOL    HW215402   4.608   1.613   2.007
 4835SOL     OW15403   1.997   0.351   6.854
 4835SOL    HW115404   2.043   0.418   6.796
 4835SOL    HW215405   2.003   0.260   6.812
 4836SOL     OW15406   5.501   2.133   3.999
 4836SOL    HW115407   5.506   2.112   3.901
 4836SOL    HW215408   5.466   2.053   4.049
 4837SOL     OW15409   1.895   3.517   0.069
 4837SOL    HW115410   1.974   3.460   0.094
 4837SOL    HW215411   1.924   3.588   0.006
 4838SOL     OW15412   3.747   5.519   2.406
 4838SOL    HW115413   3.680   5.453   2.439
 4838SOL    HW215414   3.700   5.599   2.368
 4839SOL     OW15415   0.419   5.597   6.125
 4839SOL    HW115416   0.404   5.593   6.224
 4839SOL    HW215417   0.477   5.521   6.097
 4840SOL     OW15418   6.896   6.439   0.235
 4840SOL    HW115419   6.822   6.373   0.227
 4840SOL    HW215420   6.857   6.531   0.247
 4841SOL     OW15421   2.950   5.174   2.424
 4841SOL    HW115422   3.008   5.092   2.424
 4841SOL    HW215423   2.856   5.148   2.405
 4842SOL     OW15424   4.721   6.109   1.001
 4842SOL    HW115425   4.679   6.039   0.944
 4842SOL    HW215426   4.795   6.068   1.055
 4843SOL     OW15427   6.851   3.485   0.245
 4843SOL    HW115428   6.902   3.562   0.208
 4843SOL    HW215429   6.758   3.486   0.208
 4844SOL     OW15430   5.806   1.921   6.238
 4844SOL    HW115431   5.840   1.863   6.312
 4844SOL    HW215432   5.706   1.916   6.235
 4845SOL     OW15433   6.331   6.023   3.512
 4845SOL    HW115434   6.403   5.984   3.455
 4845SOL    HW215435   6.305   5.957   3.583
 4846SOL     OW15436   1.704   3.573   0.623
 4846SOL    HW115437   1.713   3.619   0.534
 4846SOL    HW215438   1.679   3.641   0.692
 4847SOL     OW15439   3.543   1.732   4.682
 4847SOL    HW115440   3.510   1.688   4.766
 4847SOL    HW215441   3.512   1.681   4.603
 4848SOL     OW15442   2.290   2.160   2.316
 4848SOL    HW115443   2.198   2.125   2.330
 4848SOL    HW215444   2.321   2.208   2.398
 4849SOL     OW15445   0.809   6.964   0.644
 4849SOL    HW115446   0.858   6.995   0.726
 4849SOL    HW215447   0.763   6.878   0.662
 4850SOL     OW15448   4.320   0.823   2.172
 4850SOL    HW115449   4.419   0.834   2.168
 4850SOL    HW215450   4.290   0.821   2.268
 4851SOL     OW15451   5.139   6.039   5.240
 4851SOL    HW115452   5.129   6.127   5.193
 4851SOL    HW215453   5.169   5.969   5.175
 4852SOL     OW15454   1.720   1.106   6.834
 4852SOL    HW115455   1.658   1.042   6.789
 4852SOL    HW215456   1.756   1.171   6.768
 4853SOL     OW15457   3.185   1.596   2.263
 4853SOL    HW115458   3.169   1.528   2.192
 4853SOL    HW215459   3.238   1.672   2.225
 4854SOL     OW15460   5.402   0.106   1.932
 4854SOL    HW115461   5.411   0.020   1.981
 4854SOL    HW215462   5.426   0.182   1.993
 4855SOL     OW15463   6.375   1.806   2.742
 4855SOL    HW115464   6.279   1.812   2.715
 4855SOL    HW215465   6.425   1.752   2.674
 4856SOL     OW15466   2.901   5.020   3.609
 4856SOL    HW115467   2.870   5.075   3.686
 4856SOL    HW215468   2.931   4.931   3.641
 4857SOL     OW15469   0.217   2.068   5.615
 4857SOL    HW115470   0.119   2.072   5.636
 4857SOL    HW215471   0.252   2.161   5.605
 4858SOL     OW15472   1.528   1.974   4.641
 4858SOL    HW115473   1.520   2.040   4.716
 4858SOL    HW215474   1.580   1.895   4.672
 4859SOL     OW15475   2.023   5.841   4.564
 4859SOL    HW115476   2.052   5.757   4.518
 4859SOL    HW215477   1.944   5.880   4.517
 4860SOL     OW15478   4.612   4.748   1.504
 4860SOL    HW115479   4.697   4.731   1.553
 4860SOL    HW215480   4.535   4.715   1.559
 4861SOL     OW15481   4.706   4.322   5.246
 4861SOL    HW115482   4.733   4.391   5.180
 4861SOL    HW215483   4.740   4.347   5.337
 4862SOL     OW15484   1.915   6.378   2.406
 4862SOL    HW115485   1.938   6.449   2.340
 4862SOL    HW215486   1.848   6.413   2.472
 4863SOL     OW15487   5.885   4.125   0.367
 4863SOL    HW115488   5.795   4.168   0.358
 4863SOL    HW215489   5.937   4.172   0.438
 4864SOL     OW15490   2.973   0.922   3.388
 4864SOL    HW115491   2.991   1.019   3.371
 4864SOL    HW215492   2.988   0.870   3.304
 4865SOL     OW15493   3.065   6.080   4.434
 4865SOL    HW115494   3.142   6.140   4.412
 4865SOL    HW215495   3.044   6.023   4.355
 4866SOL     OW15496   6.752   3.954   1.151
 4866SOL    HW115497   6.673   4.016   1.161
 4866SOL    HW215498   6.722   3.861   1.170
 4867SOL     OW15499   4.786   6.632   2.986
 4867SOL    HW115500   4.773   6.731   2.984
 4867SOL    HW215501   4.871   6.610   3.036
 4868SOL     OW15502   6.276   4.454   1.400
 4868SOL    HW115503   6.351   4.389   1.388
 4868SOL    HW215504   6.216   4.450   1.320
 4869SOL     OW15505   0.362   1.416   6.211
 4869SOL    HW115506   0.340   1.511   6.190
 4869SOL    HW215507   0.434   1.384   6.150
 4870SOL     OW15508   0.918   6.198   1.954
 4870SOL    HW115509   0.875   6.199   2.044
 4870SOL    HW215510   0.915   6.105   1.917
 4871SOL     OW15511   1.106   1.058   4.335
 4871SOL    HW115512   1.026   1.104   4.374
 4871SOL    HW215513   1.114   1.083   4.238
 4872SOL     OW15514   6.104   7.008   3.632
 4872SOL    HW115515   6.129   0.057   3.570
 4872SOL    HW215516   6.166   6.931   3.617
 4873SOL     OW15517   6.707   6.088   5.161
 4873SOL    HW115518   6.712   6.159   5.231
 4873SOL    HW215519   6.772   6.015   5.183
 4874SOL     OW15520   4.877   2.713   3.379
 4874SOL    HW115521   4.892   2.786   3.312
 4874SOL    HW215522   4.951   2.645   3.372
 4875SOL     OW15523   5.561   6.180   6.073
 4875SOL    HW115524   5.629   6.248   6.045
 4875SOL    HW215525   5.604   6.113   6.133
 4876SOL     OW15526   1.631   1.337   3.009
 4876SOL    HW115527   1.663   1.314   2.917
 4876SOL    HW215528   1.567   1.267   3.040
 4877SOL     OW15529   0.915   1.623   4.472
 4877SOL    HW115530   0.941   1.687   4.399
 4877SOL    HW215531   0.821   1.643   4.502
 4878SOL     OW15532   6.836   1.691   3.104
 4878SOL    HW115533   6.798   1.755   3.171
 4878SOL    HW215534   6.926   1.722   3.076
 4879SOL     OW15535   4.539   1.767   2.972
 4879SOL    HW115536   4.551   1.815   3.059
 4879SOL    HW215537   4.602   1.805   2.904
 4880SOL     OW15538   6.146   2.589   6.141
 4880SOL    HW115539   6.232   2.539   6.146
 4880SOL    HW215540   6.133   2.642   6.225
 4881SOL     OW15541   1.450   2.925   2.047
 4881SOL    HW115542   1.355   2.921   2.015
 4881SOL    HW215543   1.457   2.876   2.134
 4882SOL     OW15544   4.467   2.551   4.991
 4882SOL    HW115545   4.509   2.618   5.052
 4882SOL    HW215546   4.369   2.547   5.007
 4883SOL     OW15547   5.983   3.656   1.213
 4883SOL    HW115548   5.923   3.616   1.143
 4883SOL    HW215549   5.943   3.641   1.303
 4884SOL     OW15550   2.083   6.257   1.391
 4884SOL    HW115551   2.147   6.313   1.444
 4884SOL    HW215552   1.997   6.306   1.380
 4885SOL     OW15553   1.673   4.953   0.880
 4885SOL    HW115554   1.618   4.911   0.952
 4885SOL    HW215555   1.646   4.916   0.791
 4886SOL     OW15556   3.067   1.136   2.286
 4886SOL    HW115557   3.124   1.106   2.210
 4886SOL    HW215558   3.119   1.131   2.371
 4887SOL     OW15559   0.947   6.754   1.999
 4887SOL    HW115560   0.972   6.824   1.931
 4887SOL    HW215561   0.914   6.672   1.953
 4888SOL     OW15562   3.234   6.832   2.983
 4888SOL    HW115563   3.258   6.916   3.030
 4888SOL    HW215564   3.230   6.848   2.885
 4889SOL     OW15565   6.666   2.304   3.704
 4889SOL    HW115566   6.640   2.388   3.751
 4889SOL    HW215567   6.716   2.245   3.767
 4890SOL     OW15568   0.392   1.158   4.931
 4890SOL    HW115569   0.436   1.173   4.843
 4890SOL    HW215570   0.392   1.243   4.984
 4891SOL     OW15571   2.572   5.248   6.162
 4891SOL    HW115572   2.583   5.201   6.250
 4891SOL    HW215573   2.630   5.205   6.094
 4892SOL     OW15574   5.496   6.701   2.870
 4892SOL    HW115575   5.570   6.660   2.923
 4892SOL    HW215576   5.412   6.649   2.884
 4893SOL     OW15577   0.150   3.527   1.989
 4893SOL    HW115578   0.126   3.509   2.084
 4893SOL    HW215579   0.117   3.452   1.932
 4894SOL     OW15580   4.569   6.545   1.851
 4894SOL    HW115581   4.661   6.504   1.855
 4894SOL    HW215582   4.520   6.508   1.771
 4895SOL     OW15583   6.953   4.427   3.553
 4895SOL    HW115584   6.995   4.363   3.489
 4895SOL    HW215585   6.903   4.377   3.624
 4896SOL     OW15586   1.831   4.750   3.949
 4896SOL    HW115587   1.772   4.723   3.873
 4896SOL    HW215588   1.902   4.813   3.915
 4897SOL     OW15589   1.889   6.623   4.928
 4897SOL    HW115590   1.897   6.540   4.874
 4897SOL    HW215591   1.979   6.650   4.962
 4898SOL     OW15592   3.958   1.820   4.138
 4898SOL    HW115593   3.943   1.742   4.078
 4898SOL    HW215594   3.975   1.788   4.231
 4899SOL     OW15595   0.425   5.519   1.696
 4899SOL    HW115596   0.464   5.606   1.667
 4899SOL    HW215597   0.403   5.523   1.794
 4900SOL     OW15598   3.916   6.084   5.658
 4900SOL    HW115599   3.970   6.134   5.726
 4900SOL    HW215600   3.911   5.988   5.685
 4901SOL     OW15601   0.710   1.392   6.103
 4901SOL    HW115602   0.808   1.374   6.096
 4901SOL    HW215603   0.680   1.372   6.197
 4902SOL     OW15604   2.322   0.035   6.266
 4902SOL    HW115605   2.260   0.056   6.342
 4902SOL    HW215606   2.315   0.105   6.196
 4903SOL     OW15607   5.714   5.373   1.384
 4903SOL    HW115608   5.755   5.358   1.474
 4903SOL    HW215609   5.664   5.459   1.384
 4904SOL     OW15610   1.343   0.382   0.323
 4904SOL    HW115611   1.400   0.329   0.259
 4904SOL    HW215612   1.331   0.475   0.288
 4905SOL     OW15613   3.365   6.424   3.178
 4905SOL    HW115614   3.276   6.406   3.218
 4905SOL    HW215615   3.417   6.339   3.172
 4906SOL     OW15616   5.709   2.979   4.776
 4906SOL    HW115617   5.669   2.904   4.724
 4906SOL    HW215618   5.768   3.034   4.716
 4907SOL     OW15619   4.396   1.451   6.645
 4907SOL    HW115620   4.431   1.518   6.580
 4907SOL    HW215621   4.344   1.498   6.716
 4908SOL     OW15622   4.812   0.313   0.230
 4908SOL    HW115623   4.753   0.392   0.213
 4908SOL    HW215624   4.773   0.232   0.187
 4909SOL     OW15625   5.670   3.950   3.774
 4909SOL    HW115626   5.714   3.990   3.694
 4909SOL    HW215627   5.724   3.970   3.856
 4910SOL     OW15628   4.882   0.763   6.004
 4910SOL    HW115629   4.879   0.855   5.964
 4910SOL    HW215630   4.970   0.720   5.983
 4911SOL     OW15631   0.528   2.644   1.969
 4911SOL    HW115632   0.544   2.602   1.880
 4911SOL    HW215633   0.558   2.740   1.967
 4912SOL     OW15634   6.348   2.394   4.852
 4912SOL    HW115635   6.381   2.415   4.761
 4912SOL    HW215636   6.421   2.411   4.919
 4913SOL     OW15637   6.778   3.196   5.094
 4913SOL    HW115638   6.872   3.166   5.112
 4913SOL    HW215639   6.733   3.129   5.035
 4914SOL     OW15640   4.353   0.639   4.207
 4914SOL    HW115641   4.372   0.695   4.287
 4914SOL    HW215642   4.438   0.611   4.164
 4915SOL     OW15643   3.631   5.877   5.551
 4915SOL    HW115644   3.605   5.812   5.623
 4915SOL    HW215645   3.692   5.832   5.486
 4916SOL     OW15646   6.233   1.205   3.700
 4916SOL    HW115647   6.154   1.264   3.715
 4916SOL    HW215648   6.312   1.261   3.675
 4917SOL     OW15649   4.347   6.612   0.651
 4917SOL    HW115650   4.431   6.665   0.650
 4917SOL    HW215651   4.276   6.662   0.702
 4918SOL     OW15652   6.738   5.455   1.967
 4918SOL    HW115653   6.720   5.478   2.063
 4918SOL    HW215654   6.710   5.532   1.909
 4919SOL     OW15655   3.845   3.495   2.462
 4919SOL    HW115656   3.908   3.422   2.489
 4919SOL    HW215657   3.803   3.534   2.544
 4920SOL     OW15658   5.924   0.700   4.751
 4920SOL    HW115659   5.980   0.620   4.729
 4920SOL    HW215660   5.974   0.783   4.727
 4921SOL     OW15661   0.309   6.900   2.082
 4921SOL    HW115662   0.254   6.829   2.037
 4921SOL    HW215663   0.332   6.871   2.174
 4922SOL     OW15664   3.637   2.270   5.959
 4922SOL    HW115665   3.709   2.207   5.929
 4922SOL    HW215666   3.676   2.360   5.975
 4923SOL     OW15667   3.679   1.826   2.862
 4923SOL    HW115668   3.715   1.906   2.908
 4923SOL    HW215669   3.737   1.803   2.784
 4924SOL     OW15670   2.399   1.166   5.734
 4924SOL    HW115671   2.405   1.145   5.636
 4924SOL    HW215672   2.489   1.196   5.766
 4925SOL     OW15673   4.584   6.266   3.444
 4925SOL    HW115674   4.533   6.224   3.519
 4925SOL    HW215675   4.554   6.361   3.433
 4926SOL     OW15676   4.987   2.491   1.324
 4926SOL    HW115677   5.049   2.452   1.392
 4926SOL    HW215678   4.946   2.574   1.360
 4927SOL     OW15679   3.796   1.667   6.649
 4927SOL    HW115680   3.707   1.634   6.617
 4927SOL    HW215681   3.793   1.766   6.663
 4928SOL     OW15682   0.653   2.239   1.198
 4928SOL    HW115683   0.682   2.150   1.164
 4928SOL    HW215684   0.639   2.301   1.121
 4929SOL     OW15685   6.918   6.572   4.504
 4929SOL    HW115686   6.919   6.648   4.439
 4929SOL    HW215687   6.825   6.560   4.540
 4930SOL     OW15688   5.555   6.559   1.992
 4930SOL    HW115689   5.547   6.550   2.092
 4930SOL    HW215690   5.607   6.642   1.971
 4931SOL     OW15691   6.204   6.265   1.806
 4931SOL    HW115692   6.195   6.361   1.830
 4931SOL    HW215693   6.300   6.237   1.814
 4932SOL     OW15694   2.957   3.491   2.039
 4932SOL    HW115695   2.987   3.576   1.996
 4932SOL    HW215696   2.894   3.443   1.978
 4933SOL     OW15697   3.413   5.823   5.198
 4933SOL    HW115698   3.371   5.836   5.109
 4933SOL    HW215699   3.349   5.852   5.270
 4934SOL     OW15700   3.878   5.086   3.439
 4934SOL    HW115701   3.792   5.107   3.391
 4934SOL    HW215702   3.941   5.163   3.428
 4935SOL     OW15703   1.253   1.991   6.062
 4935SOL    HW115704   1.171   1.934   6.070
 4935SOL    HW215705   1.246   2.068   6.125
 4936SOL     OW15706   2.711   3.382   1.246
 4936SOL    HW115707   2.709   3.306   1.311
 4936SOL    HW215708   2.656   3.358   1.165
 4937SOL     OW15709   5.025   3.123   4.792
 4937SOL    HW115710   5.017   3.197   4.725
 4937SOL    HW215711   5.019   3.161   4.884
 4938SOL     OW15712   3.786   5.878   6.333
 4938SOL    HW115713   3.751   5.808   6.271
 4938SOL    HW215714   3.710   5.921   6.382
 4939SOL     OW15715   4.490   3.329   5.838
 4939SOL    HW115716   4.589   3.318   5.845
 4939SOL    HW215717   4.446   3.288   5.917
 4940SOL     OW15718   2.455   6.014   4.407
 4940SOL    HW115719   2.509   5.981   4.484
 4940SOL    HW215720   2.438   6.112   4.417
 4941SOL     OW15721   5.242   1.306   0.482
 4941SOL    HW115722   5.292   1.392   0.491
 4941SOL    HW215723   5.222   1.270   0.572
 4942SOL     OW15724   4.934   3.583   5.285
 4942SOL    HW115725   5.023   3.615   5.254
 4942SOL    HW215726   4.868   3.590   5.210
 4943SOL     OW15727   4.165   2.739   1.073
 4943SOL    HW115728   4.147   2.653   1.026
 4943SOL    HW215729   4.092   2.757   1.139
 4944SOL     OW15730   2.406   4.527   2.266
 4944SOL    HW115731   2.418   4.517   2.167
 4944SOL    HW215732   2.423   4.439   2.311
 4945SOL     OW15733   0.258   6.672   4.229
 4945SOL    HW115734   0.235   6.715   4.141
 4945SOL    HW215735   0.207   6.587   4.239
 4946SOL     OW15736   1.069   3.583   2.239
 4946SOL    HW115737   1.028   3.625   2.319
 4946SOL    HW215738   1.166   3.608   2.233
 4947SOL     OW15739   0.897   6.556   0.694
 4947SOL    HW115740   0.903   6.528   0.790
 4947SOL    HW215741   0.984   6.598   0.666
 4948SOL     OW15742   2.362   0.736   2.052
 4948SOL    HW115743   2.419   0.797   2.106
 4948SOL    HW215744   2.324   0.665   2.111
 4949SOL     OW15745   5.265   1.700   4.876
 4949SOL    HW115746   5.266   1.772   4.946
 4949SOL    HW215747   5.245   1.612   4.920
 4950SOL     OW15748   3.368   5.379   4.565
 4950SOL    HW115749   3.274   5.348   4.546
 4950SOL    HW215750   3.365   5.474   4.597
 4951SOL     OW15751   4.524   2.138   4.234
 4951SOL    HW115752   4.531   2.212   4.167
 4951SOL    HW215753   4.429   2.127   4.263
 4952SOL     OW15754   0.213   6.004   5.736
 4952SOL    HW115755   0.176   5.946   5.808
 4952SOL    HW215756   0.271   5.949   5.676
 4953SOL     OW15757   2.008   5.537   1.656
 4953SOL    HW115758   2.017   5.559   1.753
 4953SOL    HW215759   1.918   5.497   1.638
 4954SOL     OW15760   5.371   5.549   6.591
 4954SOL    HW115761   5.410   5.575   6.679
 4954SOL    HW215762   5.426   5.477   6.549
 4955SOL     OW15763   1.738   6.649   1.683
 4955SOL    HW115764   1.750   6.600   1.769
 4955SOL    HW215765   1.667   6.605   1.629
 4956SOL     OW15766   4.625   6.572   4.553
 4956SOL    HW115767   4.605   6.507   4.479
 4956SOL    HW215768   4.553   6.641   4.557
 4957SOL     OW15769   0.721   0.475   3.639
 4957SOL    HW115770   0.738   0.529   3.557
 4957SOL    HW215771   0.736   0.532   3.720
 4958SOL     OW15772   0.543   5.721   0.011
 4958SOL    HW115773   0.633   5.752   0.041
 4958SOL    HW215774   0.505   5.785   6.970
 4959SOL     OW15775   0.615   0.812   1.043
 4959SOL    HW115776   0.538   0.865   1.008
 4959SOL    HW215777   0.693   0.823   0.983
 4960SOL     OW15778   4.084   6.924   5.008
 4960SOL    HW115779   4.117   6.983   4.934
 4960SOL    HW215780   4.083   6.829   4.976
 4961SOL     OW15781   4.730   0.844   4.613
 4961SOL    HW115782   4.796   0.868   4.684
 4961SOL    HW215783   4.651   0.906   4.619
 4962SOL     OW15784   0.133   1.899   0.561
 4962SOL    HW115785   0.130   1.833   0.486
 4962SOL    HW215786   0.121   1.851   0.648
 4963SOL     OW15787   0.525   5.081   1.864
 4963SOL    HW115788   0.519   5.018   1.942
 4963SOL    HW215789   0.467   5.046   1.790
 4964SOL     OW15790   3.153   6.556   3.429
 4964SOL    HW115791   3.058   6.525   3.439
 4964SOL    HW215792   3.214   6.492   3.476
 4965SOL     OW15793   6.557   0.562   4.329
 4965SOL    HW115794   6.609   0.538   4.412
 4965SOL    HW215795   6.593   0.646   4.290
 4966SOL     OW15796   3.301   4.900   4.053
 4966SOL    HW115797   3.400   4.909   4.038
 4966SOL    HW215798   3.261   4.848   3.978
 4967SOL     OW15799   3.987   2.531   5.663
 4967SOL    HW115800   4.028   2.502   5.577
 4967SOL    HW215801   3.896   2.489   5.672
 4968SOL     OW15802   6.059   3.143   5.009
 4968SOL    HW115803   6.018   3.067   4.960
 4968SOL    HW215804   6.061   3.224   4.951
 4969SOL     OW15805   1.081   1.500   1.726
 4969SOL    HW115806   1.016   1.524   1.798
 4969SOL    HW215807   1.159   1.452   1.766
 4970SOL     OW15808   1.080   2.629   5.460
 4970SOL    HW115809   1.038   2.609   5.371
 4970SOL    HW215810   1.020   2.596   5.533
 4971SOL     OW15811   5.384   6.319   3.397
 4971SOL    HW115812   5.296   6.367   3.392
 4971SOL    HW215813   5.386   6.247   3.327
 4972SOL     OW15814   1.595   3.068   6.486
 4972SOL    HW115815   1.628   3.150   6.439
 4972SOL    HW215816   1.668   3.000   6.488
 4973SOL     OW15817   5.077   6.524   2.656
 4973SOL    HW115818   5.058   6.616   2.689
 4973SOL    HW215819   5.068   6.521   2.556
 4974SOL     OW15820   5.531   6.624   2.545
 4974SOL    HW115821   5.569   6.532   2.536
 4974SOL    HW215822   5.437   6.625   2.511
 4975SOL     OW15823   5.937   5.797   0.680
 4975SOL    HW115824   5.923   5.701   0.705
 4975SOL    HW215825   5.864   5.827   0.619
 4976SOL     OW15826   3.930   0.773   5.563
 4976SOL    HW115827   3.872   0.757   5.643
 4976SOL    HW215828   3.958   0.685   5.524
 4977SOL     OW15829   3.407   3.761   1.004
 4977SOL    HW115830   3.451   3.683   1.047
 4977SOL    HW215831   3.308   3.757   1.020
 4978SOL     OW15832   5.471   3.161   6.173
 4978SOL    HW115833   5.494   3.083   6.115
 4978SOL    HW215834   5.553   3.216   6.189
 4979SOL     OW15835   1.249   0.612   5.329
 4979SOL    HW115836   1.273   0.585   5.422
 4979SOL    HW215837   1.268   0.709   5.316
 4980SOL     OW15838   2.955   5.139   2.102
 4980SOL    HW115839   3.033   5.182   2.146
 4980SOL    HW215840   2.976   5.120   2.006
 4981SOL     OW15841   3.970   6.706   5.589
 4981SOL    HW115842   3.874   6.717   5.616
 4981SOL    HW215843   3.980   6.620   5.539
 4982SOL     OW15844   2.214   3.144   0.622
 4982SOL    HW115845   2.211   3.044   0.627
 4982SOL    HW215846   2.133   3.182   0.667
 4983SOL     OW15847   5.218   2.998   4.234
 4983SOL    HW115848   5.151   2.934   4.274
 4983SOL    HW215849   5.188   3.023   4.142
 4984SOL     OW15850   4.792   4.148   3.093
 4984SOL    HW115851   4.874   4.164   3.148
 4984SOL    HW215852   4.767   4.233   3.046
 4985SOL     OW15853   5.157   4.959   2.474
 4985SOL    HW115854   5.219   4.887   2.444
 4985SOL    HW215855   5.179   5.044   2.425
 4986SOL     OW15856   4.712   5.007   2.531
 4986SOL    HW115857   4.684   5.062   2.609
 4986SOL    HW215858   4.758   4.924   2.562
 4987SOL     OW15859   6.888   3.495   1.423
 4987SOL    HW115860   6.986   3.517   1.416
 4987SOL    HW215861   6.855   3.465   1.334
 4988SOL     OW15862   0.546   1.686   4.476
 4988SOL    HW115863   0.515   1.636   4.395
 4988SOL    HW215864   0.518   1.637   4.558
 4989SOL     OW15865   0.336   0.984   0.505
 4989SOL    HW115866   0.414   1.018   0.452
 4989SOL    HW215867   0.310   1.052   0.574
 4990SOL     OW15868   1.667   2.070   5.550
 4990SOL    HW115869   1.586   2.014   5.531
 4990SOL    HW215870   1.718   2.084   5.465
 4991SOL     OW15871   0.952   2.837   4.198
 4991SOL    HW115872   0.936   2.742   4.226
 4991SOL    HW215873   1.049   2.850   4.177
 4992SOL     OW15874   3.470   0.686   5.775
 4992SOL    HW115875   3.482   0.664   5.872
 4992SOL    HW215876   3.550   0.735   5.741
 4993SOL     OW15877   3.004   6.032   4.003
 4993SOL    HW115878   2.923   6.023   3.945
 4993SOL    HW215879   2.984   6.096   4.077
 4994SOL     OW15880   0.320   0.064   2.718
 4994SOL    HW115881   0.285   7.021   2.782
 4994SOL    HW215882   0.326   0.023   2.627
 4995SOL     OW15883   5.621   2.195   6.397
 4995SOL    HW115884   5.688   2.247   6.345
 4995SOL    HW215885   5.566   2.139   6.335
 4996SOL     OW15886   1.327   1.341   3.353
 4996SOL    HW115887   1.334   1.422   3.411
 4996SOL    HW215888   1.232   1.329   3.323
 4997SOL     OW15889   0.463   2.711   3.290
 4997SOL    HW115890   0.518   2.794   3.288
 4997SOL    HW215891   0.523   2.632   3.304
 4998SOL     OW15892   1.578   5.803   4.765
 4998SOL    HW115893   1.621   5.721   4.728
 4998SOL    HW215894   1.508   5.777   4.831
 4999SOL     OW15895   6.259   5.256   1.204
 4999SOL    HW115896   6.201   5.193   1.256
 4999SOL    HW215897   6.216   5.274   1.115
 5000SOL     OW15898   0.287   6.281   4.440
 5000SOL    HW115899   0.228   6.235   4.373
 5000SOL    HW215900   0.328   6.212   4.500
 5001SOL     OW15901   4.041   4.597   5.779
 5001SOL    HW115902   3.990   4.559   5.856
 5001SOL    HW215903   4.131   4.626   5.811
 5002SOL     OW15904   2.255   0.978   2.333
 5002SOL    HW115905   2.203   1.035   2.270
 5002SOL    HW215906   2.348   1.013   2.341
 5003SOL     OW15907   6.589   5.777   3.035
 5003SOL    HW115908   6.493   5.753   3.050
 5003SOL    HW215909   6.642   5.751   3.115
 5004SOL     OW15910   3.390   5.939   0.013
 5004SOL    HW115911   3.389   5.874   0.089
 5004SOL    HW215912   3.321   6.010   0.029
 5005SOL     OW15913   4.806   2.825   0.049
 5005SOL    HW115914   4.850   2.912   0.027
 5005SOL    HW215915   4.709   2.842   0.071
 5006SOL     OW15916   5.328   5.815   4.429
 5006SOL    HW115917   5.393   5.882   4.464
 5006SOL    HW215918   5.250   5.863   4.388
 5007SOL     OW15919   3.813   1.157   5.587
 5007SOL    HW115920   3.837   1.254   5.584
 5007SOL    HW215921   3.897   1.102   5.596
 5008SOL     OW15922   6.464   1.307   3.602
 5008SOL    HW115923   6.538   1.312   3.669
 5008SOL    HW215924   6.484   1.235   3.536
 5009SOL     OW15925   1.627   6.685   3.047
 5009SOL    HW115926   1.600   6.591   3.024
 5009SOL    HW215927   1.564   6.749   3.004
 5010SOL     OW15928   4.140   3.452   4.380
 5010SOL    HW115929   4.131   3.535   4.435
 5010SOL    HW215930   4.107   3.373   4.433
 5011SOL     OW15931   1.027   2.805   2.713
 5011SOL    HW115932   0.961   2.864   2.759
 5011SOL    HW215933   0.982   2.760   2.635
 5012SOL     OW15934   6.597   2.262   6.485
 5012SOL    HW115935   6.684   2.213   6.484
 5012SOL    HW215936   6.540   2.227   6.559
 5013SOL     OW15937   4.005   1.612   6.454
 5013SOL    HW115938   3.943   1.614   6.532
 5013SOL    HW215939   4.066   1.533   6.462
 5014SOL     OW15940   5.942   6.426   0.323
 5014SOL    HW115941   6.004   6.351   0.303
 5014SOL    HW215942   5.882   6.443   0.244
 5015SOL     OW15943   4.513   2.218   3.818
 5015SOL    HW115944   4.610   2.235   3.800
 5015SOL    HW215945   4.473   2.170   3.740
 5016SOL     OW15946   2.350   6.848   3.365
 5016SOL    HW115947   2.363   6.749   3.356
 5016SOL    HW215948   2.274   6.877   3.308
 5017SOL     OW15949   2.286   2.915   1.566
 5017SOL    HW115950   2.239   2.841   1.616
 5017SOL    HW215951   2.367   2.942   1.617
 5018SOL     OW15952   6.512   5.476   3.772
 5018SOL    HW115953   6.500   5.397   3.831
 5018SOL    HW215954   6.579   5.456   3.701
 5019SOL     OW15955   1.787   4.713   6.492
 5019SOL    HW115956   1.690   4.726   6.472
 5019SOL    HW215957   1.797   4.652   6.571
 5020SOL     OW15958   5.439   5.183   6.320
 5020SOL    HW115959   5.440   5.127   6.237
 5020SOL    HW215960   5.344   5.207   6.342
 5021SOL     OW15961   1.386   4.354   6.129
 5021SOL    HW115962   1.435   4.296   6.064
 5021SOL    HW215963   1.437   4.356   6.216
 5022SOL     OW15964   1.414   5.462   0.338
 5022SOL    HW115965   1.497   5.489   0.288
 5022SOL    HW215966   1.434   5.382   0.394
 5023SOL     OW15967   6.146   2.995   2.353
 5023SOL    HW115968   6.058   3.041   2.343
 5023SOL    HW215969   6.138   2.899   2.325
 5024SOL     OW15970   6.559   4.060   4.693
 5024SOL    HW115971   6.526   4.126   4.760
 5024SOL    HW215972   6.504   3.976   4.699
 5025SOL     OW15973   5.079   1.250   3.157
 5025SOL    HW115974   5.009   1.198   3.109
 5025SOL    HW215975   5.080   1.344   3.123
 5026SOL     OW15976   0.503   6.594   4.356
 5026SOL    HW115977   0.496   6.615   4.453
 5026SOL    HW215978   0.424   6.633   4.307
 5027SOL     OW15979   1.107   0.242   3.618
 5027SOL    HW115980   1.017   0.200   3.628
 5027SOL    HW215981   1.149   0.210   3.533
 5028SOL     OW15982   0.265   0.573   2.844
 5028SOL    HW115983   0.245   0.480   2.811
 5028SOL    HW215984   0.242   0.639   2.773
 5029SOL     OW15985   0.061   1.415   1.425
 5029SOL    HW115986   0.027   1.326   1.394
 5029SOL    HW215987   0.159   1.423   1.406
 5030SOL     OW15988   1.223   6.215   0.142
 5030SOL    HW115989   1.221   6.313   0.120
 5030SOL    HW215990   1.318   6.183   0.137
 5031SOL     OW15991   5.309   0.375   4.522
 5031SOL    HW115992   5.334   0.426   4.604
 5031SOL    HW215993   5.393   0.342   4.478
 5032SOL     OW15994   2.114   5.543   0.964
 5032SOL    HW115995   2.153   5.634   0.978
 5032SOL    HW215996   2.140   5.508   0.874
 5033SOL     OW15997   1.877   4.110   5.419
 5033SOL    HW115998   1.784   4.146   5.415
 5033SOL    HW215999   1.898   4.081   5.512
 5034SOL     OW16000   0.042   2.964   0.987
 5034SOL    HW116001   0.134   2.979   1.025
 5034SOL    HW216002   0.040   2.996   0.893
 5035SOL     OW16003   5.196   4.494   0.389
 5035SOL    HW116004   5.286   4.497   0.345
 5035SOL    HW216005   5.126   4.471   0.321
 5036SOL     OW16006   1.300   0.372   1.855
 5036SOL    HW116007   1.297   0.402   1.950
 5036SOL    HW216008   1.367   0.427   1.804
 5037SOL     OW16009   4.263   2.248   3.981
 5037SOL    HW116010   4.226   2.157   3.965
 5037SOL    HW216011   4.320   2.275   3.903
 5038SOL     OW16012   1.929   6.487   5.320
 5038SOL    HW116013   2.024   6.506   5.346
 5038SOL    HW216014   1.928   6.425   5.242
 5039SOL     OW16015   2.136   1.808   5.262
 5039SOL    HW116016   2.212   1.867   5.234
 5039SOL    HW216017   2.170   1.717   5.285
 5040SOL     OW16018   2.993   3.811   5.814
 5040SOL    HW116019   3.017   3.721   5.850
 5040SOL    HW216020   2.902   3.806   5.771
 5041SOL     OW16021   1.446   4.534   0.680
 5041SOL    HW116022   1.537   4.502   0.655
 5041SOL    HW216023   1.386   4.455   0.697
 5042SOL     OW16024   5.281   2.355   6.547
 5042SOL    HW116025   5.184   2.369   6.527
 5042SOL    HW216026   5.298   2.258   6.564
 5043SOL     OW16027   3.995   0.706   3.435
 5043SOL    HW116028   3.940   0.779   3.475
 5043SOL    HW216029   3.975   0.619   3.481
 5044SOL     OW16030   6.794   4.894   3.380
 5044SOL    HW116031   6.701   4.932   3.384
 5044SOL    HW216032   6.789   4.794   3.374
 5045SOL     OW16033   6.007   2.161   6.812
 5045SOL    HW116034   6.033   2.252   6.780
 5045SOL    HW216035   6.046   2.092   6.750
 5046SOL     OW16036   3.405   2.836   5.098
 5046SOL    HW116037   3.357   2.761   5.144
 5046SOL    HW216038   3.504   2.818   5.099
 5047SOL     OW16039   0.884   0.884   2.434
 5047SOL    HW116040   0.852   0.881   2.529
 5047SOL    HW216041   0.883   0.978   2.402
 5048SOL     OW16042   5.844   2.877   1.668
 5048SOL    HW116043   5.752   2.859   1.632
 5048SOL    HW216044   5.850   2.973   1.695
 5049SOL     OW16045   0.981   2.499   2.244
 5049SOL    HW116046   0.930   2.488   2.159
 5049SOL    HW216047   1.077   2.521   2.223
 5050SOL     OW16048   0.986   3.083   1.660
 5050SOL    HW116049   0.958   3.076   1.564
 5050SOL    HW216050   0.910   3.120   1.713
 5051SOL     OW16051   2.899   5.441   0.642
 5051SOL    HW116052   2.988   5.428   0.596
 5051SOL    HW216053   2.855   5.524   0.605
 5052SOL     OW16054   5.700   4.889   0.906
 5052SOL    HW116055   5.779   4.828   0.897
 5052SOL    HW216056   5.637   4.852   0.974
 5053SOL     OW16057   2.462   4.494   0.806
 5053SOL    HW116058   2.533   4.463   0.870
 5053SOL    HW216059   2.425   4.581   0.838
 5054SOL     OW16060   3.801   5.983   4.767
 5054SOL    HW116061   3.726   5.956   4.826
 5054SOL    HW216062   3.767   5.995   4.673
 5055SOL     OW16063   1.008   2.030   5.235
 5055SOL    HW116064   0.917   2.031   5.195
 5055SOL    HW216065   1.076   2.015   5.163
 5056SOL     OW16066   0.840   2.731   5.241
 5056SOL    HW116067   0.857   2.750   5.144
 5056SOL    HW216068   0.747   2.696   5.252
 5057SOL     OW16069   0.239   5.173   2.424
 5057SOL    HW116070   0.305   5.204   2.356
 5057SOL    HW216071   0.282   5.108   2.486
 5058SOL     OW16072   3.931   4.453   6.533
 5058SOL    HW116073   4.013   4.499   6.565
 5058SOL    HW216074   3.910   4.482   6.440
 5059SOL     OW16075   3.539   1.888   3.706
 5059SOL    HW116076   3.476   1.965   3.713
 5059SOL    HW216077   3.553   1.863   3.610
 5060SOL     OW16078   0.588   3.354   5.675
 5060SOL    HW116079   0.599   3.443   5.631
 5060SOL    HW216080   0.673   3.303   5.668
 5061SOL     OW16081   3.683   2.914   5.501
 5061SOL    HW116082   3.742   2.847   5.456
 5061SOL    HW216083   3.719   2.934   5.592
 5062SOL     OW16084   5.172   1.523   2.842
 5062SOL    HW116085   5.120   1.556   2.920
 5062SOL    HW216086   5.134   1.436   2.810
 5063SOL     OW16087   0.821   0.537   2.657
 5063SOL    HW116088   0.809   0.635   2.676
 5063SOL    HW216089   0.830   0.523   2.559
 5064SOL     OW16090   4.391   5.451   1.077
 5064SOL    HW116091   4.340   5.437   1.162
 5064SOL    HW216092   4.397   5.549   1.058
 5065SOL     OW16093   2.555   0.235   2.445
 5065SOL    HW116094   2.539   0.333   2.455
 5065SOL    HW216095   2.533   0.189   2.531
 5066SOL     OW16096   2.496   4.528   2.007
 5066SOL    HW116097   2.449   4.550   1.922
 5066SOL    HW216098   2.593   4.554   1.999
 5067SOL     OW16099   4.469   3.068   1.160
 5067SOL    HW116100   4.388   3.012   1.178
 5067SOL    HW216101   4.453   3.125   1.079
 5068SOL     OW16102   2.968   6.016   0.268
 5068SOL    HW116103   2.982   5.948   0.341
 5068SOL    HW216104   2.935   6.101   0.309
 5069SOL     OW16105   3.332   5.250   5.758
 5069SOL    HW116106   3.302   5.209   5.844
 5069SOL    HW216107   3.383   5.182   5.706
 5070SOL     OW16108   6.220   3.100   3.917
 5070SOL    HW116109   6.280   3.177   3.896
 5070SOL    HW216110   6.147   3.131   3.979
 5071SOL     OW16111   2.599   0.475   4.535
 5071SOL    HW116112   2.563   0.509   4.448
 5071SOL    HW216113   2.629   0.552   4.591
 5072SOL     OW16114   0.985   1.508   0.458
 5072SOL    HW116115   1.031   1.492   0.545
 5072SOL    HW216116   1.028   1.586   0.412
 5073SOL     OW16117   2.259   0.434   2.238
 5073SOL    HW116118   2.194   0.509   2.248
 5073SOL    HW216119   2.208   0.347   2.236
 5074SOL     OW16120   3.473   2.202   1.669
 5074SOL    HW116121   3.515   2.118   1.633
 5074SOL    HW216122   3.528   2.236   1.745
 5075SOL     OW16123   1.103   3.361   0.106
 5075SOL    HW116124   1.025   3.322   0.154
 5075SOL    HW216125   1.142   3.292   0.044
 5076SOL     OW16126   5.429   6.771   6.656
 5076SOL    HW116127   5.483   6.701   6.703
 5076SOL    HW216128   5.337   6.775   6.697
 5077SOL     OW16129   0.970   4.408   4.005
 5077SOL    HW116130   0.963   4.376   4.099
 5077SOL    HW216131   1.057   4.377   3.965
 5078SOL     OW16132   0.790   1.617   3.987
 5078SOL    HW116133   0.869   1.567   4.022
 5078SOL    HW216134   0.720   1.552   3.958
 5079SOL     OW16135   1.652   3.022   5.847
 5079SOL    HW116136   1.558   3.026   5.879
 5079SOL    HW216137   1.712   3.070   5.911
 5080SOL     OW16138   5.706   5.427   6.689
 5080SOL    HW116139   5.799   5.390   6.687
 5080SOL    HW216140   5.666   5.419   6.598
 5081SOL     OW16141   3.220   5.306   5.456
 5081SOL    HW116142   3.251   5.231   5.515
 5081SOL    HW216143   3.227   5.278   5.360
 5082SOL     OW16144   5.697   6.193   1.780
 5082SOL    HW116145   5.787   6.151   1.768
 5082SOL    HW216146   5.703   6.263   1.851
 5083SOL     OW16147   2.103   6.900   3.207
 5083SOL    HW116148   2.073   6.846   3.129
 5083SOL    HW216149   2.049   6.876   3.288
 5084SOL     OW16150   1.679   5.069   5.194
 5084SOL    HW116151   1.767   5.025   5.212
 5084SOL    HW216152   1.667   5.081   5.096
 5085SOL     OW16153   0.231   3.777   6.178
 5085SOL    HW116154   0.237   3.719   6.097
 5085SOL    HW216155   0.290   3.741   6.250
 5086SOL     OW16156   2.682   5.106   2.413
 5086SOL    HW116157   2.600   5.055   2.438
 5086SOL    HW216158   2.666   5.156   2.328
 5087SOL     OW16159   7.002   4.980   2.163
 5087SOL    HW116160   0.048   5.010   2.099
 5087SOL    HW216161   0.016   4.920   2.232
 5088SOL     OW16162   4.971   6.230   2.014
 5088SOL    HW116163   4.903   6.280   1.960
 5088SOL    HW216164   4.935   6.215   2.106
 5089SOL     OW16165   5.729   5.178   5.099
 5089SOL    HW116166   5.706   5.261   5.049
 5089SOL    HW216167   5.783   5.117   5.040
 5090SOL     OW16168   3.086   0.158   4.963
 5090SOL    HW116169   3.096   0.119   4.871
 5090SOL    HW216170   3.087   0.258   4.957
 5091SOL     OW16171   6.291   6.979   7.018
 5091SOL    HW116172   6.352   6.919   0.043
 5091SOL    HW216173   6.281   6.945   6.924
 5092SOL     OW16174   2.928   3.623   4.263
 5092SOL    HW116175   2.987   3.652   4.339
 5092SOL    HW216176   2.955   3.671   4.180
 5093SOL     OW16177   1.813   1.706   2.746
 5093SOL    HW116178   1.728   1.655   2.732
 5093SOL    HW216179   1.850   1.683   2.836
 5094SOL     OW16180   2.590   5.838   5.728
 5094SOL    HW116181   2.593   5.930   5.689
 5094SOL    HW216182   2.532   5.837   5.809
 5095SOL     OW16183   6.430   1.122   3.030
 5095SOL    HW116184   6.343   1.170   3.046
 5095SOL    HW216185   6.457   1.134   2.935
 5096SOL     OW16186   5.661   2.681   5.446
 5096SOL    HW116187   5.701   2.589   5.452
 5096SOL    HW216188   5.666   2.714   5.352
 5097SOL     OW16189   1.073   6.712   6.689
 5097SOL    HW116190   1.129   6.667   6.619
 5097SOL    HW216191   1.108   6.804   6.706
 5098SOL     OW16192   3.799   2.207   1.654
 5098SOL    HW116193   3.810   2.274   1.581
 5098SOL    HW216194   3.748   2.249   1.730
 5099SOL     OW16195   0.809   0.247   1.884
 5099SOL    HW116196   0.882   0.308   1.917
 5099SOL    HW216197   0.747   0.299   1.824
 5100SOL     OW16198   5.277   4.413   2.767
 5100SOL    HW116199   5.258   4.508   2.742
 5100SOL    HW216200   5.366   4.408   2.812
 5101SOL     OW16201   3.718   0.123   6.176
 5101SOL    HW116202   3.733   0.070   6.093
 5101SOL    HW216203   3.627   0.103   6.212
 5102SOL     OW16204   5.222   4.508   4.772
 5102SOL    HW116205   5.227   4.586   4.835
 5102SOL    HW216206   5.127   4.496   4.743
 5103SOL     OW16207   1.288   0.803   5.692
 5103SOL    HW116208   1.328   0.725   5.644
 5103SOL    HW216209   1.253   0.773   5.781
 5104SOL     OW16210   3.651   4.334   1.775
 5104SOL    HW116211   3.629   4.430   1.792
 5104SOL    HW216212   3.569   4.278   1.788
 5105SOL     OW16213   3.739   3.465   6.301
 5105SOL    HW116214   3.774   3.528   6.232
 5105SOL    HW216215   3.815   3.414   6.342
 5106SOL     OW16216   4.646   3.028   0.841
 5106SOL    HW116217   4.682   3.025   0.748
 5106SOL    HW216218   4.571   3.094   0.846
 5107SOL     OW16219   5.255   3.216   0.579
 5107SOL    HW116220   5.187   3.210   0.652
 5107SOL    HW216221   5.256   3.309   0.542
 5108SOL     OW16222   4.340   4.534   6.876
 5108SOL    HW116223   4.369   4.445   6.913
 5108SOL    HW216224   4.408   4.603   6.900
 5109SOL     OW16225   1.481   2.994   1.154
 5109SOL    HW116226   1.514   2.926   1.089
 5109SOL    HW216227   1.483   2.955   1.247
 5110SOL     OW16228   4.839   0.531   6.312
 5110SOL    HW116229   4.769   0.524   6.383
 5110SOL    HW216230   4.796   0.550   6.224
 5111SOL     OW16231   0.631   6.582   5.264
 5111SOL    HW116232   0.612   6.673   5.228
 5111SOL    HW216233   0.723   6.580   5.303
 5112SOL     OW16234   0.208   0.315   2.773
 5112SOL    HW116235   0.116   0.276   2.763
 5112SOL    HW216236   0.276   0.244   2.753
 5113SOL     OW16237   2.259   4.442   0.244
 5113SOL    HW116238   2.260   4.384   0.162
 5113SOL    HW216239   2.301   4.392   0.320
 5114SOL     OW16240   4.178   5.722   0.844
 5114SOL    HW116241   4.121   5.693   0.767
 5114SOL    HW216242   4.182   5.822   0.846
 5115SOL     OW16243   1.746   4.038   1.100
 5115SOL    HW116244   1.681   4.053   1.025
 5115SOL    HW216245   1.731   3.947   1.140
 5116SOL     OW16246   1.789   6.834   6.546
 5116SOL    HW116247   1.862   6.815   6.611
 5116SOL    HW216248   1.750   6.747   6.514
 5117SOL     OW16249   1.525   2.298   3.762
 5117SOL    HW116250   1.520   2.221   3.699
 5117SOL    HW216251   1.477   2.276   3.846
 5118SOL     OW16252   5.360   5.948   6.297
 5118SOL    HW116253   5.390   6.044   6.304
 5118SOL    HW216254   5.380   5.901   6.383
 5119SOL     OW16255   5.223   1.937   0.334
 5119SOL    HW116256   5.199   2.034   0.344
 5119SOL    HW216257   5.224   1.894   0.425
 5120SOL     OW16258   5.267   0.062   5.468
 5120SOL    HW116259   5.269   0.108   5.557
 5120SOL    HW216260   5.266   6.989   5.482
 5121SOL     OW16261   1.504   4.022   6.906
 5121SOL    HW116262   1.477   3.932   6.873
 5121SOL    HW216263   1.529   4.017   7.002
 5122SOL     OW16264   5.089   5.209   3.605
 5122SOL    HW116265   5.155   5.145   3.644
 5122SOL    HW216266   5.066   5.279   3.673
 5123SOL     OW16267   5.050   2.493   2.263
 5123SOL    HW116268   5.075   2.534   2.175
 5123SOL    HW216269   5.082   2.551   2.338
 5124SOL     OW16270   2.109   6.249   3.639
 5124SOL    HW116271   2.035   6.241   3.706
 5124SOL    HW216272   2.163   6.330   3.659
 5125SOL     OW16273   0.359   1.886   3.916
 5125SOL    HW116274   0.332   1.971   3.960
 5125SOL    HW216275   0.451   1.860   3.946
 5126SOL     OW16276   2.235   6.919   0.494
 5126SOL    HW116277   2.210   6.985   0.423
 5126SOL    HW216278   2.230   6.964   0.583
 5127SOL     OW16279   2.021   5.352   6.850
 5127SOL    HW116280   2.042   5.396   6.762
 5127SOL    HW216281   1.926   5.369   6.874
 5128SOL     OW16282   6.471   6.162   1.841
 5128SOL    HW116283   6.538   6.227   1.807
 5128SOL    HW216284   6.491   6.141   1.937
 5129SOL     OW16285   5.752   6.973   1.133
 5129SOL    HW116286   5.769   6.922   1.217
 5129SOL    HW216287   5.749   6.909   1.056
 5130SOL     OW16288   6.533   4.978   3.294
 5130SOL    HW116289   6.433   4.975   3.282
 5130SOL    HW216290   6.576   5.010   3.210
 5131SOL     OW16291   2.447   2.295   3.283
 5131SOL    HW116292   2.429   2.297   3.381
 5131SOL    HW216293   2.534   2.341   3.264
 5132SOL     OW16294   2.825   5.336   5.223
 5132SOL    HW116295   2.725   5.340   5.222
 5132SOL    HW216296   2.856   5.305   5.313
 5133SOL     OW16297   3.499   6.543   6.456
 5133SOL    HW116298   3.406   6.574   6.475
 5133SOL    HW216299   3.508   6.524   6.358
 5134SOL     OW16300   0.366   4.063   0.915
 5134SOL    HW116301   0.460   4.066   0.949
 5134SOL    HW216302   0.318   3.986   0.956
 5135SOL     OW16303   6.654   1.621   5.139
 5135SOL    HW116304   6.682   1.715   5.158
 5135SOL    HW216305   6.722   1.577   5.081
 5136SOL     OW16306   4.440   1.586   4.307
 5136SOL    HW116307   4.378   1.626   4.240
 5136SOL    HW216308   4.398   1.504   4.346
 5137SOL     OW16309   3.946   4.546   6.274
 5137SOL    HW116310   4.025   4.489   6.253
 5137SOL    HW216311   3.870   4.521   6.213
 5138SOL     OW16312   2.455   3.906   5.751
 5138SOL    HW116313   2.410   3.827   5.708
 5138SOL    HW216314   2.466   3.888   5.849
 5139SOL     OW16315   1.095   6.696   3.940
 5139SOL    HW116316   1.107   6.720   3.844
 5139SOL    HW216317   1.027   6.624   3.949
 5140SOL     OW16318   3.587   2.846   1.252
 5140SOL    HW116319   3.540   2.772   1.204
 5140SOL    HW216320   3.619   2.814   1.341
 5141SOL     OW16321   5.820   3.126   6.596
 5141SOL    HW116322   5.917   3.116   6.574
 5141SOL    HW216323   5.808   3.115   6.695
 5142SOL     OW16324   5.366   3.891   4.529
 5142SOL    HW116325   5.312   3.809   4.547
 5142SOL    HW216326   5.329   3.967   4.581
 5143SOL     OW16327   6.832   5.265   3.895
 5143SOL    HW116328   6.895   5.208   3.948
 5143SOL    HW216329   6.806   5.217   3.811
 5144SOL     OW16330   1.698   1.311   5.819
 5144SOL    HW116331   1.708   1.330   5.917
 5144SOL    HW216332   1.623   1.247   5.804
 5145SOL     OW16333   2.614   5.449   5.912
 5145SOL    HW116334   2.522   5.454   5.873
 5145SOL    HW216335   2.611   5.405   6.001
 5146SOL     OW16336   2.877   4.578   0.145
 5146SOL    HW116337   2.941   4.579   0.222
 5146SOL    HW216338   2.927   4.561   0.060
 5147SOL     OW16339   6.231   4.320   6.516
 5147SOL    HW116340   6.278   4.296   6.601
 5147SOL    HW216341   6.153   4.380   6.536
 5148SOL     OW16342   0.596   5.968   1.335
 5148SOL    HW116343   0.581   5.893   1.271
 5148SOL    HW216344   0.691   5.965   1.367
 5149SOL     OW16345   6.472   1.282   4.374
 5149SOL    HW116346   6.424   1.243   4.295
 5149SOL    HW216347   6.406   1.302   4.446
 5150SOL     OW16348   1.594   5.053   4.397
 5150SOL    HW116349   1.684   5.013   4.414
 5150SOL    HW216350   1.533   5.029   4.473
 5151SOL     OW16351   4.207   1.128   6.710
 5151SOL    HW116352   4.307   1.133   6.705
 5151SOL    HW216353   4.172   1.084   6.628
 5152SOL     OW16354   0.914   4.724   6.786
 5152SOL    HW116355   0.931   4.684   6.696
 5152SOL    HW216356   0.960   4.813   6.792
 5153SOL     OW16357   1.336   1.729   0.760
 5153SOL    HW116358   1.411   1.723   0.694
 5153SOL    HW216359   1.359   1.677   0.842
 5154SOL     OW16360   1.609   2.797   5.171
 5154SOL    HW116361   1.540   2.839   5.231
 5154SOL    HW216362   1.682   2.759   5.228
 5155SOL     OW16363   3.454   6.898   2.253
 5155SOL    HW116364   3.411   6.842   2.183
 5155SOL    HW216365   3.551   6.876   2.259
 5156SOL     OW16366   5.880   2.507   5.237
 5156SOL    HW116367   5.972   2.485   5.269
 5156SOL    HW216368   5.880   2.599   5.197
 5157SOL     OW16369   5.301   2.758   3.353
 5157SOL    HW116370   5.376   2.822   3.342
 5157SOL    HW216371   5.331   2.681   3.410
 5158SOL     OW16372   3.550   1.603   1.146
 5158SOL    HW116373   3.481   1.651   1.092
 5158SOL    HW216374   3.504   1.545   1.214
 5159SOL     OW16375   1.675   3.150   4.317
 5159SOL    HW116376   1.719   3.228   4.362
 5159SOL    HW216377   1.716   3.065   4.350
 5160SOL     OW16378   2.055   3.375   4.590
 5160SOL    HW116379   2.106   3.409   4.511
 5160SOL    HW216380   2.095   3.411   4.674
 5161SOL     OW16381   0.600   3.056   5.239
 5161SOL    HW116382   0.621   3.105   5.155
 5161SOL    HW216383   0.685   3.021   5.280
 5162SOL     OW16384   6.680   6.150   4.180
 5162SOL    HW116385   6.634   6.061   4.179
 5162SOL    HW216386   6.661   6.196   4.267
 5163SOL     OW16387   5.225   4.454   1.004
 5163SOL    HW116388   5.271   4.368   0.979
 5163SOL    HW216389   5.230   4.518   0.928
 5164SOL     OW16390   5.986   3.876   5.688
 5164SOL    HW116391   6.047   3.873   5.766
 5164SOL    HW216392   5.901   3.923   5.713
 5165SOL     OW16393   6.156   4.217   3.973
 5165SOL    HW116394   6.254   4.235   3.965
 5165SOL    HW216395   6.114   4.223   3.882
 5166SOL     OW16396   1.969   5.928   2.117
 5166SOL    HW116397   1.972   6.019   2.158
 5166SOL    HW216398   2.057   5.909   2.072
 5167SOL     OW16399   0.381   6.349   5.699
 5167SOL    HW116400   0.467   6.315   5.660
 5167SOL    HW216401   0.387   6.347   5.798
 5168SOL     OW16402   4.251   2.191   3.000
 5168SOL    HW116403   4.278   2.255   2.928
 5168SOL    HW216404   4.319   2.192   3.073
 5169SOL     OW16405   3.770   4.020   6.243
 5169SOL    HW116406   3.787   3.928   6.208
 5169SOL    HW216407   3.813   4.030   6.332
 5170SOL     OW16408   5.608   4.239   4.928
 5170SOL    HW116409   5.698   4.248   4.970
 5170SOL    HW216410   5.612   4.169   4.857
 5171SOL     OW16411   2.342   5.392   4.716
 5171SOL    HW116412   2.323   5.295   4.697
 5171SOL    HW216413   2.390   5.432   4.638
 5172SOL     OW16414   1.039   5.042   2.275
 5172SOL    HW116415   1.058   4.945   2.290
 5172SOL    HW216416   1.008   5.056   2.181
 5173SOL     OW16417   5.558   2.982   6.442
 5173SOL    HW116418   5.644   3.024   6.471
 5173SOL    HW216419   5.509   3.043   6.380
 5174SOL     OW16420   1.344   4.591   5.947
 5174SOL    HW116421   1.352   4.506   5.997
 5174SOL    HW216422   1.260   4.590   5.892
 5175SOL     OW16423   0.687   4.626   6.878
 5175SOL    HW116424   0.773   4.655   6.837
 5175SOL    HW216425   0.686   4.653   6.975
 5176SOL     OW16426   4.935   3.597   0.315
 5176SOL    HW116427   4.932   3.644   0.403
 5176SOL    HW216428   4.848   3.610   0.268
 5177SOL     OW16429   5.047   0.087   6.343
 5177SOL    HW116430   5.103   0.034   6.279
 5177SOL    HW216431   5.040   0.038   6.430
 5178SOL     OW16432   2.418   2.552   1.992
 5178SOL    HW116433   2.409   2.454   2.006
 5178SOL    HW216434   2.399   2.599   2.079
 5179SOL     OW16435   3.397   6.235   5.849
 5179SOL    HW116436   3.479   6.231   5.791
 5179SOL    HW216437   3.324   6.183   5.806
 5180SOL     OW16438   2.766   2.032   1.562
 5180SOL    HW116439   2.844   2.036   1.500
 5180SOL    HW216440   2.764   2.116   1.618
 5181SOL     OW16441   4.179   6.308   2.816
 5181SOL    HW116442   4.141   6.337   2.903
 5181SOL    HW216443   4.278   6.322   2.816
 5182SOL     OW16444   5.341   4.633   1.179
 5182SOL    HW116445   5.288   4.630   1.263
 5182SOL    HW216446   5.299   4.572   1.111
 5183SOL     OW16447   4.590   0.476   1.755
 5183SOL    HW116448   4.562   0.386   1.790
 5183SOL    HW216449   4.512   0.538   1.757
 5184SOL     OW16450   0.820   0.864   3.001
 5184SOL    HW116451   0.842   0.941   2.941
 5184SOL    HW216452   0.869   0.783   2.970
 5185SOL     OW16453   3.815   0.148   2.108
 5185SOL    HW116454   3.853   0.231   2.067
 5185SOL    HW216455   3.727   0.127   2.065
 5186SOL     OW16456   6.546   4.345   0.668
 5186SOL    HW116457   6.525   4.253   0.701
 5186SOL    HW216458   6.543   4.346   0.568
 5187SOL     OW16459   5.640   1.815   3.895
 5187SOL    HW116460   5.700   1.826   3.974
 5187SOL    HW216461   5.660   1.886   3.828
 5188SOL     OW16462   0.848   4.045   5.867
 5188SOL    HW116463   0.781   4.079   5.800
 5188SOL    HW216464   0.831   4.088   5.955
 5189SOL     OW16465   4.415   5.328   6.694
 5189SOL    HW116466   4.338   5.264   6.696
 5189SOL    HW216467   4.480   5.302   6.765
 5190SOL     OW16468   1.604   2.552   3.813
 5190SOL    HW116469   1.597   2.452   3.814
 5190SOL    HW216470   1.644   2.582   3.727
 5191SOL     OW16471   3.793   0.612   1.082
 5191SOL    HW116472   3.859   0.687   1.082
 5191SOL    HW216473   3.791   0.569   1.172
 5192SOL     OW16474   6.294   5.776   2.869
 5192SOL    HW116475   6.269   5.866   2.905
 5192SOL    HW216476   6.254   5.705   2.927
 5193SOL     OW16477   4.809   3.845   3.283
 5193SOL    HW116478   4.811   3.900   3.199
 5193SOL    HW216479   4.719   3.802   3.292
 5194SOL     OW16480   5.801   0.516   5.561
 5194SOL    HW116481   5.747   0.524   5.644
 5194SOL    HW216482   5.842   0.604   5.539
 5195SOL     OW16483   6.240   6.313   5.783
 5195SOL    HW116484   6.326   6.265   5.801
 5195SOL    HW216485   6.167   6.246   5.771
 5196SOL     OW16486   0.261   4.231   1.956
 5196SOL    HW116487   0.186   4.174   1.923
 5196SOL    HW216488   0.345   4.206   1.908
 5197SOL     OW16489   3.099   5.695   4.721
 5197SOL    HW116490   3.072   5.641   4.801
 5197SOL    HW216491   3.080   5.792   4.738
 5198SOL     OW16492   4.105   6.813   5.361
 5198SOL    HW116493   4.106   6.770   5.451
 5198SOL    HW216494   4.013   6.847   5.341
 5199SOL     OW16495   1.833   5.092   1.276
 5199SOL    HW116496   1.792   5.001   1.280
 5199SOL    HW216497   1.893   5.105   1.355
 5200SOL     OW16498   6.860   1.194   5.416
 5200SOL    HW116499   6.761   1.184   5.403
 5200SOL    HW216500   6.885   1.290   5.406
 5201SOL     OW16501   6.401   4.993   3.848
 5201SOL    HW116502   6.341   4.953   3.918
 5201SOL    HW216503   6.361   4.979   3.758
 5202SOL     OW16504   3.611   2.734   5.856
 5202SOL    HW116505   3.638   2.642   5.882
 5202SOL    HW216506   3.519   2.732   5.817
 5203SOL     OW16507   1.579   0.290   0.537
 5203SOL    HW116508   1.525   0.287   0.622
 5203SOL    HW216509   1.554   0.372   0.485
 5204SOL     OW16510   3.272   0.900   0.231
 5204SOL    HW116511   3.300   0.893   0.135
 5204SOL    HW216512   3.187   0.953   0.237
 5205SOL     OW16513   0.507   5.733   0.877
 5205SOL    HW116514   0.421   5.702   0.918
 5205SOL    HW216515   0.546   5.660   0.822
 5206SOL     OW16516   1.075   4.221   4.607
 5206SOL    HW116517   0.980   4.251   4.610
 5206SOL    HW216518   1.124   4.274   4.537
 5207SOL     OW16519   0.041   0.528   3.874
 5207SOL    HW116520   7.017   0.589   3.935
 5207SOL    HW216521   7.022   0.438   3.872
 5208SOL     OW16522   4.915   1.986   0.181
 5208SOL    HW116523   4.969   2.061   0.144
 5208SOL    HW216524   4.964   1.899   0.166
 5209SOL     OW16525   5.422   5.609   2.731
 5209SOL    HW116526   5.407   5.700   2.772
 5209SOL    HW216527   5.371   5.541   2.784
 5210SOL     OW16528   5.289   4.174   0.162
 5210SOL    HW116529   5.250   4.183   0.253
 5210SOL    HW216530   5.282   4.262   0.114
 5211SOL     OW16531   4.833   3.141   4.403
 5211SOL    HW116532   4.840   3.215   4.469
 5211SOL    HW216533   4.809   3.056   4.450
 5212SOL     OW16534   1.217   3.628   0.691
 5212SOL    HW116535   1.137   3.596   0.641
 5212SOL    HW216536   1.300   3.586   0.653
 5213SOL     OW16537   4.123   3.337   2.738
 5213SOL    HW116538   4.180   3.258   2.758
 5213SOL    HW216539   4.056   3.313   2.667
 5214SOL     OW16540   5.332   3.661   5.615
 5214SOL    HW116541   5.408   3.695   5.671
 5214SOL    HW216542   5.280   3.739   5.580
 5215SOL     OW16543   6.930   3.759   4.658
 5215SOL    HW116544   6.903   3.841   4.709
 5215SOL    HW216545   6.851   3.723   4.608
 5216SOL     OW16546   4.838   5.573   1.167
 5216SOL    HW116547   4.819   5.571   1.265
 5216SOL    HW216548   4.786   5.648   1.124
 5217SOL     OW16549   4.283   6.213   4.163
 5217SOL    HW116550   4.353   6.282   4.150
 5217SOL    HW216551   4.201   6.239   4.112
 5218SOL     OW16552   0.239   6.779   0.713
 5218SOL    HW116553   0.141   6.779   0.693
 5218SOL    HW216554   0.291   6.778   0.628
 5219SOL     OW16555   3.218   1.561   4.775
 5219SOL    HW116556   3.175   1.481   4.816
 5219SOL    HW216557   3.250   1.538   4.683
 5220SOL     OW16558   2.206   4.308   4.189
 5220SOL    HW116559   2.184   4.237   4.256
 5220SOL    HW216560   2.143   4.385   4.200
 5221SOL     OW16561   6.264   5.984   1.199
 5221SOL    HW116562   6.171   5.957   1.223
 5221SOL    HW216563   6.293   5.935   1.117
 5222SOL     OW16564   5.253   4.179   0.772
 5222SOL    HW116565   5.209   4.092   0.790
 5222SOL    HW216566   5.200   4.230   0.705
 5223SOL     OW16567   0.331   2.994   0.840
 5223SOL    HW116568   0.426   3.004   0.810
 5223SOL    HW216569   0.285   3.083   0.832
 5224SOL     OW16570   0.478   2.448   5.314
 5224SOL    HW116571   0.495   2.413   5.222
 5224SOL    HW216572   0.512   2.542   5.320
 5225SOL     OW16573   0.058   1.512   5.175
 5225SOL    HW116574   0.070   1.451   5.097
 5225SOL    HW216575   0.001   1.590   5.148
 5226SOL     OW16576   0.923   6.577   3.724
 5226SOL    HW116577   0.904   6.499   3.665
 5226SOL    HW216578   1.003   6.627   3.689
 5227SOL     OW16579   6.971   2.706   5.406
 5227SOL    HW116580   6.933   2.767   5.336
 5227SOL    HW216581   7.014   2.627   5.362
 5228SOL     OW16582   1.513   2.339   5.692
 5228SOL    HW116583   1.566   2.423   5.685
 5228SOL    HW216584   1.516   2.289   5.606
 5229SOL     OW16585   3.585   0.914   6.161
 5229SOL    HW116586   3.637   0.994   6.190
 5229SOL    HW216587   3.602   0.896   6.064
 5230SOL     OW16588   6.691   6.461   1.988
 5230SOL    HW116589   6.746   6.545   1.993
 5230SOL    HW216590   6.695   6.424   1.896
 5231SOL     OW16591   6.902   2.288   2.080
 5231SOL    HW116592   6.969   2.359   2.059
 5231SOL    HW216593   6.848   2.268   1.998
 5232SOL     OW16594   1.616   2.951   5.545
 5232SOL    HW116595   1.621   2.969   5.643
 5232SOL    HW216596   1.628   3.037   5.495
 5233SOL     OW16597   2.900   7.000   2.929
 5233SOL    HW116598   2.979   0.020   2.970
 5233SOL    HW216599   2.924   6.967   2.837
 5234SOL     OW16600   2.237   2.006   0.427
 5234SOL    HW116601   2.309   1.955   0.380
 5234SOL    HW216602   2.150   1.959   0.416
 5235SOL     OW16603   1.973   2.149   1.111
 5235SOL    HW116604   2.049   2.138   1.047
 5235SOL    HW216605   1.921   2.064   1.116
 5236SOL     OW16606   3.952   5.617   1.962
 5236SOL    HW116607   3.862   5.628   2.004
 5236SOL    HW216608   4.000   5.705   1.960
 5237SOL     OW16609   2.068   1.848   3.207
 5237SOL    HW116610   2.127   1.768   3.221
 5237SOL    HW216611   2.036   1.882   3.295
 5238SOL     OW16612   1.033   6.817   3.063
 5238SOL    HW116613   0.934   6.832   3.067
 5238SOL    HW216614   1.066   6.836   2.970
 5239SOL     OW16615   2.537   3.966   1.232
 5239SOL    HW116616   2.591   3.930   1.307
 5239SOL    HW216617   2.536   3.900   1.156
 5240SOL     OW16618   2.220   3.576   5.910
 5240SOL    HW116619   2.312   3.577   5.949
 5240SOL    HW216620   2.224   3.547   5.815
 5241SOL     OW16621   1.029   5.830   2.333
 5241SOL    HW116622   0.987   5.807   2.245
 5241SOL    HW216623   0.963   5.882   2.388
 5242SOL     OW16624   5.097   0.323   6.532
 5242SOL    HW116625   5.112   0.256   6.459
 5242SOL    HW216626   4.999   0.333   6.548
 5243SOL     OW16627   2.520   6.706   2.596
 5243SOL    HW116628   2.570   6.657   2.667
 5243SOL    HW216629   2.582   6.731   2.522
 5244SOL     OW16630   4.796   3.001   0.593
 5244SOL    HW116631   4.812   3.099   0.577
 5244SOL    HW216632   4.881   2.958   0.621
 5245SOL     OW16633   4.084   3.715   2.037
 5245SOL    HW116634   4.059   3.761   2.122
 5245SOL    HW216635   4.035   3.758   1.961
 5246SOL     OW16636   6.042   3.261   1.026
 5246SOL    HW116637   6.136   3.256   1.057
 5246SOL    HW216638   6.013   3.173   0.991
 5247SOL     OW16639   3.606   2.132   6.206
 5247SOL    HW116640   3.590   2.200   6.135
 5247SOL    HW216641   3.671   2.063   6.172
 5248SOL     OW16642   6.763   0.986   3.775
 5248SOL    HW116643   6.702   1.025   3.844
 5248SOL    HW216644   6.813   1.060   3.729
 5249SOL     OW16645   0.421   4.887   6.438
 5249SOL    HW116646   0.367   4.833   6.502
 5249SOL    HW216647   0.512   4.847   6.429
 5250SOL     OW16648   1.972   5.650   1.236
 5250SOL    HW116649   1.998   5.553   1.235
 5250SOL    HW216650   2.014   5.696   1.158
 5251SOL     OW16651   0.750   4.890   0.568
 5251SOL    HW116652   0.684   4.942   0.514
 5251SOL    HW216653   0.743   4.918   0.664
 5252SOL     OW16654   3.821   6.947   2.266
 5252SOL    HW116655   3.824   0.000   2.205
 5252SOL    HW216656   3.820   6.979   2.361
 5253SOL     OW16657   6.641   5.735   4.390
 5253SOL    HW116658   6.621   5.763   4.296
 5253SOL    HW216659   6.739   5.742   4.407
 5254SOL     OW16660   6.104   0.214   3.467
 5254SOL    HW116661   6.005   0.229   3.461
 5254SOL    HW216662   6.141   0.197   3.375
 5255SOL     OW16663   6.220   1.645   5.531
 5255SOL    HW116664   6.182   1.730   5.497
 5255SOL    HW216665   6.158   1.604   5.597
 5256SOL     OW16666   6.948   1.567   2.705
 5256SOL    HW116667   6.865   1.583   2.759
 5256SOL    HW216668   6.922   1.528   2.616
 5257SOL     OW16669   3.852   1.001   6.333
 5257SOL    HW116670   3.866   1.015   6.235
 5257SOL    HW216671   3.791   0.923   6.348
 5258SOL     OW16672   4.220   1.224   3.213
 5258SOL    HW116673   4.200   1.276   3.130
 5258SOL    HW216674   4.316   1.196   3.213
 5259SOL     OW16675   6.353   5.514   3.355
 5259SOL    HW116676   6.389   5.421   3.361
 5259SOL    HW216677   6.337   5.550   3.447
 5260SOL     OW16678   2.216   1.035   0.946
 5260SOL    HW116679   2.210   1.130   0.975
 5260SOL    HW216680   2.190   1.028   0.849
 5261SOL     OW16681   5.903   4.340   0.054
 5261SOL    HW116682   5.818   4.294   0.079
 5261SOL    HW216683   5.934   4.397   0.130
 5262SOL     OW16684   1.912   0.849   2.921
 5262SOL    HW116685   1.970   0.871   3.000
 5262SOL    HW216686   1.905   0.929   2.862
 5263SOL     OW16687   1.775   6.931   2.641
 5263SOL    HW116688   1.795   6.998   2.712
 5263SOL    HW216689   1.713   6.861   2.678
 5264SOL     OW16690   6.469   1.895   1.720
 5264SOL    HW116691   6.405   1.818   1.719
 5264SOL    HW216692   6.425   1.974   1.763
 5265SOL     OW16693   6.353   4.629   4.279
 5265SOL    HW116694   6.450   4.638   4.254
 5265SOL    HW216695   6.321   4.714   4.320
 5266SOL     OW16696   2.156   0.613   0.411
 5266SOL    HW116697   2.170   0.514   0.410
 5266SOL    HW216698   2.077   0.634   0.469
 5267SOL     OW16699   5.459   2.929   4.317
 5267SOL    HW116700   5.368   2.960   4.290
 5267SOL    HW216701   5.464   2.830   4.309
 5268SOL     OW16702   5.495   0.548   6.026
 5268SOL    HW116703   5.459   0.457   6.046
 5268SOL    HW216704   5.489   0.606   6.107
 5269SOL     OW16705   0.247   6.130   3.548
 5269SOL    HW116706   0.274   6.168   3.637
 5269SOL    HW216707   0.300   6.047   3.531
 5270SOL     OW16708   0.689   2.422   6.081
 5270SOL    HW116709   0.721   2.415   5.987
 5270SOL    HW216710   0.763   2.394   6.143
 5271SOL     OW16711   0.223   4.950   3.376
 5271SOL    HW116712   0.299   4.999   3.333
 5271SOL    HW216713   0.234   4.852   3.361
 5272SOL     OW16714   4.856   1.039   0.439
 5272SOL    HW116715   4.874   0.956   0.386
 5272SOL    HW216716   4.899   1.117   0.394
 5273SOL     OW16717   0.945   2.681   2.987
 5273SOL    HW116718   0.986   2.619   3.054
 5273SOL    HW216719   0.991   2.770   2.992
 5274SOL     OW16720   4.812   5.629   1.725
 5274SOL    HW116721   4.738   5.695   1.736
 5274SOL    HW216722   4.900   5.676   1.720
 5275SOL     OW16723   4.347   1.933   6.407
 5275SOL    HW116724   4.347   1.888   6.496
 5275SOL    HW216725   4.441   1.943   6.375
 5276SOL     OW16726   4.460   6.338   2.860
 5276SOL    HW116727   4.540   6.397   2.854
 5276SOL    HW216728   4.430   6.333   2.956
 5277SOL     OW16729   2.120   2.222   1.544
 5277SOL    HW116730   2.202   2.212   1.601
 5277SOL    HW216731   2.045   2.257   1.599
 5278SOL     OW16732   4.548   4.684   1.263
 5278SOL    HW116733   4.449   4.687   1.254
 5278SOL    HW216734   4.574   4.710   1.356
 5279SOL     OW16735   2.731   5.533   2.108
 5279SOL    HW116736   2.659   5.463   2.109
 5279SOL    HW216737   2.784   5.527   2.192
 5280SOL     OW16738   4.983   6.356   4.532
 5280SOL    HW116739   4.923   6.304   4.471
 5280SOL    HW216740   5.047   6.410   4.478
 5281SOL     OW16741   0.294   1.868   1.281
 5281SOL    HW116742   0.272   1.798   1.213
 5281SOL    HW216743   0.285   1.829   1.373
 5282SOL     OW16744   4.438   1.944   2.504
 5282SOL    HW116745   4.439   1.969   2.601
 5282SOL    HW216746   4.519   1.981   2.459
 5283SOL     OW16747   4.793   4.318   6.080
 5283SOL    HW116748   4.735   4.355   6.154
 5283SOL    HW216749   4.735   4.290   6.004
 5284SOL     OW16750   5.435   3.024   3.649
 5284SOL    HW116751   5.341   3.035   3.680
 5284SOL    HW216752   5.493   2.998   3.726
 5285SOL     OW16753   3.230   5.689   3.706
 5285SOL    HW116754   3.176   5.614   3.744
 5285SOL    HW216755   3.273   5.659   3.621
 5286SOL     OW16756   2.329   4.547   1.810
 5286SOL    HW116757   2.300   4.637   1.841
 5286SOL    HW216758   2.275   4.477   1.857
 5287SOL     OW16759   1.261   1.707   1.164
 5287SOL    HW116760   1.293   1.779   1.102
 5287SOL    HW216761   1.268   1.740   1.259
 5288SOL     OW16762   4.090   0.566   1.002
 5288SOL    HW116763   4.041   0.563   1.089
 5288SOL    HW216764   4.129   0.475   0.983
 5289SOL     OW16765   2.383   5.463   1.063
 5289SOL    HW116766   2.409   5.453   1.159
 5289SOL    HW216767   2.290   5.498   1.057
 5290SOL     OW16768   4.687   5.763   0.392
 5290SOL    HW116769   4.741   5.711   0.458
 5290SOL    HW216770   4.601   5.792   0.435
 5291SOL     OW16771   1.506   5.093   5.807
 5291SOL    HW116772   1.551   5.032   5.873
 5291SOL    HW216773   1.556   5.091   5.720
 5292SOL     OW16774   4.662   2.677   5.579
 5292SOL    HW116775   4.601   2.683   5.658
 5292SOL    HW216776   4.608   2.665   5.496
 5293SOL     OW16777   0.328   0.139   4.413
 5293SOL    HW116778   0.240   0.116   4.373
 5293SOL    HW216779   0.396   0.070   4.387
 5294SOL     OW16780   5.382   1.826   5.543
 5294SOL    HW116781   5.353   1.768   5.466
 5294SOL    HW216782   5.450   1.892   5.511
 5295SOL     OW16783   6.391   1.266   1.796
 5295SOL    HW116784   6.388   1.230   1.890
 5295SOL    HW216785   6.366   1.362   1.796
 5296SOL     OW16786   0.962   4.330   0.191
 5296SOL    HW116787   1.019   4.252   0.216
 5296SOL    HW216788   1.019   4.412   0.184
 5297SOL     OW16789   1.874   3.194   1.680
 5297SOL    HW116790   1.967   3.217   1.709
 5297SOL    HW216791   1.865   3.094   1.675
 5298SOL     OW16792   1.190   5.126   1.519
 5298SOL    HW116793   1.258   5.083   1.460
 5298SOL    HW216794   1.184   5.223   1.496
 5299SOL     OW16795   2.926   0.385   2.083
 5299SOL    HW116796   2.857   0.372   2.154
 5299SOL    HW216797   2.935   0.483   2.064
 5300SOL     OW16798   0.088   5.183   3.180
 5300SOL    HW116799   0.095   5.244   3.101
 5300SOL    HW216800   0.168   5.196   3.239
 5301SOL     OW16801   4.112   1.658   0.304
 5301SOL    HW116802   4.204   1.622   0.320
 5301SOL    HW216803   4.113   1.719   0.225
 5302SOL     OW16804   6.658   4.821   2.884
 5302SOL    HW116805   6.644   4.906   2.934
 5302SOL    HW216806   6.635   4.744   2.943
 5303SOL     OW16807   0.808   4.694   3.767
 5303SOL    HW116808   0.801   4.676   3.865
 5303SOL    HW216809   0.741   4.638   3.718
 5304SOL     OW16810   5.479   2.178   5.743
 5304SOL    HW116811   5.476   2.234   5.660
 5304SOL    HW216812   5.385   2.163   5.776
 5305SOL     OW16813   2.711   1.150   2.908
 5305SOL    HW116814   2.759   1.232   2.879
 5305SOL    HW216815   2.678   1.162   3.002
 5306SOL     OW16816   2.590   0.102   5.654
 5306SOL    HW116817   2.522   0.051   5.602
 5306SOL    HW216818   2.568   0.199   5.652
 5307SOL     OW16819   4.802   0.036   6.648
 5307SOL    HW116820   4.727   7.022   6.594
 5307SOL    HW216821   4.768   0.061   6.739
 5308SOL     OW16822   0.105   0.932   3.235
 5308SOL    HW116823   0.009   0.950   3.257
 5308SOL    HW216824   0.123   0.959   3.141
 5309SOL     OW16825   3.602   3.871   3.911
 5309SOL    HW116826   3.669   3.944   3.896
 5309SOL    HW216827   3.644   3.799   3.965
 5310SOL     OW16828   5.027   1.962   0.745
 5310SOL    HW116829   5.083   1.976   0.826
 5310SOL    HW216830   4.980   2.047   0.721
 5311SOL     OW16831   1.453   6.123   0.024
 5311SOL    HW116832   1.529   6.187   0.012
 5311SOL    HW216833   1.450   6.061   6.971
 5312SOL     OW16834   0.521   3.361   2.181
 5312SOL    HW116835   0.509   3.447   2.130
 5312SOL    HW216836   0.432   3.324   2.207
 5313SOL     OW16837   1.684   5.827   0.399
 5313SOL    HW116838   1.613   5.834   0.329
 5313SOL    HW216839   1.649   5.775   0.476
 5314SOL     OW16840   3.494   4.882   0.767
 5314SOL    HW116841   3.547   4.928   0.696
 5314SOL    HW216842   3.396   4.889   0.746
 5315SOL     OW16843   5.103   2.691   2.436
 5315SOL    HW116844   5.016   2.715   2.393
 5315SOL    HW216845   5.149   2.774   2.467
 5316SOL     OW16846   6.429   5.135   4.268
 5316SOL    HW116847   6.358   5.186   4.220
 5316SOL    HW216848   6.496   5.102   4.201
 5317SOL     OW16849   5.762   6.039   2.718
 5317SOL    HW116850   5.678   6.072   2.760
 5317SOL    HW216851   5.797   5.960   2.769
 5318SOL     OW16852   6.981   2.596   4.969
 5318SOL    HW116853   0.052   2.617   4.985
 5318SOL    HW216854   6.924   2.666   5.013
 5319SOL     OW16855   4.210   6.999   1.217
 5319SOL    HW116856   4.182   7.016   1.311
 5319SOL    HW216857   4.309   7.011   1.208
 5320SOL     OW16858   5.432   3.566   6.117
 5320SOL    HW116859   5.383   3.479   6.108
 5320SOL    HW216860   5.374   3.641   6.084
 5321SOL     OW16861   1.522   5.379   5.805
 5321SOL    HW116862   1.590   5.368   5.732
 5321SOL    HW216863   1.507   5.291   5.849
 5322SOL     OW16864   3.306   6.230   0.534
 5322SOL    HW116865   3.405   6.232   0.525
 5322SOL    HW216866   3.276   6.135   0.544
 5323SOL     OW16867   5.665   3.306   0.398
 5323SOL    HW116868   5.712   3.371   0.456
 5323SOL    HW216869   5.655   3.343   0.306
 5324SOL     OW16870   3.819   3.346   1.797
 5324SOL    HW116871   3.863   3.314   1.881
 5324SOL    HW216872   3.731   3.301   1.787
 5325SOL     OW16873   4.965   5.895   3.464
 5325SOL    HW116874   4.934   5.903   3.369
 5325SOL    HW216875   5.063   5.874   3.466
 5326SOL     OW16876   6.778   6.972   2.275
 5326SOL    HW116877   6.745   0.035   2.308
 5326SOL    HW216878   6.847   6.987   2.204
 5327SOL     OW16879   6.724   0.541   4.571
 5327SOL    HW116880   6.804   0.495   4.532
 5327SOL    HW216881   6.748   0.636   4.593
 5328SOL     OW16882   3.746   4.957   1.159
 5328SOL    HW116883   3.650   4.944   1.133
 5328SOL    HW216884   3.801   4.966   1.076
 5329SOL     OW16885   6.612   4.908   0.234
 5329SOL    HW116886   6.560   4.960   0.166
 5329SOL    HW216887   6.671   4.971   0.285
 5330SOL     OW16888   4.496   4.703   6.998
 5330SOL    HW116889   4.594   4.682   6.996
 5330SOL    HW216890   4.482   4.797   6.969
 5331SOL     OW16891   4.907   2.994   6.641
 5331SOL    HW116892   4.977   2.975   6.709
 5331SOL    HW216893   4.949   2.997   6.550
 5332SOL     OW16894   6.184   2.632   7.001
 5332SOL    HW116895   6.180   2.539   0.010
 5332SOL    HW216896   6.213   2.694   0.049
 5333SOL     OW16897   1.754   1.818   3.837
 5333SOL    HW116898   1.779   1.727   3.871
 5333SOL    HW216899   1.762   1.821   3.738
 5334SOL     OW16900   3.473   5.668   1.877
 5334SOL    HW116901   3.424   5.710   1.954
 5334SOL    HW216902   3.513   5.581   1.907
 5335SOL     OW16903   7.002   4.407   1.238
 5335SOL    HW116904   6.974   4.427   1.332
 5335SOL    HW216905   0.065   4.448   1.219
 5336SOL     OW16906   1.913   3.047   4.489
 5336SOL    HW116907   1.957   3.102   4.418
 5336SOL    HW216908   1.970   3.044   4.571
 5337SOL     OW16909   5.961   5.474   0.733
 5337SOL    HW116910   5.892   5.450   0.664
 5337SOL    HW216911   6.050   5.482   0.689
 5338SOL     OW16912   6.585   3.134   0.910
 5338SOL    HW116913   6.499   3.084   0.904
 5338SOL    HW216914   6.661   3.071   0.903
 5339SOL     OW16915   5.492   4.044   2.831
 5339SOL    HW116916   5.521   4.125   2.882
 5339SOL    HW216917   5.392   4.045   2.822
 5340SOL     OW16918   5.388   3.286   2.889
 5340SOL    HW116919   5.426   3.214   2.946
 5340SOL    HW216920   5.433   3.373   2.909
 5341SOL     OW16921   4.088   4.945   3.666
 5341SOL    HW116922   4.145   4.867   3.693
 5341SOL    HW216923   4.013   4.912   3.608
 5342SOL     OW16924   6.464   6.300   4.987
 5342SOL    HW116925   6.410   6.237   4.931
 5342SOL    HW216926   6.561   6.291   4.964
 5343SOL     OW16927   3.213   3.015   6.840
 5343SOL    HW116928   3.159   3.046   6.762
 5343SOL    HW216929   3.266   3.091   6.877
 5344SOL     OW16930   1.181   2.067   6.344
 5344SOL    HW116931   1.113   2.139   6.360
 5344SOL    HW216932   1.171   1.996   6.414
 5345SOL     OW16933   4.470   1.211   6.719
 5345SOL    HW116934   4.531   1.223   6.797
 5345SOL    HW216935   4.447   1.301   6.681
 5346SOL     OW16936   2.949   6.213   3.605
 5346SOL    HW116937   3.044   6.196   3.581
 5346SOL    HW216938   2.943   6.236   3.702
 5347SOL     OW16939   6.172   1.968   4.047
 5347SOL    HW116940   6.222   1.892   4.087
 5347SOL    HW216941   6.142   1.944   3.955
 5348SOL     OW16942   5.145   3.011   3.337
 5348SOL    HW116943   5.203   2.947   3.388
 5348SOL    HW216944   5.151   3.101   3.380
 5349SOL     OW16945   0.876   3.495   1.523
 5349SOL    HW116946   0.806   3.425   1.540
 5349SOL    HW216947   0.892   3.502   1.424
 5350SOL     OW16948   1.097   6.522   0.286
 5350SOL    HW116949   1.147   6.484   0.208
 5350SOL    HW216950   1.158   6.581   0.339
 5351SOL     OW16951   6.696   6.523   3.279
 5351SOL    HW116952   6.760   6.476   3.218
 5351SOL    HW216953   6.663   6.607   3.235
 5352SOL     OW16954   1.208   3.185   5.488
 5352SOL    HW116955   1.225   3.239   5.406
 5352SOL    HW216956   1.210   3.088   5.465
 5353SOL     OW16957   3.692   5.286   3.372
 5353SOL    HW116958   3.619   5.252   3.431
 5353SOL    HW216959   3.705   5.384   3.388
 5354SOL     OW16960   4.392   6.302   0.464
 5354SOL    HW116961   4.345   6.277   0.549
 5354SOL    HW216962   4.486   6.330   0.485
 5355SOL     OW16963   5.424   4.118   5.134
 5355SOL    HW116964   5.347   4.067   5.095
 5355SOL    HW216965   5.471   4.168   5.062
 5356SOL     OW16966   0.209   5.694   0.932
 5356SOL    HW116967   0.222   5.769   0.996
 5356SOL    HW216968   0.219   5.607   0.979
 5357SOL     OW16969   5.664   3.595   2.756
 5357SOL    HW116970   5.642   3.634   2.666
 5357SOL    HW216971   5.737   3.527   2.746
 5358SOL     OW16972   4.240   1.584   6.812
 5358SOL    HW116973   4.297   1.616   6.888
 5358SOL    HW216974   4.145   1.576   6.843
 5359SOL     OW16975   3.707   2.434   0.212
 5359SOL    HW116976   3.682   2.341   0.239
 5359SOL    HW216977   3.799   2.433   0.172
 5360SOL     OW16978   5.562   4.929   4.078
 5360SOL    HW116979   5.476   4.916   4.127
 5360SOL    HW216980   5.544   4.974   3.991
 5361SOL     OW16981   2.194   5.638   2.889
 5361SOL    HW116982   2.129   5.708   2.918
 5361SOL    HW216983   2.263   5.678   2.829
 5362SOL     OW16984   5.754   0.982   2.782
 5362SOL    HW116985   5.719   0.924   2.709
 5362SOL    HW216986   5.687   0.987   2.856
 5363SOL     OW16987   5.922   5.706   3.575
 5363SOL    HW116988   5.886   5.761   3.500
 5363SOL    HW216989   5.916   5.757   3.661
 5364SOL     OW16990   4.964   1.449   2.591
 5364SOL    HW116991   4.977   1.381   2.663
 5364SOL    HW216992   4.871   1.485   2.595
 5365SOL     OW16993   3.154   3.143   4.219
 5365SOL    HW116994   3.082   3.198   4.177
 5365SOL    HW216995   3.128   3.120   4.313
 5366SOL     OW16996   6.549   6.050   2.872
 5366SOL    HW116997   6.556   6.120   2.943
 5366SOL    HW216998   6.537   5.960   2.914
 5367SOL     OW16999   6.084   5.770   1.858
 5367SOL    HW117000   5.985   5.765   1.874
 5367SOL    HW217001   6.119   5.680   1.835
 5368SOL     OW17002   6.483   5.966   4.175
 5368SOL    HW117003   6.414   5.912   4.223
 5368SOL    HW217004   6.438   6.017   4.101
 5369SOL     OW17005   3.129   5.466   3.245
 5369SOL    HW117006   3.206   5.420   3.201
 5369SOL    HW217007   3.054   5.401   3.259
 5370SOL     OW17008   1.802   3.325   0.621
 5370SOL    HW117009   1.863   3.322   0.541
 5370SOL    HW217010   1.766   3.417   0.632
 5371SOL     OW17011   5.814   4.882   4.497
 5371SOL    HW117012   5.853   4.918   4.582
 5371SOL    HW217013   5.717   4.859   4.512
 5372SOL     OW17014   1.608   0.022   2.870
 5372SOL    HW117015   1.543   0.098   2.863
 5372SOL    HW217016   1.563   6.962   2.845
 5373SOL     OW17017   3.006   1.842   6.863
 5373SOL    HW117018   2.940   1.770   6.883
 5373SOL    HW217019   2.958   1.930   6.856
 5374SOL     OW17020   1.881   3.997   2.375
 5374SOL    HW117021   1.928   3.968   2.292
 5374SOL    HW217022   1.925   4.079   2.412
 5375SOL     OW17023   2.193   4.446   4.903
 5375SOL    HW117024   2.283   4.489   4.897
 5375SOL    HW217025   2.132   4.505   4.957
 5376SOL     OW17026   0.699   0.478   6.255
 5376SOL    HW117027   0.713   0.401   6.318
 5376SOL    HW217028   0.639   0.450   6.180
 5377SOL     OW17029   2.101   0.967   3.091
 5377SOL    HW117030   2.132   1.062   3.095
 5377SOL    HW217031   2.146   0.914   3.163
 5378SOL     OW17032   4.582   0.871   2.035
 5378SOL    HW117033   4.632   0.935   2.093
 5378SOL    HW217034   4.522   0.923   1.973
 5379SOL     OW17035   1.798   2.138   5.312
 5379SOL    HW117036   1.880   2.084   5.294
 5379SOL    HW217037   1.808   2.229   5.273
 5380SOL     OW17038   4.365   6.445   1.561
 5380SOL    HW117039   4.460   6.453   1.532
 5380SOL    HW217040   4.308   6.508   1.508
 5381SOL     OW17041   3.952   0.484   4.207
 5381SOL    HW117042   3.859   0.450   4.194
 5381SOL    HW217043   3.950   0.583   4.221
 5382SOL     OW17044   4.620   1.358   1.481
 5382SOL    HW117045   4.687   1.295   1.443
 5382SOL    HW217046   4.665   1.421   1.544
 5383SOL     OW17047   2.443   2.651   4.628
 5383SOL    HW117048   2.456   2.680   4.534
 5383SOL    HW217049   2.383   2.716   4.675
 5384SOL     OW17050   5.769   5.221   4.567
 5384SOL    HW117051   5.690   5.160   4.563
 5384SOL    HW217052   5.762   5.290   4.495
 5385SOL     OW17053   3.897   3.345   6.018
 5385SOL    HW117054   3.940   3.288   6.088
 5385SOL    HW217055   3.804   3.314   6.001
 5386SOL     OW17056   5.261   4.462   4.473
 5386SOL    HW117057   5.202   4.385   4.453
 5386SOL    HW217058   5.244   4.494   4.567
 5387SOL     OW17059   0.949   1.837   3.910
 5387SOL    HW117060   0.916   1.753   3.952
 5387SOL    HW217061   0.934   1.914   3.972
 5388SOL     OW17062   0.730   6.879   2.410
 5388SOL    HW117063   0.812   6.876   2.352
 5388SOL    HW217064   0.688   6.970   2.402
 5389SOL     OW17065   4.416   1.639   3.876
 5389SOL    HW117066   4.512   1.611   3.877
 5389SOL    HW217067   4.410   1.738   3.887
 5390SOL     OW17068   0.305   2.640   3.070
 5390SOL    HW117069   0.341   2.549   3.052
 5390SOL    HW217070   0.345   2.676   3.154
 5391SOL     OW17071   2.961   2.946   0.746
 5391SOL    HW117072   2.995   2.852   0.748
 5391SOL    HW217073   2.864   2.946   0.724
 5392SOL     OW17074   6.033   0.956   3.920
 5392SOL    HW117075   6.053   0.880   3.857
 5392SOL    HW217076   5.942   0.993   3.900
 5393SOL     OW17077   4.728   2.300   4.766
 5393SOL    HW117078   4.808   2.240   4.764
 5393SOL    HW217079   4.747   2.380   4.823
 5394SOL     OW17080   0.896   1.950   1.652
 5394SOL    HW117081   0.849   1.981   1.569
 5394SOL    HW217082   0.842   1.975   1.732
 5395SOL     OW17083   6.509   1.372   0.649
 5395SOL    HW117084   6.604   1.391   0.625
 5395SOL    HW217085   6.450   1.388   0.570
 5396SOL     OW17086   4.583   4.066   0.618
 5396SOL    HW117087   4.665   4.023   0.656
 5396SOL    HW217088   4.562   4.150   0.668
 5397SOL     OW17089   0.257   1.263   2.522
 5397SOL    HW117090   0.251   1.351   2.474
 5397SOL    HW217091   0.327   1.269   2.593
 5398SOL     OW17092   6.181   2.079   2.661
 5398SOL    HW117093   6.217   2.030   2.581
 5398SOL    HW217094   6.256   2.111   2.717
 5399SOL     OW17095   1.652   2.023   0.095
 5399SOL    HW117096   1.603   1.936   0.098
 5399SOL    HW217097   1.683   2.047   0.187
 5400SOL     OW17098   4.678   3.249   1.690
 5400SOL    HW117099   4.765   3.260   1.737
 5400SOL    HW217100   4.621   3.184   1.740
 5401SOL     OW17101   5.866   2.541   1.551
 5401SOL    HW117102   5.948   2.597   1.560
 5401SOL    HW217103   5.876   2.480   1.472
 5402SOL     OW17104   1.560   6.671   2.456
 5402SOL    HW117105   1.546   6.769   2.461
 5402SOL    HW217106   1.633   6.644   2.519
 5403SOL     OW17107   4.965   3.104   0.284
 5403SOL    HW117108   5.049   3.050   0.294
 5403SOL    HW217109   4.921   3.081   0.197
 5404SOL     OW17110   5.478   0.565   6.900
 5404SOL    HW117111   5.411   0.566   6.974
 5404SOL    HW217112   5.490   0.658   6.864
 5405SOL     OW17113   0.775   4.754   0.168
 5405SOL    HW117114   0.774   4.727   0.265
 5405SOL    HW217115   0.706   4.825   0.153
 5406SOL     OW17116   2.722   0.881   6.560
 5406SOL    HW117117   2.679   0.884   6.470
 5406SOL    HW217118   2.662   0.922   6.628
 5407SOL     OW17119   1.855   6.975   2.983
 5407SOL    HW117120   1.828   6.936   3.071
 5407SOL    HW217121   1.774   7.006   2.934
 5408SOL     OW17122   2.654   1.377   4.060
 5408SOL    HW117123   2.596   1.395   4.140
 5408SOL    HW217124   2.602   1.324   3.992
 5409SOL     OW17125   0.726   3.147   1.756
 5409SOL    HW117126   0.684   3.140   1.846
 5409SOL    HW217127   0.694   3.071   1.698
 5410SOL     OW17128   0.571   2.325   0.956
 5410SOL    HW117129   0.670   2.318   0.943
 5410SOL    HW217130   0.531   2.234   0.960
 5411SOL     OW17131   3.228   5.022   6.887
 5411SOL    HW117132   3.294   4.975   6.945
 5411SOL    HW217133   3.143   5.036   6.938
 5412SOL     OW17134   0.188   2.285   5.999
 5412SOL    HW117135   0.089   2.283   5.984
 5412SOL    HW217136   0.206   2.311   6.094
 5413SOL     OW17137   0.595   5.855   4.877
 5413SOL    HW117138   0.647   5.892   4.954
 5413SOL    HW217139   0.658   5.824   4.806
 5414SOL     OW17140   5.314   4.647   5.473
 5414SOL    HW117141   5.332   4.742   5.445
 5414SOL    HW217142   5.400   4.601   5.495
 5415SOL     OW17143   4.036   0.572   0.044
 5415SOL    HW117144   3.963   0.597   0.107
 5415SOL    HW217145   4.012   0.487   7.023
 5416SOL     OW17146   3.588   5.801   6.581
 5416SOL    HW117147   3.578   5.795   6.681
 5416SOL    HW217148   3.510   5.756   6.537
 5417SOL     OW17149   4.212   6.942   4.457
 5417SOL    HW117150   4.136   6.877   4.446
 5417SOL    HW217151   4.176   0.008   4.475
 5418SOL     OW17152   0.241   3.301   5.108
 5418SOL    HW117153   0.159   3.247   5.091
 5418SOL    HW217154   0.256   3.364   5.031
 5419SOL     OW17155   4.554   0.692   5.559
 5419SOL    HW117156   4.462   0.731   5.556
 5419SOL    HW217157   4.599   0.707   5.472
 5420SOL     OW17158   0.664   1.813   2.132
 5420SOL    HW117159   0.647   1.798   2.230
 5420SOL    HW217160   0.761   1.801   2.113
 5421SOL     OW17161   3.521   5.001   2.058
 5421SOL    HW117162   3.547   4.909   2.030
 5421SOL    HW217163   3.552   5.067   1.990
 5422SOL     OW17164   2.691   5.264   3.666
 5422SOL    HW117165   2.602   5.273   3.621
 5422SOL    HW217166   2.691   5.182   3.723
 5423SOL     OW17167   4.647   6.428   2.321
 5423SOL    HW117168   4.691   6.438   2.411
 5423SOL    HW217169   4.550   6.449   2.329
 5424SOL     OW17170   4.437   3.919   5.505
 5424SOL    HW117171   4.403   3.837   5.552
 5424SOL    HW217172   4.361   3.982   5.490
 5425SOL     OW17173   1.265   4.148   5.499
 5425SOL    HW117174   1.228   4.183   5.585
 5425SOL    HW217175   1.202   4.081   5.460
 5426SOL     OW17176   6.527   5.723   1.434
 5426SOL    HW117177   6.476   5.808   1.421
 5426SOL    HW217178   6.468   5.655   1.478
 5427SOL     OW17179   4.247   2.834   6.512
 5427SOL    HW117180   4.279   2.853   6.605
 5427SOL    HW217181   4.252   2.736   6.495
 5428SOL     OW17182   5.721   5.708   2.588
 5428SOL    HW117183   5.708   5.614   2.619
 5428SOL    HW217184   5.800   5.749   2.635
 5429SOL     OW17185   3.208   0.687   4.934
 5429SOL    HW117186   3.219   0.777   4.893
 5429SOL    HW217187   3.298   0.647   4.952
 5430SOL     OW17188   2.879   3.972   5.255
 5430SOL    HW117189   2.836   3.922   5.330
 5430SOL    HW217190   2.877   4.070   5.275
 5431SOL     OW17191   3.825   4.552   0.372
 5431SOL    HW117192   3.897   4.590   0.430
 5431SOL    HW217193   3.764   4.495   0.427
 5432SOL     OW17194   0.424   5.414   6.640
 5432SOL    HW117195   0.329   5.389   6.660
 5432SOL    HW217196   0.482   5.333   6.653
 5433SOL     OW17197   2.499   0.688   1.607
 5433SOL    HW117198   2.444   0.712   1.527
 5433SOL    HW217199   2.579   0.635   1.578
 5434SOL     OW17200   5.248   0.848   4.677
 5434SOL    HW117201   5.274   0.886   4.588
 5434SOL    HW217202   5.165   0.793   4.668
 5435SOL     OW17203   6.654   4.643   1.268
 5435SOL    HW117204   6.697   4.569   1.217
 5435SOL    HW217205   6.694   4.650   1.359
 5436SOL     OW17206   1.297   4.037   2.902
 5436SOL    HW117207   1.394   4.027   2.881
 5436SOL    HW217208   1.284   4.110   2.969
 5437SOL     OW17209   3.704   5.823   1.500
 5437SOL    HW117210   3.641   5.783   1.433
 5437SOL    HW217211   3.782   5.761   1.514
 5438SOL     OW17212   5.094   5.773   2.442
 5438SOL    HW117213   5.082   5.869   2.467
 5438SOL    HW217214   5.191   5.751   2.435
 5439SOL     OW17215   1.128   4.382   1.815
 5439SOL    HW117216   1.186   4.463   1.816
 5439SOL    HW217217   1.184   4.300   1.803
 5440SOL     OW17218   6.142   0.061   3.884
 5440SOL    HW117219   6.134   0.055   3.784
 5440SOL    HW217220   6.237   0.079   3.909
 5441SOL     OW17221   5.833   2.921   4.388
 5441SOL    HW117222   5.760   2.937   4.321
 5441SOL    HW217223   5.912   2.882   4.341
 5442SOL     OW17224   3.497   0.031   6.305
 5442SOL    HW117225   3.449   0.106   6.352
 5442SOL    HW217226   3.432   7.005   6.249
 5443SOL     OW17227   4.649   0.915   3.477
 5443SOL    HW117228   4.609   0.867   3.555
 5443SOL    HW217229   4.624   0.868   3.393
 5444SOL     OW17230   5.811   1.026   5.471
 5444SOL    HW117231   5.788   1.119   5.442
 5444SOL    HW217232   5.899   0.999   5.432
 5445SOL     OW17233   5.753   5.902   5.203
 5445SOL    HW117234   5.745   5.936   5.297
 5445SOL    HW217235   5.767   5.803   5.205
 5446SOL     OW17236   6.947   4.091   6.389
 5446SOL    HW117237   6.987   4.160   6.329
 5446SOL    HW217238   6.997   4.006   6.381
 5447SOL     OW17239   0.172   2.097   1.168
 5447SOL    HW117240   0.132   2.075   1.079
 5447SOL    HW217241   0.191   2.012   1.217
 5448SOL     OW17242   4.434   4.745   3.146
 5448SOL    HW117243   4.427   4.814   3.218
 5448SOL    HW217244   4.346   4.733   3.101
 5449SOL     OW17245   2.804   0.989   2.009
 5449SOL    HW117246   2.864   0.958   1.936
 5449SOL    HW217247   2.717   0.940   2.003
 5450SOL     OW17248   4.367   5.708   1.778
 5450SOL    HW117249   4.301   5.656   1.724
 5450SOL    HW217250   4.382   5.662   1.865
 5451SOL     OW17251   6.487   0.003   2.946
 5451SOL    HW117252   6.577   7.011   2.905
 5451SOL    HW217253   6.500   0.036   3.040
 5452SOL     OW17254   2.277   4.148   2.201
 5452SOL    HW117255   2.339   4.124   2.127
 5452SOL    HW217256   2.304   4.236   2.240
 5453SOL     OW17257   5.820   4.133   3.602
 5453SOL    HW117258   5.870   4.059   3.558
 5453SOL    HW217259   5.763   4.179   3.535
 5454SOL     OW17260   6.344   4.631   2.737
 5454SOL    HW117261   6.271   4.587   2.789
 5454SOL    HW217262   6.417   4.658   2.799
 5455SOL     OW17263   2.307   1.812   3.570
 5455SOL    HW117264   2.211   1.825   3.543
 5455SOL    HW217265   2.341   1.725   3.534
 5456SOL     OW17266   5.376   1.906   1.084
 5456SOL    HW117267   5.355   1.963   1.163
 5456SOL    HW217268   5.394   1.813   1.115
 5457SOL     OW17269   5.723   1.325   6.712
 5457SOL    HW117270   5.667   1.283   6.642
 5457SOL    HW217271   5.670   1.335   6.796
 5458SOL     OW17272   5.854   3.091   0.393
 5458SOL    HW117273   5.777   3.149   0.367
 5458SOL    HW217274   5.938   3.145   0.390
 5459SOL     OW17275   1.750   3.168   5.452
 5459SOL    HW117276   1.837   3.161   5.403
 5459SOL    HW217277   1.742   3.259   5.493
 5460SOL     OW17278   0.692   0.853   1.572
 5460SOL    HW117279   0.787   0.841   1.600
 5460SOL    HW217280   0.631   0.830   1.649
 5461SOL     OW17281   6.314   0.996   5.526
 5461SOL    HW117282   6.409   0.971   5.507
 5461SOL    HW217283   6.302   1.008   5.625
 5462SOL     OW17284   4.846   4.294   6.441
 5462SOL    HW117285   4.888   4.310   6.530
 5462SOL    HW217286   4.795   4.376   6.412
 5463SOL     OW17287   0.855   2.726   6.572
 5463SOL    HW117288   0.803   2.799   6.617
 5463SOL    HW217289   0.838   2.729   6.474
 5464SOL     OW17290   1.188   6.254   5.555
 5464SOL    HW117291   1.141   6.285   5.639
 5464SOL    HW217292   1.279   6.294   5.552
 5465SOL     OW17293   0.176   6.862   4.409
 5465SOL    HW117294   0.255   6.870   4.349
 5465SOL    HW217295   0.115   6.940   4.394
 5466SOL     OW17296   6.215   2.550   5.158
 5466SOL    HW117297   6.304   2.522   5.122
 5466SOL    HW217298   6.176   2.621   5.098
 5467SOL     OW17299   4.743   2.898   4.522
 5467SOL    HW117300   4.666   2.874   4.463
 5467SOL    HW217301   4.735   2.849   4.609
 5468SOL     OW17302   0.064   1.474   0.944
 5468SOL    HW117303   0.011   1.521   1.014
 5468SOL    HW217304   0.054   1.375   0.955
 5469SOL     OW17305   3.102   0.099   4.693
 5469SOL    HW117306   3.094   0.019   4.633
 5469SOL    HW217307   3.108   0.182   4.638
 5470SOL     OW17308   3.493   5.350   3.565
 5470SOL    HW117309   3.538   5.361   3.654
 5470SOL    HW217310   3.404   5.306   3.578
 5471SOL     OW17311   4.573   0.785   3.688
 5471SOL    HW117312   4.535   0.701   3.727
 5471SOL    HW217313   4.563   0.859   3.754
 5472SOL     OW17314   2.761   2.951   6.993
 5472SOL    HW117315   2.738   2.948   0.065
 5472SOL    HW217316   2.837   2.889   6.975
 5473SOL     OW17317   2.666   4.447   1.732
 5473SOL    HW117318   2.761   4.468   1.709
 5473SOL    HW217319   2.613   4.531   1.738
 5474SOL     OW17320   0.663   5.240   2.916
 5474SOL    HW117321   0.721   5.169   2.956
 5474SOL    HW217322   0.717   5.295   2.853
 5475SOL     OW17323   0.321   1.470   5.312
 5475SOL    HW117324   0.230   1.493   5.277
 5475SOL    HW217325   0.334   1.514   5.401
 5476SOL     OW17326   2.545   6.909   5.244
 5476SOL    HW117327   2.643   6.925   5.259
 5476SOL    HW217328   2.514   6.961   5.165
 5477SOL     OW17329   1.384   4.429   4.703
 5477SOL    HW117330   1.326   4.453   4.625
 5477SOL    HW217331   1.463   4.376   4.670
 5478SOL     OW17332   5.638   4.627   5.653
 5478SOL    HW117333   5.663   4.724   5.644
 5478SOL    HW217334   5.600   4.595   5.566
 5479SOL     OW17335   4.456   1.468   4.968
 5479SOL    HW117336   4.460   1.371   4.945
 5479SOL    HW217337   4.435   1.521   4.886
 5480SOL     OW17338   0.224   3.518   3.554
 5480SOL    HW117339   0.198   3.424   3.577
 5480SOL    HW217340   0.236   3.571   3.639
 5481SOL     OW17341   4.097   0.976   6.484
 5481SOL    HW117342   4.012   1.005   6.439
 5481SOL    HW217343   4.159   0.938   6.415
 5482SOL     OW17344   4.634   2.762   1.414
 5482SOL    HW117345   4.552   2.706   1.404
 5482SOL    HW217346   4.607   2.858   1.422
 5483SOL     OW17347   6.933   2.816   5.975
 5483SOL    HW117348   7.023   2.816   5.931
 5483SOL    HW217349   6.877   2.890   5.936
 5484SOL     OW17350   6.384   6.832   4.579
 5484SOL    HW117351   6.349   6.739   4.577
 5484SOL    HW217352   6.477   6.834   4.544
 5485SOL     OW17353   3.050   0.270   5.598
 5485SOL    HW117354   3.022   0.268   5.694
 5485SOL    HW217355   3.005   0.346   5.552
 5486SOL     OW17356   0.633   0.989   3.676
 5486SOL    HW117357   0.703   0.960   3.610
 5486SOL    HW217358   0.675   1.049   3.744
 5487SOL     OW17359   4.656   5.461   0.971
 5487SOL    HW117360   4.561   5.469   1.003
 5487SOL    HW217361   4.718   5.497   1.041
 5488SOL     OW17362   5.316   1.251   6.764
 5488SOL    HW117363   5.234   1.193   6.763
 5488SOL    HW217364   5.290   1.345   6.787
 5489SOL     OW17365   1.400   3.660   2.860
 5489SOL    HW117366   1.309   3.697   2.878
 5489SOL    HW217367   1.421   3.667   2.763
 5490SOL     OW17368   1.968   1.848   0.499
 5490SOL    HW117369   2.025   1.768   0.518
 5490SOL    HW217370   1.955   1.857   0.400
 5491SOL     OW17371   0.856   5.204   0.872
 5491SOL    HW117372   0.758   5.222   0.862
 5491SOL    HW217373   0.891   5.252   0.952
 5492SOL     OW17374   1.221   1.359   5.963
 5492SOL    HW117375   1.162   1.356   5.883
 5492SOL    HW217376   1.276   1.443   5.961
 5493SOL     OW17377   3.129   3.077   0.093
 5493SOL    HW117378   3.122   3.062   7.019
 5493SOL    HW217379   3.067   3.151   0.119
 5494SOL     OW17380   5.850   3.440   1.806
 5494SOL    HW117381   5.924   3.374   1.792
 5494SOL    HW217382   5.875   3.503   1.879
 5495SOL     OW17383   3.209   3.313   2.368
 5495SOL    HW117384   3.234   3.338   2.462
 5495SOL    HW217385   3.144   3.237   2.370
 5496SOL     OW17386   4.002   5.919   1.544
 5496SOL    HW117387   4.086   5.974   1.548
 5496SOL    HW217388   4.021   5.827   1.579
 5497SOL     OW17389   6.768   6.729   1.989
 5497SOL    HW117390   6.831   6.801   1.961
 5497SOL    HW217391   6.674   6.761   1.981
 5498SOL     OW17392   4.057   1.035   5.529
 5498SOL    HW117393   4.081   1.009   5.623
 5498SOL    HW217394   4.023   0.955   5.480
 5499SOL     OW17395   0.017   1.324   3.079
 5499SOL    HW117396   6.955   1.367   3.098
 5499SOL    HW217397   0.006   1.254   3.008
 5500SOL     OW17398   2.149   5.847   1.809
 5500SOL    HW117399   2.224   5.797   1.767
 5500SOL    HW217400   2.080   5.867   1.740
 5501SOL     OW17401   2.448   6.337   2.412
 5501SOL    HW117402   2.526   6.382   2.456
 5501SOL    HW217403   2.404   6.401   2.348
 5502SOL     OW17404   5.064   4.096   6.033
 5502SOL    HW117405   4.976   4.101   5.985
 5502SOL    HW217406   5.053   4.133   6.125
 5503SOL     OW17407   1.281   5.491   3.536
 5503SOL    HW117408   1.355   5.452   3.481
 5503SOL    HW217409   1.312   5.505   3.630
 5504SOL     OW17410   3.530   2.058   4.898
 5504SOL    HW117411   3.593   2.135   4.892
 5504SOL    HW217412   3.532   2.006   4.812
 5505SOL     OW17413   2.623   5.169   5.732
 5505SOL    HW117414   2.701   5.162   5.794
 5505SOL    HW217415   2.540   5.137   5.780
 5506SOL     OW17416   6.313   0.372   5.941
 5506SOL    HW117417   6.374   0.365   5.861
 5506SOL    HW217418   6.250   0.294   5.942
 5507SOL     OW17419   2.226   6.181   4.167
 5507SOL    HW117420   2.284   6.103   4.143
 5507SOL    HW217421   2.237   6.253   4.098
 5508SOL     OW17422   3.156   0.935   6.776
 5508SOL    HW117423   3.134   1.024   6.736
 5508SOL    HW217424   3.219   0.886   6.715
 5509SOL     OW17425   5.816   6.610   6.712
 5509SOL    HW117426   5.852   6.679   6.775
 5509SOL    HW217427   5.862   6.523   6.728
 5510SOL     OW17428   5.342   0.953   5.568
 5510SOL    HW117429   5.396   1.033   5.593
 5510SOL    HW217430   5.298   0.915   5.649
 5511SOL     OW17431   0.129   1.001   2.526
 5511SOL    HW117432   0.135   1.100   2.514
 5511SOL    HW217433   0.176   0.955   2.450
 5512SOL     OW17434   1.174   0.192   1.000
 5512SOL    HW117435   1.273   0.182   0.989
 5512SOL    HW217436   1.152   0.288   1.015
 5513SOL     OW17437   4.384   4.663   4.588
 5513SOL    HW117438   4.460   4.614   4.547
 5513SOL    HW217439   4.322   4.695   4.516
 5514SOL     OW17440   5.505   5.322   2.842
 5514SOL    HW117441   5.476   5.230   2.817
 5514SOL    HW217442   5.483   5.339   2.938
 5515SOL     OW17443   6.640   2.880   1.427
 5515SOL    HW117444   6.689   2.808   1.377
 5515SOL    HW217445   6.703   2.953   1.451
 5516SOL     OW17446   1.340   3.539   6.336
 5516SOL    HW117447   1.383   3.623   6.303
 5516SOL    HW217448   1.353   3.531   6.435
 5517SOL     OW17449   2.618   1.909   2.062
 5517SOL    HW117450   2.648   1.995   2.020
 5517SOL    HW217451   2.671   1.892   2.144
 5518SOL     OW17452   5.973   4.651   5.048
 5518SOL    HW117453   6.020   4.640   4.961
 5518SOL    HW217454   6.032   4.700   5.112
 5519SOL     OW17455   5.526   3.965   4.305
 5519SOL    HW117456   5.481   3.930   4.386
 5519SOL    HW217457   5.460   4.012   4.247
 5520SOL     OW17458   1.750   3.617   1.850
 5520SOL    HW117459   1.718   3.529   1.884
 5520SOL    HW217460   1.849   3.612   1.834
 5521SOL     OW17461   5.932   5.113   1.625
 5521SOL    HW117462   5.926   5.203   1.581
 5521SOL    HW217463   5.995   5.119   1.703
 5522SOL     OW17464   2.274   3.586   1.650
 5522SOL    HW117465   2.297   3.526   1.727
 5522SOL    HW217466   2.320   3.555   1.568
 5523SOL     OW17467   2.755   0.010   2.365
 5523SOL    HW117468   2.700   0.093   2.379
 5523SOL    HW217469   2.703   6.956   2.394
 5524SOL     OW17470   0.079   5.319   6.350
 5524SOL    HW117471   0.029   5.285   6.429
 5524SOL    HW217472   0.156   5.258   6.331
 5525SOL     OW17473   6.468   5.435   4.820
 5525SOL    HW117474   6.464   5.527   4.858
 5525SOL    HW217475   6.421   5.371   4.881
 5526SOL     OW17476   6.492   3.144   4.447
 5526SOL    HW117477   6.409   3.134   4.501
 5526SOL    HW217478   6.479   3.217   4.379
 5527SOL     OW17479   1.803   3.628   1.545
 5527SOL    HW117480   1.728   3.619   1.480
 5527SOL    HW217481   1.768   3.611   1.638
 5528SOL     OW17482   0.550   3.441   3.105
 5528SOL    HW117483   0.595   3.489   3.029
 5528SOL    HW217484   0.453   3.468   3.108
 5529SOL     OW17485   2.341   1.383   4.947
 5529SOL    HW117486   2.336   1.284   4.937
 5529SOL    HW217487   2.416   1.407   5.008
 5530SOL     OW17488   0.982   2.759   0.634
 5530SOL    HW117489   1.066   2.757   0.689
 5530SOL    HW217490   0.917   2.822   0.675
 5531SOL     OW17491   3.647   3.134   5.938
 5531SOL    HW117492   3.620   3.129   5.842
 5531SOL    HW217493   3.598   3.209   5.983
 5532SOL     OW17494   2.549   1.704   1.298
 5532SOL    HW117495   2.498   1.627   1.335
 5532SOL    HW217496   2.486   1.781   1.283
 5533SOL     OW17497   4.146   0.995   1.273
 5533SOL    HW117498   4.176   1.061   1.342
 5533SOL    HW217499   4.193   1.013   1.187
 5534SOL     OW17500   0.007   4.112   6.652
 5534SOL    HW117501   6.983   4.119   6.565
 5534SOL    HW217502   6.996   4.036   6.705
 5535SOL     OW17503   5.884   3.444   2.733
 5535SOL    HW117504   5.893   3.365   2.794
 5535SOL    HW217505   5.971   3.493   2.728
 5536SOL     OW17506   2.485   0.294   3.678
 5536SOL    HW117507   2.573   0.338   3.659
 5536SOL    HW217508   2.483   0.203   3.638
 5537SOL     OW17509   4.184   0.561   4.924
 5537SOL    HW117510   4.276   0.555   4.884
 5537SOL    HW217511   4.187   0.530   5.019
 5538SOL     OW17512   4.768   1.591   6.861
 5538SOL    HW117513   4.724   1.563   6.946
 5538SOL    HW217514   4.740   1.684   6.837
 5539SOL     OW17515   3.186   6.974   0.526
 5539SOL    HW117516   3.234   0.015   0.584
 5539SOL    HW217517   3.118   7.022   0.470
 5540SOL     OW17518   5.637   1.033   6.967
 5540SOL    HW117519   5.709   1.084   6.920
 5540SOL    HW217520   5.676   0.986   0.021
 5541SOL     OW17521   4.533   3.964   6.343
 5541SOL    HW117522   4.456   4.028   6.348
 5541SOL    HW217523   4.609   3.999   6.398
 5542SOL     OW17524   4.746   4.623   0.055
 5542SOL    HW117525   4.760   4.524   0.049
 5542SOL    HW217526   4.829   4.667   0.088
 5543SOL     OW17527   1.385   0.667   0.887
 5543SOL    HW117528   1.420   0.753   0.924
 5543SOL    HW217529   1.423   0.590   0.938
 5544SOL     OW17530   4.307   5.914   6.039
 5544SOL    HW117531   4.356   6.001   6.041
 5544SOL    HW217532   4.216   5.926   6.081
 5545SOL     OW17533   4.166   0.505   3.222
 5545SOL    HW117534   4.176   0.553   3.310
 5545SOL    HW217535   4.141   0.571   3.151
 5546SOL     OW17536   0.259   5.703   5.639
 5546SOL    HW117537   0.311   5.618   5.633
 5546SOL    HW217538   0.241   5.737   5.546
 5547SOL     OW17539   5.654   2.002   4.956
 5547SOL    HW117540   5.593   1.933   4.917
 5547SOL    HW217541   5.748   1.969   4.953
 5548SOL     OW17542   0.360   4.247   4.944
 5548SOL    HW117543   0.381   4.296   5.028
 5548SOL    HW217544   0.274   4.197   4.957
 5549SOL     OW17545   3.795   3.341   1.419
 5549SOL    HW117546   3.717   3.286   1.390
 5549SOL    HW217547   3.862   3.282   1.465
 5550SOL     OW17548   1.180   3.794   2.951
 5550SOL    HW117549   1.123   3.809   3.031
 5550SOL    HW217550   1.228   3.878   2.926
 5551SOL     OW17551   2.323   4.918   3.810
 5551SOL    HW117552   2.335   4.891   3.905
 5551SOL    HW217553   2.284   4.841   3.758
 5552SOL     OW17554   0.335   6.563   6.358
 5552SOL    HW117555   0.287   6.476   6.359
 5552SOL    HW217556   0.297   6.624   6.428
 5553SOL     OW17557   4.810   0.624   6.669
 5553SOL    HW117558   4.774   0.591   6.756
 5553SOL    HW217559   4.762   0.579   6.594
 5554SOL     OW17560   5.533   2.955   1.603
 5554SOL    HW117561   5.437   2.973   1.581
 5554SOL    HW217562   5.555   2.860   1.583
 5555SOL     OW17563   1.762   4.018   2.635
 5555SOL    HW117564   1.784   4.007   2.538
 5555SOL    HW217565   1.846   4.039   2.685
 5556SOL     OW17566   6.554   0.749   4.839
 5556SOL    HW117567   6.460   0.778   4.825
 5556SOL    HW217568   6.603   0.750   4.751
 5557SOL     OW17569   3.294   5.609   2.248
 5557SOL    HW117570   3.391   5.632   2.261
 5557SOL    HW217571   3.273   5.610   2.150
 5558SOL     OW17572   3.452   4.264   0.283
 5558SOL    HW117573   3.511   4.186   0.305
 5558SOL    HW217574   3.508   4.339   0.248
 5559SOL     OW17575   1.846   6.554   2.979
 5559SOL    HW117576   1.803   6.472   2.941
 5559SOL    HW217577   1.777   6.612   3.022
 5560SOL     OW17578   0.521   5.945   2.722
 5560SOL    HW117579   0.444   5.899   2.677
 5560SOL    HW217580   0.518   6.043   2.702
 5561SOL     OW17581   3.323   1.013   3.719
 5561SOL    HW117582   3.361   1.100   3.686
 5561SOL    HW217583   3.397   0.958   3.759
 5562SOL     OW17584   4.262   3.852   0.965
 5562SOL    HW117585   4.281   3.790   1.041
 5562SOL    HW217586   4.194   3.810   0.904
 5563SOL     OW17587   3.092   4.902   3.029
 5563SOL    HW117588   3.156   4.851   3.086
 5563SOL    HW217589   3.019   4.841   2.998
 5564SOL     OW17590   5.665   0.534   5.825
 5564SOL    HW117591   5.586   0.568   5.875
 5564SOL    HW217592   5.747   0.541   5.882
 5565SOL     OW17593   4.014   2.685   0.198
 5565SOL    HW117594   4.050   2.689   0.291
 5565SOL    HW217595   3.986   2.591   0.177
 5566SOL     OW17596   1.000   3.639   6.771
 5566SOL    HW117597   1.055   3.563   6.736
 5566SOL    HW217598   0.943   3.607   6.847
 5567SOL     OW17599   6.687   3.993   1.470
 5567SOL    HW117600   6.699   4.077   1.523
 5567SOL    HW217601   6.592   3.961   1.479
 5568SOL     OW17602   4.195   6.625   2.531
 5568SOL    HW117603   4.219   6.687   2.605
 5568SOL    HW217604   4.190   6.676   2.445
 5569SOL     OW17605   2.451   2.141   4.153
 5569SOL    HW117606   2.432   2.083   4.232
 5569SOL    HW217607   2.550   2.159   4.148
 5570SOL     OW17608   6.751   3.443   2.981
 5570SOL    HW117609   6.693   3.362   2.970
 5570SOL    HW217610   6.699   3.525   2.959
 5571SOL     OW17611   0.450   5.534   1.991
 5571SOL    HW117612   0.418   5.595   2.063
 5571SOL    HW217613   0.526   5.577   1.942
 5572SOL     OW17614   0.622   3.251   5.056
 5572SOL    HW117615   0.592   3.346   5.068
 5572SOL    HW217616   0.566   3.208   4.985
 5573SOL     OW17617   1.937   5.157   4.928
 5573SOL    HW117618   1.958   5.253   4.943
 5573SOL    HW217619   2.008   5.115   4.873
 5574SOL     OW17620   0.151   2.770   6.336
 5574SOL    HW117621   0.064   2.731   6.366
 5574SOL    HW217622   0.182   2.724   6.253
 5575SOL     OW17623   0.632   0.607   1.442
 5575SOL    HW117624   0.535   0.602   1.421
 5575SOL    HW217625   0.649   0.686   1.501
 5576SOL     OW17626   2.004   4.026   3.412
 5576SOL    HW117627   2.086   3.985   3.451
 5576SOL    HW217628   2.016   4.038   3.314
 5577SOL     OW17629   1.665   3.352   6.463
 5577SOL    HW117630   1.594   3.419   6.444
 5577SOL    HW217631   1.755   3.397   6.460
 5578SOL     OW17632   3.130   3.122   2.766
 5578SOL    HW117633   3.064   3.162   2.829
 5578SOL    HW217634   3.084   3.096   2.681
 5579SOL     OW17635   0.120   3.216   1.348
 5579SOL    HW117636   0.108   3.231   1.250
 5579SOL    HW217637   0.095   3.299   1.397
 5580SOL     OW17638   4.535   1.260   5.923
 5580SOL    HW117639   4.442   1.240   5.892
 5580SOL    HW217640   4.600   1.211   5.864
 5581SOL     OW17641   0.734   1.650   0.999
 5581SOL    HW117642   0.660   1.608   0.946
 5581SOL    HW217643   0.794   1.701   0.937
 5582SOL     OW17644   2.313   3.703   6.209
 5582SOL    HW117645   2.217   3.705   6.238
 5582SOL    HW217646   2.366   3.651   6.276
 5583SOL     OW17647   5.277   1.083   2.445
 5583SOL    HW117648   5.323   1.171   2.462
 5583SOL    HW217649   5.272   1.031   2.530
 5584SOL     OW17650   6.989   4.438   4.395
 5584SOL    HW117651   6.902   4.389   4.382
 5584SOL    HW217652   6.971   4.536   4.399
 5585SOL     OW17653   4.527   5.341   2.604
 5585SOL    HW117654   4.471   5.374   2.680
 5585SOL    HW217655   4.585   5.266   2.635
 5586SOL     OW17656   6.866   3.269   6.047
 5586SOL    HW117657   6.901   3.219   5.967
 5586SOL    HW217658   6.928   3.344   6.069
 5587SOL     OW17659   4.340   0.801   6.571
 5587SOL    HW117660   4.421   0.860   6.582
 5587SOL    HW217661   4.318   0.793   6.474
 5588SOL     OW17662   3.129   6.493   1.889
 5588SOL    HW117663   3.127   6.503   1.789
 5588SOL    HW217664   3.179   6.409   1.912
 5589SOL     OW17665   5.998   4.466   6.537
 5589SOL    HW117666   5.978   4.452   6.440
 5589SOL    HW217667   5.925   4.425   6.593
 5590SOL     OW17668   6.058   5.951   4.090
 5590SOL    HW117669   5.983   5.884   4.085
 5590SOL    HW217670   6.118   5.938   4.011
 5591SOL     OW17671   6.672   1.792   1.987
 5591SOL    HW117672   6.701   1.841   2.069
 5591SOL    HW217673   6.576   1.765   1.996
 5592SOL     OW17674   1.014   4.092   3.376
 5592SOL    HW117675   1.076   4.116   3.451
 5592SOL    HW217676   0.930   4.145   3.383
 5593SOL     OW17677   6.728   2.180   0.011
 5593SOL    HW117678   6.761   2.258   0.065
 5593SOL    HW217679   6.690   2.213   6.950
 5594SOL     OW17680   5.458   1.641   5.804
 5594SOL    HW117681   5.448   1.605   5.711
 5594SOL    HW217682   5.394   1.594   5.865
 5595SOL     OW17683   1.046   2.279   5.293
 5595SOL    HW117684   1.057   2.182   5.270
 5595SOL    HW217685   1.115   2.333   5.245
 5596SOL     OW17686   3.944   6.522   2.892
 5596SOL    HW117687   3.917   6.483   2.804
 5596SOL    HW217688   3.871   6.511   2.959
 5597SOL     OW17689   5.209   2.690   3.692
 5597SOL    HW117690   5.134   2.626   3.713
 5597SOL    HW217691   5.262   2.656   3.615
 5598SOL     OW17692   5.015   2.767   4.013
 5598SOL    HW117693   5.112   2.766   3.989
 5598SOL    HW217694   4.980   2.860   4.002
 5599SOL     OW17695   1.099   1.558   4.689
 5599SOL    HW117696   1.190   1.599   4.696
 5599SOL    HW217697   1.055   1.590   4.604
 5600SOL     OW17698   1.419   2.361   4.205
 5600SOL    HW117699   1.387   2.310   4.285
 5600SOL    HW217700   1.363   2.443   4.194
 5601SOL     OW17701   2.440   0.611   6.126
 5601SOL    HW117702   2.506   0.576   6.060
 5601SOL    HW217703   2.379   0.676   6.080
 5602SOL     OW17704   0.322   1.216   1.156
 5602SOL    HW117705   0.226   1.220   1.128
 5602SOL    HW217706   0.376   1.279   1.101
 5603SOL     OW17707   5.192   1.974   7.020
 5603SOL    HW117708   5.148   1.896   6.975
 5603SOL    HW217709   5.289   1.976   6.995
 5604SOL     OW17710   6.200   2.250   5.748
 5604SOL    HW117711   6.218   2.333   5.695
 5604SOL    HW217712   6.263   2.247   5.826
 5605SOL     OW17713   0.531   1.654   4.973
 5605SOL    HW117714   0.593   1.636   5.049
 5605SOL    HW217715   0.436   1.646   5.004
 5606SOL     OW17716   5.057   6.333   1.127
 5606SOL    HW117717   5.048   6.251   1.070
 5606SOL    HW217718   5.056   6.414   1.068
 5607SOL     OW17719   5.266   1.626   1.760
 5607SOL    HW117720   5.199   1.551   1.762
 5607SOL    HW217721   5.230   1.701   1.704
 5608SOL     OW17722   4.595   0.221   5.100
 5608SOL    HW117723   4.645   0.192   5.018
 5608SOL    HW217724   4.616   0.158   5.175
 5609SOL     OW17725   2.544   5.813   6.908
 5609SOL    HW117726   2.575   5.719   6.920
 5609SOL    HW217727   2.618   5.876   6.929
 5610SOL     OW17728   5.162   0.625   0.354
 5610SOL    HW117729   5.186   0.587   0.264
 5610SOL    HW217730   5.245   0.634   0.409
 5611SOL     OW17731   1.778   4.874   2.863
 5611SOL    HW117732   1.787   4.801   2.794
 5611SOL    HW217733   1.862   4.880   2.917
 5612SOL     OW17734   3.641   1.229   6.230
 5612SOL    HW117735   3.549   1.216   6.266
 5612SOL    HW217736   3.707   1.230   6.305
 5613SOL     OW17737   4.566   4.449   2.698
 5613SOL    HW117738   4.481   4.491   2.665
 5613SOL    HW217739   4.589   4.372   2.639
 5614SOL     OW17740   4.458   2.374   3.460
 5614SOL    HW117741   4.425   2.287   3.498
 5614SOL    HW217742   4.489   2.433   3.534
 5615SOL     OW17743   1.133   0.425   7.007
 5615SOL    HW117744   1.200   0.356   0.008
 5615SOL    HW217745   1.091   0.465   0.063
 5616SOL     OW17746   2.331   0.906   5.026
 5616SOL    HW117747   2.426   0.880   5.011
 5616SOL    HW217748   2.283   0.831   5.073
 5617SOL     OW17749   2.509   0.344   5.731
 5617SOL    HW117750   2.554   0.420   5.776
 5617SOL    HW217751   2.463   0.287   5.799
 5618SOL     OW17752   6.390   4.045   4.043
 5618SOL    HW117753   6.292   4.065   4.051
 5618SOL    HW217754   6.436   4.123   4.001
 5619SOL     OW17755   2.777   3.934   6.186
 5619SOL    HW117756   2.747   3.975   6.099
 5619SOL    HW217757   2.864   3.887   6.173
 5620SOL     OW17758   4.184   2.663   0.443
 5620SOL    HW117759   4.267   2.718   0.448
 5620SOL    HW217760   4.208   2.567   0.429
 5621SOL     OW17761   1.803   1.732   6.064
 5621SOL    HW117762   1.825   1.829   6.065
 5621SOL    HW217763   1.851   1.687   6.140
 5622SOL     OW17764   4.859   0.300   5.957
 5622SOL    HW117765   4.923   0.337   5.890
 5622SOL    HW217766   4.879   0.339   6.047
 5623SOL     OW17767   2.050   5.821   6.242
 5623SOL    HW117768   2.027   5.904   6.293
 5623SOL    HW217769   2.144   5.794   6.264
 5624SOL     OW17770   1.334   4.449   3.621
 5624SOL    HW117771   1.342   4.548   3.611
 5624SOL    HW217772   1.238   4.426   3.640
 5625SOL     OW17773   6.588   2.772   4.374
 5625SOL    HW117774   6.566   2.693   4.317
 5625SOL    HW217775   6.530   2.772   4.456
 5626SOL     OW17776   3.381   6.741   4.640
 5626SOL    HW117777   3.428   6.811   4.694
 5626SOL    HW217778   3.308   6.783   4.586
 5627SOL     OW17779   1.703   5.939   1.854
 5627SOL    HW117780   1.723   5.887   1.937
 5627SOL    HW217781   1.743   6.031   1.862
 5628SOL     OW17782   1.741   1.965   5.816
 5628SOL    HW117783   1.839   1.983   5.823
 5628SOL    HW217784   1.702   2.014   5.738
 5629SOL     OW17785   3.319   3.868   2.290
 5629SOL    HW117786   3.362   3.798   2.233
 5629SOL    HW217787   3.348   3.856   2.385
 5630SOL     OW17788   0.785   4.913   0.903
 5630SOL    HW117789   0.794   4.894   1.001
 5630SOL    HW217790   0.770   5.011   0.889
 5631SOL     OW17791   4.346   1.733   7.003
 5631SOL    HW117792   4.432   1.783   7.017
 5631SOL    HW217793   4.272   1.781   0.024
 5632SOL     OW17794   4.283   3.868   6.520
 5632SOL    HW117795   4.370   3.896   6.559
 5632SOL    HW217796   4.213   3.936   6.543
 5633SOL     OW17797   6.936   2.785   3.844
 5633SOL    HW117798   6.923   2.832   3.931
 5633SOL    HW217799   7.015   2.724   3.851
 5634SOL     OW17800   3.641   5.027   4.435
 5634SOL    HW117801   3.566   5.013   4.370
 5634SOL    HW217802   3.604   5.055   4.524
 5635SOL     OW17803   2.540   2.605   5.055
 5635SOL    HW117804   2.497   2.521   5.088
 5635SOL    HW217805   2.523   2.679   5.121
 5636SOL     OW17806   4.164   5.569   3.007
 5636SOL    HW117807   4.163   5.481   3.054
 5636SOL    HW217808   4.071   5.605   3.002
 5637SOL     OW17809   6.323   0.439   4.336
 5637SOL    HW117810   6.253   0.509   4.322
 5637SOL    HW217811   6.413   0.477   4.316
 5638SOL     OW17812   5.952   2.730   0.740
 5638SOL    HW117813   5.927   2.826   0.745
 5638SOL    HW217814   6.031   2.719   0.680
 5639SOL     OW17815   0.214   1.344   6.669
 5639SOL    HW117816   0.143   1.285   6.631
 5639SOL    HW217817   0.220   1.428   6.614
 5640SOL     OW17818   2.544   0.156   3.957
 5640SOL    HW117819   2.521   0.253   3.950
 5640SOL    HW217820   2.641   0.147   3.978
 5641SOL     OW17821   6.632   4.988   5.623
 5641SOL    HW117822   6.582   4.907   5.653
 5641SOL    HW217823   6.695   4.962   5.549
 5642SOL     OW17824   2.002   1.360   6.937
 5642SOL    HW117825   2.023   1.379   6.841
 5642SOL    HW217826   2.030   1.267   6.960
 5643SOL     OW17827   6.178   3.128   4.514
 5643SOL    HW117828   6.083   3.110   4.542
 5643SOL    HW217829   6.186   3.119   4.415
 5644SOL     OW17830   2.960   6.786   6.092
 5644SOL    HW117831   2.876   6.737   6.070
 5644SOL    HW217832   2.937   6.876   6.130
 5645SOL     OW17833   6.002   3.399   3.567
 5645SOL    HW117834   6.049   3.397   3.655
 5645SOL    HW217835   6.049   3.336   3.504
 5646SOL     OW17836   1.987   4.431   2.911
 5646SOL    HW117837   1.933   4.440   2.827
 5646SOL    HW217838   2.075   4.475   2.899
 5647SOL     OW17839   5.758   5.972   2.446
 5647SOL    HW117840   5.658   5.971   2.455
 5647SOL    HW217841   5.799   5.989   2.535
 5648SOL     OW17842   3.531   6.173   3.150
 5648SOL    HW117843   3.587   6.091   3.157
 5648SOL    HW217844   3.534   6.207   3.056
 5649SOL     OW17845   0.957   5.359   3.901
 5649SOL    HW117846   0.984   5.440   3.849
 5649SOL    HW217847   1.026   5.288   3.890
 5650SOL     OW17848   0.071   4.750   0.828
 5650SOL    HW117849   0.128   4.669   0.841
 5650SOL    HW217850   0.118   4.815   0.768
 5651SOL     OW17851   1.558   0.748   0.656
 5651SOL    HW117852   1.485   0.717   0.716
 5651SOL    HW217853   1.642   0.762   0.709
 5652SOL     OW17854   0.825   4.824   1.907
 5652SOL    HW117855   0.787   4.857   1.820
 5652SOL    HW217856   0.784   4.736   1.930
 5653SOL     OW17857   0.098   6.216   1.660
 5653SOL    HW117858   0.013   6.252   1.622
 5653SOL    HW217859   0.174   6.276   1.636
 5654SOL     OW17860   1.515   6.429   5.027
 5654SOL    HW117861   1.461   6.456   4.948
 5654SOL    HW217862   1.576   6.504   5.054
 5655SOL     OW17863   6.708   3.076   4.097
 5655SOL    HW117864   6.710   3.079   3.997
 5655SOL    HW217865   6.746   3.161   4.134
 5656SOL     OW17866   7.001   3.240   6.324
 5656SOL    HW117867   0.019   3.262   6.237
 5656SOL    HW217868   0.018   3.158   6.362
 5657SOL     OW17869   4.490   5.306   4.816
 5657SOL    HW117870   4.557   5.379   4.831
 5657SOL    HW217871   4.517   5.253   4.735
 5658SOL     OW17872   1.933   2.160   5.588
 5658SOL    HW117873   1.856   2.118   5.540
 5658SOL    HW217874   2.017   2.144   5.536
 5659SOL     OW17875   3.059   3.909   6.271
 5659SOL    HW117876   3.085   3.825   6.320
 5659SOL    HW217877   3.003   3.966   6.331
 5660SOL     OW17878   4.664   0.220   6.828
 5660SOL    HW117879   4.590   0.281   6.859
 5660SOL    HW217880   4.752   0.261   6.850
 5661SOL     OW17881   0.814   5.912   5.663
 5661SOL    HW117882   0.790   5.836   5.724
 5661SOL    HW217883   0.732   5.946   5.619
 5662SOL     OW17884   2.791   6.318   3.057
 5662SOL    HW117885   2.852   6.331   2.979
 5662SOL    HW217886   2.791   6.221   3.084
 5663SOL     OW17887   1.281   2.923   0.530
 5663SOL    HW117888   1.257   2.885   0.619
 5663SOL    HW217889   1.364   2.879   0.495
 5664SOL     OW17890   5.062   4.233   4.478
 5664SOL    HW117891   4.967   4.224   4.508
 5664SOL    HW217892   5.068   4.215   4.380
 5665SOL     OW17893   2.153   0.291   1.123
 5665SOL    HW117894   2.160   0.378   1.074
 5665SOL    HW217895   2.099   0.227   1.068
 5666SOL     OW17896   6.319   0.850   4.734
 5666SOL    HW117897   6.373   0.900   4.667
 5666SOL    HW217898   6.222   0.875   4.723
 5667SOL     OW17899   2.011   5.423   4.900
 5667SOL    HW117900   2.104   5.401   4.932
 5667SOL    HW217901   1.975   5.499   4.955
 5668SOL     OW17902   5.567   2.798   3.500
 5668SOL    HW117903   5.627   2.829   3.427
 5668SOL    HW217904   5.538   2.877   3.555
 5669SOL     OW17905   6.295   3.804   6.770
 5669SOL    HW117906   6.310   3.828   6.674
 5669SOL    HW217907   6.210   3.847   6.802
 5670SOL     OW17908   0.621   2.485   2.334
 5670SOL    HW117909   0.714   2.521   2.322
 5670SOL    HW217910   0.605   2.414   2.266
 5671SOL     OW17911   0.806   7.025   3.842
 5671SOL    HW117912   0.844   7.002   3.931
 5671SOL    HW217913   0.770   6.942   3.798
 5672SOL     OW17914   5.218   4.095   4.939
 5672SOL    HW117915   5.154   4.157   4.985
 5672SOL    HW217916   5.225   4.121   4.843
 5673SOL     OW17917   0.993   0.474   1.079
 5673SOL    HW117918   0.922   0.455   1.147
 5673SOL    HW217919   1.063   0.532   1.120
 5674SOL     OW17920   1.117   5.802   5.158
 5674SOL    HW117921   1.112   5.898   5.130
 5674SOL    HW217922   1.048   5.785   5.229
 5675SOL     OW17923   2.543   1.583   0.044
 5675SOL    HW117924   2.641   1.594   0.026
 5675SOL    HW217925   2.492   1.597   6.985
 5676SOL     OW17926   2.729   2.155   1.945
 5676SOL    HW117927   2.807   2.195   1.993
 5676SOL    HW217928   2.712   2.206   1.860
 5677SOL     OW17929   0.068   0.168   1.334
 5677SOL    HW117930   0.121   0.083   1.337
 5677SOL    HW217931   0.082   0.219   1.419
 5678SOL     OW17932   2.945   1.746   1.614
 5678SOL    HW117933   3.039   1.779   1.604
 5678SOL    HW217934   2.904   1.787   1.696
 5679SOL     OW17935   5.810   3.452   4.857
 5679SOL    HW117936   5.733   3.440   4.919
 5679SOL    HW217937   5.780   3.499   4.774
 5680SOL     OW17938   1.318   5.562   5.786
 5680SOL    HW117939   1.381   5.495   5.747
 5680SOL    HW217940   1.365   5.612   5.859
 5681SOL     OW17941   0.192   4.289   2.786
 5681SOL    HW117942   0.206   4.355   2.712
 5681SOL    HW217943   0.122   4.324   2.848
 5682SOL     OW17944   2.045   4.252   2.328
 5682SOL    HW117945   2.027   4.325   2.262
 5682SOL    HW217946   2.126   4.200   2.299
 5683SOL     OW17947   4.491   2.037   6.854
 5683SOL    HW117948   4.466   2.067   6.761
 5683SOL    HW217949   4.447   2.097   6.921
 5684SOL     OW17950   2.244   2.739   5.371
 5684SOL    HW117951   2.284   2.686   5.446
 5684SOL    HW217952   2.145   2.743   5.383
 5685SOL     OW17953   2.509   2.112   3.709
 5685SOL    HW117954   2.421   2.104   3.663
 5685SOL    HW217955   2.524   2.032   3.767
 5686SOL     OW17956   3.195   6.641   6.102
 5686SOL    HW117957   3.111   6.696   6.105
 5686SOL    HW217958   3.216   6.617   6.008
 5687SOL     OW17959   1.523   6.563   5.527
 5687SOL    HW117960   1.525   6.501   5.605
 5687SOL    HW217961   1.485   6.651   5.554
 5688SOL     OW17962   2.129   3.154   3.283
 5688SOL    HW117963   2.036   3.131   3.311
 5688SOL    HW217964   2.163   3.229   3.339
 5689SOL     OW17965   1.336   1.366   1.828
 5689SOL    HW117966   1.286   1.315   1.899
 5689SOL    HW217967   1.420   1.404   1.868
 5690SOL     OW17968   1.299   5.757   0.330
 5690SOL    HW117969   1.265   5.771   0.237
 5690SOL    HW217970   1.335   5.664   0.339
 5691SOL     OW17971   3.943   0.901   2.612
 5691SOL    HW117972   3.991   0.981   2.575
 5691SOL    HW217973   3.847   0.906   2.586
 5692SOL     OW17974   4.895   5.240   1.378
 5692SOL    HW117975   4.960   5.236   1.454
 5692SOL    HW217976   4.824   5.171   1.392
 5693SOL     OW17977   3.154   0.743   1.219
 5693SOL    HW117978   3.186   0.717   1.128
 5693SOL    HW217979   3.175   0.670   1.284
 5694SOL     OW17980   0.657   0.122   2.256
 5694SOL    HW117981   0.646   0.094   2.161
 5694SOL    HW217982   0.753   0.139   2.275
 5695SOL     OW17983   0.918   0.572   0.814
 5695SOL    HW117984   0.937   0.539   0.907
 5695SOL    HW217985   1.004   0.594   0.768
 5696SOL     OW17986   1.642   6.977   4.363
 5696SOL    HW117987   1.617   6.908   4.431
 5696SOL    HW217988   1.722   0.002   4.396
 5697SOL     OW17989   6.782   2.965   0.883
 5697SOL    HW117990   6.868   3.009   0.911
 5697SOL    HW217991   6.774   2.876   0.928
 5698SOL     OW17992   1.971   3.175   3.624
 5698SOL    HW117993   2.014   3.095   3.666
 5698SOL    HW217994   1.900   3.146   3.560
 5699SOL     OW17995   2.493   2.648   3.166
 5699SOL    HW117996   2.479   2.602   3.078
 5699SOL    HW217997   2.576   2.614   3.208
 5700SOL     OW17998   6.040   0.219   2.862
 5700SOL    HW117999   5.978   0.141   2.855
 5700SOL    HW218000   6.135   0.186   2.864
 5701SOL     OW18001   6.684   0.739   0.627
 5701SOL    HW118002   6.659   0.644   0.607
 5701SOL    HW218003   6.607   0.799   0.604
 5702SOL     OW18004   2.508   6.701   4.576
 5702SOL    HW118005   2.461   6.646   4.646
 5702SOL    HW218006   2.567   6.768   4.620
 5703SOL     OW18007   6.156   2.800   6.330
 5703SOL    HW118008   6.090   2.871   6.304
 5703SOL    HW218009   6.238   2.807   6.272
 5704SOL     OW18010   5.465   4.371   3.757
 5704SOL    HW118011   5.480   4.469   3.767
 5704SOL    HW218012   5.460   4.329   3.848
 5705SOL     OW18013   5.906   6.418   6.302
 5705SOL    HW118014   5.840   6.491   6.285
 5705SOL    HW218015   5.885   6.373   6.389
 5706SOL     OW18016   5.950   2.160   0.344
 5706SOL    HW118017   5.973   2.173   0.248
 5706SOL    HW218018   5.941   2.062   0.363
 5707SOL     OW18019   5.420   6.292   2.108
 5707SOL    HW118020   5.381   6.241   2.032
 5707SOL    HW218021   5.518   6.276   2.113
 5708SOL     OW18022   4.762   6.010   3.809
 5708SOL    HW118023   4.746   5.941   3.739
 5708SOL    HW218024   4.754   6.101   3.768
 5709SOL     OW18025   0.572   1.269   2.108
 5709SOL    HW118026   0.628   1.195   2.071
 5709SOL    HW218027   0.569   1.344   2.043
 5710SOL     OW18028   2.317   2.439   1.150
 5710SOL    HW118029   2.296   2.513   1.086
 5710SOL    HW218030   2.232   2.402   1.188
 5711SOL     OW18031   5.287   1.685   2.045
 5711SOL    HW118032   5.361   1.634   2.087
 5711SOL    HW218033   5.276   1.655   1.950
 5712SOL     OW18034   6.991   6.041   1.829
 5712SOL    HW118035   6.962   5.990   1.748
 5712SOL    HW218036   0.010   6.126   1.801
 5713SOL     OW18037   2.545   6.285   0.384
 5713SOL    HW118038   2.597   6.249   0.306
 5713SOL    HW218039   2.572   6.380   0.401
 5714SOL     OW18040   6.281   6.504   1.909
 5714SOL    HW118041   6.290   6.577   1.841
 5714SOL    HW218042   6.188   6.505   1.946
 5715SOL     OW18043   0.972   0.048   0.831
 5715SOL    HW118044   1.020   7.013   0.894
 5715SOL    HW218045   1.004   0.142   0.843
 5716SOL     OW18046   0.260   4.547   5.907
 5716SOL    HW118047   0.164   4.538   5.879
 5716SOL    HW218048   0.267   4.614   5.981
 5717SOL     OW18049   1.693   5.116   2.982
 5717SOL    HW118050   1.622   5.068   3.033
 5717SOL    HW218051   1.701   5.076   2.891
 5718SOL     OW18052   1.048   3.038   0.482
 5718SOL    HW118053   1.132   2.984   0.485
 5718SOL    HW218054   1.002   3.024   0.395
 5719SOL     OW18055   3.109   4.050   1.186
 5719SOL    HW118056   3.057   4.136   1.187
 5719SOL    HW218057   3.202   4.068   1.218
 5720SOL     OW18058   1.858   5.273   5.839
 5720SOL    HW118059   1.889   5.202   5.902
 5720SOL    HW218060   1.934   5.335   5.819
 5721SOL     OW18061   4.536   4.972   0.501
 5721SOL    HW118062   4.519   5.024   0.585
 5721SOL    HW218063   4.604   4.901   0.520
 5722SOL     OW18064   0.964   1.084   5.371
 5722SOL    HW118065   0.977   1.028   5.454
 5722SOL    HW218066   0.947   1.024   5.293
 5723SOL     OW18067   4.258   3.353   0.100
 5723SOL    HW118068   4.211   3.355   0.012
 5723SOL    HW218069   4.210   3.292   0.163
 5724SOL     OW18070   5.206   2.124   3.860
 5724SOL    HW118071   5.276   2.082   3.801
 5724SOL    HW218072   5.168   2.055   3.921
 5725SOL     OW18073   6.657   4.002   3.564
 5725SOL    HW118074   6.658   3.970   3.470
 5725SOL    HW218075   6.708   3.938   3.622
 5726SOL     OW18076   4.875   4.580   3.266
 5726SOL    HW118077   4.948   4.542   3.323
 5726SOL    HW218078   4.888   4.550   3.172
 5727SOL     OW18079   0.880   2.355   4.434
 5727SOL    HW118080   0.938   2.280   4.403
 5727SOL    HW218081   0.911   2.386   4.524
 5728SOL     OW18082   5.302   6.470   4.947
 5728SOL    HW118083   5.248   6.402   4.897
 5728SOL    HW218084   5.247   6.508   5.021
 5729SOL     OW18085   2.143   1.266   5.931
 5729SOL    HW118086   2.070   1.221   5.880
 5729SOL    HW218087   2.103   1.326   6.001
 5730SOL     OW18088   6.484   4.163   5.940
 5730SOL    HW118089   6.477   4.073   5.984
 5730SOL    HW218090   6.400   4.182   5.889
 5731SOL     OW18091   0.531   6.367   1.542
 5731SOL    HW118092   0.503   6.291   1.600
 5731SOL    HW218093   0.545   6.335   1.448
 5732SOL     OW18094   1.570   6.923   4.084
 5732SOL    HW118095   1.589   7.009   4.037
 5732SOL    HW218096   1.586   6.934   4.182
 5733SOL     OW18097   3.273   6.944   5.077
 5733SOL    HW118098   3.236   7.025   5.032
 5733SOL    HW218099   3.286   6.963   5.174
 5734SOL     OW18100   1.561   5.600   3.257
 5734SOL    HW118101   1.562   5.698   3.236
 5734SOL    HW218102   1.650   5.572   3.291
 5735SOL     OW18103   3.362   1.366   2.143
 5735SOL    HW118104   3.427   1.437   2.171
 5735SOL    HW218105   3.408   1.301   2.082
 5736SOL     OW18106   0.647   5.491   6.941
 5736SOL    HW118107   0.609   5.577   6.976
 5736SOL    HW218108   0.642   5.421   7.013
 5737SOL     OW18109   5.015   4.771   0.414
 5737SOL    HW118110   5.018   4.818   0.502
 5737SOL    HW218111   4.939   4.706   0.413
 5738SOL     OW18112   0.899   3.858   6.063
 5738SOL    HW118113   0.998   3.858   6.077
 5738SOL    HW218114   0.877   3.910   5.980
 5739SOL     OW18115   0.863   1.394   0.998
 5739SOL    HW118116   0.810   1.477   1.015
 5739SOL    HW218117   0.958   1.418   0.980
 5740SOL     OW18118   3.990   6.196   6.223
 5740SOL    HW118119   3.946   6.158   6.142
 5740SOL    HW218120   3.947   6.159   6.305
 5741SOL     OW18121   1.017   5.491   4.450
 5741SOL    HW118122   1.022   5.533   4.360
 5741SOL    HW218123   0.992   5.394   4.440
 5742SOL     OW18124   6.695   6.794   3.865
 5742SOL    HW118125   6.685   6.770   3.962
 5742SOL    HW218126   6.646   6.880   3.847
 5743SOL     OW18127   1.977   0.026   5.129
 5743SOL    HW118128   1.978   6.960   5.170
 5743SOL    HW218129   2.046   0.031   5.057
 5744SOL     OW18130   6.395   0.446   2.291
 5744SOL    HW118131   6.305   0.419   2.325
 5744SOL    HW218132   6.389   0.537   2.250
 5745SOL     OW18133   2.033   1.773   3.510
 5745SOL    HW118134   1.994   1.687   3.542
 5745SOL    HW218135   1.979   1.849   3.543
 5746SOL     OW18136   5.486   2.727   6.897
 5746SOL    HW118137   5.482   2.732   6.797
 5746SOL    HW218138   5.480   2.632   6.926
 5747SOL     OW18139   0.956   5.699   3.003
 5747SOL    HW118140   1.052   5.712   2.979
 5747SOL    HW218141   0.906   5.667   2.922
 5748SOL     OW18142   2.567   6.005   2.857
 5748SOL    HW118143   2.523   6.087   2.821
 5748SOL    HW218144   2.583   6.016   2.955
 5749SOL     OW18145   2.621   1.717   3.339
 5749SOL    HW118146   2.694   1.784   3.331
 5749SOL    HW218147   2.558   1.727   3.262
 5750SOL     OW18148   6.724   5.780   2.807
 5750SOL    HW118149   6.798   5.840   2.836
 5750SOL    HW218150   6.665   5.760   2.885
 5751SOL     OW18151   2.351   3.720   5.601
 5751SOL    HW118152   2.280   3.650   5.608
 5751SOL    HW218153   2.409   3.701   5.522
 5752SOL     OW18154   6.648   7.005   6.843
 5752SOL    HW118155   6.676   0.048   6.775
 5752SOL    HW218156   6.671   6.914   6.809
 5753SOL     OW18157   3.668   2.659   0.393
 5753SOL    HW118158   3.727   2.669   0.472
 5753SOL    HW218159   3.664   2.563   0.366
 5754SOL     OW18160   6.348   4.506   1.710
 5754SOL    HW118161   6.284   4.564   1.761
 5754SOL    HW218162   6.315   4.495   1.617
 5755SOL     OW18163   3.458   4.016   0.835
 5755SOL    HW118164   3.391   3.950   0.870
 5755SOL    HW218165   3.451   4.020   0.736
 5756SOL     OW18166   6.938   5.544   4.567
 5756SOL    HW118167   6.864   5.559   4.633
 5756SOL    HW218168   6.977   5.633   4.541
 5757SOL     OW18169   0.438   4.702   1.038
 5757SOL    HW118170   0.503   4.678   1.110
 5757SOL    HW218171   0.370   4.766   1.074
 5758SOL     OW18172   1.300   1.937   5.550
 5758SOL    HW118173   1.351   1.862   5.592
 5758SOL    HW218174   1.267   1.999   5.622
 5759SOL     OW18175   5.614   1.534   5.515
 5759SOL    HW118176   5.680   1.480   5.567
 5759SOL    HW218177   5.653   1.624   5.494
 5760SOL     OW18178   2.047   5.400   2.382
 5760SOL    HW118179   2.087   5.412   2.473
 5760SOL    HW218180   2.023   5.304   2.369
 5761SOL     OW18181   4.714   0.141   4.860
 5761SOL    HW118182   4.749   0.049   4.843
 5761SOL    HW218183   4.791   0.201   4.884
 5762SOL     OW18184   5.991   6.108   1.771
 5762SOL    HW118185   6.014   6.024   1.821
 5762SOL    HW218186   6.056   6.180   1.797
 5763SOL     OW18187   1.370   0.931   1.676
 5763SOL    HW118188   1.425   0.949   1.758
 5763SOL    HW218189   1.419   0.964   1.595
 5764SOL     OW18190   4.907   3.315   5.281
 5764SOL    HW118191   4.915   3.413   5.296
 5764SOL    HW218192   4.894   3.268   5.369
 5765SOL     OW18193   5.672   4.778   0.146
 5765SOL    HW118194   5.681   4.748   0.051
 5765SOL    HW218195   5.650   4.876   0.148
 5766SOL     OW18196   3.545   1.587   2.837
 5766SOL    HW118197   3.581   1.541   2.918
 5766SOL    HW218198   3.569   1.684   2.840
 5767SOL     OW18199   0.511   6.203   1.757
 5767SOL    HW118200   0.463   6.255   1.827
 5767SOL    HW218201   0.609   6.215   1.768
 5768SOL     OW18202   6.106   1.596   2.816
 5768SOL    HW118203   6.192   1.544   2.812
 5768SOL    HW218204   6.092   1.643   2.729
 5769SOL     OW18205   2.242   5.377   3.897
 5769SOL    HW118206   2.156   5.326   3.897
 5769SOL    HW218207   2.247   5.432   3.814
 5770SOL     OW18208   6.320   0.660   1.394
 5770SOL    HW118209   6.303   0.756   1.415
 5770SOL    HW218210   6.313   0.606   1.478
 5771SOL     OW18211   0.656   1.645   1.574
 5771SOL    HW118212   0.755   1.632   1.565
 5771SOL    HW218213   0.638   1.717   1.642
 5772SOL     OW18214   6.488   4.097   6.942
 5772SOL    HW118215   6.512   4.113   0.012
 5772SOL    HW218216   6.542   4.021   6.906
 5773SOL     OW18217   5.766   5.835   4.337
 5773SOL    HW118218   5.706   5.900   4.291
 5773SOL    HW218219   5.814   5.780   4.268
 5774SOL     OW18220   1.946   5.198   3.629
 5774SOL    HW118221   1.915   5.120   3.574
 5774SOL    HW218222   1.874   5.267   3.630
 5775SOL     OW18223   0.149   0.281   6.724
 5775SOL    HW118224   0.123   0.355   6.662
 5775SOL    HW218225   0.101   0.291   6.811
 5776SOL     OW18226   5.119   0.872   5.073
 5776SOL    HW118227   5.112   0.879   5.173
 5776SOL    HW218228   5.124   0.775   5.047
 5777SOL     OW18229   6.770   0.865   5.344
 5777SOL    HW118230   6.715   0.879   5.263
 5777SOL    HW218231   6.865   0.893   5.326
 5778SOL     OW18232   2.312   6.682   3.845
 5778SOL    HW118233   2.290   6.646   3.936
 5778SOL    HW218234   2.392   6.741   3.851
 5779SOL     OW18235   4.774   1.520   2.078
 5779SOL    HW118236   4.810   1.451   2.014
 5779SOL    HW218237   4.809   1.502   2.170
 5780SOL     OW18238   5.591   4.024   1.272
 5780SOL    HW118239   5.592   4.030   1.372
 5780SOL    HW218240   5.656   3.953   1.242
 5781SOL     OW18241   1.973   5.554   4.432
 5781SOL    HW118242   2.064   5.533   4.396
 5781SOL    HW218243   1.959   5.505   4.518
 5782SOL     OW18244   2.983   1.740   2.579
 5782SOL    HW118245   2.962   1.702   2.489
 5782SOL    HW218246   2.902   1.787   2.614
 5783SOL     OW18247   1.428   0.076   0.947
 5783SOL    HW118248   1.504   0.033   0.995
 5783SOL    HW218249   1.413   0.030   0.859
 5784SOL     OW18250   1.584   5.707   6.930
 5784SOL    HW118251   1.540   5.794   6.906
 5784SOL    HW218252   1.595   5.651   6.848
 5785SOL     OW18253   1.982   1.959   0.212
 5785SOL    HW118254   1.964   2.031   0.146
 5785SOL    HW218255   1.997   1.872   0.164
 5786SOL     OW18256   1.265   3.530   1.244
 5786SOL    HW118257   1.319   3.529   1.160
 5786SOL    HW218258   1.281   3.615   1.293
 5787SOL     OW18259   6.859   3.186   5.560
 5787SOL    HW118260   6.957   3.204   5.573
 5787SOL    HW218261   6.813   3.189   5.648
 5788SOL     OW18262   2.440   1.912   2.335
 5788SOL    HW118263   2.517   1.922   2.398
 5788SOL    HW218264   2.398   2.001   2.318
 5789SOL     OW18265   3.123   4.718   6.560
 5789SOL    HW118266   3.097   4.742   6.467
 5789SOL    HW218267   3.202   4.657   6.558
 5790SOL     OW18268   5.951   6.175   4.219
 5790SOL    HW118269   5.974   6.096   4.162
 5790SOL    HW218270   5.854   6.195   4.211
 5791SOL     OW18271   3.769   1.359   1.839
 5791SOL    HW118272   3.839   1.298   1.876
 5791SOL    HW218273   3.769   1.444   1.892
 5792SOL     OW18274   5.219   3.159   3.091
 5792SOL    HW118275   5.220   3.118   3.182
 5792SOL    HW218276   5.278   3.107   3.030
 5793SOL     OW18277   4.279   2.438   5.811
 5793SOL    HW118278   4.181   2.447   5.796
 5793SOL    HW218279   4.318   2.376   5.743
 5794SOL     OW18280   4.420   6.819   0.243
 5794SOL    HW118281   4.358   6.891   0.212
 5794SOL    HW218282   4.367   6.748   0.291
 5795SOL     OW18283   2.336   5.763   1.619
 5795SOL    HW118284   2.282   5.814   1.551
 5795SOL    HW218285   2.432   5.767   1.594
 5796SOL     OW18286   4.689   1.859   6.751
 5796SOL    HW118287   4.631   1.926   6.797
 5796SOL    HW218288   4.783   1.894   6.746
 5797SOL     OW18289   5.532   2.394   0.896
 5797SOL    HW118290   5.587   2.478   0.907
 5797SOL    HW218291   5.435   2.417   0.895
 5798SOL     OW18292   1.599   3.582   5.297
 5798SOL    HW118293   1.583   3.668   5.250
 5798SOL    HW218294   1.631   3.513   5.232
 5799SOL     OW18295   2.471   6.543   3.449
 5799SOL    HW118296   2.445   6.558   3.354
 5799SOL    HW218297   2.419   6.466   3.486
 5800SOL     OW18298   1.153   6.909   1.038
 5800SOL    HW118299   1.158   6.865   1.127
 5800SOL    HW218300   1.214   6.988   1.035
 5801SOL     OW18301   1.931   1.476   2.086
 5801SOL    HW118302   2.012   1.531   2.106
 5801SOL    HW218303   1.849   1.529   2.110
 5802SOL     OW18304   0.106   0.839   2.019
 5802SOL    HW118305   0.055   0.890   1.950
 5802SOL    HW218306   0.204   0.854   2.007
 5803SOL     OW18307   0.554   5.287   4.049
 5803SOL    HW118308   0.600   5.214   3.999
 5803SOL    HW218309   0.553   5.265   4.147
 5804SOL     OW18310   5.857   1.231   3.524
 5804SOL    HW118311   5.829   1.250   3.430
 5804SOL    HW218312   5.893   1.138   3.530
 5805SOL     OW18313   1.183   2.635   1.848
 5805SOL    HW118314   1.141   2.717   1.811
 5805SOL    HW218315   1.214   2.577   1.772
 5806SOL     OW18316   6.306   4.198   2.053
 5806SOL    HW118317   6.229   4.262   2.055
 5806SOL    HW218318   6.276   4.110   2.018
 5807SOL     OW18319   1.530   0.530   1.287
 5807SOL    HW118320   1.596   0.463   1.320
 5807SOL    HW218321   1.535   0.612   1.344
 5808SOL     OW18322   6.582   6.647   5.842
 5808SOL    HW118323   6.531   6.652   5.928
 5808SOL    HW218324   6.680   6.654   5.860
 5809SOL     OW18325   1.057   1.843   5.430
 5809SOL    HW118326   1.142   1.859   5.480
 5809SOL    HW218327   1.041   1.919   5.366
 5810SOL     OW18328   3.144   6.863   5.585
 5810SOL    HW118329   3.051   6.876   5.550
 5810SOL    HW218330   3.145   6.877   5.683
 5811SOL     OW18331   3.315   4.206   6.836
 5811SOL    HW118332   3.363   4.288   6.806
 5811SOL    HW218333   3.305   4.208   6.936
 5812SOL     OW18334   6.038   2.171   0.071
 5812SOL    HW118335   6.137   2.167   0.064
 5812SOL    HW218336   5.997   2.156   7.007
 5813SOL     OW18337   4.997   6.147   0.571
 5813SOL    HW118338   4.954   6.083   0.635
 5813SOL    HW218339   5.091   6.118   0.552
 5814SOL     OW18340   5.227   1.422   1.399
 5814SOL    HW118341   5.192   1.420   1.306
 5814SOL    HW218342   5.178   1.491   1.452
 5815SOL     OW18343   6.849   1.881   4.049
 5815SOL    HW118344   6.897   1.908   4.132
 5815SOL    HW218345   6.914   1.839   3.986
 5816SOL     OW18346   0.268   3.507   2.569
 5816SOL    HW118347   0.276   3.425   2.512
 5816SOL    HW218348   0.263   3.479   2.665
 5817SOL     OW18349   6.109   3.617   3.089
 5817SOL    HW118350   6.067   3.699   3.050
 5817SOL    HW218351   6.149   3.638   3.178
 5818SOL     OW18352   2.550   0.458   5.008
 5818SOL    HW118353   2.538   0.368   5.050
 5818SOL    HW218354   2.639   0.495   5.031
 5819SOL     OW18355   4.475   5.595   0.275
 5819SOL    HW118356   4.533   5.521   0.308
 5819SOL    HW218357   4.462   5.662   0.348
 5820SOL     OW18358   5.227   5.947   2.124
 5820SOL    HW118359   5.127   5.958   2.127
 5820SOL    HW218360   5.267   6.025   2.076
 5821SOL     OW18361   0.285   6.581   0.897
 5821SOL    HW118362   0.222   6.506   0.873
 5821SOL    HW218363   0.261   6.662   0.843
 5822SOL     OW18364   1.839   3.170   2.717
 5822SOL    HW118365   1.846   3.099   2.787
 5822SOL    HW218366   1.751   3.163   2.670
 5823SOL     OW18367   1.996   4.980   3.420
 5823SOL    HW118368   2.062   4.909   3.444
 5823SOL    HW218369   1.906   4.955   3.453
 5824SOL     OW18370   1.153   1.223   2.422
 5824SOL    HW118371   1.108   1.234   2.334
 5824SOL    HW218372   1.112   1.284   2.489
 5825SOL     OW18373   5.601   1.221   4.393
 5825SOL    HW118374   5.519   1.265   4.357
 5825SOL    HW218375   5.576   1.156   4.464
 5826SOL     OW18376   0.644   6.854   5.126
 5826SOL    HW118377   0.740   6.869   5.102
 5826SOL    HW218378   0.608   6.933   5.174
 5827SOL     OW18379   2.218   3.895   3.623
 5827SOL    HW118380   2.187   3.800   3.624
 5827SOL    HW218381   2.317   3.898   3.631
 5828SOL     OW18382   3.496   0.382   4.706
 5828SOL    HW118383   3.509   0.329   4.623
 5828SOL    HW218384   3.571   0.447   4.717
 5829SOL     OW18385   2.296   0.782   4.002
 5829SOL    HW118386   2.373   0.758   3.943
 5829SOL    HW218387   2.245   0.858   3.960
 5830SOL     OW18388   3.992   5.001   4.145
 5830SOL    HW118389   4.029   5.091   4.165
 5830SOL    HW218390   3.953   4.961   4.228
 5831SOL     OW18391   1.731   2.496   5.424
 5831SOL    HW118392   1.804   2.486   5.356
 5831SOL    HW218393   1.643   2.479   5.380
 5832SOL     OW18394   2.998   5.188   1.811
 5832SOL    HW118395   2.970   5.166   1.717
 5832SOL    HW218396   3.002   5.287   1.822
 5833SOL     OW18397   3.429   4.699   7.005
 5833SOL    HW118398   3.474   4.638   6.939
 5833SOL    HW218399   3.492   4.773   0.004
 5834SOL     OW18400   5.495   2.677   6.272
 5834SOL    HW118401   5.437   2.739   6.324
 5834SOL    HW218402   5.466   2.583   6.287
 5835SOL     OW18403   5.155   2.259   3.054
 5835SOL    HW118404   5.082   2.324   3.030
 5835SOL    HW218405   5.115   2.181   3.102
 5836SOL     OW18406   4.785   6.181   3.228
 5836SOL    HW118407   4.852   6.246   3.193
 5836SOL    HW218408   4.719   6.229   3.286
 5837SOL     OW18409   2.888   5.330   0.109
 5837SOL    HW118410   2.879   5.280   0.023
 5837SOL    HW218411   2.984   5.348   0.128
 5838SOL     OW18412   3.796   2.376   0.954
 5838SOL    HW118413   3.757   2.308   0.891
 5838SOL    HW218414   3.742   2.378   1.038
 5839SOL     OW18415   1.680   2.360   0.694
 5839SOL    HW118416   1.692   2.399   0.786
 5839SOL    HW218417   1.760   2.381   0.638
 5840SOL     OW18418   0.273   3.119   2.970
 5840SOL    HW118419   0.319   3.137   3.057
 5840SOL    HW218420   0.175   3.126   2.982
 5841SOL     OW18421   5.461   2.073   0.178
 5841SOL    HW118422   5.527   2.053   0.250
 5841SOL    HW218423   5.371   2.042   0.206
 5842SOL     OW18424   2.166   2.709   1.681
 5842SOL    HW118425   2.164   2.609   1.678
 5842SOL    HW218426   2.204   2.738   1.769
 5843SOL     OW18427   2.597   3.910   0.797
 5843SOL    HW118428   2.523   3.969   0.764
 5843SOL    HW218429   2.577   3.882   0.891
 5844SOL     OW18430   0.376   6.497   5.274
 5844SOL    HW118431   0.340   6.543   5.193
 5844SOL    HW218432   0.476   6.505   5.276
 5845SOL     OW18433   1.262   6.790   2.319
 5845SOL    HW118434   1.276   6.723   2.245
 5845SOL    HW218435   1.313   6.873   2.298
 5846SOL     OW18436   6.639   4.108   5.486
 5846SOL    HW118437   6.707   4.048   5.443
 5846SOL    HW218438   6.657   4.113   5.585
 5847SOL     OW18439   2.602   4.305   6.476
 5847SOL    HW118440   2.572   4.355   6.395
 5847SOL    HW218441   2.529   4.241   6.504
 5848SOL     OW18442   2.213   5.541   2.198
 5848SOL    HW118443   2.168   5.476   2.259
 5848SOL    HW218444   2.162   5.547   2.113
 5849SOL     OW18445   3.919   6.131   5.353
 5849SOL    HW118446   3.999   6.187   5.376
 5849SOL    HW218447   3.876   6.097   5.437
 5850SOL     OW18448   0.845   1.490   3.037
 5850SOL    HW118449   0.809   1.420   2.975
 5850SOL    HW218450   0.821   1.466   3.131
 5851SOL     OW18451   6.467   3.586   4.047
 5851SOL    HW118452   6.460   3.645   4.128
 5851SOL    HW218453   6.564   3.566   4.029
 5852SOL     OW18454   4.833   3.973   2.403
 5852SOL    HW118455   4.856   3.876   2.397
 5852SOL    HW218456   4.808   4.007   2.312
 5853SOL     OW18457   3.973   5.011   6.098
 5853SOL    HW118458   3.988   5.028   6.195
 5853SOL    HW218459   3.891   4.956   6.086
 5854SOL     OW18460   2.838   4.769   5.325
 5854SOL    HW118461   2.884   4.720   5.251
 5854SOL    HW218462   2.857   4.724   5.412
 5855SOL     OW18463   2.244   2.718   3.244
 5855SOL    HW118464   2.338   2.697   3.218
 5855SOL    HW218465   2.182   2.648   3.210
 5856SOL     OW18466   1.172   0.049   3.119
 5856SOL    HW118467   1.113   0.104   3.060
 5856SOL    HW218468   1.132   6.984   3.133
 5857SOL     OW18469   5.783   4.652   6.554
 5857SOL    HW118470   5.780   4.730   6.491
 5857SOL    HW218471   5.872   4.650   6.600
 5858SOL     OW18472   1.457   1.157   3.155
 5858SOL    HW118473   1.391   1.202   3.216
 5858SOL    HW218474   1.412   1.082   3.107
 5859SOL     OW18475   6.121   6.555   1.311
 5859SOL    HW118476   6.190   6.483   1.316
 5859SOL    HW218477   6.032   6.518   1.337
 5860SOL     OW18478   0.233   4.651   3.360
 5860SOL    HW118479   0.253   4.553   3.360
 5860SOL    HW218480   0.211   4.681   3.453
 5861SOL     OW18481   5.099   0.895   5.396
 5861SOL    HW118482   5.033   0.864   5.464
 5861SOL    HW218483   5.189   0.903   5.437
 5862SOL     OW18484   6.827   5.673   2.582
 5862SOL    HW118485   6.824   5.704   2.677
 5862SOL    HW218486   6.796   5.747   2.522
 5863SOL     OW18487   4.121   6.809   6.772
 5863SOL    HW118488   4.100   6.866   6.693
 5863SOL    HW218489   4.221   6.804   6.784
 5864SOL     OW18490   3.551   4.150   2.625
 5864SOL    HW118491   3.613   4.120   2.698
 5864SOL    HW218492   3.604   4.182   2.547
 5865SOL     OW18493   6.554   0.521   6.181
 5865SOL    HW118494   6.638   0.488   6.138
 5865SOL    HW218495   6.532   0.612   6.144
 5866SOL     OW18496   3.907   2.969   3.026
 5866SOL    HW118497   3.823   3.000   2.981
 5866SOL    HW218498   3.935   2.881   2.988
 5867SOL     OW18499   3.319   1.431   1.705
 5867SOL    HW118500   3.246   1.446   1.639
 5867SOL    HW218501   3.406   1.420   1.657
 5868SOL     OW18502   0.927   1.216   5.713
 5868SOL    HW118503   0.951   1.200   5.617
 5868SOL    HW218504   0.878   1.302   5.721
 5869SOL     OW18505   0.626   5.980   3.413
 5869SOL    HW118506   0.573   6.065   3.413
 5869SOL    HW218507   0.568   5.905   3.379
 5870SOL     OW18508   3.833   5.379   4.635
 5870SOL    HW118509   3.919   5.328   4.628
 5870SOL    HW218510   3.844   5.468   4.590
 5871SOL     OW18511   3.051   3.868   3.801
 5871SOL    HW118512   2.994   3.830   3.728
 5871SOL    HW218513   3.012   3.842   3.890
 5872SOL     OW18514   4.683   5.548   1.484
 5872SOL    HW118515   4.741   5.578   1.559
 5872SOL    HW218516   4.656   5.453   1.499
 5873SOL     OW18517   4.338   6.067   2.197
 5873SOL    HW118518   4.299   6.140   2.140
 5873SOL    HW218519   4.286   6.059   2.281
 5874SOL     OW18520   1.600   3.754   5.637
 5874SOL    HW118521   1.606   3.823   5.565
 5874SOL    HW218522   1.676   3.766   5.701
 5875SOL     OW18523   2.984   1.621   0.864
 5875SOL    HW118524   2.989   1.714   0.900
 5875SOL    HW218525   3.001   1.622   0.766
 5876SOL     OW18526   3.652   3.547   1.855
 5876SOL    HW118527   3.676   3.628   1.801
 5876SOL    HW218528   3.723   3.478   1.844
 5877SOL     OW18529   5.396   4.259   0.960
 5877SOL    HW118530   5.348   4.220   0.882
 5877SOL    HW218531   5.495   4.246   0.949
 5878SOL     OW18532   2.104   4.863   2.672
 5878SOL    HW118533   2.164   4.847   2.750
 5878SOL    HW218534   2.024   4.803   2.678
 5879SOL     OW18535   0.594   4.332   4.853
 5879SOL    HW118536   0.500   4.325   4.886
 5879SOL    HW218537   0.650   4.380   4.920
 5880SOL     OW18538   2.999   5.740   1.041
 5880SOL    HW118539   3.008   5.664   1.105
 5880SOL    HW218540   3.089   5.774   1.015
 5881SOL     OW18541   1.138   6.221   4.654
 5881SOL    HW118542   1.172   6.246   4.564
 5881SOL    HW218543   1.170   6.129   4.678
 5882SOL     OW18544   4.561   1.046   1.778
 5882SOL    HW118545   4.509   1.127   1.806
 5882SOL    HW218546   4.658   1.061   1.797
 5883SOL     OW18547   0.078   3.699   5.614
 5883SOL    HW118548   0.069   3.736   5.521
 5883SOL    HW218549   0.068   3.774   5.680
 5884SOL     OW18550   1.384   1.651   3.219
 5884SOL    HW118551   1.301   1.611   3.181
 5884SOL    HW218552   1.415   1.726   3.160
 5885SOL     OW18553   5.851   6.457   1.366
 5885SOL    HW118554   5.824   6.361   1.373
 5885SOL    HW218555   5.807   6.498   1.286
 5886SOL     OW18556   1.470   1.304   6.054
 5886SOL    HW118557   1.485   1.208   6.078
 5886SOL    HW218558   1.373   1.321   6.042
 5887SOL     OW18559   4.267   6.620   4.090
 5887SOL    HW118560   4.231   6.602   3.998
 5887SOL    HW218561   4.273   6.719   4.105
 5888SOL     OW18562   2.210   0.344   3.258
 5888SOL    HW118563   2.305   0.315   3.268
 5888SOL    HW218564   2.152   0.263   3.244
 5889SOL     OW18565   2.564   0.720   0.559
 5889SOL    HW118566   2.507   0.738   0.479
 5889SOL    HW218567   2.657   0.751   0.541
 5890SOL     OW18568   3.115   4.816   5.688
 5890SOL    HW118569   3.036   4.869   5.657
 5890SOL    HW218570   3.104   4.793   5.785
 5891SOL     OW18571   3.150   3.990   0.220
 5891SOL    HW118572   3.128   4.040   0.305
 5891SOL    HW218573   3.234   3.939   0.233
 5892SOL     OW18574   0.861   6.815   1.161
 5892SOL    HW118575   0.801   6.831   1.239
 5892SOL    HW218576   0.808   6.824   1.076
 5893SOL     OW18577   1.568   0.585   3.756
 5893SOL    HW118578   1.522   0.644   3.690
 5893SOL    HW218579   1.590   0.497   3.713
 5894SOL     OW18580   1.043   2.915   3.324
 5894SOL    HW118581   1.038   3.008   3.360
 5894SOL    HW218582   1.056   2.917   3.225
 5895SOL     OW18583   4.879   3.522   3.529
 5895SOL    HW118584   4.936   3.556   3.454
 5895SOL    HW218585   4.837   3.599   3.577
 5896SOL     OW18586   3.387   2.242   5.824
 5896SOL    HW118587   3.479   2.251   5.862
 5896SOL    HW218588   3.385   2.281   5.732
 5897SOL     OW18589   4.355   0.463   1.378
 5897SOL    HW118590   4.257   0.465   1.399
 5897SOL    HW218591   4.368   0.448   1.280
 5898SOL     OW18592   1.781   0.515   2.586
 5898SOL    HW118593   1.710   0.551   2.525
 5898SOL    HW218594   1.870   0.553   2.560
 5899SOL     OW18595   5.414   0.031   4.003
 5899SOL    HW118596   5.449   0.062   4.091
 5899SOL    HW218597   5.329   0.078   3.982
 5900SOL     OW18598   4.446   5.337   2.943
 5900SOL    HW118599   4.513   5.267   2.968
 5900SOL    HW218600   4.361   5.321   2.994
 5901SOL     OW18601   3.494   6.745   5.098
 5901SOL    HW118602   3.413   6.800   5.079
 5901SOL    HW218603   3.564   6.764   5.029
 5902SOL     OW18604   6.537   1.479   6.863
 5902SOL    HW118605   6.438   1.466   6.858
 5902SOL    HW218606   6.576   1.476   6.772
 5903SOL     OW18607   6.024   2.837   6.021
 5903SOL    HW118608   6.051   2.748   6.055
 5903SOL    HW218609   5.934   2.831   5.978
 5904SOL     OW18610   0.266   4.027   2.573
 5904SOL    HW118611   0.328   4.081   2.630
 5904SOL    HW218612   0.274   3.931   2.597
 5905SOL     OW18613   0.157   5.269   2.913
 5905SOL    HW118614   0.242   5.216   2.918
 5905SOL    HW218615   0.177   5.360   2.876
 5906SOL     OW18616   6.124   1.506   3.714
 5906SOL    HW118617   6.183   1.574   3.758
 5906SOL    HW218618   6.065   1.464   3.782
 5907SOL     OW18619   1.809   6.441   1.903
 5907SOL    HW118620   1.715   6.456   1.933
 5907SOL    HW218621   1.865   6.521   1.925
 5908SOL     OW18622   0.162   3.318   5.542
 5908SOL    HW118623   0.169   3.393   5.476
 5908SOL    HW218624   0.242   3.259   5.532
 5909SOL     OW18625   7.008   4.875   1.073
 5909SOL    HW118626   7.020   4.822   0.989
 5909SOL    HW218627   6.911   4.892   1.088
 5910SOL     OW18628   2.147   1.368   3.544
 5910SOL    HW118629   2.183   1.400   3.632
 5910SOL    HW218630   2.187   1.279   3.522
 5911SOL     OW18631   6.363   5.730   6.259
 5911SOL    HW118632   6.421   5.699   6.334
 5911SOL    HW218633   6.281   5.774   6.297
 5912SOL     OW18634   0.089   1.056   3.559
 5912SOL    HW118635   0.186   1.074   3.544
 5912SOL    HW218636   0.079   0.982   3.626
 5913SOL     OW18637   5.856   1.168   6.933
 5913SOL    HW118638   5.842   1.230   7.010
 5913SOL    HW218639   5.835   1.216   6.848
 5914SOL     OW18640   0.732   6.346   0.163
 5914SOL    HW118641   0.690   6.256   0.148
 5914SOL    HW218642   0.816   6.335   0.216
 5915SOL     OW18643   3.794   1.935   6.136
 5915SOL    HW118644   3.758   1.850   6.097
 5915SOL    HW218645   3.873   1.914   6.194
 5916SOL     OW18646   1.145   6.454   2.783
 5916SOL    HW118647   1.189   6.463   2.694
 5916SOL    HW218648   1.148   6.358   2.812
 5917SOL     OW18649   3.655   4.677   0.194
 5917SOL    HW118650   3.589   4.738   0.237
 5917SOL    HW218651   3.721   4.646   0.262
 5918SOL     OW18652   3.088   6.168   5.311
 5918SOL    HW118653   3.151   6.188   5.236
 5918SOL    HW218654   3.023   6.243   5.320
 5919SOL     OW18655   3.441   3.059   3.879
 5919SOL    HW118656   3.482   3.120   3.948
 5919SOL    HW218657   3.342   3.060   3.888
 5920SOL     OW18658   6.688   0.010   5.539
 5920SOL    HW118659   6.748   7.025   5.618
 5920SOL    HW218660   6.605   0.059   5.567
 5921SOL     OW18661   2.969   4.816   6.212
 5921SOL    HW118662   3.050   4.847   6.263
 5921SOL    HW218663   2.896   4.796   6.277
 5922SOL     OW18664   5.035   3.910   3.409
 5922SOL    HW118665   4.952   3.876   3.364
 5922SOL    HW218666   5.027   4.008   3.423
 5923SOL     OW18667   6.705   0.164   2.460
 5923SOL    HW118668   6.665   0.226   2.393
 5923SOL    HW218669   6.709   0.209   2.549
 5924SOL     OW18670   5.964   0.450   3.288
 5924SOL    HW118671   5.910   0.369   3.309
 5924SOL    HW218672   6.001   0.442   3.195
 5925SOL     OW18673   4.842   6.400   1.305
 5925SOL    HW118674   4.837   6.312   1.351
 5925SOL    HW218675   4.904   6.393   1.226
 5926SOL     OW18676   4.967   5.349   3.794
 5926SOL    HW118677   4.911   5.267   3.781
 5926SOL    HW218678   4.909   5.430   3.791
 5927SOL     OW18679   1.130   4.444   1.473
 5927SOL    HW118680   1.073   4.516   1.513
 5927SOL    HW218681   1.112   4.358   1.519
 5928SOL     OW18682   3.825   0.337   0.488
 5928SOL    HW118683   3.906   0.389   0.516
 5928SOL    HW218684   3.853   0.263   0.427
 5929SOL     OW18685   1.721   0.946   6.568
 5929SOL    HW118686   1.658   0.985   6.501
 5929SOL    HW218687   1.803   1.003   6.574
 5930SOL     OW18688   1.222   3.360   2.008
 5930SOL    HW118689   1.259   3.283   2.059
 5930SOL    HW218690   1.239   3.445   2.058
 5931SOL     OW18691   4.984   6.089   3.652
 5931SOL    HW118692   4.980   6.027   3.574
 5931SOL    HW218693   4.952   6.042   3.734
 5932SOL     OW18694   3.028   1.467   0.035
 5932SOL    HW118695   2.996   1.476   0.130
 5932SOL    HW218696   2.952   1.441   7.001
 5933SOL     OW18697   6.119   6.093   4.462
 5933SOL    HW118698   6.064   6.010   4.472
 5933SOL    HW218699   6.104   6.132   4.372
 5934SOL     OW18700   3.186   3.929   6.034
 5934SOL    HW118701   3.120   3.884   5.973
 5934SOL    HW218702   3.156   3.918   6.129
 5935SOL     OW18703   6.900   6.146   6.077
 5935SOL    HW118704   6.866   6.068   6.025
 5935SOL    HW218705   6.828   6.215   6.085
 5936SOL     OW18706   3.523   3.195   1.459
 5936SOL    HW118707   3.569   3.231   1.540
 5936SOL    HW218708   3.425   3.183   1.479
 5937SOL     OW18709   6.690   3.490   1.601
 5937SOL    HW118710   6.604   3.532   1.572
 5937SOL    HW218711   6.756   3.493   1.526
 5938SOL     OW18712   0.354   4.629   5.006
 5938SOL    HW118713   0.420   4.683   4.954
 5938SOL    HW218714   0.284   4.592   4.944
 5939SOL     OW18715   3.431   0.590   5.044
 5939SOL    HW118716   3.391   0.544   5.124
 5939SOL    HW218717   3.510   0.644   5.073
 5940SOL     OW18718   5.109   6.025   2.574
 5940SOL    HW118719   5.067   6.020   2.665
 5940SOL    HW218720   5.053   6.081   2.514
 5941SOL     OW18721   6.397   1.892   2.030
 5941SOL    HW118722   6.436   1.944   1.955
 5941SOL    HW218723   6.359   1.954   2.098
 5942SOL     OW18724   5.225   3.130   5.846
 5942SOL    HW118725   5.177   3.137   5.758
 5942SOL    HW218726   5.303   3.068   5.836
 5943SOL     OW18727   3.298   4.337   1.653
 5943SOL    HW118728   3.200   4.355   1.663
 5943SOL    HW218729   3.350   4.422   1.668
 5944SOL     OW18730   1.002   3.194   6.802
 5944SOL    HW118731   0.932   3.188   6.731
 5944SOL    HW218732   1.075   3.255   6.771
 5945SOL     OW18733   0.384   5.763   5.884
 5945SOL    HW118734   0.340   5.720   5.963
 5945SOL    HW218735   0.327   5.747   5.803
 5946SOL     OW18736   3.444   4.189   1.053
 5946SOL    HW118737   3.471   4.116   0.991
 5946SOL    HW218738   3.427   4.151   1.144
 5947SOL     OW18739   3.180   3.027   4.776
 5947SOL    HW118740   3.257   3.032   4.840
 5947SOL    HW218741   3.096   3.006   4.826
 5948SOL     OW18742   5.564   3.956   2.082
 5948SOL    HW118743   5.635   3.975   2.150
 5948SOL    HW218744   5.578   4.014   2.002
 5949SOL     OW18745   6.520   4.077   1.870
 5949SOL    HW118746   6.435   4.031   1.895
 5949SOL    HW218747   6.506   4.128   1.785
 5950SOL     OW18748   4.933   1.137   5.375
 5950SOL    HW118749   5.003   1.075   5.342
 5950SOL    HW218750   4.960   1.231   5.356
 5951SOL     OW18751   1.265   4.005   6.266
 5951SOL    HW118752   1.222   3.947   6.334
 5951SOL    HW218753   1.205   4.082   6.245
 5952SOL     OW18754   4.006   4.998   1.361
 5952SOL    HW118755   3.988   4.913   1.311
 5952SOL    HW218756   4.105   5.011   1.371
 5953SOL     OW18757   6.261   2.644   4.679
 5953SOL    HW118758   6.177   2.696   4.663
 5953SOL    HW218759   6.330   2.704   4.718
 5954SOL     OW18760   1.386   6.289   4.142
 5954SOL    HW118761   1.322   6.215   4.123
 5954SOL    HW218762   1.471   6.251   4.180
 5955SOL     OW18763   6.199   3.784   0.885
 5955SOL    HW118764   6.216   3.689   0.910
 5955SOL    HW218765   6.117   3.789   0.828
 5956SOL     OW18766   5.273   2.755   4.673
 5956SOL    HW118767   5.311   2.690   4.606
 5956SOL    HW218768   5.279   2.848   4.636
 5957SOL     OW18769   0.764   1.517   2.613
 5957SOL    HW118770   0.671   1.537   2.580
 5957SOL    HW218771   0.823   1.596   2.596
 5958SOL     OW18772   3.828   6.615   2.523
 5958SOL    HW118773   3.911   6.561   2.536
 5958SOL    HW218774   3.828   6.654   2.431
 5959SOL     OW18775   5.416   2.591   4.496
 5959SOL    HW118776   5.385   2.497   4.510
 5959SOL    HW218777   5.425   2.609   4.398
 5960SOL     OW18778   3.955   6.947   6.278
 5960SOL    HW118779   4.008   7.020   6.321
 5960SOL    HW218780   3.900   6.901   6.348
 5961SOL     OW18781   2.864   1.799   3.044
 5961SOL    HW118782   2.863   1.838   3.136
 5961SOL    HW218783   2.813   1.859   2.982
 5962SOL     OW18784   5.211   6.358   6.981
 5962SOL    HW118785   5.134   6.392   6.927
 5962SOL    HW218786   5.209   6.258   6.983
 5963SOL     OW18787   3.543   4.017   0.017
 5963SOL    HW118788   3.464   4.068   0.049
 5963SOL    HW218789   3.576   3.957   0.089
 5964SOL     OW18790   2.203   6.437   2.930
 5964SOL    HW118791   2.210   6.534   2.910
 5964SOL    HW218792   2.231   6.420   3.024
 5965SOL     OW18793   1.593   0.548   0.434
 5965SOL    HW118794   1.582   0.613   0.509
 5965SOL    HW218795   1.577   0.595   0.347
 5966SOL     OW18796   2.258   1.035   5.299
 5966SOL    HW118797   2.336   1.081   5.341
 5966SOL    HW218798   2.269   1.033   5.200
 5967SOL     OW18799   2.776   1.677   3.608
 5967SOL    HW118800   2.769   1.664   3.707
 5967SOL    HW218801   2.768   1.774   3.586
 5968SOL     OW18802   5.273   1.977   1.328
 5968SOL    HW118803   5.344   1.937   1.387
 5968SOL    HW218804   5.183   1.946   1.360
 5969SOL     OW18805   5.050   0.895   6.984
 5969SOL    HW118806   5.130   0.946   6.950
 5969SOL    HW218807   5.059   0.799   6.959
 5970SOL     OW18808   0.319   3.622   0.761
 5970SOL    HW118809   0.359   3.547   0.709
 5970SOL    HW218810   0.353   3.709   0.725
 5971SOL     OW18811   0.542   6.625   3.947
 5971SOL    HW118812   0.565   6.600   3.853
 5971SOL    HW218813   0.593   6.567   4.010
 5972SOL     OW18814   4.754   4.962   1.381
 5972SOL    HW118815   4.733   4.994   1.288
 5972SOL    HW218816   4.684   4.897   1.410
 5973SOL     OW18817   1.641   2.273   2.622
 5973SOL    HW118818   1.691   2.219   2.555
 5973SOL    HW218819   1.704   2.337   2.667
 5974SOL     OW18820   4.977   1.883   5.612
 5974SOL    HW118821   5.005   1.822   5.687
 5974SOL    HW218822   4.958   1.829   5.531
 5975SOL     OW18823   5.041   4.895   0.637
 5975SOL    HW118824   5.042   4.856   0.729
 5975SOL    HW218825   5.082   4.986   0.638
 5976SOL     OW18826   2.692   3.547   5.824
 5976SOL    HW118827   2.729   3.615   5.761
 5976SOL    HW218828   2.744   3.462   5.815
 5977SOL     OW18829   0.151   4.928   0.142
 5977SOL    HW118830   0.153   4.952   0.239
 5977SOL    HW218831   0.110   4.838   0.131
 5978SOL     OW18832   3.378   5.259   0.556
 5978SOL    HW118833   3.461   5.227   0.601
 5978SOL    HW218834   3.298   5.227   0.606
 5979SOL     OW18835   6.055   0.422   1.368
 5979SOL    HW118836   6.086   0.451   1.459
 5979SOL    HW218837   6.134   0.399   1.312
 5980SOL     OW18838   3.457   3.135   1.939
 5980SOL    HW118839   3.514   3.076   1.996
 5980SOL    HW218840   3.366   3.093   1.929
 5981SOL     OW18841   2.567   2.739   0.345
 5981SOL    HW118842   2.556   2.823   0.398
 5981SOL    HW218843   2.654   2.695   0.369
 5982SOL     OW18844   6.490   2.266   1.400
 5982SOL    HW118845   6.534   2.177   1.409
 5982SOL    HW218846   6.555   2.338   1.423
 5983SOL     OW18847   0.480   0.784   3.772
 5983SOL    HW118848   0.410   0.754   3.707
 5983SOL    HW218849   0.522   0.869   3.740
 5984SOL     OW18850   6.590   6.732   3.155
 5984SOL    HW118851   6.494   6.710   3.173
 5984SOL    HW218852   6.605   6.737   3.056
 5985SOL     OW18853   5.506   2.257   2.741
 5985SOL    HW118854   5.556   2.251   2.654
 5985SOL    HW218855   5.412   2.225   2.728
 5986SOL     OW18856   4.126   3.584   5.572
 5986SOL    HW118857   4.070   3.576   5.654
 5986SOL    HW218858   4.223   3.577   5.597
 5987SOL     OW18859   6.856   6.989   5.881
 5987SOL    HW118860   6.887   0.045   5.832
 5987SOL    HW218861   6.796   7.016   5.956
 5988SOL     OW18862   1.914   2.522   6.347
 5988SOL    HW118863   1.937   2.595   6.284
 5988SOL    HW218864   1.945   2.434   6.310
 5989SOL     OW18865   0.353   5.743   6.645
 5989SOL    HW118866   0.259   5.738   6.678
 5989SOL    HW218867   0.376   5.657   6.598
 5990SOL     OW18868   3.981   5.071   1.745
 5990SOL    HW118869   3.947   5.119   1.826
 5990SOL    HW218870   4.080   5.061   1.751
 5991SOL     OW18871   5.217   6.743   0.989
 5991SOL    HW118872   5.286   6.732   1.060
 5991SOL    HW218873   5.248   6.697   0.906
 5992SOL     OW18874   3.235   0.379   1.918
 5992SOL    HW118875   3.188   0.296   1.887
 5992SOL    HW218876   3.172   0.457   1.910
 5993SOL     OW18877   6.516   1.756   0.386
 5993SOL    HW118878   6.556   1.826   0.327
 5993SOL    HW218879   6.518   1.668   0.339
 5994SOL     OW18880   0.834   3.050   0.650
 5994SOL    HW118881   0.824   3.143   0.684
 5994SOL    HW218882   0.915   3.043   0.593
 5995SOL     OW18883   4.819   3.825   1.538
 5995SOL    HW118884   4.882   3.895   1.504
 5995SOL    HW218885   4.725   3.859   1.532
 5996SOL     OW18886   3.060   5.345   1.443
 5996SOL    HW118887   3.157   5.324   1.431
 5996SOL    HW218888   3.009   5.260   1.461
 5997SOL     OW18889   0.176   0.134   3.593
 5997SOL    HW118890   0.274   0.157   3.600
 5997SOL    HW218891   0.122   0.218   3.599
 5998SOL     OW18892   6.923   0.038   1.624
 5998SOL    HW118893   6.918   0.129   1.582
 5998SOL    HW218894   6.946   6.996   1.553
 5999SOL     OW18895   4.809   3.081   1.067
 5999SOL    HW118896   4.746   3.155   1.092
 5999SOL    HW218897   4.790   3.052   0.973
 6000SOL     OW18898   6.785   4.480   1.081
 6000SOL    HW118899   6.858   4.459   1.146
 6000SOL    HW218900   6.821   4.539   1.009
 6001SOL     OW18901   5.712   5.325   5.580
 6001SOL    HW118902   5.676   5.240   5.618
 6001SOL    HW218903   5.636   5.381   5.546
 6002SOL     OW18904   5.505   5.656   4.798
 6002SOL    HW118905   5.503   5.634   4.701
 6002SOL    HW218906   5.584   5.713   4.819
 6003SOL     OW18907   0.447   3.177   4.853
 6003SOL    HW118908   0.498   3.174   4.768
 6003SOL    HW218909   0.358   3.220   4.837
 6004SOL     OW18910   4.896   2.559   3.774
 6004SOL    HW118911   4.902   2.620   3.854
 6004SOL    HW218912   4.954   2.479   3.789
 6005SOL     OW18913   3.560   5.676   6.188
 6005SOL    HW118914   3.641   5.638   6.144
 6005SOL    HW218915   3.539   5.625   6.271
 6006SOL     OW18916   3.639   6.168   5.667
 6006SOL    HW118917   3.581   6.114   5.607
 6006SOL    HW218918   3.734   6.136   5.658
 6007SOL     OW18919   1.951   5.727   5.754
 6007SOL    HW118920   1.853   5.708   5.763
 6007SOL    HW218921   1.984   5.769   5.838
 6008SOL     OW18922   3.236   4.808   5.451
 6008SOL    HW118923   3.195   4.802   5.541
 6008SOL    HW218924   3.211   4.727   5.397
 6009SOL     OW18925   3.844   5.145   3.062
 6009SOL    HW118926   3.887   5.078   3.123
 6009SOL    HW218927   3.820   5.227   3.115
 6010SOL     OW18928   0.258   5.651   5.360
 6010SOL    HW118929   0.197   5.574   5.378
 6010SOL    HW218930   0.351   5.618   5.346
 6011SOL     OW18931   6.396   2.151   1.822
 6011SOL    HW118932   6.420   2.217   1.893
 6011SOL    HW218933   6.329   2.191   1.760
 6012SOL     OW18934   0.448   0.152   6.285
 6012SOL    HW118935   0.397   0.066   6.292
 6012SOL    HW218936   0.406   0.220   6.344
 6013SOL     OW18937   5.859   1.469   2.663
 6013SOL    HW118938   5.924   1.470   2.739
 6013SOL    HW218939   5.813   1.380   2.659
 6014SOL     OW18940   3.969   3.086   4.234
 6014SOL    HW118941   3.984   3.058   4.140
 6014SOL    HW218942   3.897   3.029   4.275
 6015SOL     OW18943   5.948   1.567   4.600
 6015SOL    HW118944   5.978   1.473   4.619
 6015SOL    HW218945   5.903   1.570   4.511
 6016SOL     OW18946   5.190   1.722   4.610
 6016SOL    HW118947   5.237   1.709   4.697
 6016SOL    HW218948   5.131   1.644   4.591
 6017SOL     OW18949   6.713   2.663   5.517
 6017SOL    HW118950   6.676   2.752   5.544
 6017SOL    HW218951   6.803   2.675   5.477
 6018SOL     OW18952   3.080   1.452   5.796
 6018SOL    HW118953   3.178   1.468   5.786
 6018SOL    HW218954   3.057   1.446   5.893
 6019SOL     OW18955   6.921   3.453   6.726
 6019SOL    HW118956   6.945   3.419   6.817
 6019SOL    HW218957   6.909   3.553   6.730
 6020SOL     OW18958   0.854   4.145   6.794
 6020SOL    HW118959   0.795   4.068   6.769
 6020SOL    HW218960   0.810   4.199   6.866
 6021SOL     OW18961   4.364   0.115   3.325
 6021SOL    HW118962   4.407   0.198   3.362
 6021SOL    HW218963   4.429   0.068   3.266
 6022SOL     OW18964   6.335   1.819   1.387
 6022SOL    HW118965   6.242   1.816   1.424
 6022SOL    HW218966   6.341   1.893   1.320
 6023SOL     OW18967   4.794   1.209   1.341
 6023SOL    HW118968   4.752   1.206   1.250
 6023SOL    HW218969   4.888   1.177   1.335
 6024SOL     OW18970   0.358   5.456   6.954
 6024SOL    HW118971   0.329   5.413   6.868
 6024SOL    HW218972   0.454   5.483   6.947
 6025SOL     OW18973   2.305   1.115   4.454
 6025SOL    HW118974   2.369   1.178   4.499
 6025SOL    HW218975   2.300   1.030   4.505
 6026SOL     OW18976   6.602   4.094   4.244
 6026SOL    HW118977   6.535   4.056   4.179
 6026SOL    HW218978   6.682   4.127   4.193
 6027SOL     OW18979   5.850   3.915   6.309
 6027SOL    HW118980   5.800   3.838   6.348
 6027SOL    HW218981   5.948   3.896   6.310
 6028SOL     OW18982   5.877   5.268   6.104
 6028SOL    HW118983   5.936   5.260   6.024
 6028SOL    HW218984   5.896   5.192   6.167
 6029SOL     OW18985   2.190   0.502   3.035
 6029SOL    HW118986   2.269   0.465   2.986
 6029SOL    HW218987   2.192   0.471   3.130
 6030SOL     OW18988   5.040   3.890   4.900
 6030SOL    HW118989   5.115   3.956   4.905
 6030SOL    HW218990   4.997   3.882   4.990
 6031SOL     OW18991   0.568   5.984   5.544
 6031SOL    HW118992   0.590   5.909   5.481
 6031SOL    HW218993   0.481   6.025   5.518
 6032SOL     OW18994   3.351   5.937   3.743
 6032SOL    HW118995   3.276   5.871   3.744
 6032SOL    HW218996   3.404   5.928   3.828
 6033SOL     OW18997   2.197   1.338   2.576
 6033SOL    HW118998   2.158   1.378   2.659
 6033SOL    HW218999   2.137   1.267   2.542
 6034SOL     OW19000   1.190   0.975   0.057
 6034SOL    HW119001   1.267   0.981   0.121
 6034SOL    HW219002   1.138   0.891   0.076
 6035SOL     OW19003   1.313   0.872   3.118
 6035SOL    HW119004   1.271   0.915   3.198
 6035SOL    HW219005   1.290   0.774   3.117
 6036SOL     OW19006   6.357   2.383   0.634
 6036SOL    HW119007   6.326   2.300   0.680
 6036SOL    HW219008   6.351   2.460   0.697
 6037SOL     OW19009   4.818   2.634   0.265
 6037SOL    HW119010   4.865   2.721   0.252
 6037SOL    HW219011   4.719   2.649   0.261
 6038SOL     OW19012   0.769   2.353   5.823
 6038SOL    HW119013   0.807   2.378   5.734
 6038SOL    HW219014   0.683   2.305   5.810
 6039SOL     OW19015   3.528   3.803   3.676
 6039SOL    HW119016   3.456   3.739   3.649
 6039SOL    HW219017   3.522   3.821   3.774
 6040SOL     OW19018   0.738   1.843   0.187
 6040SOL    HW119019   0.650   1.834   0.142
 6040SOL    HW219020   0.724   1.863   0.284
 6041SOL     OW19021   2.370   2.890   5.740
 6041SOL    HW119022   2.345   2.953   5.666
 6041SOL    HW219023   2.467   2.869   5.734
 6042SOL     OW19024   3.341   5.344   3.151
 6042SOL    HW119025   3.346   5.275   3.079
 6042SOL    HW219026   3.416   5.328   3.216
 6043SOL     OW19027   2.129   0.962   3.873
 6043SOL    HW119028   2.122   0.916   3.785
 6043SOL    HW219029   2.039   0.963   3.917
 6044SOL     OW19030   0.891   2.255   1.567
 6044SOL    HW119031   0.848   2.337   1.604
 6044SOL    HW219032   0.821   2.195   1.527
 6045SOL     OW19033   5.200   2.199   3.508
 6045SOL    HW119034   5.221   2.144   3.589
 6045SOL    HW219035   5.105   2.229   3.511
 6046SOL     OW19036   2.980   3.205   2.319
 6046SOL    HW119037   3.002   3.137   2.250
 6046SOL    HW219038   2.952   3.290   2.275
 6047SOL     OW19039   5.982   1.243   0.591
 6047SOL    HW119040   6.044   1.190   0.650
 6047SOL    HW219041   5.991   1.212   0.497
 6048SOL     OW19042   5.588   5.520   4.245
 6048SOL    HW119043   5.570   5.607   4.200
 6048SOL    HW219044   5.530   5.512   4.327
 6049SOL     OW19045   4.100   4.661   5.316
 6049SOL    HW119046   4.066   4.599   5.386
 6049SOL    HW219047   4.061   4.752   5.329
 6050SOL     OW19048   3.718   6.076   1.374
 6050SOL    HW119049   3.677   6.072   1.282
 6050SOL    HW219050   3.719   5.985   1.414
 6051SOL     OW19051   1.520   1.149   3.465
 6051SOL    HW119052   1.570   1.148   3.378
 6051SOL    HW219053   1.431   1.193   3.452
 6052SOL     OW19054   5.519   6.928   0.569
 6052SOL    HW119055   5.437   6.930   0.513
 6052SOL    HW219056   5.551   7.022   0.584
 6053SOL     OW19057   4.007   2.430   6.055
 6053SOL    HW119058   4.000   2.526   6.026
 6053SOL    HW219059   4.099   2.413   6.090
 6054SOL     OW19060   4.010   4.645   0.557
 6054SOL    HW119061   4.055   4.734   0.557
 6054SOL    HW219062   4.075   4.575   0.589
 6055SOL     OW19063   3.509   4.789   0.406
 6055SOL    HW119064   3.427   4.842   0.384
 6055SOL    HW219065   3.490   4.729   0.484
 6056SOL     OW19066   5.841   5.037   4.902
 6056SOL    HW119067   5.900   5.037   4.821
 6056SOL    HW219068   5.833   4.944   4.938
 6057SOL     OW19069   4.991   0.266   3.294
 6057SOL    HW119070   5.081   0.308   3.296
 6057SOL    HW219071   4.976   0.215   3.378
 6058SOL     OW19072   5.511   1.971   6.221
 6058SOL    HW119073   5.497   1.895   6.284
 6058SOL    HW219074   5.443   1.967   6.147
 6059SOL     OW19075   4.615   4.773   0.257
 6059SOL    HW119076   4.612   4.739   0.163
 6059SOL    HW219077   4.565   4.859   0.263
 6060SOL     OW19078   2.554   3.473   0.193
 6060SOL    HW119079   2.646   3.514   0.202
 6060SOL    HW219080   2.555   3.381   0.231
 6061SOL     OW19081   3.540   5.076   0.197
 6061SOL    HW119082   3.497   5.001   0.247
 6061SOL    HW219083   3.505   5.164   0.229
 6062SOL     OW19084   2.411   2.870   0.757
 6062SOL    HW119085   2.314   2.885   0.734
 6062SOL    HW219086   2.431   2.911   0.846
 6063SOL     OW19087   3.632   5.088   5.910
 6063SOL    HW119088   3.663   5.163   5.969
 6063SOL    HW219089   3.671   5.002   5.941
 6064SOL     OW19090   0.057   6.109   0.900
 6064SOL    HW119091   0.122   6.175   0.937
 6064SOL    HW219092   0.103   6.050   0.834
 6065SOL     OW19093   1.247   6.035   2.250
 6065SOL    HW119094   1.337   6.015   2.211
 6065SOL    HW219095   1.210   5.953   2.293
 6066SOL     OW19096   4.423   6.490   3.439
 6066SOL    HW119097   4.350   6.530   3.494
 6066SOL    HW219098   4.469   6.562   3.388
 6067SOL     OW19099   5.852   0.596   6.070
 6067SOL    HW119100   5.831   0.580   6.167
 6067SOL    HW219101   5.901   0.518   6.033
 6068SOL     OW19102   4.380   1.598   5.563
 6068SOL    HW119103   4.408   1.585   5.658
 6068SOL    HW219104   4.368   1.696   5.545
 6069SOL     OW19105   6.845   3.482   6.452
 6069SOL    HW119106   6.883   3.411   6.394
 6069SOL    HW219107   6.867   3.462   6.548
 6070SOL     OW19108   2.846   1.677   1.311
 6070SOL    HW119109   2.862   1.692   1.409
 6070SOL    HW219110   2.751   1.696   1.289
 6071SOL     OW19111   6.001   0.068   5.555
 6071SOL    HW119112   5.901   0.073   5.552
 6071SOL    HW219113   6.033   0.008   5.482
 6072SOL     OW19114   0.280   2.785   0.260
 6072SOL    HW119115   0.205   2.850   0.253
 6072SOL    HW219116   0.307   2.774   0.356
 6073SOL     OW19117   5.087   2.960   0.729
 6073SOL    HW119118   5.147   2.940   0.652
 6073SOL    HW219119   5.087   3.058   0.747
 6074SOL     OW19120   1.122   6.180   2.430
 6074SOL    HW119121   1.162   6.119   2.361
 6074SOL    HW219122   1.025   6.159   2.441
 6075SOL     OW19123   5.006   6.632   6.455
 6075SOL    HW119124   4.926   6.631   6.514
 6075SOL    HW219125   4.994   6.702   6.384
 6076SOL     OW19126   1.496   4.602   4.110
 6076SOL    HW119127   1.459   4.647   4.029
 6076SOL    HW219128   1.575   4.653   4.144
 6077SOL     OW19129   6.040   6.461   2.028
 6077SOL    HW119130   6.007   6.556   2.031
 6077SOL    HW219131   6.083   6.438   2.116
 6078SOL     OW19132   4.312   3.615   0.206
 6078SOL    HW119133   4.318   3.515   0.207
 6078SOL    HW219134   4.365   3.651   0.129
 6079SOL     OW19135   3.662   4.471   6.101
 6079SOL    HW119136   3.651   4.560   6.058
 6079SOL    HW219137   3.580   4.416   6.086
 6080SOL     OW19138   0.506   4.790   6.726
 6080SOL    HW119139   0.439   4.736   6.676
 6080SOL    HW219140   0.565   4.730   6.779
 6081SOL     OW19141   1.540   3.144   4.539
 6081SOL    HW119142   1.624   3.179   4.496
 6081SOL    HW219143   1.510   3.062   4.490
 6082SOL     OW19144   4.052   1.578   0.763
 6082SOL    HW119145   4.043   1.638   0.683
 6082SOL    HW219146   4.043   1.631   0.846
 6083SOL     OW19147   4.699   6.876   6.341
 6083SOL    HW119148   4.788   6.866   6.295
 6083SOL    HW219149   4.626   6.845   6.281
 6084SOL     OW19150   0.591   0.041   2.787
 6084SOL    HW119151   0.617   6.973   2.760
 6084SOL    HW219152   0.521   0.075   2.724
 6085SOL     OW19153   0.702   6.383   0.564
 6085SOL    HW119154   0.663   6.434   0.487
 6085SOL    HW219155   0.767   6.441   0.612
 6086SOL     OW19156   3.183   3.698   6.402
 6086SOL    HW119157   3.176   3.651   6.490
 6086SOL    HW219158   3.160   3.634   6.328
 6087SOL     OW19159   5.154   6.306   0.831
 6087SOL    HW119160   5.064   6.335   0.797
 6087SOL    HW219161   5.166   6.208   0.814
 6088SOL     OW19162   5.083   6.771   3.797
 6088SOL    HW119163   5.173   6.728   3.789
 6088SOL    HW219164   5.091   6.868   3.775
 6089SOL     OW19165   6.167   3.239   3.405
 6089SOL    HW119166   6.246   3.288   3.441
 6089SOL    HW219167   6.198   3.158   3.354
 6090SOL     OW19168   4.139   6.585   4.357
 6090SOL    HW119169   4.198   6.638   4.417
 6090SOL    HW219170   4.178   6.584   4.265
 6091SOL     OW19171   2.489   0.957   1.263
 6091SOL    HW119172   2.459   0.872   1.306
 6091SOL    HW219173   2.425   1.030   1.286
 6092SOL     OW19174   4.392   6.319   1.298
 6092SOL    HW119175   4.425   6.326   1.392
 6092SOL    HW219176   4.414   6.404   1.249
 6093SOL     OW19177   2.568   1.531   2.444
 6093SOL    HW119178   2.611   1.443   2.424
 6093SOL    HW219179   2.539   1.574   2.358
 6094SOL     OW19180   0.358   6.434   4.892
 6094SOL    HW119181   0.360   6.450   4.793
 6094SOL    HW219182   0.290   6.494   4.934
 6095SOL     OW19183   4.143   5.858   0.436
 6095SOL    HW119184   4.145   5.888   0.341
 6095SOL    HW219185   4.174   5.932   0.495
 6096SOL     OW19186   6.156   6.446   2.272
 6096SOL    HW119187   6.098   6.460   2.352
 6096SOL    HW219188   6.226   6.518   2.268
 6097SOL     OW19189   1.967   6.179   2.688
 6097SOL    HW119190   1.950   6.184   2.590
 6097SOL    HW219191   2.058   6.214   2.708
 6098SOL     OW19192   6.361   1.115   4.820
 6098SOL    HW119193   6.339   1.021   4.793
 6098SOL    HW219194   6.395   1.115   4.914
 6099SOL     OW19195   4.319   6.781   6.374
 6099SOL    HW119196   4.388   6.781   6.302
 6099SOL    HW219197   4.342   6.850   6.442
 6100SOL     OW19198   0.035   5.683   4.241
 6100SOL    HW119199   0.106   5.612   4.245
 6100SOL    HW219200   6.972   5.641   4.218
 6101SOL     OW19201   6.255   2.268   1.586
 6101SOL    HW119202   6.224   2.192   1.529
 6101SOL    HW219203   6.345   2.299   1.554
 6102SOL     OW19204   4.480   0.317   2.502
 6102SOL    HW119205   4.560   0.281   2.454
 6102SOL    HW219206   4.471   0.271   2.591
 6103SOL     OW19207   6.991   1.159   1.338
 6103SOL    HW119208   6.912   1.170   1.277
 6103SOL    HW219209   6.994   1.064   1.372
 6104SOL     OW19210   6.297   1.318   4.600
 6104SOL    HW119211   6.214   1.272   4.568
 6104SOL    HW219212   6.280   1.417   4.604
 6105SOL     OW19213   2.993   5.654   5.660
 6105SOL    HW119214   2.963   5.630   5.568
 6105SOL    HW219215   2.915   5.656   5.722
 6106SOL     OW19216   6.636   4.455   0.123
 6106SOL    HW119217   6.538   4.461   0.141
 6106SOL    HW219218   6.677   4.546   0.134
 6107SOL     OW19219   4.794   4.644   5.348
 6107SOL    HW119220   4.755   4.642   5.440
 6107SOL    HW219221   4.727   4.610   5.282
 6108SOL     OW19222   1.808   1.545   1.364
 6108SOL    HW119223   1.723   1.579   1.324
 6108SOL    HW219224   1.880   1.547   1.295
 6109SOL     OW19225   6.314   6.693   3.148
 6109SOL    HW119226   6.277   6.604   3.175
 6109SOL    HW219227   6.312   6.701   3.048
 6110SOL     OW19228   1.922   1.836   5.451
 6110SOL    HW119229   1.951   1.817   5.545
 6110SOL    HW219230   2.001   1.833   5.390
 6111SOL     OW19231   2.071   4.142   1.576
 6111SOL    HW119232   1.989   4.099   1.615
 6111SOL    HW219233   2.076   4.120   1.478
 6112SOL     OW19234   4.793   0.379   2.720
 6112SOL    HW119235   4.699   0.383   2.753
 6112SOL    HW219236   4.855   0.418   2.788
 6113SOL     OW19237   2.194   5.627   6.964
 6113SOL    HW119238   2.200   5.592   0.032
 6113SOL    HW219239   2.271   5.592   6.910
 6114SOL     OW19240   5.487   1.610   0.277
 6114SOL    HW119241   5.437   1.601   0.363
 6114SOL    HW219242   5.559   1.678   0.286
 6115SOL     OW19243   0.793   0.868   5.198
 6115SOL    HW119244   0.826   0.935   5.131
 6115SOL    HW219245   0.697   0.885   5.217
 6116SOL     OW19246   4.604   1.974   4.881
 6116SOL    HW119247   4.690   2.017   4.910
 6116SOL    HW219248   4.624   1.888   4.834
 6117SOL     OW19249   1.537   1.660   2.412
 6117SOL    HW119250   1.495   1.612   2.336
 6117SOL    HW219251   1.513   1.757   2.408
 6118SOL     OW19252   6.085   0.630   6.934
 6118SOL    HW119253   6.140   0.700   6.888
 6118SOL    HW219254   6.033   0.672   7.009
 6119SOL     OW19255   6.702   1.818   1.030
 6119SOL    HW119256   6.642   1.892   1.061
 6119SOL    HW219257   6.647   1.739   1.003
 6120SOL     OW19258   1.855   0.884   5.662
 6120SOL    HW119259   1.829   0.924   5.574
 6120SOL    HW219260   1.897   0.954   5.719
 6121SOL     OW19261   0.456   3.306   5.300
 6121SOL    HW119262   0.383   3.300   5.231
 6121SOL    HW219263   0.529   3.242   5.277
 6122SOL     OW19264   5.052   5.625   5.535
 6122SOL    HW119265   5.104   5.589   5.613
 6122SOL    HW219266   4.992   5.699   5.566
 6123SOL     OW19267   5.839   1.365   5.581
 6123SOL    HW119268   5.787   1.331   5.659
 6123SOL    HW219269   5.898   1.440   5.610
 6124SOL     OW19270   2.263   6.784   4.174
 6124SOL    HW119271   2.167   6.792   4.202
 6124SOL    HW219272   2.294   6.690   4.189
 6125SOL     OW19273   1.793   2.606   6.578
 6125SOL    HW119274   1.727   2.673   6.545
 6125SOL    HW219275   1.857   2.583   6.504
 6126SOL     OW19276   6.438   3.182   5.177
 6126SOL    HW119277   6.339   3.168   5.167
 6126SOL    HW219278   6.474   3.226   5.095
 6127SOL     OW19279   3.563   1.934   1.583
 6127SOL    HW119280   3.554   1.952   1.485
 6127SOL    HW219281   3.595   1.840   1.597
 6128SOL     OW19282   5.798   6.126   0.581
 6128SOL    HW119283   5.736   6.202   0.562
 6128SOL    HW219284   5.877   6.159   0.633
 6129SOL     OW19285   2.014   4.925   2.953
 6129SOL    HW119286   2.081   4.850   2.956
 6129SOL    HW219287   2.007   4.967   3.044
 6130SOL     OW19288   4.964   2.864   1.178
 6130SOL    HW119289   4.908   2.932   1.132
 6130SOL    HW219290   4.996   2.796   1.111
 6131SOL     OW19291   0.071   1.931   2.320
 6131SOL    HW119292   0.033   1.877   2.394
 6131SOL    HW219293   0.100   2.020   2.354
 6132SOL     OW19294   3.050   2.195   6.649
 6132SOL    HW119295   2.990   2.166   6.724
 6132SOL    HW219296   3.139   2.151   6.660
 6133SOL     OW19297   1.850   2.365   3.780
 6133SOL    HW119298   1.946   2.338   3.791
 6133SOL    HW219299   1.834   2.450   3.831
 6134SOL     OW19300   4.954   6.470   6.061
 6134SOL    HW119301   4.987   6.393   6.006
 6134SOL    HW219302   5.032   6.523   6.095
 6135SOL     OW19303   6.183   0.346   6.941
 6135SOL    HW119304   6.259   0.350   6.876
 6135SOL    HW219305   6.118   0.419   6.921
 6136SOL     OW19306   1.193   2.767   2.112
 6136SOL    HW119307   1.192   2.692   2.178
 6136SOL    HW219308   1.211   2.731   2.021
 6137SOL     OW19309   6.476   4.058   2.391
 6137SOL    HW119310   6.511   4.053   2.297
 6137SOL    HW219311   6.519   4.135   2.438
 6138SOL     OW19312   3.109   0.174   2.202
 6138SOL    HW119313   3.063   0.116   2.135
 6138SOL    HW219314   3.046   0.246   2.232
 6139SOL     OW19315   1.834   6.814   5.700
 6139SOL    HW119316   1.809   6.734   5.645
 6139SOL    HW219317   1.795   6.805   5.792
 6140SOL     OW19318   1.849   0.409   3.516
 6140SOL    HW119319   1.869   0.478   3.446
 6140SOL    HW219320   1.770   0.438   3.569
 6141SOL     OW19321   0.267   0.155   5.871
 6141SOL    HW119322   0.351   0.115   5.906
 6141SOL    HW219323   0.240   0.231   5.930
 6142SOL     OW19324   0.289   0.568   0.535
 6142SOL    HW119325   0.241   0.481   0.522
 6142SOL    HW219326   0.387   0.554   0.521
 6143SOL     OW19327   6.071   3.700   6.276
 6143SOL    HW119328   6.003   3.626   6.277
 6143SOL    HW219329   6.122   3.699   6.362
 6144SOL     OW19330   4.739   4.604   2.816
 6144SOL    HW119331   4.673   4.537   2.782
 6144SOL    HW219332   4.691   4.687   2.844
 6145SOL     OW19333   4.909   3.538   4.512
 6145SOL    HW119334   4.955   3.605   4.569
 6145SOL    HW219335   4.923   3.561   4.416
 6146SOL     OW19336   4.917   0.492   4.709
 6146SOL    HW119337   4.824   0.473   4.743
 6146SOL    HW219338   4.968   0.406   4.704
 6147SOL     OW19339   2.381   2.288   3.931
 6147SOL    HW119340   2.407   2.240   4.014
 6147SOL    HW219341   2.412   2.383   3.936
 6148SOL     OW19342   3.637   5.549   6.913
 6148SOL    HW119343   3.654   5.451   6.898
 6148SOL    HW219344   3.559   5.578   6.858
 6149SOL     OW19345   2.735   0.035   1.944
 6149SOL    HW119346   2.679   0.002   2.020
 6149SOL    HW219347   2.698   0.121   1.909
 6150SOL     OW19348   6.402   4.172   6.311
 6150SOL    HW119349   6.358   4.240   6.370
 6150SOL    HW219350   6.347   4.158   6.229
 6151SOL     OW19351   4.597   4.481   4.467
 6151SOL    HW119352   4.569   4.395   4.509
 6151SOL    HW219353   4.682   4.468   4.417
 6152SOL     OW19354   0.549   4.570   4.088
 6152SOL    HW119355   0.538   4.568   4.187
 6152SOL    HW219356   0.635   4.525   4.063
 6153SOL     OW19357   4.766   5.240   1.091
 6153SOL    HW119358   4.737   5.325   1.047
 6153SOL    HW219359   4.853   5.256   1.138
 6154SOL     OW19360   5.918   3.037   2.086
 6154SOL    HW119361   5.853   2.972   2.126
 6154SOL    HW219362   5.952   3.098   2.157
 6155SOL     OW19363   2.432   0.726   2.640
 6155SOL    HW119364   2.354   0.701   2.698
 6155SOL    HW219365   2.488   0.795   2.686
 6156SOL     OW19366   5.034   4.451   1.410
 6156SOL    HW119367   4.943   4.485   1.435
 6156SOL    HW219368   5.101   4.524   1.422
 6157SOL     OW19369   1.165   2.398   2.695
 6157SOL    HW119370   1.093   2.409   2.627
 6157SOL    HW219371   1.165   2.305   2.730
 6158SOL     OW19372   2.817   2.690   5.442
 6158SOL    HW119373   2.744   2.687   5.374
 6158SOL    HW219374   2.898   2.733   5.403
 6159SOL     OW19375   5.964   1.839   0.362
 6159SOL    HW119376   6.055   1.801   0.383
 6159SOL    HW219377   5.897   1.801   0.425
 6160SOL     OW19378   0.896   6.948   6.917
 6160SOL    HW119379   0.871   6.852   6.925
 6160SOL    HW219380   0.958   6.961   6.839
 6161SOL     OW19381   4.830   2.456   6.778
 6161SOL    HW119382   4.907   2.506   6.739
 6161SOL    HW219383   4.854   2.425   6.870
 6162SOL     OW19384   6.515   5.671   2.685
 6162SOL    HW119385   6.427   5.708   2.714
 6162SOL    HW219386   6.589   5.734   2.711
 6163SOL     OW19387   5.685   6.562   2.970
 6163SOL    HW119388   5.694   6.539   3.067
 6163SOL    HW219389   5.733   6.493   2.915
 6164SOL     OW19390   4.112   3.313   4.152
 6164SOL    HW119391   4.086   3.222   4.185
 6164SOL    HW219392   4.139   3.370   4.229
 6165SOL     OW19393   4.184   2.004   0.463
 6165SOL    HW119394   4.154   2.035   0.372
 6165SOL    HW219395   4.147   2.065   0.533
 6166SOL     OW19396   0.461   2.563   6.987
 6166SOL    HW119397   0.513   2.592   0.042
 6166SOL    HW219398   0.500   2.479   6.950
 6167SOL     OW19399   1.347   3.547   3.420
 6167SOL    HW119400   1.411   3.519   3.492
 6167SOL    HW219401   1.256   3.558   3.459
 6168SOL     OW19402   0.378   2.858   4.384
 6168SOL    HW119403   0.316   2.810   4.445
 6168SOL    HW219404   0.327   2.924   4.329
 6169SOL     OW19405   1.871   0.138   0.416
 6169SOL    HW119406   1.847   0.122   0.320
 6169SOL    HW219407   1.829   0.067   0.473
 6170SOL     OW19408   3.768   4.233   7.020
 6170SOL    HW119409   3.713   4.149   7.021
 6170SOL    HW219410   3.813   4.242   6.931
 6171SOL     OW19411   1.106   4.894   2.688
 6171SOL    HW119412   1.106   4.953   2.769
 6171SOL    HW219413   1.196   4.852   2.677
 6172SOL     OW19414   1.265   7.013   2.855
 6172SOL    HW119415   1.265   0.029   2.945
 6172SOL    HW219416   1.186   6.952   2.845
 6173SOL     OW19417   0.904   4.562   3.079
 6173SOL    HW119418   0.955   4.647   3.069
 6173SOL    HW219419   0.808   4.577   3.054
 6174SOL     OW19420   5.692   5.413   2.684
 6174SOL    HW119421   5.605   5.402   2.732
 6174SOL    HW219422   5.694   5.354   2.604
 6175SOL     OW19423   5.029   0.164   2.835
 6175SOL    HW119424   4.948   0.210   2.872
 6175SOL    HW219425   5.063   0.098   2.902
 6176SOL     OW19426   5.770   2.768   6.345
 6176SOL    HW119427   5.676   2.744   6.320
 6176SOL    HW219428   5.811   2.693   6.397
 6177SOL     OW19429   5.561   2.201   1.529
 6177SOL    HW119430   5.635   2.163   1.473
 6177SOL    HW219431   5.482   2.219   1.471
 6178SOL     OW19432   4.983   3.676   0.579
 6178SOL    HW119433   4.982   3.675   0.679
 6178SOL    HW219434   5.022   3.762   0.547
 6179SOL     OW19435   0.571   2.693   5.336
 6179SOL    HW119436   0.614   2.720   5.422
 6179SOL    HW219437   0.489   2.748   5.322
 6180SOL     OW19438   3.760   7.000   1.154
 6180SOL    HW119439   3.675   6.977   1.107
 6180SOL    HW219440   3.755   6.969   1.249
 6181SOL     OW19441   5.019   6.193   6.637
 6181SOL    HW119442   5.093   6.136   6.673
 6181SOL    HW219443   4.940   6.137   6.613
 6182SOL     OW19444   5.208   5.478   5.757
 6182SOL    HW119445   5.270   5.403   5.777
 6182SOL    HW219446   5.160   5.506   5.840
 6183SOL     OW19447   2.647   6.919   2.986
 6183SOL    HW119448   2.745   6.926   2.972
 6183SOL    HW219449   2.624   6.826   3.015
 6184SOL     OW19450   1.140   0.278   6.585
 6184SOL    HW119451   1.073   0.232   6.527
 6184SOL    HW219452   1.187   0.348   6.532
 6185SOL     OW19453   6.792   3.738   6.281
 6185SOL    HW119454   6.741   3.731   6.195
 6185SOL    HW219455   6.806   3.646   6.319
 6186SOL     OW19456   5.514   0.210   3.766
 6186SOL    HW119457   5.531   0.206   3.864
 6186SOL    HW219458   5.434   0.267   3.748
 6187SOL     OW19459   4.404   4.571   4.246
 6187SOL    HW119460   4.437   4.492   4.297
 6187SOL    HW219461   4.455   4.653   4.274
 6188SOL     OW19462   3.099   6.491   1.629
 6188SOL    HW119463   3.156   6.556   1.579
 6188SOL    HW219464   3.056   6.427   1.565
 6189SOL     OW19465   5.258   5.459   3.305
 6189SOL    HW119466   5.187   5.415   3.361
 6189SOL    HW219467   5.306   5.527   3.361
 6190SOL     OW19468   5.089   2.547   6.342
 6190SOL    HW119469   5.057   2.594   6.424
 6190SOL    HW219470   5.041   2.460   6.332
 6191SOL     OW19471   5.489   1.854   6.994
 6191SOL    HW119472   5.497   1.876   0.065
 6191SOL    HW219473   5.456   1.760   6.983
 6192SOL     OW19474   2.688   3.212   0.638
 6192SOL    HW119475   2.621   3.143   0.666
 6192SOL    HW219476   2.758   3.220   0.709
 6193SOL     OW19477   5.649   0.322   1.840
 6193SOL    HW119478   5.699   0.338   1.925
 6193SOL    HW219479   5.554   0.350   1.851
 6194SOL     OW19480   2.395   0.799   0.800
 6194SOL    HW119481   2.459   0.775   0.727
 6194SOL    HW219482   2.422   0.886   0.841
 6195SOL     OW19483   3.625   6.723   6.158
 6195SOL    HW119484   3.558   6.658   6.192
 6195SOL    HW219485   3.706   6.723   6.218
 6196SOL     OW19486   1.353   2.308   5.920
 6196SOL    HW119487   1.347   2.213   5.948
 6196SOL    HW219488   1.431   2.320   5.857
 6197SOL     OW19489   2.873   3.753   1.003
 6197SOL    HW119490   2.964   3.767   1.042
 6197SOL    HW219491   2.816   3.834   1.022
 6198SOL     OW19492   3.686   4.875   2.336
 6198SOL    HW119493   3.611   4.894   2.399
 6198SOL    HW219494   3.690   4.946   2.265
 6199SOL     OW19495   1.421   0.300   0.791
 6199SOL    HW119496   1.428   0.211   0.838
 6199SOL    HW219497   1.426   0.373   0.858
 6200SOL     OW19498   3.137   1.202   6.614
 6200SOL    HW119499   3.112   1.273   6.548
 6200SOL    HW219500   3.089   1.117   6.591
 6201SOL     OW19501   2.093   3.590   5.434
 6201SOL    HW119502   2.176   3.578   5.379
 6201SOL    HW219503   2.035   3.660   5.394
 6202SOL     OW19504   2.973   1.935   1.223
 6202SOL    HW119505   2.945   2.026   1.253
 6202SOL    HW219506   2.925   1.866   1.276
 6203SOL     OW19507   4.884   1.283   4.564
 6203SOL    HW119508   4.883   1.285   4.664
 6203SOL    HW219509   4.898   1.189   4.532
 6204SOL     OW19510   1.465   5.882   5.154
 6204SOL    HW119511   1.540   5.834   5.200
 6204SOL    HW219512   1.433   5.827   5.077
 6205SOL     OW19513   4.858   5.444   6.656
 6205SOL    HW119514   4.950   5.477   6.638
 6205SOL    HW219515   4.797   5.472   6.582
 6206SOL     OW19516   6.292   0.687   2.177
 6206SOL    HW119517   6.302   0.701   2.276
 6206SOL    HW219518   6.241   0.762   2.137
 6207SOL     OW19519   1.060   3.863   4.792
 6207SOL    HW119520   1.102   3.801   4.858
 6207SOL    HW219521   1.130   3.902   4.733
 6208SOL     OW19522   6.433   0.005   6.129
 6208SOL    HW119523   6.354   6.970   6.143
 6208SOL    HW219524   6.454   0.053   6.214
 6209SOL     OW19525   4.772   6.555   0.126
 6209SOL    HW119526   4.728   6.636   0.087
 6209SOL    HW219527   4.871   6.570   0.130
 6210SOL     OW19528   5.539   4.234   3.011
 6210SOL    HW119529   5.630   4.251   2.973
 6210SOL    HW219530   5.508   4.316   3.060
 6211SOL     OW19531   2.700   0.807   5.504
 6211SOL    HW119532   2.646   0.816   5.420
 6211SOL    HW219533   2.797   0.820   5.483
 6212SOL     OW19534   6.531   6.424   3.868
 6212SOL    HW119535   6.578   6.362   3.931
 6212SOL    HW219536   6.472   6.372   3.807
 6213SOL     OW19537   5.777   0.530   6.842
 6213SOL    HW119538   5.821   0.574   6.921
 6213SOL    HW219539   5.701   0.472   6.874
 6214SOL     OW19540   6.129   4.822   2.647
 6214SOL    HW119541   6.201   4.761   2.682
 6214SOL    HW219542   6.145   4.838   2.549
 6215SOL     OW19543   2.998   2.771   1.048
 6215SOL    HW119544   3.005   2.735   0.955
 6215SOL    HW219545   3.080   2.823   1.070
 6216SOL     OW19546   5.940   1.523   2.385
 6216SOL    HW119547   5.927   1.498   2.481
 6216SOL    HW219548   5.946   1.622   2.377
 6217SOL     OW19549   4.740   2.505   1.129
 6217SOL    HW119550   4.809   2.541   1.192
 6217SOL    HW219551   4.667   2.572   1.117
 6218SOL     OW19552   2.084   4.984   4.754
 6218SOL    HW119553   2.134   4.904   4.785
 6218SOL    HW219554   2.009   4.956   4.695
 6219SOL     OW19555   1.252   2.145   4.805
 6219SOL    HW119556   1.335   2.199   4.820
 6219SOL    HW219557   1.255   2.103   4.714
 6220SOL     OW19558   2.022   4.853   5.326
 6220SOL    HW119559   2.068   4.777   5.371
 6220SOL    HW219560   2.027   4.934   5.385
 6221SOL     OW19561   4.079   5.255   4.629
 6221SOL    HW119562   4.127   5.184   4.680
 6221SOL    HW219563   4.131   5.340   4.633
 6222SOL     OW19564   6.940   6.917   1.880
 6222SOL    HW119565   6.936   6.964   1.792
 6222SOL    HW219566   6.931   6.984   1.954
 6223SOL     OW19567   5.549   4.284   4.566
 6223SOL    HW119568   5.647   4.274   4.551
 6223SOL    HW219569   5.531   4.363   4.624
 6224SOL     OW19570   2.161   1.323   5.635
 6224SOL    HW119571   2.072   1.361   5.660
 6224SOL    HW219572   2.201   1.278   5.715
 6225SOL     OW19573   3.591   3.337   0.777
 6225SOL    HW119574   3.508   3.388   0.800
 6225SOL    HW219575   3.662   3.356   0.845
 6226SOL     OW19576   5.341   0.918   4.438
 6226SOL    HW119577   5.410   0.853   4.473
 6226SOL    HW219578   5.373   0.957   4.352
 6227SOL     OW19579   3.369   4.357   5.754
 6227SOL    HW119580   3.312   4.281   5.786
 6227SOL    HW219581   3.459   4.352   5.798
 6228SOL     OW19582   6.715   1.159   3.052
 6228SOL    HW119583   6.616   1.147   3.048
 6228SOL    HW219584   6.736   1.257   3.053
 6229SOL     OW19585   2.433   2.129   2.869
 6229SOL    HW119586   2.408   2.066   2.943
 6229SOL    HW219587   2.482   2.207   2.907
 6230SOL     OW19588   2.375   1.712   4.007
 6230SOL    HW119589   2.337   1.622   4.028
 6230SOL    HW219590   2.314   1.783   4.042
 6231SOL     OW19591   0.447   5.315   1.523
 6231SOL    HW119592   0.427   5.362   1.437
 6231SOL    HW219593   0.449   5.380   1.598
 6232SOL     OW19594   6.999   0.790   0.340
 6232SOL    HW119595   6.967   0.844   0.262
 6232SOL    HW219596   0.065   0.755   0.321
 6233SOL     OW19597   4.804   1.766   6.413
 6233SOL    HW119598   4.810   1.725   6.322
 6233SOL    HW219599   4.792   1.693   6.481
 6234SOL     OW19600   2.027   2.173   4.559
 6234SOL    HW119601   2.050   2.095   4.617
 6234SOL    HW219602   1.928   2.186   4.557
 6235SOL     OW19603   2.179   0.088   2.674
 6235SOL    HW119604   2.079   0.090   2.675
 6235SOL    HW219605   2.213   0.108   2.766
 6236SOL     OW19606   0.580   5.238   0.940
 6236SOL    HW119607   0.539   5.329   0.943
 6236SOL    HW219608   0.580   5.198   1.031
 6237SOL     OW19609   4.639   6.701   0.644
 6237SOL    HW119610   4.699   6.749   0.708
 6237SOL    HW219611   4.615   6.612   0.682
 6238SOL     OW19612   5.216   5.426   1.783
 6238SOL    HW119613   5.236   5.496   1.852
 6238SOL    HW219614   5.138   5.372   1.813
 6239SOL     OW19615   2.936   6.889   2.666
 6239SOL    HW119616   2.899   6.952   2.598
 6239SOL    HW219617   2.982   6.813   2.620
 6240SOL     OW19618   2.053   3.082   0.336
 6240SOL    HW119619   2.066   3.082   0.237
 6240SOL    HW219620   2.032   3.175   0.367
 6241SOL     OW19621   2.723   0.512   1.512
 6241SOL    HW119622   2.782   0.562   1.448
 6241SOL    HW219623   2.777   0.443   1.560
 6242SOL     OW19624   5.186   1.432   3.971
 6242SOL    HW119625   5.248   1.362   3.936
 6242SOL    HW219626   5.189   1.513   3.912
 6243SOL     OW19627   5.646   6.873   4.166
 6243SOL    HW119628   5.640   6.889   4.068
 6243SOL    HW219629   5.704   6.794   4.184
 6244SOL     OW19630   2.703   2.381   2.690
 6244SOL    HW119631   2.605   2.401   2.684
 6244SOL    HW219632   2.730   2.326   2.611
 6245SOL     OW19633   3.118   4.916   1.368
 6245SOL    HW119634   3.073   4.854   1.432
 6245SOL    HW219635   3.062   4.927   1.287
 6246SOL     OW19636   2.529   1.919   6.201
 6246SOL    HW119637   2.610   1.861   6.191
 6246SOL    HW219638   2.507   1.962   6.114
 6247SOL     OW19639   0.733   6.800   3.693
 6247SOL    HW119640   0.778   6.793   3.604
 6247SOL    HW219641   0.729   6.709   3.735
 6248SOL     OW19642   0.947   4.669   1.478
 6248SOL    HW119643   0.868   4.659   1.538
 6248SOL    HW219644   0.988   4.759   1.491
 6249SOL     OW19645   6.989   4.269   0.020
 6249SOL    HW119646   6.949   4.187   0.061
 6249SOL    HW219647   0.045   4.295   0.071
 6250SOL     OW19648   6.513   6.424   0.123
 6250SOL    HW119649   6.574   6.371   0.181
 6250SOL    HW219650   6.563   6.456   0.042
 6251SOL     OW19651   4.444   1.397   0.841
 6251SOL    HW119652   4.422   1.490   0.869
 6251SOL    HW219653   4.527   1.367   0.889
 6252SOL     OW19654   3.092   5.053   5.049
 6252SOL    HW119655   3.091   4.957   5.077
 6252SOL    HW219656   3.139   5.061   4.960
 6253SOL     OW19657   2.500   4.223   1.698
 6253SOL    HW119658   2.463   4.198   1.788
 6253SOL    HW219659   2.551   4.308   1.706
 6254SOL     OW19660   5.782   0.174   0.423
 6254SOL    HW119661   5.874   0.151   0.455
 6254SOL    HW219662   5.720   0.181   0.501
 6255SOL     OW19663   0.563   1.037   1.764
 6255SOL    HW119664   0.606   1.053   1.853
 6255SOL    HW219665   0.626   1.066   1.692
 6256SOL     OW19666   3.846   5.135   2.484
 6256SOL    HW119667   3.781   5.156   2.411
 6256SOL    HW219668   3.804   5.074   2.550
 6257SOL     OW19669   5.671   2.625   0.918
 6257SOL    HW119670   5.733   2.645   0.994
 6257SOL    HW219671   5.723   2.616   0.833
 6258SOL     OW19672   4.555   1.201   2.081
 6258SOL    HW119673   4.635   1.166   2.129
 6258SOL    HW219674   4.472   1.159   2.118
 6259SOL     OW19675   3.018   2.368   1.448
 6259SOL    HW119676   3.111   2.383   1.482
 6259SOL    HW219677   2.981   2.453   1.412
 6260SOL     OW19678   3.792   4.061   0.588
 6260SOL    HW119679   3.854   4.007   0.532
 6260SOL    HW219680   3.710   4.084   0.535
 6261SOL     OW19681   3.741   0.675   0.467
 6261SOL    HW119682   3.712   0.628   0.550
 6261SOL    HW219683   3.828   0.721   0.483
 6262SOL     OW19684   1.176   4.501   0.158
 6262SOL    HW119685   1.129   4.549   0.084
 6262SOL    HW219686   1.273   4.493   0.134
 6263SOL     OW19687   0.007   7.000   0.403
 6263SOL    HW119688   7.002   6.921   0.349
 6263SOL    HW219689   0.105   7.013   0.389
 6264SOL     OW19690   2.638   2.038   1.016
 6264SOL    HW119691   2.637   1.942   0.990
 6264SOL    HW219692   2.548   2.079   0.997
 6265SOL     OW19693   3.971   4.440   0.859
 6265SOL    HW119694   3.954   4.514   0.924
 6265SOL    HW219695   4.039   4.377   0.898
 6266SOL     OW19696   3.301   0.908   3.471
 6266SOL    HW119697   3.259   0.818   3.463
 6266SOL    HW219698   3.307   0.935   3.567
 6267SOL     OW19699   2.873   0.310   0.228
 6267SOL    HW119700   2.783   0.353   0.223
 6267SOL    HW219701   2.925   0.330   0.145
 6268SOL     OW19702   3.080   5.188   2.914
 6268SOL    HW119703   3.043   5.252   2.981
 6268SOL    HW219704   3.094   5.099   2.957
 6269SOL     OW19705   5.973   5.906   2.273
 6269SOL    HW119706   5.878   5.935   2.280
 6269SOL    HW219707   5.977   5.816   2.230
 6270SOL     OW19708   1.328   1.356   4.982
 6270SOL    HW119709   1.254   1.405   5.029
 6270SOL    HW219710   1.355   1.406   4.900
 6271SOL     OW19711   0.206   2.154   6.605
 6271SOL    HW119712   0.294   2.112   6.625
 6271SOL    HW219713   0.177   2.210   6.684
 6272SOL     OW19714   2.436   2.744   4.355
 6272SOL    HW119715   2.381   2.670   4.316
 6272SOL    HW219716   2.444   2.818   4.288
 6273SOL     OW19717   2.166   1.556   1.593
 6273SOL    HW119718   2.227   1.548   1.514
 6273SOL    HW219719   2.081   1.601   1.565
 6274SOL     OW19720   3.391   5.666   6.906
 6274SOL    HW119721   3.458   5.739   6.894
 6274SOL    HW219722   3.300   5.700   6.882
 6275SOL     OW19723   2.481   0.177   4.799
 6275SOL    HW119724   2.450   0.213   4.711
 6275SOL    HW219725   2.570   0.217   4.822
 6276SOL     OW19726   1.014   5.351   3.596
 6276SOL    HW119727   0.986   5.440   3.634
 6276SOL    HW219728   1.099   5.362   3.544
 6277SOL     OW19729   5.067   2.533   2.699
 6277SOL    HW119730   5.061   2.621   2.652
 6277SOL    HW219731   5.084   2.460   2.633
 6278SOL     OW19732   4.424   0.103   4.385
 6278SOL    HW119733   4.342   0.048   4.372
 6278SOL    HW219734   4.420   0.146   4.475
 6279SOL     OW19735   3.854   1.708   0.994
 6279SOL    HW119736   3.889   1.624   1.037
 6279SOL    HW219737   3.833   1.775   1.065
 6280SOL     OW19738   0.237   3.635   5.920
 6280SOL    HW119739   0.302   3.643   5.844
 6280SOL    HW219740   0.152   3.682   5.898
 6281SOL     OW19741   1.967   0.399   5.349
 6281SOL    HW119742   2.001   0.451   5.271
 6281SOL    HW219743   1.987   0.448   5.434
 6282SOL     OW19744   2.032   0.166   4.335
 6282SOL    HW119745   1.953   0.122   4.378
 6282SOL    HW219746   2.016   0.265   4.329
 6283SOL     OW19747   7.011   2.305   5.272
 6283SOL    HW119748   7.018   2.378   5.341
 6283SOL    HW219749   0.068   2.305   5.215
 6284SOL     OW19750   1.303   4.769   5.459
 6284SOL    HW119751   1.397   4.784   5.487
 6284SOL    HW219752   1.299   4.747   5.362
 6285SOL     OW19753   1.185   2.933   4.079
 6285SOL    HW119754   1.236   2.877   4.014
 6285SOL    HW219755   1.247   3.000   4.120
 6286SOL     OW19756   5.570   1.559   3.261
 6286SOL    HW119757   5.519   1.627   3.208
 6286SOL    HW219758   5.666   1.560   3.233
 6287SOL     OW19759   4.835   3.647   2.037
 6287SOL    HW119760   4.847   3.611   1.944
 6287SOL    HW219761   4.844   3.747   2.034
 6288SOL     OW19762   5.308   3.425   0.165
 6288SOL    HW119763   5.344   3.478   0.241
 6288SOL    HW219764   5.213   3.399   0.184
 6289SOL     OW19765   2.156   1.974   3.809
 6289SOL    HW119766   2.186   2.057   3.762
 6289SOL    HW219767   2.173   1.895   3.752
 6290SOL     OW19768   5.077   4.131   4.210
 6290SOL    HW119769   5.022   4.053   4.240
 6290SOL    HW219770   5.051   4.156   4.117
 6291SOL     OW19771   3.821   3.615   3.179
 6291SOL    HW119772   3.916   3.643   3.194
 6291SOL    HW219773   3.789   3.562   3.257
 6292SOL     OW19774   0.977   1.740   3.005
 6292SOL    HW119775   0.921   1.658   3.011
 6292SOL    HW219776   0.924   1.819   3.035
 6293SOL     OW19777   5.142   0.233   0.113
 6293SOL    HW119778   5.172   0.223   0.018
 6293SOL    HW219779   5.085   0.155   0.139
 6294SOL     OW19780   3.438   5.208   2.898
 6294SOL    HW119781   3.436   5.113   2.929
 6294SOL    HW219782   3.491   5.213   2.813
 6295SOL     OW19783   5.502   5.964   5.708
 6295SOL    HW119784   5.456   6.011   5.633
 6295SOL    HW219785   5.480   5.866   5.704
 6296SOL     OW19786   0.068   0.692   3.447
 6296SOL    HW119787   7.011   0.748   3.437
 6296SOL    HW219788   0.123   0.698   3.364
 6297SOL     OW19789   5.342   6.273   5.829
 6297SOL    HW119790   5.367   6.183   5.863
 6297SOL    HW219791   5.402   6.299   5.754
 6298SOL     OW19792   0.468   3.542   5.478
 6298SOL    HW119793   0.422   3.572   5.561
 6298SOL    HW219794   0.423   3.460   5.443
 6299SOL     OW19795   6.192   2.624   6.545
 6299SOL    HW119796   6.212   2.667   6.457
 6299SOL    HW219797   6.257   2.657   6.614
 6300SOL     OW19798   4.815   0.797   4.361
 6300SOL    HW119799   4.804   0.803   4.460
 6300SOL    HW219800   4.911   0.786   4.338
 6301SOL     OW19801   3.022   6.562   1.231
 6301SOL    HW119802   2.931   6.587   1.265
 6301SOL    HW219803   3.091   6.610   1.284
 6302SOL     OW19804   1.994   0.816   3.675
 6302SOL    HW119805   1.983   0.779   3.767
 6302SOL    HW219806   1.911   0.801   3.623
 6303SOL     OW19807   2.315   6.836   4.871
 6303SOL    HW119808   2.260   6.894   4.810
 6303SOL    HW219809   2.359   6.764   4.818
 6304SOL     OW19810   2.650   1.314   0.390
 6304SOL    HW119811   2.736   1.287   0.433
 6304SOL    HW219812   2.605   1.233   0.352
 6305SOL     OW19813   0.141   6.841   1.519
 6305SOL    HW119814   0.181   6.842   1.428
 6305SOL    HW219815   0.100   6.752   1.537
 6306SOL     OW19816   6.650   2.817   3.751
 6306SOL    HW119817   6.746   2.789   3.756
 6306SOL    HW219818   6.611   2.791   3.663
 6307SOL     OW19819   2.647   5.088   6.372
 6307SOL    HW119820   2.633   5.104   6.470
 6307SOL    HW219821   2.592   5.010   6.342
 6308SOL     OW19822   2.998   1.784   5.032
 6308SOL    HW119823   3.051   1.847   5.089
 6308SOL    HW219824   2.935   1.836   4.975
 6309SOL     OW19825   5.288   2.336   3.997
 6309SOL    HW119826   5.376   2.369   3.963
 6309SOL    HW219827   5.255   2.262   3.939
 6310SOL     OW19828   1.360   4.819   5.176
 6310SOL    HW119829   1.352   4.873   5.093
 6310SOL    HW219830   1.455   4.789   5.188
 6311SOL     OW19831   6.216   0.169   5.160
 6311SOL    HW119832   6.291   0.233   5.177
 6311SOL    HW219833   6.186   0.128   5.246
 6312SOL     OW19834   4.168   5.142   6.343
 6312SOL    HW119835   4.211   5.057   6.312
 6312SOL    HW219836   4.237   5.202   6.383
 6313SOL     OW19837   2.020   5.437   3.472
 6313SOL    HW119838   2.014   5.357   3.412
 6313SOL    HW219839   2.100   5.492   3.446
 6314SOL     OW19840   2.442   5.765   2.845
 6314SOL    HW119841   2.500   5.846   2.834
 6314SOL    HW219842   2.432   5.745   2.943
 6315SOL     OW19843   3.350   3.558   0.097
 6315SOL    HW119844   3.407   3.547   0.016
 6315SOL    HW219845   3.274   3.494   0.093
 6316SOL     OW19846   4.592   1.822   5.734
 6316SOL    HW119847   4.512   1.763   5.745
 6316SOL    HW219848   4.592   1.862   5.642
 6317SOL     OW19849   5.040   6.777   2.714
 6317SOL    HW119850   4.987   6.804   2.794
 6317SOL    HW219851   5.035   6.850   2.645
 6318SOL     OW19852   2.187   2.143   5.442
 6318SOL    HW119853   2.212   2.180   5.352
 6318SOL    HW219854   2.247   2.183   5.512
 6319SOL     OW19855   1.086   2.435   3.413
 6319SOL    HW119856   1.142   2.393   3.342
 6319SOL    HW219857   1.066   2.530   3.387
 6320SOL     OW19858   5.672   3.624   3.128
 6320SOL    HW119859   5.761   3.580   3.119
 6320SOL    HW219860   5.663   3.695   3.059
 6321SOL     OW19861   3.060   5.463   0.404
 6321SOL    HW119862   3.052   5.415   0.317
 6321SOL    HW219863   3.062   5.562   0.388
 6322SOL     OW19864   1.387   1.234   6.883
 6322SOL    HW119865   1.432   1.164   6.940
 6322SOL    HW219866   1.435   1.242   6.796
 6323SOL     OW19867   3.617   2.812   1.563
 6323SOL    HW119868   3.705   2.782   1.525
 6323SOL    HW219869   3.577   2.738   1.617
 6324SOL     OW19870   4.078   0.967   5.798
 6324SOL    HW119871   4.012   1.037   5.826
 6324SOL    HW219872   4.154   0.964   5.863
 6325SOL     OW19873   0.798   2.867   1.958
 6325SOL    HW119874   0.836   2.850   2.049
 6325SOL    HW219875   0.784   2.966   1.946
 6326SOL     OW19876   5.331   5.816   1.397
 6326SOL    HW119877   5.287   5.846   1.482
 6326SOL    HW219878   5.368   5.895   1.348
 6327SOL     OW19879   5.457   5.940   5.415
 6327SOL    HW119880   5.435   6.015   5.352
 6327SOL    HW219881   5.374   5.886   5.433
 6328SOL     OW19882   2.065   3.924   0.072
 6328SOL    HW119883   1.997   3.866   0.027
 6328SOL    HW219884   2.153   3.877   0.074
 6329SOL     OW19885   1.619   1.329   3.669
 6329SOL    HW119886   1.627   1.250   3.608
 6329SOL    HW219887   1.701   1.335   3.726
 6330SOL     OW19888   4.486   0.738   0.178
 6330SOL    HW119889   4.545   0.817   0.164
 6330SOL    HW219890   4.399   0.753   0.131
 6331SOL     OW19891   6.440   1.515   1.219
 6331SOL    HW119892   6.507   1.507   1.145
 6331SOL    HW219893   6.481   1.567   1.294
 6332SOL     OW19894   6.003   5.857   1.142
 6332SOL    HW119895   5.977   5.913   1.063
 6332SOL    HW219896   5.938   5.782   1.153
 6333SOL     OW19897   3.396   4.973   3.593
 6333SOL    HW119898   3.483   4.959   3.641
 6333SOL    HW219899   3.405   4.941   3.499
 6334SOL     OW19900   2.089   0.229   2.304
 6334SOL    HW119901   1.998   0.245   2.344
 6334SOL    HW219902   2.085   0.150   2.244
 6335SOL     OW19903   6.550   0.961   6.527
 6335SOL    HW119904   6.506   0.902   6.460
 6335SOL    HW219905   6.623   0.911   6.574
 6336SOL     OW19906   0.372   2.580   4.818
 6336SOL    HW119907   0.455   2.527   4.802
 6336SOL    HW219908   0.351   2.581   4.916
 6337SOL     OW19909   5.157   3.485   5.963
 6337SOL    HW119910   5.198   3.460   5.875
 6337SOL    HW219911   5.129   3.402   6.011
 6338SOL     OW19912   3.283   1.640   2.965
 6338SOL    HW119913   3.257   1.665   2.872
 6338SOL    HW219914   3.367   1.586   2.964
 6339SOL     OW19915   0.623   2.465   3.246
 6339SOL    HW119916   0.699   2.466   3.311
 6339SOL    HW219917   0.548   2.411   3.283
 6340SOL     OW19918   2.793   5.935   3.860
 6340SOL    HW119919   2.817   5.849   3.904
 6340SOL    HW219920   2.793   5.922   3.760
 6341SOL     OW19921   6.753   4.590   3.097
 6341SOL    HW119922   6.819   4.636   3.037
 6341SOL    HW219923   6.760   4.491   3.085
 6342SOL     OW19924   2.045   2.448   2.188
 6342SOL    HW119925   2.095   2.399   2.116
 6342SOL    HW219926   1.958   2.402   2.206
 6343SOL     OW19927   3.896   2.016   6.537
 6343SOL    HW119928   3.834   2.087   6.503
 6343SOL    HW219929   3.919   1.954   6.462
 6344SOL     OW19930   0.356   3.829   4.692
 6344SOL    HW119931   0.308   3.901   4.743
 6344SOL    HW219932   0.409   3.773   4.755
 6345SOL     OW19933   2.948   1.772   1.974
 6345SOL    HW119934   2.878   1.793   1.905
 6345SOL    HW219935   2.986   1.857   2.009
 6346SOL     OW19936   0.127   3.858   2.970
 6346SOL    HW119937   0.183   3.851   3.052
 6346SOL    HW219938   0.100   3.766   2.941
 6347SOL     OW19939   2.755   0.351   0.840
 6347SOL    HW119940   2.691   0.395   0.776
 6347SOL    HW219941   2.704   0.288   0.899
 6348SOL     OW19942   0.898   3.079   4.297
 6348SOL    HW119943   0.926   2.992   4.255
 6348SOL    HW219944   0.968   3.110   4.361
 6349SOL     OW19945   2.838   0.588   1.109
 6349SOL    HW119946   2.755   0.641   1.090
 6349SOL    HW219947   2.893   0.583   1.026
 6350SOL     OW19948   1.886   6.164   2.248
 6350SOL    HW119949   1.892   6.260   2.277
 6350SOL    HW219950   1.802   6.151   2.194
 6351SOL     OW19951   0.050   1.652   1.942
 6351SOL    HW119952   0.108   1.733   1.955
 6351SOL    HW219953   0.076   1.606   1.858
 6352SOL     OW19954   1.942   5.259   2.895
 6352SOL    HW119955   1.956   5.251   2.796
 6352SOL    HW219956   1.864   5.203   2.922
 6353SOL     OW19957   0.858   0.067   0.131
 6353SOL    HW119958   0.871   0.005   0.054
 6353SOL    HW219959   0.890   0.024   0.215
 6354SOL     OW19960   1.080   6.988   2.520
 6354SOL    HW119961   1.061   6.904   2.468
 6354SOL    HW219962   1.178   6.992   2.540
 6355SOL     OW19963   1.347   3.021   3.491
 6355SOL    HW119964   1.365   3.065   3.578
 6355SOL    HW219965   1.267   3.063   3.448
 6356SOL     OW19966   3.870   4.943   0.903
 6356SOL    HW119967   3.794   4.897   0.856
 6356SOL    HW219968   3.949   4.949   0.842
 6357SOL     OW19969   4.619   2.803   0.588
 6357SOL    HW119970   4.699   2.857   0.562
 6357SOL    HW219971   4.546   2.819   0.522
 6358SOL     OW19972   0.206   2.384   3.951
 6358SOL    HW119973   0.219   2.285   3.949
 6358SOL    HW219974   0.137   2.407   4.020
 6359SOL     OW19975   0.199   0.536   5.405
 6359SOL    HW119976   0.273   0.568   5.464
 6359SOL    HW219977   0.196   0.436   5.408
 6360SOL     OW19978   2.608   5.023   4.253
 6360SOL    HW119979   2.580   4.950   4.315
 6360SOL    HW219980   2.527   5.067   4.213
 6361SOL     OW19981   4.174   6.332   6.070
 6361SOL    HW119982   4.117   6.269   6.123
 6361SOL    HW219983   4.158   6.426   6.102
 6362SOL     OW19984   6.104   5.030   0.092
 6362SOL    HW119985   6.143   5.072   0.010
 6362SOL    HW219986   6.153   5.063   0.172
 6363SOL     OW19987   1.780   5.669   4.266
 6363SOL    HW119988   1.864   5.635   4.306
 6363SOL    HW219989   1.735   5.595   4.215
 6364SOL     OW19990   2.666   2.639   5.939
 6364SOL    HW119991   2.570   2.640   5.967
 6364SOL    HW219992   2.716   2.708   5.991
 6365SOL     OW19993   4.509   6.759   3.436
 6365SOL    HW119994   4.421   6.758   3.482
 6365SOL    HW219995   4.499   6.799   3.345
 6366SOL     OW19996   0.562   5.210   5.130
 6366SOL    HW119997   0.535   5.133   5.072
 6366SOL    HW219998   0.578   5.178   5.224
 6367SOL     OW19999   5.244   0.380   3.311
 6367SOL    HW120000   5.330   0.375   3.362
 6367SOL    HW220001   5.237   0.470   3.267
 6368SOL     OW20002   2.800   0.097   4.081
 6368SOL    HW120003   2.838   0.012   4.044
 6368SOL    HW220004   2.747   0.077   4.163
 6369SOL     OW20005   2.220   5.131   3.607
 6369SOL    HW120006   2.245   5.067   3.680
 6369SOL    HW220007   2.126   5.161   3.621
 6370SOL     OW20008   6.580   1.943   1.474
 6370SOL    HW120009   6.573   1.912   1.569
 6370SOL    HW220010   6.512   1.895   1.418
 6371SOL     OW20011   4.854   3.099   2.566
 6371SOL    HW120012   4.824   3.003   2.571
 6371SOL    HW220013   4.802   3.146   2.496
 6372SOL     OW20014   3.852   6.322   2.338
 6372SOL    HW120015   3.862   6.391   2.409
 6372SOL    HW220016   3.808   6.240   2.376
 6373SOL     OW20017   4.640   4.087   5.619
 6373SOL    HW120018   4.627   4.186   5.626
 6373SOL    HW220019   4.553   4.044   5.595
 6374SOL     OW20020   2.911   3.470   3.213
 6374SOL    HW120021   3.009   3.466   3.191
 6374SOL    HW220022   2.895   3.422   3.300
 6375SOL     OW20023   1.629   0.439   2.984
 6375SOL    HW120024   1.623   0.504   3.059
 6375SOL    HW220025   1.719   0.443   2.942
 6376SOL     OW20026   6.570   2.375   4.550
 6376SOL    HW120027   6.615   2.457   4.586
 6376SOL    HW220028   6.473   2.394   4.535
 6377SOL     OW20029   0.071   1.073   4.899
 6377SOL    HW120030   0.136   1.039   4.967
 6377SOL    HW220031   7.004   1.047   4.925
 6378SOL     OW20032   4.845   3.961   4.249
 6378SOL    HW120033   4.834   3.894   4.323
 6378SOL    HW220034   4.839   3.914   4.161
 6379SOL     OW20035   2.312   4.178   3.973
 6379SOL    HW120036   2.408   4.206   3.980
 6379SOL    HW220037   2.258   4.227   4.040
 6380SOL     OW20038   0.455   1.218   6.021
 6380SOL    HW120039   0.398   1.248   5.945
 6380SOL    HW220040   0.550   1.214   5.992
 6381SOL     OW20041   3.135   3.784   3.024
 6381SOL    HW120042   3.121   3.880   3.050
 6381SOL    HW220043   3.158   3.779   2.926
 6382SOL     OW20044   0.699   3.107   5.973
 6382SOL    HW120045   0.757   3.039   6.017
 6382SOL    HW220046   0.621   3.062   5.929
 6383SOL     OW20047   2.814   1.917   4.298
 6383SOL    HW120048   2.749   1.845   4.272
 6383SOL    HW220049   2.788   2.003   4.254
 6384SOL     OW20050   6.178   5.351   3.130
 6384SOL    HW120051   6.199   5.430   3.071
 6384SOL    HW220052   6.214   5.369   3.222
 6385SOL     OW20053   0.199   5.462   4.236
 6385SOL    HW120054   0.235   5.388   4.292
 6385SOL    HW220055   0.156   5.425   4.154
 6386SOL     OW20056   2.915   5.350   0.880
 6386SOL    HW120057   2.891   5.352   0.783
 6386SOL    HW220058   2.860   5.281   0.927
 6387SOL     OW20059   0.293   1.777   5.499
 6387SOL    HW120060   0.341   1.778   5.411
 6387SOL    HW220061   0.262   1.869   5.520
 6388SOL     OW20062   3.276   4.874   1.971
 6388SOL    HW120063   3.266   4.777   1.952
 6388SOL    HW220064   3.249   4.893   2.065
 6389SOL     OW20065   1.199   5.760   2.925
 6389SOL    HW120066   1.267   5.698   2.966
 6389SOL    HW220067   1.239   5.851   2.914
 6390SOL     OW20068   0.467   2.700   3.714
 6390SOL    HW120069   0.391   2.678   3.653
 6390SOL    HW220070   0.544   2.638   3.695
 6391SOL     OW20071   2.604   2.421   0.293
 6391SOL    HW120072   2.691   2.460   0.322
 6391SOL    HW220073   2.533   2.443   0.360
 6392SOL     OW20074   1.624   7.015   3.673
 6392SOL    HW120075   1.637   0.039   3.587
 6392SOL    HW220076   1.712   7.007   3.720
 6393SOL     OW20077   6.004   6.608   0.514
 6393SOL    HW120078   6.078   6.582   0.576
 6393SOL    HW220079   5.991   6.537   0.445
 6394SOL     OW20080   2.342   5.095   0.434
 6394SOL    HW120081   2.246   5.071   0.446
 6394SOL    HW220082   2.369   5.076   0.340
 6395SOL     OW20083   6.299   1.078   1.243
 6395SOL    HW120084   6.259   1.101   1.154
 6395SOL    HW220085   6.319   1.162   1.292
 6396SOL     OW20086   4.844   3.179   5.497
 6396SOL    HW120087   4.761   3.161   5.549
 6396SOL    HW220088   4.916   3.115   5.526
 6397SOL     OW20089   0.329   2.116   6.900
 6397SOL    HW120090   0.299   2.211   6.891
 6397SOL    HW220091   0.423   2.114   6.935
 6398SOL     OW20092   2.761   1.912   1.814
 6398SOL    HW120093   2.780   1.953   1.725
 6398SOL    HW220094   2.687   1.962   1.859
 6399SOL     OW20095   1.821   5.817   0.040
 6399SOL    HW120096   1.836   5.759   6.985
 6399SOL    HW220097   1.733   5.793   0.083
 6400SOL     OW20098   2.943   5.660   3.335
 6400SOL    HW120099   3.015   5.609   3.287
 6400SOL    HW220100   2.890   5.598   3.392
 6401SOL     OW20101   0.439   4.340   3.516
 6401SOL    HW120102   0.383   4.344   3.433
 6401SOL    HW220103   0.465   4.245   3.534
 6402SOL     OW20104   2.604   0.856   3.104
 6402SOL    HW120105   2.632   0.851   3.008
 6402SOL    HW220106   2.519   0.908   3.112
 6403SOL     OW20107   1.171   4.579   6.422
 6403SOL    HW120108   1.216   4.612   6.339
 6403SOL    HW220109   1.216   4.618   6.502
 6404SOL     OW20110   4.548   1.888   3.256
 6404SOL    HW120111   4.586   1.930   3.338
 6404SOL    HW220112   4.454   1.860   3.274
 6405SOL     OW20113   2.672   1.653   2.669
 6405SOL    HW120114   2.677   1.562   2.711
 6405SOL    HW220115   2.655   1.643   2.571
 6406SOL     OW20116   2.313   1.156   3.982
 6406SOL    HW120117   2.383   1.162   3.911
 6406SOL    HW220118   2.230   1.116   3.943
 6407SOL     OW20119   3.800   5.961   5.184
 6407SOL    HW120120   3.842   6.021   5.252
 6407SOL    HW220121   3.854   5.877   5.176
 6408SOL     OW20122   5.488   1.213   6.570
 6408SOL    HW120123   5.433   1.221   6.652
 6408SOL    HW220124   5.456   1.136   6.515
 6409SOL     OW20125   6.464   3.396   3.283
 6409SOL    HW120126   6.417   3.433   3.204
 6409SOL    HW220127   6.409   3.411   3.365
 6410SOL     OW20128   1.589   1.558   0.510
 6410SOL    HW120129   1.543   1.645   0.494
 6410SOL    HW220130   1.614   1.517   0.423
 6411SOL     OW20131   0.688   1.391   3.708
 6411SOL    HW120132   0.668   1.377   3.611
 6411SOL    HW220133   0.785   1.373   3.725
 6412SOL     OW20134   6.657   2.921   5.575
 6412SOL    HW120135   6.697   2.979   5.646
 6412SOL    HW220136   6.587   2.973   5.525
 6413SOL     OW20137   6.657   4.517   1.532
 6413SOL    HW120138   6.701   4.505   1.621
 6413SOL    HW220139   6.680   4.440   1.473
 6414SOL     OW20140   6.751   0.337   1.472
 6414SOL    HW120141   6.676   0.404   1.472
 6414SOL    HW220142   6.715   0.247   1.496
 6415SOL     OW20143   1.513   2.008   2.072
 6415SOL    HW120144   1.539   2.058   1.990
 6415SOL    HW220145   1.413   2.006   2.080
 6416SOL     OW20146   1.360   0.119   6.667
 6416SOL    HW120147   1.444   0.173   6.666
 6416SOL    HW220148   1.285   0.173   6.628
 6417SOL     OW20149   0.815   0.219   3.661
 6417SOL    HW120150   0.807   0.182   3.753
 6417SOL    HW220151   0.794   0.316   3.661
 6418SOL     OW20152   0.494   5.736   2.422
 6418SOL    HW120153   0.571   5.673   2.432
 6418SOL    HW220154   0.444   5.715   2.338
 6419SOL     OW20155   3.721   4.895   1.746
 6419SOL    HW120156   3.663   4.861   1.820
 6419SOL    HW220157   3.814   4.908   1.781
 6420SOL     OW20158   2.475   3.994   6.266
 6420SOL    HW120159   2.445   4.059   6.196
 6420SOL    HW220160   2.575   3.995   6.271
 6421SOL     OW20161   5.187   0.598   1.079
 6421SOL    HW120162   5.233   0.687   1.089
 6421SOL    HW220163   5.254   0.529   1.050
 6422SOL     OW20164   6.866   1.516   3.446
 6422SOL    HW120165   6.789   1.509   3.383
 6422SOL    HW220166   6.909   1.426   3.455
 6423SOL     OW20167   5.442   3.366   0.902
 6423SOL    HW120168   5.344   3.382   0.910
 6423SOL    HW220169   5.460   3.305   0.825
 6424SOL     OW20170   6.561   3.958   6.395
 6424SOL    HW120171   6.636   3.915   6.345
 6424SOL    HW220172   6.533   4.042   6.348
 6425SOL     OW20173   0.467   4.667   2.410
 6425SOL    HW120174   0.455   4.763   2.382
 6425SOL    HW220175   0.564   4.647   2.420
 6426SOL     OW20176   1.502   2.371   3.498
 6426SOL    HW120177   1.499   2.462   3.456
 6426SOL    HW220178   1.488   2.380   3.597
 6427SOL     OW20179   1.408   3.423   5.632
 6427SOL    HW120180   1.376   3.362   5.560
 6427SOL    HW220181   1.381   3.517   5.610
 6428SOL     OW20182   6.570   3.551   1.949
 6428SOL    HW120183   6.554   3.583   1.856
 6428SOL    HW220184   6.571   3.451   1.951
 6429SOL     OW20185   1.697   0.674   4.292
 6429SOL    HW120186   1.657   0.693   4.381
 6429SOL    HW220187   1.717   0.577   4.284
 6430SOL     OW20188   5.473   1.424   1.250
 6430SOL    HW120189   5.385   1.437   1.296
 6430SOL    HW220190   5.531   1.364   1.305
 6431SOL     OW20191   5.046   6.624   3.144
 6431SOL    HW120192   5.116   6.686   3.108
 6431SOL    HW220193   5.001   6.666   3.222
 6432SOL     OW20194   5.162   3.407   0.953
 6432SOL    HW120195   5.161   3.416   1.053
 6432SOL    HW220196   5.093   3.468   0.913
 6433SOL     OW20197   2.795   4.452   1.441
 6433SOL    HW120198   2.719   4.426   1.501
 6433SOL    HW220199   2.814   4.378   1.378
 6434SOL     OW20200   1.354   3.876   0.622
 6434SOL    HW120201   1.280   3.808   0.625
 6434SOL    HW220202   1.356   3.920   0.532
 6435SOL     OW20203   4.320   4.896   6.625
 6435SOL    HW120204   4.402   4.930   6.579
 6435SOL    HW220205   4.341   4.878   6.721
 6436SOL     OW20206   1.881   3.071   3.350
 6436SOL    HW120207   1.872   3.091   3.253
 6436SOL    HW220208   1.825   2.991   3.373
 6437SOL     OW20209   1.246   6.953   0.003
 6437SOL    HW120210   1.286   6.864   7.008
 6437SOL    HW220211   1.199   6.949   0.091
 6438SOL     OW20212   1.164   3.874   3.763
 6438SOL    HW120213   1.116   3.814   3.827
 6438SOL    HW220214   1.249   3.830   3.735
 6439SOL     OW20215   1.128   6.661   0.881
 6439SOL    HW120216   1.208   6.602   0.891
 6439SOL    HW220217   1.144   6.747   0.929
 6440SOL     OW20218   1.198   1.556   2.473
 6440SOL    HW120219   1.255   1.620   2.526
 6440SOL    HW220220   1.128   1.517   2.533
 6441SOL     OW20221   2.170   1.204   3.220
 6441SOL    HW120222   2.158   1.153   3.305
 6441SOL    HW220223   2.168   1.302   3.239
 6442SOL     OW20224   2.216   2.355   4.488
 6442SOL    HW120225   2.146   2.286   4.508
 6442SOL    HW220226   2.284   2.355   4.561
 6443SOL     OW20227   3.168   3.154   0.750
 6443SOL    HW120228   3.221   3.156   0.665
 6443SOL    HW220229   3.113   3.070   0.752
 6444SOL     OW20230   0.628   1.721   3.024
 6444SOL    HW120231   0.692   1.644   3.016
 6444SOL    HW220232   0.680   1.805   3.041
 6445SOL     OW20233   4.093   2.853   5.318
 6445SOL    HW120234   4.069   2.761   5.285
 6445SOL    HW220235   4.110   2.849   5.417
 6446SOL     OW20236   6.513   1.227   6.922
 6446SOL    HW120237   6.533   1.325   6.932
 6446SOL    HW220238   6.415   1.212   6.933
 6447SOL     OW20239   2.056   6.520   2.067
 6447SOL    HW120240   2.111   6.599   2.043
 6447SOL    HW220241   2.112   6.437   2.065
 6448SOL     OW20242   6.378   2.768   3.088
 6448SOL    HW120243   6.284   2.801   3.084
 6448SOL    HW220244   6.419   2.772   2.997
 6449SOL     OW20245   3.210   3.274   1.582
 6449SOL    HW120246   3.187   3.214   1.506
 6449SOL    HW220247   3.268   3.349   1.550
 6450SOL     OW20248   6.264   3.699   1.260
 6450SOL    HW120249   6.164   3.695   1.263
 6450SOL    HW220250   6.300   3.608   1.239
 6451SOL     OW20251   2.401   6.372   5.519
 6451SOL    HW120252   2.449   6.374   5.431
 6451SOL    HW220253   2.452   6.316   5.584
 6452SOL     OW20254   3.058   6.884   4.303
 6452SOL    HW120255   3.075   6.977   4.273
 6452SOL    HW220256   2.989   6.842   4.244
 6453SOL     OW20257   1.310   6.193   6.694
 6453SOL    HW120258   1.316   6.291   6.673
 6453SOL    HW220259   1.402   6.153   6.695
 6454SOL     OW20260   2.955   1.484   4.552
 6454SOL    HW120261   2.899   1.496   4.470
 6454SOL    HW220262   2.934   1.556   4.618
 6455SOL     OW20263   6.863   2.808   5.119
 6455SOL    HW120264   6.767   2.780   5.113
 6455SOL    HW220265   6.869   2.897   5.164
 6456SOL     OW20266   0.565   0.777   3.026
 6456SOL    HW120267   0.540   0.681   3.033
 6456SOL    HW220268   0.663   0.786   3.007
 6457SOL     OW20269   6.421   2.675   1.850
 6457SOL    HW120270   6.446   2.754   1.906
 6457SOL    HW220271   6.326   2.650   1.868
 6458SOL     OW20272   1.355   5.545   3.037
 6458SOL    HW120273   1.362   5.447   3.018
 6458SOL    HW220274   1.427   5.570   3.102
 6459SOL     OW20275   6.315   4.511   0.463
 6459SOL    HW120276   6.411   4.539   0.470
 6459SOL    HW220277   6.273   4.513   0.554
 6460SOL     OW20278   3.696   4.633   6.560
 6460SOL    HW120279   3.696   4.689   6.643
 6460SOL    HW220280   3.790   4.606   6.538
 6461SOL     OW20281   3.485   4.933   5.045
 6461SOL    HW120282   3.501   4.861   5.113
 6461SOL    HW220283   3.494   5.023   5.088
 6462SOL     OW20284   1.804   3.193   5.146
 6462SOL    HW120285   1.883   3.172   5.204
 6462SOL    HW220286   1.810   3.142   5.061
 6463SOL     OW20287   2.352   4.676   6.201
 6463SOL    HW120288   2.411   4.595   6.203
 6463SOL    HW220289   2.278   4.664   6.267
 6464SOL     OW20290   0.592   5.290   3.526
 6464SOL    HW120291   0.650   5.318   3.603
 6464SOL    HW220292   0.496   5.306   3.549
 6465SOL     OW20293   5.834   1.571   3.855
 6465SOL    HW120294   5.897   1.595   3.930
 6465SOL    HW220295   5.819   1.652   3.798
 6466SOL     OW20296   0.213   2.585   5.091
 6466SOL    HW120297   0.243   2.490   5.089
 6466SOL    HW220298   0.244   2.628   5.176
 6467SOL     OW20299   2.841   1.477   6.862
 6467SOL    HW120300   2.785   1.424   6.926
 6467SOL    HW220301   2.798   1.566   6.846
 6468SOL     OW20302   4.916   6.010   1.174
 6468SOL    HW120303   4.907   6.060   1.260
 6468SOL    HW220304   4.986   5.940   1.183
 6469SOL     OW20305   6.751   0.438   5.664
 6469SOL    HW120306   6.702   0.418   5.580
 6469SOL    HW220307   6.752   0.357   5.723
 6470SOL     OW20308   5.920   6.620   5.989
 6470SOL    HW120309   6.016   6.596   5.973
 6470SOL    HW220310   5.898   6.704   5.940
 6471SOL     OW20311   6.839   4.980   6.901
 6471SOL    HW120312   6.827   4.917   6.824
 6471SOL    HW220313   6.931   5.019   6.898
 6472SOL     OW20314   1.181   6.595   1.664
 6472SOL    HW120315   1.186   6.534   1.585
 6472SOL    HW220316   1.257   6.575   1.726
 6473SOL     OW20317   1.765   1.373   6.322
 6473SOL    HW120318   1.712   1.420   6.392
 6473SOL    HW220319   1.732   1.399   6.231
 6474SOL     OW20320   1.136   3.529   5.723
 6474SOL    HW120321   1.168   3.464   5.792
 6474SOL    HW220322   1.213   3.583   5.691
 6475SOL     OW20323   5.461   6.666   4.011
 6475SOL    HW120324   5.490   6.585   4.063
 6475SOL    HW220325   5.374   6.698   4.048
 6476SOL     OW20326   4.459   4.478   3.013
 6476SOL    HW120327   4.391   4.503   2.944
 6476SOL    HW220328   4.470   4.553   3.078
 6477SOL     OW20329   6.623   5.570   0.188
 6477SOL    HW120330   6.532   5.610   0.192
 6477SOL    HW220331   6.617   5.474   0.160
 6478SOL     OW20332   4.624   6.105   1.741
 6478SOL    HW120333   4.628   6.077   1.837
 6478SOL    HW220334   4.552   6.173   1.729
 6479SOL     OW20335   4.547   5.234   2.283
 6479SOL    HW120336   4.527   5.307   2.349
 6479SOL    HW220337   4.484   5.158   2.297
 6480SOL     OW20338   2.653   2.980   6.709
 6480SOL    HW120339   2.627   2.969   6.805
 6480SOL    HW220340   2.732   2.923   6.689
 6481SOL     OW20341   3.663   0.905   1.306
 6481SOL    HW120342   3.607   0.868   1.231
 6481SOL    HW220343   3.604   0.948   1.374
 6482SOL     OW20344   6.696   7.021   0.086
 6482SOL    HW120345   6.654   7.002   7.023
 6482SOL    HW220346   6.624   0.006   0.156
 6483SOL     OW20347   1.609   6.727   2.190
 6483SOL    HW120348   1.543   6.796   2.159
 6483SOL    HW220349   1.586   6.699   2.283
 6484SOL     OW20350   5.073   0.471   2.539
 6484SOL    HW120351   5.065   0.372   2.534
 6484SOL    HW220352   5.071   0.509   2.446
 6485SOL     OW20353   1.720   2.610   3.578
 6485SOL    HW120354   1.717   2.700   3.534
 6485SOL    HW220355   1.802   2.561   3.548
 6486SOL     OW20356   1.354   3.671   3.753
 6486SOL    HW120357   1.303   3.638   3.832
 6486SOL    HW220358   1.408   3.596   3.714
 6487SOL     OW20359   6.119   6.928   4.277
 6487SOL    HW120360   6.179   7.007   4.265
 6487SOL    HW220361   6.033   6.945   4.229
 6488SOL     OW20362   2.971   5.430   6.088
 6488SOL    HW120363   3.069   5.448   6.100
 6488SOL    HW220364   2.954   5.332   6.095
 6489SOL     OW20365   1.566   2.066   6.004
 6489SOL    HW120366   1.620   2.018   5.935
 6489SOL    HW220367   1.618   2.143   6.039
 6490SOL     OW20368   3.717   1.999   0.536
 6490SOL    HW120369   3.684   1.967   0.625
 6490SOL    HW220370   3.806   2.042   0.547
 6491SOL     OW20371   4.593   1.437   6.358
 6491SOL    HW120372   4.621   1.395   6.271
 6491SOL    HW220373   4.675   1.456   6.413
 6492SOL     OW20374   6.407   6.333   0.506
 6492SOL    HW120375   6.453   6.293   0.427
 6492SOL    HW220376   6.469   6.332   0.584
 6493SOL     OW20377   1.980   6.746   6.718
 6493SOL    HW120378   2.071   6.789   6.714
 6493SOL    HW220379   1.987   6.658   6.766
 6494SOL     OW20380   1.124   0.581   3.461
 6494SOL    HW120381   1.126   0.591   3.560
 6494SOL    HW220382   1.067   0.502   3.437
 6495SOL     OW20383   5.259   4.801   2.915
 6495SOL    HW120384   5.256   4.749   2.830
 6495SOL    HW220385   5.275   4.898   2.894
 6496SOL     OW20386   0.769   6.397   1.853
 6496SOL    HW120387   0.822   6.481   1.839
 6496SOL    HW220388   0.825   6.331   1.903
 6497SOL     OW20389   1.821   4.171   0.273
 6497SOL    HW120390   1.861   4.120   0.197
 6497SOL    HW220391   1.890   4.183   0.344
 6498SOL     OW20392   2.171   3.777   4.659
 6498SOL    HW120393   2.219   3.863   4.645
 6498SOL    HW220394   2.224   3.719   4.721
 6499SOL     OW20395   4.607   1.258   4.512
 6499SOL    HW120396   4.680   1.317   4.548
 6499SOL    HW220397   4.638   1.213   4.429
 6500SOL     OW20398   5.544   4.398   3.448
 6500SOL    HW120399   5.470   4.445   3.401
 6500SOL    HW220400   5.514   4.371   3.540
 6501SOL     OW20401   5.830   3.886   0.999
 6501SOL    HW120402   5.732   3.867   0.998
 6501SOL    HW220403   5.880   3.801   1.015
 6502SOL     OW20404   1.019   4.707   3.579
 6502SOL    HW120405   0.964   4.702   3.662
 6502SOL    HW220406   0.959   4.717   3.499
 6503SOL     OW20407   5.763   6.612   4.228
 6503SOL    HW120408   5.675   6.597   4.274
 6503SOL    HW220409   5.837   6.582   4.288
 6504SOL     OW20410   3.312   1.046   0.513
 6504SOL    HW120411   3.272   1.009   0.429
 6504SOL    HW220412   3.398   1.093   0.490
 6505SOL     OW20413   5.862   4.475   0.820
 6505SOL    HW120414   5.845   4.377   0.805
 6505SOL    HW220415   5.829   4.500   0.911
 6506SOL     OW20416   1.744   3.733   0.879
 6506SOL    HW120417   1.732   3.733   0.978
 6506SOL    HW220418   1.781   3.821   0.850
 6507SOL     OW20419   2.242   6.028   1.411
 6507SOL    HW120420   2.170   6.097   1.401
 6507SOL    HW220421   2.301   6.053   1.488
 6508SOL     OW20422   2.371   2.055   3.404
 6508SOL    HW120423   2.405   1.964   3.431
 6508SOL    HW220424   2.422   2.087   3.325
 6509SOL     OW20425   1.573   2.593   4.532
 6509SOL    HW120426   1.505   2.662   4.509
 6509SOL    HW220427   1.538   2.533   4.604
 6510SOL     OW20428   6.329   5.012   6.683
 6510SOL    HW120429   6.334   4.919   6.722
 6510SOL    HW220430   6.378   5.014   6.596
 6511SOL     OW20431   6.497   6.680   5.575
 6511SOL    HW120432   6.520   6.679   5.672
 6511SOL    HW220433   6.410   6.633   5.561
 6512SOL     OW20434   4.739   6.921   2.562
 6512SOL    HW120435   4.690   6.923   2.649
 6512SOL    HW220436   4.816   6.985   2.566
 6513SOL     OW20437   4.445   6.063   3.956
 6513SOL    HW120438   4.403   6.150   3.980
 6513SOL    HW220439   4.383   5.988   3.979
 6514SOL     OW20440   4.124   0.418   3.961
 6514SOL    HW120441   4.055   0.484   3.992
 6514SOL    HW220442   4.098   0.382   3.871
 6515SOL     OW20443   6.999   6.305   4.830
 6515SOL    HW120444   0.047   6.367   4.803
 6515SOL    HW220445   6.956   6.266   4.748
 6516SOL     OW20446   0.913   2.205   5.989
 6516SOL    HW120447   0.873   2.257   5.914
 6516SOL    HW220448   0.925   2.265   6.068
 6517SOL     OW20449   0.852   1.291   0.074
 6517SOL    HW120450   0.840   1.335   0.163
 6517SOL    HW220451   0.765   1.252   0.044
 6518SOL     OW20452   0.294   6.394   1.296
 6518SOL    HW120453   0.357   6.319   1.315
 6518SOL    HW220454   0.345   6.473   1.265
 6519SOL     OW20455   2.329   1.410   4.045
 6519SOL    HW120456   2.308   1.429   4.141
 6519SOL    HW220457   2.319   1.312   4.027
 6520SOL     OW20458   6.379   5.702   2.280
 6520SOL    HW120459   6.442   5.773   2.311
 6520SOL    HW220460   6.323   5.671   2.357
 6521SOL     OW20461   0.947   1.754   4.981
 6521SOL    HW120462   0.883   1.733   4.908
 6521SOL    HW220463   0.898   1.755   5.069
 6522SOL     OW20464   2.320   5.752   6.317
 6522SOL    HW120465   2.337   5.713   6.408
 6522SOL    HW220466   2.407   5.759   6.268
 6523SOL     OW20467   1.646   1.552   6.536
 6523SOL    HW120468   1.704   1.609   6.594
 6523SOL    HW220469   1.579   1.610   6.490
 6524SOL     OW20470   3.771   3.427   3.377
 6524SOL    HW120471   3.866   3.405   3.400
 6524SOL    HW220472   3.710   3.364   3.424
 6525SOL     OW20473   0.597   2.878   3.003
 6525SOL    HW120474   0.584   2.897   3.100
 6525SOL    HW220475   0.512   2.840   2.965
 6526SOL     OW20476   1.390   5.710   4.913
 6526SOL    HW120477   1.364   5.613   4.906
 6526SOL    HW220478   1.309   5.767   4.904
 6527SOL     OW20479   0.930   6.765   4.501
 6527SOL    HW120480   1.013   6.709   4.496
 6527SOL    HW220481   0.909   6.784   4.597
 6528SOL     OW20482   0.429   1.526   4.727
 6528SOL    HW120483   0.332   1.506   4.720
 6528SOL    HW220484   0.455   1.539   4.823
 6529SOL     OW20485   6.367   1.619   1.757
 6529SOL    HW120486   6.323   1.574   1.680
 6529SOL    HW220487   6.343   1.572   1.842
 6530SOL     OW20488   6.854   2.122   0.347
 6530SOL    HW120489   6.835   2.218   0.326
 6530SOL    HW220490   6.864   2.110   0.446
 6531SOL     OW20491   5.515   2.972   3.922
 6531SOL    HW120492   5.465   3.057   3.938
 6531SOL    HW220493   5.589   2.963   3.988
 6532SOL     OW20494   6.217   1.328   6.521
 6532SOL    HW120495   6.227   1.343   6.620
 6532SOL    HW220496   6.202   1.230   6.504
 6533SOL     OW20497   4.949   6.701   0.594
 6533SOL    HW120498   5.005   6.736   0.518
 6533SOL    HW220499   4.956   6.764   0.672
 6534SOL     OW20500   2.724   3.845   1.387
 6534SOL    HW120501   2.812   3.891   1.402
 6534SOL    HW220502   2.738   3.765   1.329
 6535SOL     OW20503   0.724   3.657   5.691
 6535SOL    HW120504   0.783   3.616   5.760
 6535SOL    HW220505   0.735   3.608   5.605
 6536SOL     OW20506   5.817   1.461   0.006
 6536SOL    HW120507   5.722   1.447   7.006
 6536SOL    HW220508   5.843   1.556   7.012
 6537SOL     OW20509   0.574   6.839   0.315
 6537SOL    HW120510   0.556   6.837   0.217
 6537SOL    HW220511   0.601   6.748   0.346
 6538SOL     OW20512   3.257   4.196   0.093
 6538SOL    HW120513   3.201   4.123   0.132
 6538SOL    HW220514   3.326   4.224   0.160
 6539SOL     OW20515   2.454   1.600   6.800
 6539SOL    HW120516   2.502   1.547   6.730
 6539SOL    HW220517   2.416   1.683   6.760
 6540SOL     OW20518   2.927   0.858   4.711
 6540SOL    HW120519   2.968   0.949   4.716
 6540SOL    HW220520   2.967   0.806   4.636
 6541SOL     OW20521   2.716   2.296   5.846
 6541SOL    HW120522   2.751   2.287   5.939
 6541SOL    HW220523   2.758   2.375   5.802
 6542SOL     OW20524   6.790   4.621   3.368
 6542SOL    HW120525   6.848   4.543   3.389
 6542SOL    HW220526   6.767   4.621   3.271
 6543SOL     OW20527   5.941   6.326   6.748
 6543SOL    HW120528   6.009   6.308   6.677
 6543SOL    HW220529   5.987   6.344   6.835
 6544SOL     OW20530   6.856   5.981   3.996
 6544SOL    HW120531   6.780   6.039   4.024
 6544SOL    HW220532   6.937   6.001   4.052
 6545SOL     OW20533   5.029   1.677   5.916
 6545SOL    HW120534   5.062   1.587   5.889
 6545SOL    HW220535   4.951   1.704   5.858
 6546SOL     OW20536   2.847   5.102   5.869
 6546SOL    HW120537   2.880   5.188   5.829
 6546SOL    HW220538   2.829   5.115   5.967
 6547SOL     OW20539   5.171   2.641   6.810
 6547SOL    HW120540   5.127   2.644   6.900
 6547SOL    HW220541   5.262   2.600   6.819
 6548SOL     OW20542   6.313   4.133   5.601
 6548SOL    HW120543   6.393   4.075   5.588
 6548SOL    HW220544   6.286   4.133   5.697
 6549SOL     OW20545   3.914   2.176   0.625
 6549SOL    HW120546   3.849   2.207   0.695
 6549SOL    HW220547   3.984   2.118   0.666
 6550SOL     OW20548   0.836   5.706   3.521
 6550SOL    HW120549   0.883   5.764   3.455
 6550SOL    HW220550   0.794   5.629   3.473
 6551SOL     OW20551   1.779   4.471   2.130
 6551SOL    HW120552   1.729   4.390   2.161
 6551SOL    HW220553   1.877   4.451   2.129
 6552SOL     OW20554   2.523   4.937   5.581
 6552SOL    HW120555   2.576   4.976   5.506
 6552SOL    HW220556   2.560   4.968   5.668
 6553SOL     OW20557   0.306   3.248   2.518
 6553SOL    HW120558   0.397   3.278   2.545
 6553SOL    HW220559   0.244   3.253   2.597
 6554SOL     OW20560   6.350   1.872   5.845
 6554SOL    HW120561   6.358   1.907   5.939
 6554SOL    HW220562   6.287   1.794   5.845
 6555SOL     OW20563   1.671   1.204   2.064
 6555SOL    HW120564   1.756   1.193   2.116
 6555SOL    HW220565   1.597   1.156   2.111
 6556SOL     OW20566   3.843   5.697   4.781
 6556SOL    HW120567   3.829   5.796   4.786
 6556SOL    HW220568   3.775   5.657   4.718
 6557SOL     OW20569   6.150   5.335   0.970
 6557SOL    HW120570   6.052   5.317   0.958
 6557SOL    HW220571   6.194   5.334   0.880
 6558SOL     OW20572   5.848   5.946   6.862
 6558SOL    HW120573   5.883   5.865   6.909
 6558SOL    HW220574   5.853   6.024   6.924
 6559SOL     OW20575   4.939   4.158   1.225
 6559SOL    HW120576   4.961   4.093   1.298
 6559SOL    HW220577   4.947   4.251   1.261
 6560SOL     OW20578   3.650   3.076   0.542
 6560SOL    HW120579   3.703   3.038   0.619
 6560SOL    HW220580   3.686   3.167   0.519
 6561SOL     OW20581   4.045   3.847   2.986
 6561SOL    HW120582   4.133   3.851   3.032
 6561SOL    HW220583   3.982   3.912   3.029
 6562SOL     OW20584   6.478   4.784   5.703
 6562SOL    HW120585   6.446   4.836   5.782
 6562SOL    HW220586   6.434   4.693   5.704
 6563SOL     OW20587   0.815   5.837   1.526
 6563SOL    HW120588   0.896   5.791   1.564
 6563SOL    HW220589   0.833   5.863   1.432
 6564SOL     OW20590   1.536   4.415   1.631
 6564SOL    HW120591   1.566   4.506   1.601
 6564SOL    HW220592   1.476   4.375   1.562
 6565SOL     OW20593   0.030   3.131   5.109
 6565SOL    HW120594   0.035   3.079   5.024
 6565SOL    HW220595   0.066   3.075   5.185
 6566SOL     OW20596   3.359   6.621   0.725
 6566SOL    HW120597   3.441   6.673   0.746
 6566SOL    HW220598   3.370   6.526   0.756
 6567SOL     OW20599   5.362   2.742   0.760
 6567SOL    HW120600   5.460   2.747   0.739
 6567SOL    HW220601   5.328   2.833   0.782
 6568SOL     OW20602   4.390   4.544   1.983
 6568SOL    HW120603   4.338   4.465   1.951
 6568SOL    HW220604   4.468   4.513   2.037
 6569SOL     OW20605   2.062   4.469   0.052
 6569SOL    HW120606   2.112   4.525   7.011
 6569SOL    HW220607   2.112   4.469   0.139
 6570SOL     OW20608   5.787   1.532   1.788
 6570SOL    HW120609   5.797   1.521   1.886
 6570SOL    HW220610   5.734   1.615   1.769
 6571SOL     OW20611   2.616   6.109   3.957
 6571SOL    HW120612   2.635   6.206   3.940
 6571SOL    HW220613   2.674   6.053   3.898
 6572SOL     OW20614   6.976   4.189   5.766
 6572SOL    HW120615   6.881   4.218   5.772
 6572SOL    HW220616   7.016   4.186   5.858
 6573SOL     OW20617   2.658   1.368   2.219
 6573SOL    HW120618   2.706   1.424   2.151
 6573SOL    HW220619   2.707   1.281   2.231
 6574SOL     OW20620   2.767   5.034   2.933
 6574SOL    HW120621   2.681   5.040   2.882
 6574SOL    HW220622   2.798   5.127   2.957
 6575SOL     OW20623   0.949   1.506   2.136
 6575SOL    HW120624   0.897   1.556   2.205
 6575SOL    HW220625   1.046   1.525   2.148
 6576SOL     OW20626   1.048   6.131   6.564
 6576SOL    HW120627   1.147   6.125   6.582
 6576SOL    HW220628   1.006   6.043   6.585
 6577SOL     OW20629   0.661   1.930   3.845
 6577SOL    HW120630   0.713   2.015   3.844
 6577SOL    HW220631   0.699   1.867   3.778
 6578SOL     OW20632   6.458   5.720   3.862
 6578SOL    HW120633   6.473   5.640   3.804
 6578SOL    HW220634   6.385   5.700   3.927
 6579SOL     OW20635   6.453   4.208   3.190
 6579SOL    HW120636   6.493   4.221   3.281
 6579SOL    HW220637   6.379   4.140   3.195
 6580SOL     OW20638   5.302   1.195   2.001
 6580SOL    HW120639   5.372   1.264   2.022
 6580SOL    HW220640   5.330   1.143   1.921
 6581SOL     OW20641   4.065   2.352   6.521
 6581SOL    HW120642   4.125   2.284   6.480
 6581SOL    HW220643   3.975   2.348   6.478
 6582SOL     OW20644   6.861   6.744   2.700
 6582SOL    HW120645   6.804   6.683   2.646
 6582SOL    HW220646   6.911   6.806   2.639
 6583SOL     OW20647   5.406   0.847   5.902
 6583SOL    HW120648   5.414   0.852   6.002
 6583SOL    HW220649   5.339   0.778   5.877
 6584SOL     OW20650   6.190   1.667   0.014
 6584SOL    HW120651   6.102   1.697   7.002
 6584SOL    HW220652   6.263   1.719   6.995
 6585SOL     OW20653   0.685   1.882   6.535
 6585SOL    HW120654   0.632   1.806   6.498
 6585SOL    HW220655   0.748   1.848   6.606
 6586SOL     OW20656   6.589   2.043   6.253
 6586SOL    HW120657   6.589   1.946   6.228
 6586SOL    HW220658   6.641   2.055   6.338
 6587SOL     OW20659   1.851   6.003   3.528
 6587SOL    HW120660   1.771   5.944   3.514
 6587SOL    HW220661   1.820   6.095   3.554
 6588SOL     OW20662   1.815   2.992   6.871
 6588SOL    HW120663   1.905   2.954   6.854
 6588SOL    HW220664   1.763   2.995   6.786
 6589SOL     OW20665   4.834   1.028   5.895
 6589SOL    HW120666   4.807   1.061   5.805
 6589SOL    HW220667   4.882   1.100   5.945
 6590SOL     OW20668   0.193   1.050   5.148
 6590SOL    HW120669   0.275   1.098   5.180
 6590SOL    HW220670   0.202   0.953   5.169
 6591SOL     OW20671   6.112   6.879   3.239
 6591SOL    HW120672   6.066   6.870   3.327
 6591SOL    HW220673   6.181   6.807   3.230
 6592SOL     OW20674   4.902   6.786   4.226
 6592SOL    HW120675   4.964   6.770   4.303
 6592SOL    HW220676   4.816   6.824   4.259
 6593SOL     OW20677   3.547   1.808   3.448
 6593SOL    HW120678   3.603   1.729   3.420
 6593SOL    HW220679   3.452   1.791   3.424
 6594SOL     OW20680   4.965   0.473   0.079
 6594SOL    HW120681   4.992   0.554   0.131
 6594SOL    HW220682   4.935   0.401   0.141
 6595SOL     OW20683   1.545   4.065   0.910
 6595SOL    HW120684   1.476   4.026   0.971
 6595SOL    HW220685   1.500   4.105   0.830
 6596SOL     OW20686   4.335   6.998   5.389
 6596SOL    HW120687   4.324   0.046   5.321
 6596SOL    HW220688   4.263   6.930   5.377
 6597SOL     OW20689   0.348   5.968   4.803
 6597SOL    HW120690   0.444   5.944   4.815
 6597SOL    HW220691   0.304   5.974   4.893
 6598SOL     OW20692   1.855   6.104   5.090
 6598SOL    HW120693   1.884   6.035   5.157
 6598SOL    HW220694   1.784   6.161   5.131
 6599SOL     OW20695   4.389   5.282   5.914
 6599SOL    HW120696   4.325   5.295   5.990
 6599SOL    HW220697   4.350   5.217   5.849
 6600SOL     OW20698   4.834   5.882   4.056
 6600SOL    HW120699   4.916   5.831   4.031
 6600SOL    HW220700   4.806   5.939   3.978
 6601SOL     OW20701   0.717   0.544   0.225
 6601SOL    HW120702   0.687   0.573   0.134
 6601SOL    HW220703   0.765   0.457   0.218
 6602SOL     OW20704   6.787   1.389   1.512
 6602SOL    HW120705   6.843   1.420   1.436
 6602SOL    HW220706   6.798   1.452   1.590
 6603SOL     OW20707   2.045   3.451   3.024
 6603SOL    HW120708   2.038   3.383   3.097
 6603SOL    HW220709   2.057   3.542   3.064
 6604SOL     OW20710   3.076   5.331   2.687
 6604SOL    HW120711   3.080   5.296   2.781
 6604SOL    HW220712   2.986   5.310   2.648
 6605SOL     OW20713   5.612   5.701   0.014
 6605SOL    HW120714   5.709   5.727   0.003
 6605SOL    HW220715   5.588   5.635   6.968
 6606SOL     OW20716   5.512   0.679   2.215
 6606SOL    HW120717   5.537   0.759   2.268
 6606SOL    HW220718   5.417   0.688   2.183
 6607SOL     OW20719   2.069   1.137   2.016
 6607SOL    HW120720   2.122   1.214   2.053
 6607SOL    HW220721   1.975   1.142   2.050
 6608SOL     OW20722   5.611   3.678   3.904
 6608SOL    HW120723   5.588   3.767   3.864
 6608SOL    HW220724   5.579   3.605   3.843
 6609SOL     OW20725   5.152   0.967   6.501
 6609SOL    HW120726   5.080   0.930   6.443
 6609SOL    HW220727   5.122   1.053   6.542
 6610SOL     OW20728   2.359   0.804   0.425
 6610SOL    HW120729   2.300   0.729   0.394
 6610SOL    HW220730   2.304   0.887   0.435
 6611SOL     OW20731   6.093   2.245   3.385
 6611SOL    HW120732   6.058   2.312   3.450
 6611SOL    HW220733   6.126   2.164   3.434
 6612SOL     OW20734   1.575   6.373   0.020
 6612SOL    HW120735   1.506   6.445   0.024
 6612SOL    HW220736   1.631   6.375   0.103
 6613SOL     OW20737   4.872   5.234   2.647
 6613SOL    HW120738   4.884   5.137   2.671
 6613SOL    HW220739   4.927   5.290   2.708
 6614SOL     OW20740   5.152   5.413   6.114
 6614SOL    HW120741   5.251   5.427   6.108
 6614SOL    HW220742   5.131   5.356   6.193
 6615SOL     OW20743   0.447   3.945   5.550
 6615SOL    HW120744   0.437   4.043   5.565
 6615SOL    HW220745   0.433   3.924   5.453
 6616SOL     OW20746   5.238   1.443   4.937
 6616SOL    HW120747   5.234   1.380   4.859
 6616SOL    HW220748   5.325   1.430   4.985
 6617SOL     OW20749   2.852   6.691   4.687
 6617SOL    HW120750   2.806   6.604   4.674
 6617SOL    HW220751   2.785   6.765   4.691
 6618SOL     OW20752   1.186   4.564   2.037
 6618SOL    HW120753   1.155   4.659   2.037
 6618SOL    HW220754   1.109   4.504   2.017
 6619SOL     OW20755   4.770   5.917   3.234
 6619SOL    HW120756   4.673   5.896   3.219
 6619SOL    HW220757   4.783   6.016   3.239
 6620SOL     OW20758   1.224   3.032   6.099
 6620SOL    HW120759   1.229   2.942   6.143
 6620SOL    HW220760   1.175   3.023   6.012
 6621SOL     OW20761   2.653   4.454   0.077
 6621SOL    HW120762   2.673   4.399   7.021
 6621SOL    HW220763   2.739   4.484   0.119
 6622SOL     OW20764   6.121   5.732   0.456
 6622SOL    HW120765   6.074   5.764   0.538
 6622SOL    HW220766   6.212   5.699   0.481
 6623SOL     OW20767   3.303   2.986   2.484
 6623SOL    HW120768   3.320   2.915   2.415
 6623SOL    HW220769   3.209   3.018   2.476
 6624SOL     OW20770   4.413   5.460   4.514
 6624SOL    HW120771   4.358   5.493   4.591
 6624SOL    HW220772   4.380   5.504   4.430
 6625SOL     OW20773   6.555   0.344   6.530
 6625SOL    HW120774   6.589   0.438   6.532
 6625SOL    HW220775   6.503   0.329   6.445
 6626SOL     OW20776   3.294   5.564   3.456
 6626SOL    HW120777   3.235   5.550   3.377
 6626SOL    HW220778   3.346   5.481   3.475
 6627SOL     OW20779   1.599   0.750   6.731
 6627SOL    HW120780   1.513   0.743   6.680
 6627SOL    HW220781   1.664   0.807   6.681
 6628SOL     OW20782   4.078   5.740   2.653
 6628SOL    HW120783   4.175   5.740   2.630
 6628SOL    HW220784   4.024   5.744   2.569
 6629SOL     OW20785   3.712   5.679   1.098
 6629SOL    HW120786   3.808   5.696   1.075
 6629SOL    HW220787   3.674   5.608   1.038
 6630SOL     OW20788   3.222   1.908   0.202
 6630SOL    HW120789   3.269   1.855   0.273
 6630SOL    HW220790   3.247   1.871   0.113
 6631SOL     OW20791   4.931   0.592   2.269
 6631SOL    HW120792   5.022   0.555   2.249
 6631SOL    HW220793   4.875   0.522   2.313
 6632SOL     OW20794   6.939   0.881   0.083
 6632SOL    HW120795   6.846   0.877   0.046
 6632SOL    HW220796   6.998   0.819   0.030
 6633SOL     OW20797   1.895   6.610   0.673
 6633SOL    HW120798   1.827   6.543   0.703
 6633SOL    HW220799   1.856   6.668   0.601
 6634SOL     OW20800   6.282   2.831   5.767
 6634SOL    HW120801   6.366   2.802   5.812
 6634SOL    HW220802   6.250   2.917   5.808
 6635SOL     OW20803   4.557   5.333   3.866
 6635SOL    HW120804   4.608   5.381   3.937
 6635SOL    HW220805   4.619   5.309   3.791
 6636SOL     OW20806   1.885   2.621   4.246
 6636SOL    HW120807   1.931   2.533   4.260
 6636SOL    HW220808   1.791   2.605   4.216
 6637SOL     OW20809   0.390   0.081   0.632
 6637SOL    HW120810   0.350   7.021   0.666
 6637SOL    HW220811   0.485   0.064   0.604
 6638SOL     OW20812   2.174   6.213   5.609
 6638SOL    HW120813   2.197   6.125   5.567
 6638SOL    HW220814   2.227   6.286   5.564
 6639SOL     OW20815   5.966   4.881   6.965
 6639SOL    HW120816   6.024   4.933   0.002
 6639SOL    HW220817   6.012   4.797   6.938
 6640SOL     OW20818   6.615   1.954   3.632
 6640SOL    HW120819   6.650   2.019   3.699
 6640SOL    HW220820   6.679   1.878   3.621
 6641SOL     OW20821   2.183   4.027   6.334
 6641SOL    HW120822   2.278   3.995   6.331
 6641SOL    HW220823   2.180   4.123   6.360
 6642SOL     OW20824   1.001   6.022   6.047
 6642SOL    HW120825   0.912   5.978   6.048
 6642SOL    HW220826   1.055   5.985   5.971
 6643SOL     OW20827   5.920   4.196   6.200
 6643SOL    HW120828   5.910   4.287   6.241
 6643SOL    HW220829   5.884   4.127   6.264
 6644SOL     OW20830   2.892   4.845   2.064
 6644SOL    HW120831   2.895   4.868   2.161
 6644SOL    HW220832   2.848   4.756   2.053
 6645SOL     OW20833   7.007   4.642   5.952
 6645SOL    HW120834   0.024   4.717   5.900
 6645SOL    HW220835   6.908   4.641   5.934
 6646SOL     OW20836   2.900   5.891   4.317
 6646SOL    HW120837   2.820   5.869   4.261
 6646SOL    HW220838   2.927   5.810   4.369
 6647SOL     OW20839   3.216   0.994   2.098
 6647SOL    HW120840   3.226   0.900   2.065
 6647SOL    HW220841   3.165   1.047   2.031
 6648SOL     OW20842   4.806   5.872   2.467
 6648SOL    HW120843   4.726   5.837   2.419
 6648SOL    HW220844   4.853   5.797   2.514
 6649SOL     OW20845   4.597   1.912   6.312
 6649SOL    HW120846   4.680   1.886   6.361
 6649SOL    HW220847   4.620   1.978   6.240
 6650SOL     OW20848   4.027   1.119   4.310
 6650SOL    HW120849   3.944   1.067   4.288
 6650SOL    HW220850   4.002   1.201   4.362
 6651SOL     OW20851   0.675   2.363   6.815
 6651SOL    HW120852   0.668   2.359   6.716
 6651SOL    HW220853   0.741   2.295   6.847
 6652SOL     OW20854   0.342   5.957   1.738
 6652SOL    HW120855   0.385   6.044   1.715
 6652SOL    HW220856   0.336   5.900   1.656
 6653SOL     OW20857   4.021   3.858   3.673
 6653SOL    HW120858   3.953   3.929   3.653
 6653SOL    HW220859   4.016   3.834   3.770
 6654SOL     OW20860   2.141   3.274   1.772
 6654SOL    HW120861   2.152   3.187   1.820
 6654SOL    HW220862   2.221   3.333   1.791
 6655SOL     OW20863   3.157   6.781   1.971
 6655SOL    HW120864   3.116   6.690   1.961
 6655SOL    HW220865   3.160   6.825   1.881
 6656SOL     OW20866   6.825   1.122   1.602
 6656SOL    HW120867   6.895   1.077   1.546
 6656SOL    HW220868   6.811   1.216   1.570
 6657SOL     OW20869   3.359   6.546   6.831
 6657SOL    HW120870   3.387   6.485   6.905
 6657SOL    HW220871   3.436   6.606   6.806
 6658SOL     OW20872   6.141   1.475   4.831
 6658SOL    HW120873   6.048   1.442   4.815
 6658SOL    HW220874   6.170   1.533   4.754
 6659SOL     OW20875   2.270   3.634   0.355
 6659SOL    HW120876   2.357   3.678   0.379
 6659SOL    HW220877   2.286   3.538   0.332
 6660SOL     OW20878   6.998   6.869   2.496
 6660SOL    HW120879   6.935   6.845   2.423
 6660SOL    HW220880   0.052   6.807   2.493
 6661SOL     OW20881   0.066   5.385   4.013
 6661SOL    HW120882   7.023   5.457   4.002
 6661SOL    HW220883   0.135   5.394   3.941
 6662SOL     OW20884   2.399   1.772   0.262
 6662SOL    HW120885   2.414   1.681   0.223
 6662SOL    HW220886   2.447   1.778   0.350
 6663SOL     OW20887   0.335   5.917   2.020
 6663SOL    HW120888   0.322   5.935   1.922
 6663SOL    HW220889   0.291   5.989   2.073
 6664SOL     OW20890   1.470   0.799   2.486
 6664SOL    HW120891   1.414   0.738   2.541
 6664SOL    HW220892   1.546   0.833   2.542
 6665SOL     OW20893   1.792   5.761   2.990
 6665SOL    HW120894   1.794   5.669   2.949
 6665SOL    HW220895   1.825   5.827   2.923
 6666SOL     OW20896   6.303   1.059   5.900
 6666SOL    HW120897   6.265   0.970   5.874
 6666SOL    HW220898   6.388   1.046   5.951
 6667SOL     OW20899   6.942   5.498   4.996
 6667SOL    HW120900   0.012   5.525   4.978
 6667SOL    HW220901   6.880   5.564   4.955
 6668SOL     OW20902   0.949   4.367   2.048
 6668SOL    HW120903   0.855   4.386   2.080
 6668SOL    HW220904   0.946   4.337   1.953
 6669SOL     OW20905   1.802   5.763   3.245
 6669SOL    HW120906   1.807   5.742   3.148
 6669SOL    HW220907   1.824   5.860   3.259
 6670SOL     OW20908   3.234   4.927   6.320
 6670SOL    HW120909   3.300   4.906   6.248
 6670SOL    HW220910   3.270   5.002   6.376
 6671SOL     OW20911   6.677   3.733   6.032
 6671SOL    HW120912   6.672   3.633   6.034
 6671SOL    HW220913   6.715   3.762   5.944
 6672SOL     OW20914   0.982   0.665   5.401
 6672SOL    HW120915   1.067   0.634   5.357
 6672SOL    HW220916   0.912   0.679   5.330
 6673SOL     OW20917   4.953   5.250   2.149
 6673SOL    HW120918   4.877   5.312   2.127
 6673SOL    HW220919   4.919   5.177   2.209
 6674SOL     OW20920   0.868   6.643   5.066
 6674SOL    HW120921   0.863   6.606   5.158
 6674SOL    HW220922   0.891   6.741   5.070
 6675SOL     OW20923   5.883   4.461   0.301
 6675SOL    HW120924   5.906   4.558   0.312
 6675SOL    HW220925   5.790   4.445   0.334
 6676SOL     OW20926   0.889   2.869   5.620
 6676SOL    HW120927   0.861   2.773   5.612
 6676SOL    HW220928   0.959   2.877   5.691
 6677SOL     OW20929   0.453   3.152   0.431
 6677SOL    HW120930   0.525   3.221   0.442
 6677SOL    HW220931   0.399   3.173   0.350
 6678SOL     OW20932   0.874   2.974   6.134
 6678SOL    HW120933   0.909   3.030   6.208
 6678SOL    HW220934   0.939   2.901   6.113
 6679SOL     OW20935   1.472   2.729   4.946
 6679SOL    HW120936   1.503   2.788   4.872
 6679SOL    HW220937   1.535   2.736   5.023
 6680SOL     OW20938   3.769   6.620   6.371
 6680SOL    HW120939   3.698   6.617   6.440
 6680SOL    HW220940   3.826   6.538   6.378
 6681SOL     OW20941   5.181   5.373   0.266
 6681SOL    HW120942   5.105   5.395   0.326
 6681SOL    HW220943   5.165   5.414   0.176
 6682SOL     OW20944   0.499   5.444   2.635
 6682SOL    HW120945   0.575   5.469   2.574
 6682SOL    HW220946   0.414   5.441   2.583
 6683SOL     OW20947   4.738   1.752   5.167
 6683SOL    HW120948   4.787   1.777   5.083
 6683SOL    HW220949   4.689   1.831   5.202
 6684SOL     OW20950   1.327   0.094   2.109
 6684SOL    HW120951   1.356   0.132   2.021
 6684SOL    HW220952   1.407   0.070   2.163
 6685SOL     OW20953   5.814   3.162   6.156
 6685SOL    HW120954   5.781   3.089   6.097
 6685SOL    HW220955   5.827   3.245   6.102
 6686SOL     OW20956   6.005   3.908   3.549
 6686SOL    HW120957   5.936   3.913   3.477
 6686SOL    HW220958   6.048   3.817   3.548
 6687SOL     OW20959   1.234   1.325   1.247
 6687SOL    HW120960   1.272   1.415   1.267
 6687SOL    HW220961   1.135   1.328   1.257
 6688SOL     OW20962   0.402   4.544   2.645
 6688SOL    HW120963   0.422   4.555   2.548
 6688SOL    HW220964   0.303   4.553   2.660
 6689SOL     OW20965   5.075   4.127   7.022
 6689SOL    HW120966   5.145   4.139   0.067
 6689SOL    HW220967   5.039   4.034   0.001
 6690SOL     OW20968   2.028   3.340   1.237
 6690SOL    HW120969   2.076   3.354   1.150
 6690SOL    HW220970   2.013   3.243   1.251
 6691SOL     OW20971   2.730   5.560   1.673
 6691SOL    HW120972   2.661   5.632   1.665
 6691SOL    HW220973   2.792   5.566   1.595
 6692SOL     OW20974   2.968   4.253   5.301
 6692SOL    HW120975   2.970   4.273   5.399
 6692SOL    HW220976   2.959   4.338   5.250
 6693SOL     OW20977   4.433   3.647   5.580
 6693SOL    HW120978   4.462   3.623   5.673
 6693SOL    HW220979   4.474   3.583   5.515
 6694SOL     OW20980   4.651   6.352   0.536
 6694SOL    HW120981   4.713   6.289   0.489
 6694SOL    HW220982   4.659   6.443   0.496
 6695SOL     OW20983   0.846   1.653   6.682
 6695SOL    HW120984   0.944   1.657   6.665
 6695SOL    HW220985   0.823   1.567   6.728
 6696SOL     OW20986   2.021   3.529   1.774
 6696SOL    HW120987   2.096   3.564   1.829
 6696SOL    HW220988   2.033   3.431   1.760
 6697SOL     OW20989   4.275   1.562   2.844
 6697SOL    HW120990   4.216   1.605   2.775
 6697SOL    HW220991   4.318   1.633   2.900
 6698SOL     OW20992   3.946   3.338   6.732
 6698SOL    HW120993   3.856   3.378   6.748
 6698SOL    HW220994   3.943   3.240   6.747
 6699SOL     OW20995   2.463   4.989   6.965
 6699SOL    HW120996   2.546   4.936   6.981
 6699SOL    HW220997   2.405   4.942   6.898
 6700SOL     OW20998   0.258   6.229   1.055
 6700SOL    HW120999   0.281   6.307   1.114
 6700SOL    HW221000   0.302   6.146   1.091
 6701SOL     OW21001   0.587   1.526   0.431
 6701SOL    HW121002   0.630   1.446   0.390
 6701SOL    HW221003   0.579   1.512   0.530
 6702SOL     OW21004   2.355   1.545   1.013
 6702SOL    HW121005   2.435   1.523   1.070
 6702SOL    HW221006   2.381   1.538   0.916
 6703SOL     OW21007   0.068   1.713   6.507
 6703SOL    HW121008   0.071   1.813   6.508
 6703SOL    HW221009   0.113   1.677   6.590
 6704SOL     OW21010   4.579   2.613   2.644
 6704SOL    HW121011   4.485   2.635   2.667
 6704SOL    HW221012   4.630   2.592   2.728
 6705SOL     OW21013   6.281   2.322   1.220
 6705SOL    HW121014   6.313   2.307   1.127
 6705SOL    HW221015   6.355   2.303   1.284
 6706SOL     OW21016   0.790   4.276   6.512
 6706SOL    HW121017   0.819   4.198   6.457
 6706SOL    HW221018   0.836   4.274   6.600
 6707SOL     OW21019   0.709   5.403   3.758
 6707SOL    HW121020   0.698   5.502   3.743
 6707SOL    HW221021   0.792   5.386   3.811
 6708SOL     OW21022   2.541   6.173   1.983
 6708SOL    HW121023   2.570   6.268   1.990
 6708SOL    HW221024   2.444   6.166   2.007
 6709SOL     OW21025   4.274   1.115   2.076
 6709SOL    HW121026   4.272   1.023   2.116
 6709SOL    HW221027   4.243   1.111   1.981
 6710SOL     OW21028   3.472   2.435   0.004
 6710SOL    HW121029   3.543   2.466   0.067
 6710SOL    HW221030   3.382   2.462   0.040
 6711SOL     OW21031   3.927   3.927   0.402
 6711SOL    HW121032   3.925   3.828   0.394
 6711SOL    HW221033   3.980   3.966   0.326
 6712SOL     OW21034   3.592   6.251   0.482
 6712SOL    HW121035   3.597   6.246   0.382
 6712SOL    HW221036   3.643   6.176   0.523
 6713SOL     OW21037   1.542   2.517   2.016
 6713SOL    HW121038   1.571   2.592   1.958
 6713SOL    HW221039   1.612   2.445   2.015
 6714SOL     OW21040   5.730   0.616   3.933
 6714SOL    HW121041   5.789   0.574   3.863
 6714SOL    HW221042   5.674   0.686   3.890
 6715SOL     OW21043   0.246   1.147   0.710
 6715SOL    HW121044   0.226   1.245   0.711
 6715SOL    HW221045   0.161   1.095   0.699
 6716SOL     OW21046   2.319   5.419   1.329
 6716SOL    HW121047   2.327   5.451   1.423
 6716SOL    HW221048   2.222   5.409   1.305
 6717SOL     OW21049   4.589   2.396   0.444
 6717SOL    HW121050   4.561   2.456   0.369
 6717SOL    HW221051   4.653   2.327   0.409
 6718SOL     OW21052   2.895   0.539   0.367
 6718SOL    HW121053   2.885   0.440   0.351
 6718SOL    HW221054   2.938   0.581   0.287
 6719SOL     OW21055   6.928   6.353   5.592
 6719SOL    HW121056   6.833   6.383   5.605
 6719SOL    HW221057   6.987   6.402   5.655
 6720SOL     OW21058   2.055   5.395   1.245
 6720SOL    HW121059   2.018   5.332   1.313
 6720SOL    HW221060   2.069   5.346   1.159
 6721SOL     OW21061   5.405   6.710   3.739
 6721SOL    HW121062   5.349   6.631   3.713
 6721SOL    HW221063   5.433   6.700   3.834
 6722SOL     OW21064   4.559   3.208   6.506
 6722SOL    HW121065   4.588   3.221   6.601
 6722SOL    HW221066   4.465   3.175   6.505
 6723SOL     OW21067   3.694   6.818   3.523
 6723SOL    HW121068   3.680   6.917   3.527
 6723SOL    HW221069   3.639   6.774   3.594
 6724SOL     OW21070   3.115   4.593   5.324
 6724SOL    HW121071   3.134   4.513   5.381
 6724SOL    HW221072   3.048   4.568   5.254
 6725SOL     OW21073   0.815   5.366   2.691
 6725SOL    HW121074   0.766   5.374   2.604
 6725SOL    HW221075   0.867   5.450   2.708
 6726SOL     OW21076   2.693   2.325   3.949
 6726SOL    HW121077   2.639   2.374   4.017
 6726SOL    HW221078   2.637   2.306   3.868
 6727SOL     OW21079   3.977   3.290   6.312
 6727SOL    HW121080   4.031   3.310   6.393
 6727SOL    HW221081   4.018   3.213   6.262
 6728SOL     OW21082   4.033   1.795   3.746
 6728SOL    HW121083   4.064   1.733   3.818
 6728SOL    HW221084   3.989   1.742   3.673
 6729SOL     OW21085   5.566   1.096   3.010
 6729SOL    HW121086   5.534   1.024   3.070
 6729SOL    HW221087   5.489   1.151   2.978
 6730SOL     OW21088   2.332   1.168   0.169
 6730SOL    HW121089   2.352   1.259   0.204
 6730SOL    HW221090   2.296   1.175   0.076
 6731SOL     OW21091   2.525   5.104   1.659
 6731SOL    HW121092   2.483   5.041   1.725
 6731SOL    HW221093   2.526   5.196   1.698
 6732SOL     OW21094   2.723   5.702   0.846
 6732SOL    HW121095   2.755   5.792   0.876
 6732SOL    HW221096   2.760   5.632   0.906
 6733SOL     OW21097   5.715   6.077   4.959
 6733SOL    HW121098   5.713   6.019   5.040
 6733SOL    HW221099   5.658   6.158   4.974
 6734SOL     OW21100   2.415   3.247   5.703
 6734SOL    HW121101   2.464   3.169   5.665
 6734SOL    HW221102   2.323   3.218   5.732
 6735SOL     OW21103   6.790   5.314   5.506
 6735SOL    HW121104   6.814   5.249   5.578
 6735SOL    HW221105   6.702   5.358   5.528
 6736SOL     OW21106   2.025   3.394   2.073
 6736SOL    HW121107   2.058   3.300   2.069
 6736SOL    HW221108   2.097   3.456   2.041
 6737SOL     OW21109   1.915   0.773   1.927
 6737SOL    HW121110   1.846   0.753   1.858
 6737SOL    HW221111   1.989   0.826   1.886
 6738SOL     OW21112   3.445   0.904   2.352
 6738SOL    HW121113   3.345   0.895   2.354
 6738SOL    HW221114   3.485   0.840   2.418
 6739SOL     OW21115   3.889   6.280   4.626
 6739SOL    HW121116   3.789   6.280   4.616
 6739SOL    HW221117   3.929   6.351   4.567
 6740SOL     OW21118   1.257   1.487   4.330
 6740SOL    HW121119   1.274   1.432   4.248
 6740SOL    HW221120   1.241   1.427   4.408
 6741SOL     OW21121   6.495   0.076   6.407
 6741SOL    HW121122   6.531   7.009   6.422
 6741SOL    HW221123   6.567   0.133   6.367
 6742SOL     OW21124   6.329   5.390   5.262
 6742SOL    HW121125   6.331   5.399   5.362
 6742SOL    HW221126   6.282   5.470   5.223
 6743SOL     OW21127   4.460   3.312   1.298
 6743SOL    HW121128   4.361   3.323   1.307
 6743SOL    HW221129   4.480   3.237   1.235
 6744SOL     OW21130   4.705   4.702   5.596
 6744SOL    HW121131   4.606   4.715   5.599
 6744SOL    HW221132   4.748   4.753   5.670
 6745SOL     OW21133   1.204   4.606   4.242
 6745SOL    HW121134   1.281   4.611   4.306
 6745SOL    HW221135   1.198   4.692   4.191
 6746SOL     OW21136   0.273   1.946   0.852
 6746SOL    HW121137   0.308   1.869   0.905
 6746SOL    HW221138   0.184   1.974   0.890
 6747SOL     OW21139   5.401   6.159   5.246
 6747SOL    HW121140   5.458   6.193   5.171
 6747SOL    HW221141   5.350   6.235   5.286
 6748SOL     OW21142   1.056   0.129   2.124
 6748SOL    HW121143   1.013   0.090   2.043
 6748SOL    HW221144   1.153   0.104   2.126
 6749SOL     OW21145   4.372   6.892   6.844
 6749SOL    HW121146   4.296   6.936   6.892
 6749SOL    HW221147   4.457   6.908   6.894
 6750SOL     OW21148   2.756   3.095   5.338
 6750SOL    HW121149   2.675   3.062   5.289
 6750SOL    HW221150   2.738   3.094   5.437
 6751SOL     OW21151   2.795   2.111   5.291
 6751SOL    HW121152   2.695   2.110   5.298
 6751SOL    HW221153   2.821   2.150   5.202
 6752SOL     OW21154   6.102   2.358   0.471
 6752SOL    HW121155   6.197   2.382   0.491
 6752SOL    HW221156   6.096   2.262   0.442
 6753SOL     OW21157   4.718   2.468   6.354
 6753SOL    HW121158   4.651   2.474   6.428
 6753SOL    HW221159   4.750   2.374   6.346
 6754SOL     OW21160   6.029   0.709   6.583
 6754SOL    HW121161   5.999   0.637   6.520
 6754SOL    HW221162   5.952   0.768   6.605
 6755SOL     OW21163   5.193   1.830   4.046
 6755SOL    HW121164   5.195   1.746   3.993
 6755SOL    HW221165   5.098   1.859   4.059
 6756SOL     OW21166   5.266   5.093   4.435
 6756SOL    HW121167   5.205   5.156   4.484
 6756SOL    HW221168   5.213   5.017   4.399
 6757SOL     OW21169   5.926   5.625   2.165
 6757SOL    HW121170   5.870   5.686   2.109
 6757SOL    HW221171   6.012   5.606   2.118
 6758SOL     OW21172   4.762   2.534   1.947
 6758SOL    HW121173   4.778   2.632   1.949
 6758SOL    HW221174   4.673   2.514   1.987
 6759SOL     OW21175   0.254   4.621   3.020
 6759SOL    HW121176   0.177   4.679   3.043
 6759SOL    HW221177   0.311   4.667   2.951
 6760SOL     OW21178   6.682   3.938   4.476
 6760SOL    HW121179   6.642   3.960   4.565
 6760SOL    HW221180   6.639   3.994   4.405
 6761SOL     OW21181   5.218   3.091   6.253
 6761SOL    HW121182   5.315   3.111   6.236
 6761SOL    HW221183   5.162   3.139   6.185
 6762SOL     OW21184   6.564   4.524   3.897
 6762SOL    HW121185   6.617   4.533   3.981
 6762SOL    HW221186   6.601   4.585   3.827
 6763SOL     OW21187   6.006   6.212   6.115
 6763SOL    HW121188   6.100   6.243   6.104
 6763SOL    HW221189   5.959   6.270   6.181
 6764SOL     OW21190   2.428   4.125   6.578
 6764SOL    HW121191   2.336   4.150   6.549
 6764SOL    HW221192   2.447   4.031   6.549
 6765SOL     OW21193   5.641   4.846   2.788
 6765SOL    HW121194   5.721   4.804   2.744
 6765SOL    HW221195   5.657   4.945   2.797
 6766SOL     OW21196   1.851   0.626   5.781
 6766SOL    HW121197   1.921   0.555   5.784
 6766SOL    HW221198   1.891   0.711   5.749
 6767SOL     OW21199   6.798   2.759   6.610
 6767SOL    HW121200   6.853   2.832   6.650
 6767SOL    HW221201   6.842   2.726   6.526
 6768SOL     OW21202   6.729   0.221   4.897
 6768SOL    HW121203   6.702   0.262   4.984
 6768SOL    HW221204   6.829   0.222   4.889
 6769SOL     OW21205   1.854   3.127   5.996
 6769SOL    HW121206   1.891   3.178   5.918
 6769SOL    HW221207   1.850   3.186   6.076
 6770SOL     OW21208   0.788   1.454   3.292
 6770SOL    HW121209   0.705   1.417   3.333
 6770SOL    HW221210   0.832   1.517   3.356
 6771SOL     OW21211   4.129   1.925   3.078
 6771SOL    HW121212   4.184   1.874   3.145
 6771SOL    HW221213   4.091   2.007   3.121
 6772SOL     OW21214   6.882   1.059   1.088
 6772SOL    HW121215   6.789   1.033   1.116
 6772SOL    HW221216   6.938   0.977   1.080
 6773SOL     OW21217   1.710   6.284   1.580
 6773SOL    HW121218   1.734   6.229   1.660
 6773SOL    HW221219   1.785   6.347   1.558
 6774SOL     OW21220   2.614   2.377   5.459
 6774SOL    HW121221   2.686   2.386   5.390
 6774SOL    HW221222   2.592   2.468   5.496
 6775SOL     OW21223   0.557   1.877   4.795
 6775SOL    HW121224   0.545   1.800   4.858
 6775SOL    HW221225   0.611   1.847   4.717
 6776SOL     OW21226   3.694   4.105   3.060
 6776SOL    HW121227   3.604   4.149   3.054
 6776SOL    HW221228   3.698   4.048   3.142
 6777SOL     OW21229   5.879   5.693   6.998
 6777SOL    HW121230   5.912   5.710   0.065
 6777SOL    HW221231   5.906   5.601   6.969
 6778SOL     OW21232   6.023   5.438   2.358
 6778SOL    HW121233   5.988   5.361   2.305
 6778SOL    HW221234   5.988   5.523   2.320
 6779SOL     OW21235   5.052   3.179   6.059
 6779SOL    HW121236   5.118   3.156   5.987
 6779SOL    HW221237   4.960   3.155   6.030
 6780SOL     OW21238   3.315   2.074   3.218
 6780SOL    HW121239   3.282   1.980   3.215
 6780SOL    HW221240   3.369   2.093   3.136
 6781SOL     OW21241   6.830   1.766   3.575
 6781SOL    HW121242   6.826   1.674   3.536
 6781SOL    HW221243   6.898   1.768   3.648
 6782SOL     OW21244   6.555   1.353   3.254
 6782SOL    HW121245   6.489   1.417   3.214
 6782SOL    HW221246   6.506   1.277   3.297
 6783SOL     OW21247   1.102   4.700   5.816
 6783SOL    HW121248   1.101   4.651   5.729
 6783SOL    HW221249   1.173   4.770   5.815
 6784SOL     OW21250   2.393   3.846   1.649
 6784SOL    HW121251   2.359   3.911   1.582
 6784SOL    HW221252   2.347   3.758   1.638
 6785SOL     OW21253   5.292   5.479   4.328
 6785SOL    HW121254   5.208   5.511   4.371
 6785SOL    HW221255   5.269   5.415   4.254
 6786SOL     OW21256   5.879   1.594   6.100
 6786SOL    HW121257   5.963   1.645   6.079
 6786SOL    HW221258   5.808   1.619   6.035
 6787SOL     OW21259   3.377   2.111   6.985
 6787SOL    HW121260   3.383   2.109   6.885
 6787SOL    HW221261   3.459   2.070   7.025
 6788SOL     OW21262   0.346   4.276   2.218
 6788SOL    HW121263   0.323   4.267   2.121
 6788SOL    HW221264   0.386   4.190   2.252
 6789SOL     OW21265   5.084   4.538   3.423
 6789SOL    HW121266   5.096   4.598   3.502
 6789SOL    HW221267   5.173   4.509   3.389
 6790SOL     OW21268   0.682   5.032   6.038
 6790SOL    HW121269   0.779   5.026   6.013
 6790SOL    HW221270   0.634   4.952   6.003
 6791SOL     OW21271   2.689   0.154   3.068
 6791SOL    HW121272   2.671   0.065   3.026
 6791SOL    HW221273   2.781   0.155   3.107
 6792SOL     OW21274   3.878   0.194   5.280
 6792SOL    HW121275   3.796   0.249   5.293
 6792SOL    HW221276   3.908   0.158   5.369
 6793SOL     OW21277   1.887   3.195   6.270
 6793SOL    HW121278   1.979   3.236   6.266
 6793SOL    HW221279   1.836   3.235   6.346
 6794SOL     OW21280   5.743   1.849   5.233
 6794SOL    HW121281   5.688   1.799   5.167
 6794SOL    HW221282   5.689   1.924   5.271
 6795SOL     OW21283   1.127   0.383   1.540
 6795SOL    HW121284   1.171   0.412   1.625
 6795SOL    HW221285   1.182   0.411   1.462
 6796SOL     OW21286   5.947   1.819   2.952
 6796SOL    HW121287   5.943   1.911   2.914
 6796SOL    HW221288   6.007   1.762   2.895
 6797SOL     OW21289   0.780   2.500   1.602
 6797SOL    HW121290   0.744   2.471   1.513
 6797SOL    HW221291   0.822   2.590   1.593
 6798SOL     OW21292   5.662   0.048   1.889
 6798SOL    HW121293   5.730   0.115   1.919
 6798SOL    HW221294   5.577   0.094   1.866
 6799SOL     OW21295   6.731   0.581   3.572
 6799SOL    HW121296   6.781   0.617   3.493
 6799SOL    HW221297   6.769   0.619   3.656
 6800SOL     OW21298   6.080   2.741   1.453
 6800SOL    HW121299   6.107   2.655   1.496
 6800SOL    HW221300   6.162   2.791   1.425
 6801SOL     OW21301   0.798   6.672   6.679
 6801SOL    HW121302   0.883   6.691   6.728
 6801SOL    HW221303   0.752   6.594   6.721
 6802SOL     OW21304   3.376   5.070   2.274
 6802SOL    HW121305   3.323   5.149   2.246
 6802SOL    HW221306   3.435   5.040   2.198
 6803SOL     OW21307   5.303   4.954   6.114
 6803SOL    HW121308   5.256   5.020   6.056
 6803SOL    HW221309   5.255   4.867   6.112
 6804SOL     OW21310   3.690   4.986   2.652
 6804SOL    HW121311   3.694   4.946   2.743
 6804SOL    HW221312   3.600   4.971   2.612
 6805SOL     OW21313   0.010   4.713   4.591
 6805SOL    HW121314   6.978   4.683   4.514
 6805SOL    HW221315   6.987   4.783   4.644
 6806SOL     OW21316   6.833   2.545   1.671
 6806SOL    HW121317   6.803   2.475   1.735
 6806SOL    HW221318   6.764   2.617   1.664
 6807SOL     OW21319   3.422   4.167   1.832
 6807SOL    HW121320   3.375   4.202   1.913
 6807SOL    HW221321   3.372   4.195   1.750
 6808SOL     OW21322   2.967   1.175   4.402
 6808SOL    HW121323   2.891   1.235   4.377
 6808SOL    HW221324   3.035   1.175   4.328
 6809SOL     OW21325   5.688   3.410   0.128
 6809SOL    HW121326   5.766   3.430   0.070
 6809SOL    HW221327   5.614   3.475   0.109
 6810SOL     OW21328   2.633   0.795   4.964
 6810SOL    HW121329   2.732   0.806   4.975
 6810SOL    HW221330   2.613   0.756   4.874
 6811SOL     OW21331   6.291   1.340   0.488
 6811SOL    HW121332   6.286   1.241   0.474
 6811SOL    HW221333   6.276   1.386   0.400
 6812SOL     OW21334   3.777   4.272   5.240
 6812SOL    HW121335   3.770   4.228   5.151
 6812SOL    HW221336   3.697   4.249   5.295
 6813SOL     OW21337   6.436   3.376   2.418
 6813SOL    HW121338   6.438   3.425   2.331
 6813SOL    HW221339   6.425   3.278   2.401
 6814SOL     OW21340   5.789   0.807   6.697
 6814SOL    HW121341   5.779   0.722   6.750
 6814SOL    HW221342   5.711   0.866   6.713
 6815SOL     OW21343   1.313   4.915   5.719
 6815SOL    HW121344   1.395   4.859   5.724
 6815SOL    HW221345   1.337   5.011   5.735
 6816SOL     OW21346   0.073   0.439   3.539
 6816SOL    HW121347   0.053   0.537   3.541
 6816SOL    HW221348   0.112   0.411   3.627
 6817SOL     OW21349   3.944   2.096   1.366
 6817SOL    HW121350   3.918   2.135   1.278
 6817SOL    HW221351   3.883   2.132   1.437
 6818SOL     OW21352   1.414   6.845   5.597
 6818SOL    HW121353   1.479   6.919   5.614
 6818SOL    HW221354   1.366   6.862   5.511
 6819SOL     OW21355   4.777   4.124   2.158
 6819SOL    HW121356   4.862   4.174   2.140
 6819SOL    HW221357   4.700   4.186   2.149
 6820SOL     OW21358   3.275   5.147   1.904
 6820SOL    HW121359   3.189   5.160   1.855
 6820SOL    HW221360   3.299   5.050   1.903
 6821SOL     OW21361   3.996   2.445   5.379
 6821SOL    HW121362   3.906   2.414   5.348
 6821SOL    HW221363   4.043   2.491   5.304
 6822SOL     OW21364   6.170   3.049   5.966
 6822SOL    HW121365   6.218   3.090   6.044
 6822SOL    HW221366   6.104   2.981   6.000
 6823SOL     OW21367   6.622   2.076   4.983
 6823SOL    HW121368   6.617   2.119   4.893
 6823SOL    HW221369   6.539   2.022   4.999
 6824SOL     OW21370   1.334   0.238   5.529
 6824SOL    HW121371   1.391   0.168   5.573
 6824SOL    HW221372   1.257   0.259   5.589
 6825SOL     OW21373   4.522   4.309   0.757
 6825SOL    HW121374   4.549   4.402   0.779
 6825SOL    HW221375   4.470   4.270   0.833
 6826SOL     OW21376   6.282   6.171   4.095
 6826SOL    HW121377   6.327   6.214   4.017
 6826SOL    HW221378   6.194   6.133   4.067
 6827SOL     OW21379   5.169   5.843   5.008
 6827SOL    HW121380   5.230   5.877   4.936
 6827SOL    HW221381   5.100   5.782   4.968
 6828SOL     OW21382   2.829   2.235   2.487
 6828SOL    HW121383   2.904   2.253   2.550
 6828SOL    HW221384   2.866   2.214   2.396
 6829SOL     OW21385   4.285   6.951   3.483
 6829SOL    HW121386   4.325   7.019   3.421
 6829SOL    HW221387   4.348   6.934   3.559
 6830SOL     OW21388   4.862   5.121   3.490
 6830SOL    HW121389   4.946   5.161   3.528
 6830SOL    HW221390   4.838   5.170   3.406
 6831SOL     OW21391   1.942   2.433   6.033
 6831SOL    HW121392   1.901   2.524   6.043
 6831SOL    HW221393   1.954   2.412   5.936
 6832SOL     OW21394   2.978   2.600   6.741
 6832SOL    HW121395   3.018   2.540   6.671
 6832SOL    HW221396   2.974   2.551   6.828
 6833SOL     OW21397   3.757   5.546   5.781
 6833SOL    HW121398   3.673   5.534   5.728
 6833SOL    HW221399   3.828   5.487   5.744
 6834SOL     OW21400   6.336   6.197   0.157
 6834SOL    HW121401   6.378   6.284   0.133
 6834SOL    HW221402   6.394   6.122   0.125
 6835SOL     OW21403   2.809   1.198   5.472
 6835SOL    HW121404   2.793   1.293   5.446
 6835SOL    HW221405   2.803   1.140   5.391
 6836SOL     OW21406   2.211   4.260   6.461
 6836SOL    HW121407   2.257   4.345   6.488
 6836SOL    HW221408   2.115   4.264   6.490
 6837SOL     OW21409   0.305   0.937   2.334
 6837SOL    HW121410   0.398   0.956   2.367
 6837SOL    HW221411   0.278   1.008   2.269
 6838SOL     OW21412   3.119   3.981   4.984
 6838SOL    HW121413   3.036   3.992   5.038
 6838SOL    HW221414   3.102   3.914   4.911
 6839SOL     OW21415   6.452   3.538   4.476
 6839SOL    HW121416   6.354   3.547   4.491
 6839SOL    HW221417   6.468   3.479   4.397
 6840SOL     OW21418   2.645   6.861   4.763
 6840SOL    HW121419   2.642   6.808   4.848
 6840SOL    HW221420   2.687   6.950   4.781
 6841SOL     OW21421   4.662   5.740   1.070
 6841SOL    HW121422   4.670   5.806   1.146
 6841SOL    HW221423   4.565   5.716   1.057
 6842SOL     OW21424   0.561   3.516   5.104
 6842SOL    HW121425   0.634   3.584   5.109
 6842SOL    HW221426   0.501   3.525   5.183
 6843SOL     OW21427   3.952   2.153   1.918
 6843SOL    HW121428   3.936   2.074   1.858
 6843SOL    HW221429   3.864   2.187   1.952
 6844SOL     OW21430   4.354   5.650   4.035
 6844SOL    HW121431   4.434   5.668   4.092
 6844SOL    HW221432   4.353   5.553   4.010
 6845SOL     OW21433   4.247   4.574   0.916
 6845SOL    HW121434   4.200   4.600   0.832
 6845SOL    HW221435   4.208   4.488   0.951
 6846SOL     OW21436   3.178   3.604   2.827
 6846SOL    HW121437   3.134   3.587   2.739
 6846SOL    HW221438   3.276   3.588   2.819
 6847SOL     OW21439   5.413   3.564   2.225
 6847SOL    HW121440   5.394   3.523   2.136
 6847SOL    HW221441   5.510   3.590   2.230
 6848SOL     OW21442   0.438   6.777   3.413
 6848SOL    HW121443   0.448   6.685   3.376
 6848SOL    HW221444   0.439   6.773   3.513
 6849SOL     OW21445   3.487   6.720   3.703
 6849SOL    HW121446   3.394   6.709   3.669
 6849SOL    HW221447   3.485   6.749   3.799
 6850SOL     OW21448   5.354   2.762   2.047
 6850SOL    HW121449   5.400   2.819   1.979
 6850SOL    HW221450   5.269   2.726   2.008
 6851SOL     OW21451   1.256   5.880   5.405
 6851SOL    HW121452   1.284   5.825   5.483
 6851SOL    HW221453   1.241   5.821   5.326
 6852SOL     OW21454   0.449   4.919   2.261
 6852SOL    HW121455   0.404   4.964   2.338
 6852SOL    HW221456   0.547   4.936   2.265
 6853SOL     OW21457   6.753   3.703   5.567
 6853SOL    HW121458   6.816   3.626   5.580
 6853SOL    HW221459   6.667   3.684   5.614
 6854SOL     OW21460   6.705   1.318   6.214
 6854SOL    HW121461   6.771   1.394   6.218
 6854SOL    HW221462   6.754   1.232   6.229
 6855SOL     OW21463   3.386   6.062   1.663
 6855SOL    HW121464   3.375   6.076   1.564
 6855SOL    HW221465   3.453   5.990   1.679
 6856SOL     OW21466   0.186   4.006   5.326
 6856SOL    HW121467   0.136   4.045   5.404
 6856SOL    HW221468   0.280   4.038   5.327
 6857SOL     OW21469   4.317   1.875   5.551
 6857SOL    HW121470   4.330   1.957   5.606
 6857SOL    HW221471   4.220   1.850   5.550
 6858SOL     OW21472   3.755   3.011   4.798
 6858SOL    HW121473   3.819   3.017   4.875
 6858SOL    HW221474   3.787   3.071   4.724
 6859SOL     OW21475   3.995   6.860   1.565
 6859SOL    HW121476   4.030   6.818   1.481
 6859SOL    HW221477   3.923   6.925   1.543
 6860SOL     OW21478   4.754   4.039   0.092
 6860SOL    HW121479   4.838   3.986   0.082
 6860SOL    HW221480   4.741   4.062   0.189
 6861SOL     OW21481   6.534   4.723   0.403
 6861SOL    HW121482   6.556   4.787   0.330
 6861SOL    HW221483   6.612   4.715   0.465
 6862SOL     OW21484   3.631   5.786   4.165
 6862SOL    HW121485   3.703   5.822   4.106
 6862SOL    HW221486   3.576   5.720   4.115
 6863SOL     OW21487   6.780   3.128   4.448
 6863SOL    HW121488   6.681   3.123   4.441
 6863SOL    HW221489   6.817   3.036   4.466
 6864SOL     OW21490   4.183   5.999   4.322
 6864SOL    HW121491   4.243   5.947   4.384
 6864SOL    HW221492   4.240   6.053   4.260
 6865SOL     OW21493   6.807   4.194   4.110
 6865SOL    HW121494   6.901   4.173   4.137
 6865SOL    HW221495   6.794   4.293   4.108
 6866SOL     OW21496   6.939   3.298   2.325
 6866SOL    HW121497   6.986   3.213   2.350
 6866SOL    HW221498   6.866   3.317   2.391
 6867SOL     OW21499   2.287   4.068   2.506
 6867SOL    HW121500   2.244   3.982   2.533
 6867SOL    HW221501   2.315   4.062   2.410
 6868SOL     OW21502   1.690   5.495   5.612
 6868SOL    HW121503   1.653   5.577   5.654
 6868SOL    HW221504   1.670   5.496   5.514
 6869SOL     OW21505   5.805   3.208   5.413
 6869SOL    HW121506   5.790   3.109   5.409
 6869SOL    HW221507   5.902   3.227   5.402
 6870SOL     OW21508   5.311   3.697   3.313
 6870SOL    HW121509   5.362   3.623   3.267
 6870SOL    HW221510   5.373   3.773   3.330
 6871SOL     OW21511   5.183   6.343   1.593
 6871SOL    HW121512   5.162   6.273   1.661
 6871SOL    HW221513   5.270   6.387   1.616
 6872SOL     OW21514   2.870   3.167   6.425
 6872SOL    HW121515   2.835   3.243   6.480
 6872SOL    HW221516   2.794   3.112   6.391
 6873SOL     OW21517   5.336   4.130   5.707
 6873SOL    HW121518   5.404   4.058   5.693
 6873SOL    HW221519   5.354   4.177   5.793
 6874SOL     OW21520   1.016   2.229   5.609
 6874SOL    HW121521   1.053   2.249   5.518
 6874SOL    HW221522   1.052   2.294   5.675
 6875SOL     OW21523   3.082   2.081   3.887
 6875SOL    HW121524   3.091   2.126   3.976
 6875SOL    HW221525   3.069   1.983   3.901
 6876SOL     OW21526   3.339   6.080   6.693
 6876SOL    HW121527   3.355   6.134   6.610
 6876SOL    HW221528   3.400   6.000   6.692
 6877SOL     OW21529   2.384   4.289   6.791
 6877SOL    HW121530   2.408   4.228   6.715
 6877SOL    HW221531   2.444   4.369   6.788
 6878SOL     OW21532   2.011   1.422   5.106
 6878SOL    HW121533   2.086   1.465   5.056
 6878SOL    HW221534   2.048   1.371   5.184
 6879SOL     OW21535   1.433   2.805   5.942
 6879SOL    HW121536   1.523   2.763   5.947
 6879SOL    HW221537   1.363   2.736   5.960
 6880SOL     OW21538   1.624   4.120   5.224
 6880SOL    HW121539   1.637   4.174   5.141
 6880SOL    HW221540   1.548   4.157   5.277
 6881SOL     OW21541   6.999   4.032   1.112
 6881SOL    HW121542   6.899   4.036   1.113
 6881SOL    HW221543   0.010   4.116   1.072
 6882SOL     OW21544   1.738   0.071   5.212
 6882SOL    HW121545   1.830   0.086   5.176
 6882SOL    HW221546   1.689   0.009   5.152
 6883SOL     OW21547   3.586   6.423   2.008
 6883SOL    HW121548   3.610   6.383   2.097
 6883SOL    HW221549   3.667   6.428   1.951
 6884SOL     OW21550   2.570   4.649   3.473
 6884SOL    HW121551   2.663   4.680   3.453
 6884SOL    HW221552   2.508   4.686   3.404
 6885SOL     OW21553   2.703   5.454   4.617
 6885SOL    HW121554   2.731   5.454   4.521
 6885SOL    HW221555   2.705   5.360   4.652
 6886SOL     OW21556   5.681   1.733   2.897
 6886SOL    HW121557   5.622   1.812   2.884
 6886SOL    HW221558   5.773   1.764   2.923
 6887SOL     OW21559   5.687   0.809   4.763
 6887SOL    HW121560   5.765   0.752   4.787
 6887SOL    HW221561   5.659   0.864   4.842
 6888SOL     OW21562   5.473   6.415   4.465
 6888SOL    HW121563   5.564   6.378   4.452
 6888SOL    HW221564   5.422   6.358   4.529
 6889SOL     OW21565   0.915   4.080   6.356
 6889SOL    HW121566   0.985   4.143   6.322
 6889SOL    HW221567   0.888   4.017   6.284
 6890SOL     OW21568   1.972   0.708   0.565
 6890SOL    HW121569   2.001   0.766   0.641
 6890SOL    HW221570   1.894   0.652   0.593
 6891SOL     OW21571   2.551   4.721   4.295
 6891SOL    HW121572   2.639   4.680   4.320
 6891SOL    HW221573   2.499   4.656   4.240
 6892SOL     OW21574   4.132   0.768   4.067
 6892SOL    HW121575   4.217   0.744   4.113
 6892SOL    HW221576   4.140   0.859   4.027
 6893SOL     OW21577   5.310   5.550   1.998
 6893SOL    HW121578   5.365   5.604   2.062
 6893SOL    HW221579   5.300   5.457   2.033
 6894SOL     OW21580   6.616   4.824   6.231
 6894SOL    HW121581   6.652   4.733   6.213
 6894SOL    HW221582   6.692   4.889   6.237
 6895SOL     OW21583   3.622   6.138   6.764
 6895SOL    HW121584   3.624   6.237   6.775
 6895SOL    HW221585   3.626   6.115   6.666
 6896SOL     OW21586   3.998   0.136   2.765
 6896SOL    HW121587   3.972   0.152   2.670
 6896SOL    HW221588   3.943   0.194   2.825
 6897SOL     OW21589   3.074   2.697   0.731
 6897SOL    HW121590   3.066   2.601   0.704
 6897SOL    HW221591   3.170   2.717   0.753
 6898SOL     OW21592   4.421   2.335   2.263
 6898SOL    HW121593   4.499   2.333   2.201
 6898SOL    HW221594   4.365   2.253   2.248
 6899SOL     OW21595   5.047   6.070   6.942
 6899SOL    HW121596   4.987   5.995   6.969
 6899SOL    HW221597   5.124   6.033   6.889
 6900SOL     OW21598   4.510   0.976   5.652
 6900SOL    HW121599   4.506   0.893   5.708
 6900SOL    HW221600   4.592   0.975   5.596
 6901SOL     OW21601   1.363   0.917   6.319
 6901SOL    HW121602   1.377   0.988   6.389
 6901SOL    HW221603   1.267   0.918   6.290
 6902SOL     OW21604   6.783   5.861   0.787
 6902SOL    HW121605   6.735   5.946   0.810
 6902SOL    HW221606   6.850   5.878   0.716
 6903SOL     OW21607   4.722   3.543   0.692
 6903SOL    HW121608   4.677   3.589   0.615
 6903SOL    HW221609   4.708   3.597   0.775
 6904SOL     OW21610   0.213   1.459   3.200
 6904SOL    HW121611   0.167   1.519   3.265
 6904SOL    HW221612   0.145   1.412   3.144
 6905SOL     OW21613   5.706   6.355   0.761
 6905SOL    HW121614   5.792   6.399   0.736
 6905SOL    HW221615   5.701   6.342   0.860
 6906SOL     OW21616   4.335   0.608   3.590
 6906SOL    HW121617   4.347   0.683   3.525
 6906SOL    HW221618   4.290   0.643   3.672
 6907SOL     OW21619   3.759   1.681   1.324
 6907SOL    HW121620   3.690   1.648   1.259
 6907SOL    HW221621   3.726   1.666   1.417
 6908SOL     OW21622   1.172   6.566   6.465
 6908SOL    HW121623   1.168   6.612   6.377
 6908SOL    HW221624   1.133   6.475   6.457
 6909SOL     OW21625   3.649   3.989   6.582
 6909SOL    HW121626   3.616   3.969   6.490
 6909SOL    HW221627   3.582   3.960   6.649
 6910SOL     OW21628   6.737   1.452   2.199
 6910SOL    HW121629   6.774   1.388   2.131
 6910SOL    HW221630   6.777   1.543   2.185
 6911SOL     OW21631   3.870   1.114   4.782
 6911SOL    HW121632   3.917   1.082   4.864
 6911SOL    HW221633   3.886   1.050   4.707
 6912SOL     OW21634   4.759   5.056   0.809
 6912SOL    HW121635   4.721   4.972   0.847
 6912SOL    HW221636   4.745   5.131   0.873
 6913SOL     OW21637   5.005   5.221   5.566
 6913SOL    HW121638   4.976   5.125   5.556
 6913SOL    HW221639   5.100   5.223   5.596
 6914SOL     OW21640   6.336   4.816   0.995
 6914SOL    HW121641   6.384   4.742   1.042
 6914SOL    HW221642   6.296   4.780   0.910
 6915SOL     OW21643   0.631   5.508   1.250
 6915SOL    HW121644   0.709   5.476   1.196
 6915SOL    HW221645   0.663   5.548   1.335
 6916SOL     OW21646   6.624   1.966   0.252
 6916SOL    HW121647   6.637   1.938   0.157
 6916SOL    HW221648   6.707   2.009   0.286
 6917SOL     OW21649   4.437   6.309   6.265
 6917SOL    HW121650   4.475   6.382   6.323
 6917SOL    HW221651   4.357   6.270   6.310
 6918SOL     OW21652   1.924   3.099   3.918
 6918SOL    HW121653   1.888   3.147   3.998
 6918SOL    HW221654   1.886   3.140   3.835
 6919SOL     OW21655   1.959   6.301   3.220
 6919SOL    HW121656   2.044   6.323   3.172
 6919SOL    HW221657   1.887   6.279   3.153
 6920SOL     OW21658   5.073   6.515   4.297
 6920SOL    HW121659   5.089   6.515   4.198
 6920SOL    HW221660   5.098   6.603   4.335
 6921SOL     OW21661   0.427   0.525   3.067
 6921SOL    HW121662   0.506   0.484   3.021
 6921SOL    HW221663   0.357   0.547   2.999
 6922SOL     OW21664   2.244   6.308   0.360
 6922SOL    HW121665   2.344   6.315   0.354
 6922SOL    HW221666   2.213   6.345   0.447
 6923SOL     OW21667   4.912   0.205   3.869
 6923SOL    HW121668   4.835   0.216   3.807
 6923SOL    HW221669   4.882   0.220   3.963
 6924SOL     OW21670   0.575   5.785   1.149
 6924SOL    HW121671   0.612   5.825   1.065
 6924SOL    HW221672   0.571   5.686   1.140
 6925SOL     OW21673   5.055   5.677   1.988
 6925SOL    HW121674   5.041   5.601   2.051
 6925SOL    HW221675   5.152   5.684   1.965
 6926SOL     OW21676   2.907   3.360   4.725
 6926SOL    HW121677   2.946   3.379   4.635
 6926SOL    HW221678   2.821   3.309   4.713
 6927SOL     OW21679   4.365   3.778   6.026
 6927SOL    HW121680   4.319   3.689   6.029
 6927SOL    HW221681   4.318   3.837   5.961
 6928SOL     OW21682   5.345   0.575   6.557
 6928SOL    HW121683   5.293   0.567   6.472
 6928SOL    HW221684   5.296   0.529   6.631
 6929SOL     OW21685   3.739   5.282   6.915
 6929SOL    HW121686   3.777   5.228   6.990
 6929SOL    HW221687   3.662   5.233   6.875
 6930SOL     OW21688   0.810   0.041   3.443
 6930SOL    HW121689   0.816   0.097   3.525
 6930SOL    HW221690   0.835   6.972   3.466
 6931SOL     OW21691   1.638   1.239   1.556
 6931SOL    HW121692   1.584   1.244   1.641
 6931SOL    HW221693   1.735   1.249   1.577
 6932SOL     OW21694   2.548   2.519   0.697
 6932SOL    HW121695   2.591   2.579   0.764
 6932SOL    HW221696   2.522   2.432   0.741
 6933SOL     OW21697   3.719   6.452   6.030
 6933SOL    HW121698   3.801   6.508   6.014
 6933SOL    HW221699   3.736   6.359   6.000
 6934SOL     OW21700   5.773   3.171   6.866
 6934SOL    HW121701   5.764   3.077   6.900
 6934SOL    HW221702   5.683   3.211   6.852
 6935SOL     OW21703   4.133   5.543   3.379
 6935SOL    HW121704   4.076   5.596   3.316
 6935SOL    HW221705   4.213   5.598   3.405
 6936SOL     OW21706   1.454   4.295   1.006
 6936SOL    HW121707   1.488   4.213   0.961
 6936SOL    HW221708   1.511   4.314   1.087
 6937SOL     OW21709   4.236   6.867   5.661
 6937SOL    HW121710   4.194   6.784   5.699
 6937SOL    HW221711   4.167   6.938   5.653
 6938SOL     OW21712   4.661   2.346   5.339
 6938SOL    HW121713   4.696   2.439   5.324
 6938SOL    HW221714   4.575   2.335   5.289
 6939SOL     OW21715   0.509   4.407   2.861
 6939SOL    HW121716   0.547   4.316   2.843
 6939SOL    HW221717   0.482   4.449   2.774
 6940SOL     OW21718   4.957   1.036   4.492
 6940SOL    HW121719   4.962   0.937   4.498
 6940SOL    HW221720   5.034   1.071   4.437
 6941SOL     OW21721   3.932   3.088   3.450
 6941SOL    HW121722   3.848   3.139   3.431
 6941SOL    HW221723   3.992   3.092   3.369
 6942SOL     OW21724   0.063   2.041   6.907
 6942SOL    HW121725   0.013   2.027   6.993
 6942SOL    HW221726   0.159   2.058   6.927
 6943SOL     OW21727   4.863   6.038   6.217
 6943SOL    HW121728   4.881   6.040   6.119
 6943SOL    HW221729   4.950   6.046   6.267
 6944SOL     OW21730   1.324   6.336   5.985
 6944SOL    HW121731   1.330   6.238   5.970
 6944SOL    HW221732   1.338   6.356   6.082
 6945SOL     OW21733   5.660   2.945   6.077
 6945SOL    HW121734   5.632   2.902   5.991
 6945SOL    HW221735   5.668   2.875   6.148
 6946SOL     OW21736   5.201   4.650   2.657
 6946SOL    HW121737   5.255   4.678   2.578
 6946SOL    HW221738   5.109   4.690   2.651
 6947SOL     OW21739   3.756   6.510   3.068
 6947SOL    HW121740   3.722   6.576   3.135
 6947SOL    HW221741   3.689   6.502   2.993
 6948SOL     OW21742   4.322   1.128   5.501
 6948SOL    HW121743   4.234   1.083   5.491
 6948SOL    HW221744   4.379   1.075   5.565
 6949SOL     OW21745   5.217   0.245   2.659
 6949SOL    HW121746   5.303   0.262   2.707
 6949SOL    HW221747   5.146   0.221   2.726
 6950SOL     OW21748   2.245   0.155   2.918
 6950SOL    HW121749   2.312   0.092   2.958
 6950SOL    HW221750   2.174   0.174   2.985
 6951SOL     OW21751   6.307   5.427   6.217
 6951SOL    HW121752   6.241   5.369   6.266
 6951SOL    HW221753   6.340   5.499   6.278
 6952SOL     OW21754   0.531   4.780   4.858
 6952SOL    HW121755   0.607   4.738   4.809
 6952SOL    HW221756   0.493   4.854   4.803
 6953SOL     OW21757   5.030   1.553   5.077
 6953SOL    HW121758   5.110   1.521   5.026
 6953SOL    HW221759   5.001   1.641   5.041
 6954SOL     OW21760   0.294   3.851   3.208
 6954SOL    HW121761   0.393   3.836   3.215
 6954SOL    HW221762   0.247   3.776   3.255
 6955SOL     OW21763   0.093   5.798   2.219
 6955SOL    HW121764   0.069   5.793   2.122
 6955SOL    HW221765   0.134   5.887   2.239
 6956SOL     OW21766   3.946   4.778   1.538
 6956SOL    HW121767   3.882   4.795   1.463
 6956SOL    HW221768   4.005   4.858   1.550
 6957SOL     OW21769   0.528   4.748   0.797
 6957SOL    HW121770   0.615   4.699   0.789
 6957SOL    HW221771   0.494   4.741   0.890
 6958SOL     OW21772   2.731   3.588   6.837
 6958SOL    HW121773   2.754   3.600   6.934
 6958SOL    HW221774   2.699   3.675   6.800
 6959SOL     OW21775   2.954   0.734   4.271
 6959SOL    HW121776   2.887   0.807   4.279
 6959SOL    HW221777   3.018   0.738   4.349
 6960SOL     OW21778   0.667   4.808   6.434
 6960SOL    HW121779   0.710   4.751   6.504
 6960SOL    HW221780   0.699   4.781   6.344
 6961SOL     OW21781   7.013   0.696   2.893
 6961SOL    HW121782   0.082   0.718   2.920
 6961SOL    HW221783   7.013   0.654   2.802
 6962SOL     OW21784   4.703   4.214   1.083
 6962SOL    HW121785   4.783   4.173   1.127
 6962SOL    HW221786   4.678   4.298   1.132
 6963SOL     OW21787   0.028   5.188   1.765
 6963SOL    HW121788   6.976   5.194   1.702
 6963SOL    HW221789   0.080   5.273   1.762
 6964SOL     OW21790   4.246   5.707   5.598
 6964SOL    HW121791   4.215   5.787   5.547
 6964SOL    HW221792   4.217   5.714   5.693
 6965SOL     OW21793   6.686   2.976   5.933
 6965SOL    HW121794   6.681   2.968   6.032
 6965SOL    HW221795   6.690   3.072   5.907
 6966SOL     OW21796   4.561   2.609   3.928
 6966SOL    HW121797   4.658   2.616   3.951
 6966SOL    HW221798   4.514   2.692   3.955
 6967SOL     OW21799   1.840   0.964   6.000
 6967SOL    HW121800   1.908   1.011   6.056
 6967SOL    HW221801   1.808   0.882   6.047
 6968SOL     OW21802   5.228   6.200   1.904
 6968SOL    HW121803   5.280   6.284   1.887
 6968SOL    HW221804   5.132   6.222   1.918
 6969SOL     OW21805   2.916   2.327   1.061
 6969SOL    HW121806   2.967   2.379   1.128
 6969SOL    HW221807   2.926   2.229   1.080
 6970SOL     OW21808   4.721   4.304   0.020
 6970SOL    HW121809   4.648   4.315   6.978
 6970SOL    HW221810   4.728   4.209   0.048
 6971SOL     OW21811   5.101   0.222   1.177
 6971SOL    HW121812   5.043   0.290   1.133
 6971SOL    HW221813   5.100   0.235   1.276
 6972SOL     OW21814   5.973   5.237   4.241
 6972SOL    HW121815   5.915   5.304   4.288
 6972SOL    HW221816   5.923   5.151   4.233
 6973SOL     OW21817   1.507   4.537   3.082
 6973SOL    HW121818   1.413   4.514   3.108
 6973SOL    HW221819   1.506   4.586   2.995
 6974SOL     OW21820   3.435   3.900   4.632
 6974SOL    HW121821   3.442   3.834   4.556
 6974SOL    HW221822   3.359   3.874   4.691
 6975SOL     OW21823   3.781   0.768   5.795
 6975SOL    HW121824   3.776   0.792   5.892
 6975SOL    HW221825   3.775   0.669   5.784
 6976SOL     OW21826   1.946   4.709   6.274
 6976SOL    HW121827   1.879   4.700   6.201
 6976SOL    HW221828   1.904   4.688   6.362
 6977SOL     OW21829   3.136   1.999   2.760
 6977SOL    HW121830   3.126   1.923   2.696
 6977SOL    HW221831   3.230   2.033   2.757
 6978SOL     OW21832   6.422   0.561   1.970
 6978SOL    HW121833   6.372   0.574   2.055
 6978SOL    HW221834   6.407   0.640   1.910
 6979SOL     OW21835   0.382   5.008   2.578
 6979SOL    HW121836   0.465   5.065   2.580
 6979SOL    HW221837   0.361   4.978   2.671
 6980SOL     OW21838   3.257   1.020   4.528
 6980SOL    HW121839   3.282   1.099   4.471
 6980SOL    HW221840   3.336   0.961   4.539
 6981SOL     OW21841   2.015   5.265   0.491
 6981SOL    HW121842   2.016   5.284   0.392
 6981SOL    HW221843   1.928   5.295   0.530
 6982SOL     OW21844   0.487   0.471   5.068
 6982SOL    HW121845   0.436   0.385   5.061
 6982SOL    HW221846   0.438   0.543   5.020
 6983SOL     OW21847   6.684   0.276   4.380
 6983SOL    HW121848   6.718   0.304   4.469
 6983SOL    HW221849   6.600   0.224   4.391
 6984SOL     OW21850   1.493   0.671   6.295
 6984SOL    HW121851   1.439   0.593   6.266
 6984SOL    HW221852   1.436   0.753   6.295
 6985SOL     OW21853   4.933   5.898   2.108
 6985SOL    HW121854   4.879   5.900   2.192
 6985SOL    HW221855   4.974   5.807   2.096
 6986SOL     OW21856   2.496   6.550   5.837
 6986SOL    HW121857   2.540   6.638   5.817
 6986SOL    HW221858   2.396   6.562   5.836
 6987SOL     OW21859   0.618   3.637   6.704
 6987SOL    HW121860   0.564   3.705   6.654
 6987SOL    HW221861   0.715   3.656   6.691
 6988SOL     OW21862   5.152   0.888   3.853
 6988SOL    HW121863   5.199   0.963   3.806
 6988SOL    HW221864   5.110   0.827   3.786
 6989SOL     OW21865   1.692   2.439   4.132
 6989SOL    HW121866   1.608   2.411   4.179
 6989SOL    HW221867   1.744   2.357   4.107
 6990SOL     OW21868   3.718   3.516   7.013
 6990SOL    HW121869   3.753   3.603   0.021
 6990SOL    HW221870   3.691   3.458   0.065
 6991SOL     OW21871   2.939   4.230   5.638
 6991SOL    HW121872   2.991   4.145   5.650
 6991SOL    HW221873   2.843   4.213   5.658
 6992SOL     OW21874   5.409   6.978   3.609
 6992SOL    HW121875   5.428   6.888   3.649
 6992SOL    HW221876   5.487   0.013   3.623
 6993SOL     OW21877   0.271   0.298   3.199
 6993SOL    HW121878   0.184   0.319   3.154
 6993SOL    HW221879   0.342   0.360   3.166
 6994SOL     OW21880   1.310   3.146   6.356
 6994SOL    HW121881   1.408   3.145   6.376
 6994SOL    HW221882   1.296   3.160   6.258
 6995SOL     OW21883   6.546   5.964   3.342
 6995SOL    HW121884   6.606   5.908   3.284
 6995SOL    HW221885   6.585   6.056   3.349
 6996SOL     OW21886   2.204   0.287   5.170
 6996SOL    HW121887   2.156   0.249   5.249
 6996SOL    HW221888   2.145   0.355   5.126
 6997SOL     OW21889   4.916   0.439   5.228
 6997SOL    HW121890   4.905   0.535   5.254
 6997SOL    HW221891   4.925   0.383   5.310
 6998SOL     OW21892   0.782   2.824   3.409
 6998SOL    HW121893   0.805   2.809   3.505
 6998SOL    HW221894   0.865   2.852   3.360
 6999SOL     OW21895   3.412   1.916   5.597
 6999SOL    HW121896   3.457   1.941   5.511
 6999SOL    HW221897   3.332   1.974   5.611
 7000SOL     OW21898   0.708   6.599   3.003
 7000SOL    HW121899   0.678   6.683   2.958
 7000SOL    HW221900   0.748   6.538   2.935
 7001SOL     OW21901   2.373   2.652   5.586
 7001SOL    HW121902   2.388   2.731   5.644
 7001SOL    HW221903   2.330   2.579   5.639
 7002SOL     OW21904   1.741   4.932   3.516
 7002SOL    HW121905   1.688   5.017   3.522
 7002SOL    HW221906   1.678   4.855   3.504
 7003SOL     OW21907   2.531   6.243   1.138
 7003SOL    HW121908   2.573   6.153   1.144
 7003SOL    HW221909   2.573   6.295   1.062
 7004SOL     OW21910   1.512   4.562   0.955
 7004SOL    HW121911   1.449   4.487   0.971
 7004SOL    HW221912   1.497   4.600   0.864
 7005SOL     OW21913   5.085   6.280   5.917
 7005SOL    HW121914   5.184   6.290   5.904
 7005SOL    HW221915   5.056   6.189   5.886
 7006SOL     OW21916   4.511   4.545   4.798
 7006SOL    HW121917   4.455   4.603   4.738
 7006SOL    HW221918   4.460   4.525   4.882
 7007SOL     OW21919   4.591   5.100   3.093
 7007SOL    HW121920   4.682   5.096   3.051
 7007SOL    HW221921   4.595   5.059   3.184
 7008SOL     OW21922   1.035   4.923   3.982
 7008SOL    HW121923   0.992   4.835   4.001
 7008SOL    HW221924   0.974   4.997   4.012
 7009SOL     OW21925   0.739   4.502   2.196
 7009SOL    HW121926   0.756   4.554   2.280
 7009SOL    HW221927   0.697   4.562   2.128
 7010SOL     OW21928   3.396   4.872   5.825
 7010SOL    HW121929   3.469   4.861   5.758
 7010SOL    HW221930   3.307   4.867   5.779
 7011SOL     OW21931   2.668   0.838   5.797
 7011SOL    HW121932   2.722   0.897   5.736
 7011SOL    HW221933   2.571   0.849   5.777
 7012SOL     OW21934   1.199   1.120   1.758
 7012SOL    HW121935   1.265   1.050   1.732
 7012SOL    HW221936   1.234   1.210   1.731
 7013SOL     OW21937   1.056   0.802   1.990
 7013SOL    HW121938   0.996   0.786   2.068
 7013SOL    HW221939   1.014   0.765   1.907
 7014SOL     OW21940   2.777   4.196   1.208
 7014SOL    HW121941   2.779   4.126   1.136
 7014SOL    HW221942   2.686   4.237   1.213
 7015SOL     OW21943   5.531   2.636   2.495
 7015SOL    HW121944   5.491   2.565   2.436
 7015SOL    HW221945   5.459   2.677   2.551
 7016SOL     OW21946   4.259   5.092   1.033
 7016SOL    HW121947   4.313   5.120   1.113
 7016SOL    HW221948   4.270   5.160   0.961
 7017SOL     OW21949   3.421   1.429   3.392
 7017SOL    HW121950   3.339   1.388   3.432
 7017SOL    HW221951   3.461   1.365   3.327
 7018SOL     OW21952   0.493   4.699   4.550
 7018SOL    HW121953   0.451   4.658   4.632
 7018SOL    HW221954   0.582   4.736   4.574
 7019SOL     OW21955   2.281   5.886   0.038
 7019SOL    HW121956   2.246   5.797   0.009
 7019SOL    HW221957   2.371   5.901   7.024
 7020SOL     OW21958   6.080   6.641   6.392
 7020SOL    HW121959   6.028   6.556   6.383
 7020SOL    HW221960   6.070   6.695   6.308
 7021SOL     OW21961   2.632   1.511   6.236
 7021SOL    HW121962   2.554   1.486   6.179
 7021SOL    HW221963   2.669   1.598   6.204
 7022SOL     OW21964   5.439   4.511   0.237
 7022SOL    HW121965   5.365   4.508   0.170
 7022SOL    HW221966   5.472   4.605   0.246
 7023SOL     OW21967   6.018   3.704   2.803
 7023SOL    HW121968   6.010   3.758   2.720
 7023SOL    HW221969   5.959   3.743   2.874
 7024SOL     OW21970   1.421   5.947   0.663
 7024SOL    HW121971   1.370   6.022   0.704
 7024SOL    HW221972   1.357   5.873   0.639
 7025SOL     OW21973   2.920   2.161   6.357
 7025SOL    HW121974   2.829   2.136   6.390
 7025SOL    HW221975   2.983   2.168   6.434
 7026SOL     OW21976   4.447   1.917   0.553
 7026SOL    HW121977   4.357   1.953   0.530
 7026SOL    HW221978   4.469   1.940   0.648
 7027SOL     OW21979   4.288   6.670   4.578
 7027SOL    HW121980   4.296   6.744   4.645
 7027SOL    HW221981   4.213   6.609   4.604
 7028SOL     OW21982   3.283   0.628   4.381
 7028SOL    HW121983   3.332   0.540   4.384
 7028SOL    HW221984   3.271   0.656   4.286
 7029SOL     OW21985   3.844   0.784   6.052
 7029SOL    HW121986   3.865   0.777   6.150
 7029SOL    HW221987   3.896   0.714   6.003
 7030SOL     OW21988   1.320   3.271   4.414
 7030SOL    HW121989   1.388   3.241   4.481
 7030SOL    HW221990   1.329   3.369   4.399
 7031SOL     OW21991   1.786   6.046   4.014
 7031SOL    HW121992   1.757   5.952   4.034
 7031SOL    HW221993   1.837   6.047   3.928
 7032SOL     OW21994   6.052   1.418   2.166
 7032SOL    HW121995   5.977   1.357   2.141
 7032SOL    HW221996   6.021   1.484   2.235
 7033SOL     OW21997   0.138   0.848   3.761
 7033SOL    HW121998   0.182   0.881   3.844
 7033SOL    HW221999   0.200   0.785   3.714
 7034SOL     OW22000   6.960   6.417   2.631
 7034SOL    HW122001   6.920   6.367   2.708
 7034SOL    HW222002   7.007   6.498   2.666
 7035SOL     OW22003   6.588   5.879   2.358
 7035SOL    HW122004   6.686   5.872   2.343
 7035SOL    HW222005   6.570   5.898   2.455
 7036SOL     OW22006   0.354   4.893   1.996
 7036SOL    HW122007   0.291   4.971   1.983
 7036SOL    HW222008   0.361   4.873   2.093
 7037SOL     OW22009   1.627   6.427   6.387
 7037SOL    HW122010   1.564   6.505   6.384
 7037SOL    HW222011   1.675   6.419   6.300
 7038SOL     OW22012   0.949   4.188   4.179
 7038SOL    HW122013   0.963   4.153   4.087
 7038SOL    HW222014   0.852   4.211   4.192
 7039SOL     OW22015   3.618   1.523   7.009
 7039SOL    HW122016   3.538   1.583   7.009
 7039SOL    HW222017   3.672   1.540   0.066
 7040SOL     OW22018   5.126   2.014   6.221
 7040SOL    HW122019   5.037   2.003   6.176
 7040SOL    HW222020   5.126   1.963   6.307
 7041SOL     OW22021   2.106   1.941   2.643
 7041SOL    HW122022   2.086   2.007   2.571
 7041SOL    HW222023   2.185   1.885   2.618
 7042SOL     OW22024   2.814   6.896   0.002
 7042SOL    HW122025   2.766   6.824   6.977
 7042SOL    HW222026   2.842   6.862   0.091
 7043SOL     OW22027   2.719   1.581   3.106
 7043SOL    HW122028   2.642   1.638   3.079
 7043SOL    HW222029   2.804   1.620   3.071
 7044SOL     OW22030   4.626   5.078   2.786
 7044SOL    HW122031   4.540   5.033   2.811
 7044SOL    HW222032   4.697   5.053   2.852
 7045SOL     OW22033   5.613   5.627   1.339
 7045SOL    HW122034   5.537   5.607   1.401
 7045SOL    HW222035   5.619   5.726   1.325
 7046SOL     OW22036   3.722   0.443   5.043
 7046SOL    HW122037   3.647   0.420   5.105
 7046SOL    HW222038   3.747   0.361   4.991
 7047SOL     OW22039   1.392   1.050   4.333
 7047SOL    HW122040   1.296   1.032   4.314
 7047SOL    HW222041   1.426   1.119   4.269
 7048SOL     OW22042   6.375   5.881   0.387
 7048SOL    HW122043   6.333   5.795   0.359
 7048SOL    HW222044   6.303   5.944   0.418
 7049SOL     OW22045   2.717   1.518   0.886
 7049SOL    HW122046   2.806   1.535   0.844
 7049SOL    HW222047   2.671   1.443   0.839
 7050SOL     OW22048   4.060   3.828   4.317
 7050SOL    HW122049   4.018   3.865   4.399
 7050SOL    HW222050   4.027   3.734   4.301
 7051SOL     OW22051   0.400   6.809   2.311
 7051SOL    HW122052   0.445   6.895   2.336
 7051SOL    HW222053   0.466   6.735   2.315
 7052SOL     OW22054   0.122   1.998   3.554
 7052SOL    HW122055   0.179   1.923   3.519
 7052SOL    HW222056   0.156   2.085   3.520
 7053SOL     OW22057   0.606   4.677   6.137
 7053SOL    HW122058   0.575   4.623   6.215
 7053SOL    HW222059   0.527   4.710   6.085
 7054SOL     OW22060   6.874   6.486   1.443
 7054SOL    HW122061   6.877   6.392   1.475
 7054SOL    HW222062   6.783   6.524   1.460
 7055SOL     OW22063   4.103   0.165   4.487
 7055SOL    HW122064   4.157   0.227   4.429
 7055SOL    HW222065   4.014   0.206   4.504
 7056SOL     OW22066   5.335   4.833   4.181
 7056SOL    HW122067   5.243   4.851   4.214
 7056SOL    HW222068   5.380   4.767   4.242
 7057SOL     OW22069   0.205   5.596   3.664
 7057SOL    HW122070   0.148   5.676   3.643
 7057SOL    HW222071   0.157   5.512   3.639
 7058SOL     OW22072   1.025   5.186   5.446
 7058SOL    HW122073   1.008   5.092   5.475
 7058SOL    HW222074   1.080   5.233   5.515
 7059SOL     OW22075   1.410   0.347   2.586
 7059SOL    HW122076   1.312   0.338   2.569
 7059SOL    HW222077   1.431   0.313   2.678
 7060SOL     OW22078   3.280   6.305   2.094
 7060SOL    HW122079   3.364   6.315   2.146
 7060SOL    HW222080   3.301   6.281   1.999
 7061SOL     OW22081   0.561   0.777   2.452
 7061SOL    HW122082   0.584   0.873   2.465
 7061SOL    HW222083   0.550   0.733   2.542
 7062SOL     OW22084   5.585   2.143   5.212
 7062SOL    HW122085   5.606   2.115   5.119
 7062SOL    HW222086   5.549   2.236   5.211
 7063SOL     OW22087   3.329   6.379   0.847
 7063SOL    HW122088   3.254   6.431   0.889
 7063SOL    HW222089   3.307   6.282   0.849
 7064SOL     OW22090   3.718   2.391   1.241
 7064SOL    HW122091   3.639   2.372   1.298
 7064SOL    HW222092   3.801   2.387   1.297
 7065SOL     OW22093   5.020   3.791   1.733
 7065SOL    HW122094   4.966   3.874   1.742
 7065SOL    HW222095   4.969   3.723   1.680
 7066SOL     OW22096   3.619   6.774   0.751
 7066SOL    HW122097   3.631   6.710   0.675
 7066SOL    HW222098   3.665   6.860   0.729
 7067SOL     OW22099   0.467   3.733   5.696
 7067SOL    HW122100   0.565   3.716   5.695
 7067SOL    HW222101   0.445   3.807   5.633
 7068SOL     OW22102   1.981   1.370   3.980
 7068SOL    HW122103   1.963   1.379   4.078
 7068SOL    HW222104   2.049   1.437   3.952
 7069SOL     OW22105   1.013   4.694   5.001
 7069SOL    HW122106   1.034   4.600   5.025
 7069SOL    HW222107   1.077   4.727   4.932
 7070SOL     OW22108   5.901   5.603   4.595
 7070SOL    HW122109   5.940   5.513   4.610
 7070SOL    HW222110   5.870   5.641   4.682
 7071SOL     OW22111   1.179   6.329   5.115
 7071SOL    HW122112   1.243   6.369   5.180
 7071SOL    HW222113   1.191   6.229   5.113
 7072SOL     OW22114   0.589   6.668   6.427
 7072SOL    HW122115   0.660   6.600   6.443
 7072SOL    HW222116   0.524   6.634   6.360
 7073SOL     OW22117   0.735   0.390   5.900
 7073SOL    HW122118   0.687   0.317   5.948
 7073SOL    HW222119   0.678   0.472   5.896
 7074SOL     OW22120   3.251   1.796   1.506
 7074SOL    HW122121   3.344   1.785   1.540
 7074SOL    HW222122   3.200   1.856   1.567
 7075SOL     OW22123   1.523   5.876   3.152
 7075SOL    HW122124   1.605   5.922   3.118
 7075SOL    HW222125   1.512   5.896   3.249
 7076SOL     OW22126   2.912   2.847   6.692
 7076SOL    HW122127   2.957   2.879   6.609
 7076SOL    HW222128   2.943   2.754   6.713
 7077SOL     OW22129   2.445   5.506   5.376
 7077SOL    HW122130   2.347   5.502   5.356
 7077SOL    HW222131   2.465   5.589   5.428
 7078SOL     OW22132   5.736   0.800   3.332
 7078SOL    HW122133   5.813   0.831   3.276
 7078SOL    HW222134   5.652   0.841   3.297
 7079SOL     OW22135   6.355   5.963   5.994
 7079SOL    HW122136   6.311   5.925   6.076
 7079SOL    HW222137   6.333   5.905   5.915
 7080SOL     OW22138   4.901   1.641   4.017
 7080SOL    HW122139   4.953   1.569   4.063
 7080SOL    HW222140   4.816   1.658   4.067
 7081SOL     OW22141   3.579   1.505   5.402
 7081SOL    HW122142   3.652   1.497   5.471
 7081SOL    HW222143   3.615   1.476   5.313
 7082SOL     OW22144   5.591   0.895   6.186
 7082SOL    HW122145   5.651   0.815   6.178
 7082SOL    HW222146   5.521   0.878   6.255
 7083SOL     OW22147   3.203   6.702   6.630
 7083SOL    HW122148   3.291   6.729   6.669
 7083SOL    HW222149   3.171   6.618   6.674
 7084SOL     OW22150   6.569   6.169   6.309
 7084SOL    HW122151   6.613   6.229   6.243
 7084SOL    HW222152   6.566   6.076   6.272
 7085SOL     OW22153   2.042   2.093   2.103
 7085SOL    HW122154   1.954   2.050   2.082
 7085SOL    HW222155   2.059   2.167   2.039
 7086SOL     OW22156   5.586   0.521   6.490
 7086SOL    HW122157   5.500   0.564   6.516
 7086SOL    HW222158   5.596   0.435   6.541
 7087SOL     OW22159   1.315   3.169   4.163
 7087SOL    HW122160   1.308   3.206   4.256
 7087SOL    HW222161   1.397   3.112   4.156
 7088SOL     OW22162   6.076   3.382   4.893
 7088SOL    HW122163   6.131   3.465   4.906
 7088SOL    HW222164   5.980   3.406   4.886
 7089SOL     OW22165   2.941   2.018   0.156
 7089SOL    HW122166   2.954   2.077   0.077
 7089SOL    HW222167   3.030   2.003   0.200
 7090SOL     OW22168   2.500   2.240   5.135
 7090SOL    HW122169   2.463   2.312   5.192
 7090SOL    HW222170   2.518   2.159   5.191
 7091SOL     OW22171   6.908   0.316   0.344
 7091SOL    HW122172   6.998   0.304   0.386
 7091SOL    HW222173   6.874   0.408   0.365
 7092SOL     OW22174   3.556   3.841   1.302
 7092SOL    HW122175   3.529   3.761   1.355
 7092SOL    HW222176   3.654   3.837   1.282
 7093SOL     OW22177   3.361   4.157   4.901
 7093SOL    HW122178   3.265   4.136   4.882
 7093SOL    HW222179   3.372   4.174   4.999
 7094SOL     OW22180   0.884   0.235   5.554
 7094SOL    HW122181   0.916   0.150   5.598
 7094SOL    HW222182   0.960   0.277   5.504
 7095SOL     OW22183   0.580   3.307   6.375
 7095SOL    HW122184   0.646   3.335   6.305
 7095SOL    HW222185   0.526   3.230   6.340
 7096SOL     OW22186   4.337   2.151   3.579
 7096SOL    HW122187   4.259   2.197   3.620
 7096SOL    HW222188   4.306   2.072   3.525
 7097SOL     OW22189   7.020   0.919   1.483
 7097SOL    HW122190   6.985   0.828   1.504
 7097SOL    HW222191   0.092   0.914   1.463
 7098SOL     OW22192   2.006   6.170   6.227
 7098SOL    HW122193   2.083   6.120   6.269
 7098SOL    HW222194   1.929   6.171   6.291
 7099SOL     OW22195   0.948   1.236   6.121
 7099SOL    HW122196   0.933   1.195   6.211
 7099SOL    HW222197   1.016   1.183   6.071
 7100SOL     OW22198   5.241   3.797   1.062
 7100SOL    HW122199   5.196   3.747   1.136
 7100SOL    HW222200   5.248   3.894   1.087
 7101SOL     OW22201   2.941   0.448   5.417
 7101SOL    HW122202   2.862   0.391   5.394
 7101SOL    HW222203   2.925   0.541   5.384
 7102SOL     OW22204   4.033   1.317   1.123
 7102SOL    HW122205   4.040   1.412   1.093
 7102SOL    HW222206   4.092   1.302   1.202
 7103SOL     OW22207   3.211   6.354   0.299
 7103SOL    HW122208   3.293   6.380   0.248
 7103SOL    HW222209   3.236   6.299   0.378
 7104SOL     OW22210   1.234   2.003   3.056
 7104SOL    HW122211   1.328   1.976   3.035
 7104SOL    HW222212   1.227   2.027   3.153
 7105SOL     OW22213   3.532   3.684   4.829
 7105SOL    HW122214   3.602   3.727   4.772
 7105SOL    HW222215   3.469   3.754   4.862
 7106SOL     OW22216   3.668   2.830   5.169
 7106SOL    HW122217   3.736   2.879   5.114
 7106SOL    HW222218   3.714   2.782   5.243
 7107SOL     OW22219   2.470   2.165   0.305
 7107SOL    HW122220   2.470   2.248   0.250
 7107SOL    HW222221   2.395   2.168   0.371
 7108SOL     OW22222   5.473   6.613   1.359
 7108SOL    HW122223   5.537   6.641   1.287
 7108SOL    HW222224   5.480   6.514   1.372
 7109SOL     OW22225   3.657   0.325   6.368
 7109SOL    HW122226   3.622   0.405   6.319
 7109SOL    HW222227   3.689   0.257   6.302
 7110SOL     OW22228   4.794   5.340   4.250
 7110SOL    HW122229   4.759   5.267   4.310
 7110SOL    HW222230   4.719   5.375   4.193
 7111SOL     OW22231   2.268   2.957   4.425
 7111SOL    HW122232   2.222   3.005   4.500
 7111SOL    HW222233   2.355   2.921   4.458
 7112SOL     OW22234   1.142   6.645   3.601
 7112SOL    HW122235   1.148   6.578   3.528
 7112SOL    HW222236   1.226   6.643   3.655
 7113SOL     OW22237   3.427   3.728   4.431
 7113SOL    HW122238   3.372   3.652   4.467
 7113SOL    HW222239   3.400   3.746   4.336
 7114SOL     OW22240   4.337   1.219   1.634
 7114SOL    HW122241   4.367   1.205   1.540
 7114SOL    HW222242   4.416   1.234   1.693
 7115SOL     OW22243   4.760   1.786   1.347
 7115SOL    HW122244   4.816   1.861   1.381
 7115SOL    HW222245   4.730   1.807   1.254
 7116SOL     OW22246   5.240   4.174   3.238
 7116SOL    HW122247   5.309   4.143   3.302
 7116SOL    HW222248   5.229   4.107   3.165
 7117SOL     OW22249   6.377   6.654   2.255
 7117SOL    HW122250   6.427   6.689   2.334
 7117SOL    HW222251   6.404   6.559   2.238
 7118SOL     OW22252   6.187   3.528   0.932
 7118SOL    HW122253   6.223   3.481   1.012
 7118SOL    HW222254   6.098   3.489   0.908
 7119SOL     OW22255   6.402   1.163   3.363
 7119SOL    HW122256   6.409   1.079   3.310
 7119SOL    HW222257   6.323   1.158   3.424
 7120SOL     OW22258   4.733   1.541   3.554
 7120SOL    HW122259   4.663   1.591   3.605
 7120SOL    HW222260   4.779   1.477   3.615
 7121SOL     OW22261   2.671   6.602   3.638
 7121SOL    HW122262   2.742   6.544   3.601
 7121SOL    HW222263   2.613   6.637   3.564
 7122SOL     OW22264   6.709   0.815   6.717
 7122SOL    HW122265   6.656   0.732   6.727
 7122SOL    HW222266   6.804   0.792   6.693
 7123SOL     OW22267   3.211   5.136   1.179
 7123SOL    HW122268   3.116   5.136   1.212
 7123SOL    HW222269   3.226   5.059   1.117
 7124SOL     OW22270   0.338   5.082   0.023
 7124SOL    HW122271   0.316   5.158   0.083
 7124SOL    HW222272   0.290   5.000   0.053
 7125SOL     OW22273   6.631   6.227   2.488
 7125SOL    HW122274   6.536   6.231   2.458
 7125SOL    HW222275   6.691   6.231   2.408
 7126SOL     OW22276   0.980   4.625   0.522
 7126SOL    HW122277   1.053   4.632   0.454
 7126SOL    HW222278   0.891   4.627   0.477
 7127SOL     OW22279   3.893   6.285   4.226
 7127SOL    HW122280   3.913   6.376   4.261
 7127SOL    HW222281   3.795   6.276   4.210
 7128SOL     OW22282   3.383   4.051   1.290
 7128SOL    HW122283   3.415   3.957   1.288
 7128SOL    HW222284   3.436   4.103   1.357
 7129SOL     OW22285   2.428   6.914   1.862
 7129SOL    HW122286   2.518   6.902   1.906
 7129SOL    HW222287   2.440   6.954   1.772
 7130SOL     OW22288   2.242   4.732   4.015
 7130SOL    HW122289   2.202   4.668   3.949
 7130SOL    HW222290   2.315   4.686   4.065
 7131SOL     OW22291   2.732   0.855   2.824
 7131SOL    HW122292   2.698   0.941   2.787
 7131SOL    HW222293   2.831   0.861   2.836
 7132SOL     OW22294   3.728   3.893   3.232
 7132SOL    HW122295   3.764   3.800   3.241
 7132SOL    HW222296   3.683   3.919   3.317
 7133SOL     OW22297   5.334   4.766   3.483
 7133SOL    HW122298   5.418   4.720   3.512
 7133SOL    HW222299   5.342   4.792   3.386
 7134SOL     OW22300   6.079   5.178   3.908
 7134SOL    HW122301   6.070   5.255   3.971
 7134SOL    HW222302   6.046   5.095   3.953
 7135SOL     OW22303   0.944   1.635   5.299
 7135SOL    HW122304   1.013   1.706   5.310
 7135SOL    HW222305   0.914   1.604   5.389
 7136SOL     OW22306   1.811   1.436   0.574
 7136SOL    HW122307   1.881   1.490   0.622
 7136SOL    HW222308   1.733   1.494   0.552
 7137SOL     OW22309   4.568   0.607   4.549
 7137SOL    HW122310   4.576   0.531   4.484
 7137SOL    HW222311   4.659   0.643   4.569
 7138SOL     OW22312   2.358   4.029   1.434
 7138SOL    HW122313   2.347   4.126   1.456
 7138SOL    HW222314   2.424   4.020   1.359
 7139SOL     OW22315   4.602   3.027   1.407
 7139SOL    HW122316   4.537   3.041   1.482
 7139SOL    HW222317   4.558   3.047   1.320
 7140SOL     OW22318   6.255   4.332   5.439
 7140SOL    HW122319   6.253   4.301   5.345
 7140SOL    HW222320   6.261   4.254   5.501
 7141SOL     OW22321   3.188   6.773   0.853
 7141SOL    HW122322   3.206   6.868   0.829
 7141SOL    HW222323   3.243   6.713   0.796
 7142SOL     OW22324   3.904   6.635   3.530
 7142SOL    HW122325   3.977   6.690   3.570
 7142SOL    HW222326   3.818   6.685   3.534
 7143SOL     OW22327   1.161   3.727   6.137
 7143SOL    HW122328   1.261   3.733   6.132
 7143SOL    HW222329   1.131   3.755   6.228
 7144SOL     OW22330   0.922   1.680   3.450
 7144SOL    HW122331   0.978   1.627   3.514
 7144SOL    HW222332   0.949   1.776   3.454
 7145SOL     OW22333   4.996   0.056   6.905
 7145SOL    HW122334   5.094   0.039   6.903
 7145SOL    HW222335   4.959   0.025   6.993
 7146SOL     OW22336   3.052   5.729   0.223
 7146SOL    HW122337   3.013   5.796   0.159
 7146SOL    HW222338   3.065   5.642   0.175
 7147SOL     OW22339   6.952   0.596   3.139
 7147SOL    HW122340   6.923   0.675   3.193
 7147SOL    HW222341   6.994   0.628   3.054
 7148SOL     OW22342   1.296   0.578   1.650
 7148SOL    HW122343   1.393   0.588   1.630
 7148SOL    HW222344   1.249   0.664   1.631
 7149SOL     OW22345   6.117   1.045   3.307
 7149SOL    HW122346   6.139   1.123   3.249
 7149SOL    HW222347   6.047   0.989   3.262
 7150SOL     OW22348   6.401   2.668   6.734
 7150SOL    HW122349   6.479   2.728   6.724
 7150SOL    HW222350   6.372   2.666   6.830
 7151SOL     OW22351   2.990   5.919   1.913
 7151SOL    HW122352   2.895   5.899   1.939
 7151SOL    HW222353   3.026   5.991   1.971
 7152SOL     OW22354   1.570   2.697   4.022
 7152SOL    HW122355   1.584   2.640   3.941
 7152SOL    HW222356   1.600   2.647   4.104
 7153SOL     OW22357   4.267   1.612   4.104
 7153SOL    HW122358   4.175   1.575   4.093
 7153SOL    HW222359   4.300   1.645   4.015
 7154SOL     OW22360   4.589   5.779   4.157
 7154SOL    HW122361   4.676   5.827   4.150
 7154SOL    HW222362   4.535   5.817   4.232
 7155SOL     OW22363   1.538   0.163   1.657
 7155SOL    HW122364   1.601   0.125   1.590
 7155SOL    HW222365   1.549   0.262   1.660
 7156SOL     OW22366   6.644   5.217   4.754
 7156SOL    HW122367   6.737   5.207   4.789
 7156SOL    HW222368   6.611   5.309   4.772
 7157SOL     OW22369   5.133   5.155   0.672
 7157SOL    HW122370   5.171   5.159   0.764
 7157SOL    HW222371   5.064   5.227   0.661
 7158SOL     OW22372   7.023   6.678   3.136
 7158SOL    HW122373   0.024   6.764   3.178
 7158SOL    HW222374   6.986   6.617   3.205
 7159SOL     OW22375   0.804   5.520   0.291
 7159SOL    HW122376   0.753   5.448   0.244
 7159SOL    HW222377   0.860   5.480   0.363
 7160SOL     OW22378   6.419   0.794   1.830
 7160SOL    HW122379   6.379   0.836   1.911
 7160SOL    HW222380   6.445   0.866   1.765
 7161SOL     OW22381   3.548   3.233   4.274
 7161SOL    HW122382   3.524   3.135   4.268
 7161SOL    HW222383   3.576   3.266   4.184
 7162SOL     OW22384   3.587   4.965   3.973
 7162SOL    HW122385   3.595   4.939   3.877
 7162SOL    HW222386   3.655   5.036   3.994
 7163SOL     OW22387   3.162   0.301   3.229
 7163SOL    HW122388   3.261   0.314   3.234
 7163SOL    HW222389   3.127   0.345   3.147
 7164SOL     OW22390   2.207   1.276   2.955
 7164SOL    HW122391   2.193   1.261   3.053
 7164SOL    HW222392   2.291   1.229   2.926
 7165SOL     OW22393   5.704   1.042   0.973
 7165SOL    HW122394   5.732   0.988   1.052
 7165SOL    HW222395   5.742   1.134   0.979
 7166SOL     OW22396   5.413   5.151   0.639
 7166SOL    HW122397   5.422   5.055   0.665
 7166SOL    HW222398   5.316   5.174   0.626
 7167SOL     OW22399   5.031   3.231   5.039
 7167SOL    HW122400   5.019   3.319   4.992
 7167SOL    HW222401   4.996   3.238   5.133
 7168SOL     OW22402   1.167   0.533   3.763
 7168SOL    HW122403   1.095   0.510   3.828
 7168SOL    HW222404   1.217   0.451   3.738
 7169SOL     OW22405   1.791   2.784   5.384
 7169SOL    HW122406   1.849   2.729   5.444
 7169SOL    HW222407   1.728   2.839   5.440
 7170SOL     OW22408   6.024   5.152   3.641
 7170SOL    HW122409   5.968   5.069   3.650
 7170SOL    HW222410   6.049   5.185   3.732
 7171SOL     OW22411   4.579   3.204   5.592
 7171SOL    HW122412   4.563   3.276   5.525
 7171SOL    HW222413   4.537   3.228   5.679
 7172SOL     OW22414   1.541   6.907   0.099
 7172SOL    HW122415   1.639   6.901   0.122
 7172SOL    HW222416   1.497   6.975   0.158
 7173SOL     OW22417   6.984   6.309   5.294
 7173SOL    HW122418   0.055   6.310   5.265
 7173SOL    HW222419   6.979   6.306   5.394
 7174SOL     OW22420   2.102   5.215   0.074
 7174SOL    HW122421   2.080   5.256   0.162
 7174SOL    HW222422   2.034   5.245   0.006
 7175SOL     OW22423   5.818   3.877   6.779
 7175SOL    HW122424   5.891   3.936   6.745
 7175SOL    HW222425   5.742   3.877   6.714
 7176SOL     OW22426   6.049   4.359   1.182
 7176SOL    HW122427   5.975   4.303   1.145
 7176SOL    HW222428   6.042   4.452   1.146
 7177SOL     OW22429   1.102   5.291   2.967
 7177SOL    HW122430   1.137   5.337   2.885
 7177SOL    HW222431   1.068   5.358   3.032
 7178SOL     OW22432   0.680   2.459   4.835
 7178SOL    HW122433   0.769   2.467   4.880
 7178SOL    HW222434   0.668   2.534   4.770
 7179SOL     OW22435   2.601   4.151   5.757
 7179SOL    HW122436   2.629   4.203   5.677
 7179SOL    HW222437   2.527   4.088   5.731
 7180SOL     OW22438   0.807   6.181   2.188
 7180SOL    HW122439   0.718   6.224   2.199
 7180SOL    HW222440   0.840   6.148   2.276
 7181SOL     OW22441   4.651   0.216   1.259
 7181SOL    HW122442   4.671   0.301   1.210
 7181SOL    HW222443   4.676   0.228   1.356
 7182SOL     OW22444   2.590   4.130   5.307
 7182SOL    HW122445   2.594   4.208   5.245
 7182SOL    HW222446   2.549   4.052   5.259
 7183SOL     OW22447   1.457   4.991   3.195
 7183SOL    HW122448   1.427   5.085   3.181
 7183SOL    HW222449   1.492   4.954   3.109
 7184SOL     OW22450   2.285   6.256   4.424
 7184SOL    HW122451   2.243   6.208   4.347
 7184SOL    HW222452   2.214   6.304   4.476
 7185SOL     OW22453   4.329   2.917   6.794
 7185SOL    HW122454   4.415   2.954   6.829
 7185SOL    HW222455   4.253   2.966   6.837
 7186SOL     OW22456   6.721   5.829   5.609
 7186SOL    HW122457   6.778   5.905   5.641
 7186SOL    HW222458   6.642   5.820   5.669
 7187SOL     OW22459   1.849   4.011   1.979
 7187SOL    HW122460   1.878   4.035   1.886
 7187SOL    HW222461   1.928   4.008   2.039
 7188SOL     OW22462   5.117   1.646   2.316
 7188SOL    HW122463   5.146   1.670   2.223
 7188SOL    HW222464   5.057   1.566   2.312
 7189SOL     OW22465   0.615   1.726   5.562
 7189SOL    HW122466   0.523   1.690   5.548
 7189SOL    HW222467   0.618   1.778   5.648
 7190SOL     OW22468   5.448   4.106   3.405
 7190SOL    HW122469   5.486   4.018   3.432
 7190SOL    HW222470   5.521   4.174   3.401
 7191SOL     OW22471   1.506   3.790   2.268
 7191SOL    HW122472   1.561   3.782   2.352
 7191SOL    HW222473   1.567   3.786   2.189
 7192SOL     OW22474   2.609   4.421   5.985
 7192SOL    HW122475   2.661   4.506   5.986
 7192SOL    HW222476   2.630   4.370   5.901
 7193SOL     OW22477   4.227   2.234   4.260
 7193SOL    HW122478   4.251   2.268   4.169
 7193SOL    HW222479   4.130   2.251   4.276
 7194SOL     OW22480   2.265   1.957   1.610
 7194SOL    HW122481   2.348   1.962   1.554
 7194SOL    HW222482   2.290   1.967   1.706
 7195SOL     OW22483   1.323   5.472   1.027
 7195SOL    HW122484   1.412   5.487   1.069
 7195SOL    HW222485   1.330   5.397   0.961
 7196SOL     OW22486   3.040   3.828   2.186
 7196SOL    HW122487   3.119   3.888   2.187
 7196SOL    HW222488   3.005   3.820   2.093
 7197SOL     OW22489   6.768   1.889   5.140
 7197SOL    HW122490   6.799   1.934   5.224
 7197SOL    HW222491   6.717   1.954   5.083
 7198SOL     OW22492   1.557   6.181   6.490
 7198SOL    HW122493   1.564   6.273   6.451
 7198SOL    HW222494   1.500   6.124   6.430
 7199SOL     OW22495   6.827   6.607   2.963
 7199SOL    HW122496   6.832   6.634   2.866
 7199SOL    HW222497   6.902   6.649   3.013
 7200SOL     OW22498   1.901   0.922   0.986
 7200SOL    HW122499   1.869   0.866   1.063
 7200SOL    HW222500   1.896   1.018   1.010
 7201SOL     OW22501   1.852   3.672   4.025
 7201SOL    HW122502   1.833   3.602   4.094
 7201SOL    HW222503   1.950   3.673   4.005
 7202SOL     OW22504   3.737   0.958   6.749
 7202SOL    HW122505   3.666   0.962   6.820
 7202SOL    HW222506   3.703   0.903   6.672
 7203SOL     OW22507   5.562   1.349   6.950
 7203SOL    HW122508   5.551   1.305   0.014
 7203SOL    HW222509   5.489   1.320   6.889
 7204SOL     OW22510   5.811   1.292   3.261
 7204SOL    HW122511   5.862   1.378   3.257
 7204SOL    HW222512   5.821   1.244   3.173
 7205SOL     OW22513   2.217   4.965   2.429
 7205SOL    HW122514   2.237   4.884   2.374
 7205SOL    HW222515   2.161   4.939   2.508
 7206SOL     OW22516   6.500   1.042   0.853
 7206SOL    HW122517   6.479   1.129   0.897
 7206SOL    HW222518   6.565   1.056   0.779
 7207SOL     OW22519   3.322   6.961   1.046
 7207SOL    HW122520   3.259   6.885   1.030
 7207SOL    HW222521   3.357   6.956   1.140
 7208SOL     OW22522   3.286   0.148   5.665
 7208SOL    HW122523   3.196   0.176   5.631
 7208SOL    HW222524   3.344   0.228   5.677
 7209SOL     OW22525   3.699   3.519   4.624
 7209SOL    HW122526   3.745   3.503   4.537
 7209SOL    HW222527   3.759   3.572   4.684
 7210SOL     OW22528   4.638   0.950   3.918
 7210SOL    HW122529   4.656   0.888   3.995
 7210SOL    HW222530   4.597   1.034   3.953
 7211SOL     OW22531   1.735   5.371   3.642
 7211SOL    HW122532   1.747   5.440   3.571
 7211SOL    HW222533   1.754   5.411   3.732
 7212SOL     OW22534   6.126   6.408   4.221
 7212SOL    HW122535   6.161   6.436   4.132
 7212SOL    HW222536   6.069   6.327   4.211
 7213SOL     OW22537   6.056   0.921   5.417
 7213SOL    HW122538   6.047   0.838   5.471
 7213SOL    HW222539   6.127   0.979   5.457
 7214SOL     OW22540   1.662   5.073   4.901
 7214SOL    HW122541   1.761   5.081   4.908
 7214SOL    HW222542   1.623   5.163   4.879
 7215SOL     OW22543   0.759   3.854   3.724
 7215SOL    HW122544   0.804   3.907   3.796
 7215SOL    HW222545   0.816   3.855   3.642
 7216SOL     OW22546   2.631   0.456   0.135
 7216SOL    HW122547   2.586   0.541   0.106
 7216SOL    HW222548   2.692   0.424   0.062
 7217SOL     OW22549   0.896   3.248   2.613
 7217SOL    HW122550   0.943   3.290   2.536
 7217SOL    HW222551   0.958   3.186   2.660
 7218SOL     OW22552   4.924   2.637   5.541
 7218SOL    HW122553   4.980   2.572   5.592
 7218SOL    HW222554   4.831   2.637   5.578
 7219SOL     OW22555   4.442   0.613   2.354
 7219SOL    HW122556   4.448   0.536   2.291
 7219SOL    HW222557   4.347   0.644   2.361
 7220SOL     OW22558   6.369   1.474   2.809
 7220SOL    HW122559   6.417   1.426   2.735
 7220SOL    HW222560   6.430   1.482   2.888
 7221SOL     OW22561   5.166   4.729   6.157
 7221SOL    HW122562   5.067   4.736   6.151
 7221SOL    HW222563   5.192   4.675   6.237
 7222SOL     OW22564   0.117   5.998   1.353
 7222SOL    HW122565   0.058   6.077   1.342
 7222SOL    HW222566   0.061   5.916   1.369
 7223SOL     OW22567   3.658   1.205   5.949
 7223SOL    HW122568   3.615   1.118   5.925
 7223SOL    HW222569   3.628   1.233   6.039
 7224SOL     OW22570   5.458   0.069   4.628
 7224SOL    HW122571   5.380   0.040   4.683
 7224SOL    HW222572   5.495   0.154   4.665
 7225SOL     OW22573   2.261   6.639   6.888
 7225SOL    HW122574   2.222   6.558   6.930
 7225SOL    HW222575   2.349   6.660   6.931
 7226SOL     OW22576   0.570   6.560   0.401
 7226SOL    HW122577   0.556   6.499   0.323
 7226SOL    HW222578   0.494   6.550   0.465
 7227SOL     OW22579   0.189   2.342   6.816
 7227SOL    HW122580   0.090   2.332   6.800
 7227SOL    HW222581   0.204   2.409   6.888
 7228SOL     OW22582   0.909   0.726   2.216
 7228SOL    HW122583   0.881   0.786   2.291
 7228SOL    HW222584   0.882   0.632   2.238
 7229SOL     OW22585   0.822   0.319   4.019
 7229SOL    HW122586   0.729   0.347   3.996
 7229SOL    HW222587   0.820   0.227   4.057
 7230SOL     OW22588   4.984   4.417   3.734
 7230SOL    HW122589   4.902   4.404   3.679
 7230SOL    HW222590   5.051   4.471   3.683
 7231SOL     OW22591   5.941   0.947   6.363
 7231SOL    HW122592   5.931   1.021   6.429
 7231SOL    HW222593   5.934   0.983   6.270
 7232SOL     OW22594   4.537   4.968   1.984
 7232SOL    HW122595   4.509   4.989   2.078
 7232SOL    HW222596   4.581   4.878   1.982
 7233SOL     OW22597   6.993   2.580   6.098
 7233SOL    HW122598   6.968   2.675   6.082
 7233SOL    HW222599   0.064   2.575   6.126
 7234SOL     OW22600   6.108   2.075   1.462
 7234SOL    HW122601   6.049   2.126   1.400
 7234SOL    HW222602   6.122   1.982   1.427
 7235SOL     OW22603   5.632   3.706   5.251
 7235SOL    HW122604   5.656   3.618   5.293
 7235SOL    HW222605   5.536   3.705   5.224
 7236SOL     OW22606   3.620   0.390   2.722
 7236SOL    HW122607   3.568   0.419   2.803
 7236SOL    HW222608   3.717   0.397   2.741
 7237SOL     OW22609   5.749   5.611   5.879
 7237SOL    HW122610   5.745   5.700   5.924
 7237SOL    HW222611   5.844   5.589   5.856
 7238SOL     OW22612   2.017   1.672   1.851
 7238SOL    HW122613   2.064   1.629   1.928
 7238SOL    HW222614   2.084   1.712   1.789
 7239SOL     OW22615   2.843   1.405   1.905
 7239SOL    HW122616   2.928   1.363   1.938
 7239SOL    HW222617   2.820   1.483   1.962
 7240SOL     OW22618   2.606   4.278   0.293
 7240SOL    HW122619   2.589   4.330   0.377
 7240SOL    HW222620   2.597   4.338   0.214
 7241SOL     OW22621   3.476   6.915   4.807
 7241SOL    HW122622   3.440   7.003   4.839
 7241SOL    HW222623   3.564   6.897   4.851
 7242SOL     OW22624   5.609   4.586   6.221
 7242SOL    HW122625   5.688   4.646   6.224
 7242SOL    HW222626   5.529   4.638   6.190
 7243SOL     OW22627   0.240   5.719   0.166
 7243SOL    HW122628   0.165   5.709   0.100
 7243SOL    HW222629   0.326   5.730   0.117
 7244SOL     OW22630   6.062   1.313   1.216
 7244SOL    HW122631   6.116   1.267   1.145
 7244SOL    HW222632   6.090   1.280   1.306
 7245SOL     OW22633   6.931   1.544   3.927
 7245SOL    HW122634   7.001   1.615   3.923
 7245SOL    HW222635   6.940   1.484   3.848
 7246SOL     OW22636   6.824   6.528   6.129
 7246SOL    HW122637   6.890   6.519   6.054
 7246SOL    HW222638   6.870   6.509   6.215
 7247SOL     OW22639   3.321   5.455   2.809
 7247SOL    HW122640   3.353   5.373   2.856
 7247SOL    HW222641   3.244   5.432   2.750
 7248SOL     OW22642   3.459   0.847   4.602
 7248SOL    HW122643   3.444   0.761   4.554
 7248SOL    HW222644   3.526   0.833   4.675
 7249SOL     OW22645   6.529   5.262   0.427
 7249SOL    HW122646   6.555   5.206   0.505
 7249SOL    HW222647   6.557   5.357   0.442
 7250SOL     OW22648   2.943   4.840   5.931
 7250SOL    HW122649   2.890   4.921   5.906
 7250SOL    HW222650   2.968   4.846   6.028
 7251SOL     OW22651   5.771   0.311   4.969
 7251SOL    HW122652   5.869   0.308   4.991
 7251SOL    HW222653   5.722   0.358   5.042
 7252SOL     OW22654   3.963   3.273   5.204
 7252SOL    HW122655   3.989   3.281   5.301
 7252SOL    HW222656   4.040   3.300   5.146
 7253SOL     OW22657   5.126   5.775   1.211
 7253SOL    HW122658   5.176   5.816   1.287
 7253SOL    HW222659   5.068   5.700   1.245
 7254SOL     OW22660   4.957   6.114   4.914
 7254SOL    HW122661   4.980   6.021   4.943
 7254SOL    HW222662   4.870   6.113   4.864
 7255SOL     OW22663   3.301   3.777   2.542
 7255SOL    HW122664   3.233   3.848   2.526
 7255SOL    HW222665   3.336   3.785   2.636
 7256SOL     OW22666   4.558   5.133   4.317
 7256SOL    HW122667   4.467   5.165   4.291
 7256SOL    HW222668   4.578   5.047   4.269
 7257SOL     OW22669   5.933   3.822   3.022
 7257SOL    HW122670   5.843   3.863   3.004
 7257SOL    HW222671   5.967   3.853   3.110
 7258SOL     OW22672   3.328   6.752   4.344
 7258SOL    HW122673   3.250   6.814   4.350
 7258SOL    HW222674   3.366   6.754   4.251
 7259SOL     OW22675   2.308   5.338   6.137
 7259SOL    HW122676   2.402   5.325   6.169
 7259SOL    HW222677   2.266   5.249   6.119
 7260SOL     OW22678   3.473   2.049   2.213
 7260SOL    HW122679   3.404   2.117   2.186
 7260SOL    HW222680   3.563   2.079   2.183
 7261SOL     OW22681   1.467   3.936   1.864
 7261SOL    HW122682   1.397   3.874   1.901
 7261SOL    HW222683   1.534   3.957   1.935
 7262SOL     OW22684   5.866   1.608   4.945
 7262SOL    HW122685   5.776   1.646   4.963
 7262SOL    HW222686   5.882   1.605   4.846
 7263SOL     OW22687   3.112   6.076   2.113
 7263SOL    HW122688   3.127   6.022   2.196
 7263SOL    HW222689   3.158   6.164   2.121
 7264SOL     OW22690   0.614   0.656   5.741
 7264SOL    HW122691   0.584   0.624   5.831
 7264SOL    HW222692   0.552   0.621   5.671
 7265SOL     OW22693   4.251   4.867   6.234
 7265SOL    HW122694   4.227   4.831   6.144
 7265SOL    HW222695   4.346   4.900   6.232
 7266SOL     OW22696   5.262   0.787   2.018
 7266SOL    HW122697   5.180   0.732   2.002
 7266SOL    HW222698   5.243   0.882   1.994
 7267SOL     OW22699   0.050   3.987   3.790
 7267SOL    HW122700   6.990   4.002   3.840
 7267SOL    HW222701   0.033   3.924   3.714
 7268SOL     OW22702   3.115   6.868   1.459
 7268SOL    HW122703   3.062   6.952   1.447
 7268SOL    HW222704   3.152   6.866   1.552
 7269SOL     OW22705   1.569   6.521   1.985
 7269SOL    HW122706   1.502   6.566   1.927
 7269SOL    HW222707   1.610   6.588   2.047
 7270SOL     OW22708   3.440   1.150   2.785
 7270SOL    HW122709   3.385   1.203   2.850
 7270SOL    HW222710   3.423   1.183   2.692
 7271SOL     OW22711   6.739   3.903   3.315
 7271SOL    HW122712   6.770   3.953   3.235
 7271SOL    HW222713   6.706   3.812   3.287
 7272SOL     OW22714   5.549   2.532   1.762
 7272SOL    HW122715   5.583   2.440   1.743
 7272SOL    HW222716   5.551   2.548   1.861
 7273SOL     OW22717   5.355   4.621   6.890
 7273SOL    HW122718   5.288   4.628   6.816
 7273SOL    HW222719   5.323   4.674   6.968
 7274SOL     OW22720   6.723   4.891   5.383
 7274SOL    HW122721   6.813   4.848   5.394
 7274SOL    HW222722   6.653   4.820   5.369
 7275SOL     OW22723   6.125   6.655   1.007
 7275SOL    HW122724   6.119   6.604   1.092
 7275SOL    HW222725   6.182   6.604   0.942
 7276SOL     OW22726   2.506   2.077   3.131
 7276SOL    HW122727   2.452   2.156   3.160
 7276SOL    HW222728   2.596   2.109   3.099
 7277SOL     OW22729   5.531   1.801   4.815
 7277SOL    HW122730   5.591   1.820   4.738
 7277SOL    HW222731   5.452   1.748   4.783
 7278SOL     OW22732   2.936   1.364   3.195
 7278SOL    HW122733   2.888   1.439   3.240
 7278SOL    HW222734   2.975   1.396   3.109
 7279SOL     OW22735   5.175   5.198   0.926
 7279SOL    HW122736   5.137   5.256   0.998
 7279SOL    HW222737   5.238   5.132   0.967
 7280SOL     OW22738   5.984   2.181   5.415
 7280SOL    HW122739   5.952   2.125   5.339
 7280SOL    HW222740   6.029   2.263   5.379
 7281SOL     OW22741   4.623   5.739   2.330
 7281SOL    HW122742   4.579   5.653   2.356
 7281SOL    HW222743   4.565   5.787   2.264
 7282SOL     OW22744   6.220   4.199   2.429
 7282SOL    HW122745   6.306   4.151   2.408
 7282SOL    HW222746   6.151   4.174   2.362
 7283SOL     OW22747   4.203   4.715   2.990
 7283SOL    HW122748   4.131   4.713   3.059
 7283SOL    HW222749   4.163   4.733   2.901
 7284SOL     OW22750   6.777   1.421   3.104
 7284SOL    HW122751   6.815   1.513   3.110
 7284SOL    HW222752   6.692   1.417   3.158
 7285SOL     OW22753   4.980   2.948   1.927
 7285SOL    HW122754   4.884   2.970   1.943
 7285SOL    HW222755   4.988   2.891   1.846
 7286SOL     OW22756   6.911   1.049   2.680
 7286SOL    HW122757   6.847   0.998   2.623
 7286SOL    HW222758   7.005   1.025   2.655
 7287SOL     OW22759   1.521   2.626   3.347
 7287SOL    HW122760   1.559   2.606   3.256
 7287SOL    HW222761   1.565   2.707   3.385
 7288SOL     OW22762   2.634   1.923   2.509
 7288SOL    HW122763   2.682   1.908   2.423
 7288SOL    HW222764   2.700   1.942   2.582
 7289SOL     OW22765   6.352   1.301   1.349
 7289SOL    HW122766   6.400   1.307   1.436
 7289SOL    HW222767   6.367   1.386   1.297
 7290SOL     OW22768   3.394   1.632   5.579
 7290SOL    HW122769   3.390   1.732   5.587
 7290SOL    HW222770   3.458   1.608   5.505
 7291SOL     OW22771   3.898   1.031   0.689
 7291SOL    HW122772   3.951   1.007   0.608
 7291SOL    HW222773   3.960   1.066   0.760
 7292SOL     OW22774   2.788   0.293   2.682
 7292SOL    HW122775   2.752   0.384   2.701
 7292SOL    HW222776   2.713   0.228   2.675
 7293SOL     OW22777   0.448   1.507   4.258
 7293SOL    HW122778   0.414   1.414   4.243
 7293SOL    HW222779   0.443   1.559   4.173
 7294SOL     OW22780   3.689   6.139   2.505
 7294SOL    HW122781   3.738   6.064   2.549
 7294SOL    HW222782   3.596   6.145   2.542
 7295SOL     OW22783   6.347   5.332   2.129
 7295SOL    HW122784   6.352   5.294   2.037
 7295SOL    HW222785   6.298   5.419   2.126
 7296SOL     OW22786   4.959   4.535   1.845
 7296SOL    HW122787   4.890   4.465   1.828
 7296SOL    HW222788   4.969   4.549   1.944
 7297SOL     OW22789   4.087   6.749   1.328
 7297SOL    HW122790   4.096   6.797   1.241
 7297SOL    HW222791   4.170   6.696   1.346
 7298SOL     OW22792   4.042   5.358   6.615
 7298SOL    HW122793   4.026   5.392   6.708
 7298SOL    HW222794   3.975   5.287   6.593
 7299SOL     OW22795   1.188   2.820   6.270
 7299SOL    HW122796   1.151   2.727   6.267
 7299SOL    HW222797   1.268   2.822   6.330
 7300SOL     OW22798   0.647   5.267   2.011
 7300SOL    HW122799   0.731   5.282   1.960
 7300SOL    HW222800   0.585   5.210   1.957
 7301SOL     OW22801   4.614   1.581   5.420
 7301SOL    HW122802   4.656   1.656   5.368
 7301SOL    HW222803   4.527   1.613   5.460
 7302SOL     OW22804   5.433   1.504   6.149
 7302SOL    HW122805   5.442   1.435   6.078
 7302SOL    HW222806   5.386   1.585   6.112
 7303SOL     OW22807   2.497   1.610   1.961
 7303SOL    HW122808   2.505   1.521   1.916
 7303SOL    HW222809   2.474   1.680   1.893
 7304SOL     OW22810   2.940   5.602   1.473
 7304SOL    HW122811   2.985   5.514   1.488
 7304SOL    HW222812   3.006   5.668   1.438
 7305SOL     OW22813   6.430   1.305   0.919
 7305SOL    HW122814   6.335   1.275   0.926
 7305SOL    HW222815   6.448   1.337   0.826
 7306SOL     OW22816   0.773   2.466   1.314
 7306SOL    HW122817   0.777   2.377   1.269
 7306SOL    HW222818   0.678   2.486   1.340
 7307SOL     OW22819   2.532   0.028   1.272
 7307SOL    HW122820   2.435   0.033   1.246
 7307SOL    HW222821   2.551   0.099   1.340
 7308SOL     OW22822   4.773   1.287   2.910
 7308SOL    HW122823   4.762   1.231   2.992
 7308SOL    HW222824   4.728   1.375   2.923
 7309SOL     OW22825   2.223   4.816   3.550
 7309SOL    HW122826   2.308   4.864   3.528
 7309SOL    HW222827   2.226   4.724   3.511
 7310SOL     OW22828   2.772   2.744   6.204
 7310SOL    HW122829   2.856   2.694   6.183
 7310SOL    HW222830   2.758   2.745   6.303
 7311SOL     OW22831   0.170   6.659   6.852
 7311SOL    HW122832   0.189   6.579   6.795
 7311SOL    HW222833   0.135   6.629   6.941
 7312SOL     OW22834   6.241   1.741   3.862
 7312SOL    HW122835   6.279   1.815   3.806
 7312SOL    HW222836   6.316   1.686   3.899
 7313SOL     OW22837   2.706   0.604   2.684
 7313SOL    HW122838   2.694   0.650   2.772
 7313SOL    HW222839   2.617   0.594   2.640
 7314SOL     OW22840   0.014   3.839   6.382
 7314SOL    HW122841   6.964   3.785   6.346
 7314SOL    HW222842   0.095   3.826   6.324
 7315SOL     OW22843   1.506   5.135   2.589
 7315SOL    HW122844   1.582   5.200   2.590
 7315SOL    HW222845   1.516   5.073   2.511
 7316SOL     OW22846   2.758   2.517   0.959
 7316SOL    HW122847   2.675   2.540   1.009
 7316SOL    HW222848   2.811   2.449   1.010
 7317SOL     OW22849   3.759   1.384   0.469
 7317SOL    HW122850   3.764   1.400   0.568
 7317SOL    HW222851   3.846   1.409   0.427
 7318SOL     OW22852   4.305   6.356   0.990
 7318SOL    HW122853   4.258   6.285   1.043
 7318SOL    HW222854   4.403   6.338   0.991
 7319SOL     OW22855   5.610   5.172   6.773
 7319SOL    HW122856   5.660   5.258   6.765
 7319SOL    HW222857   5.672   5.100   6.801
 7320SOL     OW22858   0.527   2.616   1.356
 7320SOL    HW122859   0.479   2.698   1.385
 7320SOL    HW222860   0.511   2.601   1.258
 7321SOL     OW22861   1.467   0.888   6.940
 7321SOL    HW122862   1.497   0.798   6.908
 7321SOL    HW222863   1.368   0.889   6.947
 7322SOL     OW22864   0.840   2.408   2.828
 7322SOL    HW122865   0.855   2.495   2.875
 7322SOL    HW222866   0.780   2.423   2.749
 7323SOL     OW22867   1.296   2.739   1.381
 7323SOL    HW122868   1.268   2.659   1.434
 7323SOL    HW222869   1.219   2.802   1.372
 7324SOL     OW22870   5.357   5.089   2.963
 7324SOL    HW122871   5.447   5.073   3.004
 7324SOL    HW222872   5.292   5.113   3.035
 7325SOL     OW22873   4.263   0.945   5.987
 7325SOL    HW122874   4.360   0.965   5.997
 7325SOL    HW222875   4.212   0.990   6.061
 7326SOL     OW22876   3.556   0.342   0.434
 7326SOL    HW122877   3.533   0.351   0.337
 7326SOL    HW222878   3.655   0.355   0.447
 7327SOL     OW22879   0.608   4.277   3.171
 7327SOL    HW122880   0.525   4.242   3.128
 7327SOL    HW222881   0.649   4.348   3.113
 7328SOL     OW22882   4.472   4.999   4.971
 7328SOL    HW122883   4.544   5.024   5.036
 7328SOL    HW222884   4.512   4.953   4.892
 7329SOL     OW22885   3.189   3.705   1.499
 7329SOL    HW122886   3.168   3.665   1.409
 7329SOL    HW222887   3.104   3.719   1.550
 7330SOL     OW22888   2.771   3.354   1.866
 7330SOL    HW122889   2.683   3.343   1.912
 7330SOL    HW222890   2.756   3.384   1.772
 7331SOL     OW22891   5.368   2.008   2.394
 7331SOL    HW122892   5.370   2.083   2.460
 7331SOL    HW222893   5.329   2.041   2.308
 7332SOL     OW22894   3.365   5.732   5.825
 7332SOL    HW122895   3.339   5.636   5.816
 7332SOL    HW222896   3.332   5.767   5.913
 7333SOL     OW22897   0.676   1.163   0.575
 7333SOL    HW122898   0.608   1.121   0.636
 7333SOL    HW222899   0.703   1.097   0.505
 7334SOL     OW22900   2.797   0.356   4.168
 7334SOL    HW122901   2.803   0.379   4.265
 7334SOL    HW222902   2.799   0.256   4.158
 7335SOL     OW22903   6.374   3.154   2.069
 7335SOL    HW122904   6.453   3.203   2.031
 7335SOL    HW222905   6.379   3.155   2.169
 7336SOL     OW22906   1.963   0.148   1.637
 7336SOL    HW122907   2.046   0.202   1.625
 7336SOL    HW222908   1.958   0.115   1.731
 7337SOL     OW22909   2.300   1.641   3.275
 7337SOL    HW122910   2.356   1.673   3.199
 7337SOL    HW222911   2.356   1.588   3.339
 7338SOL     OW22912   5.741   3.157   1.467
 7338SOL    HW122913   5.719   3.233   1.406
 7338SOL    HW222914   5.656   3.116   1.501
 7339SOL     OW22915   6.539   5.456   4.330
 7339SOL    HW122916   6.606   5.527   4.354
 7339SOL    HW222917   6.576   5.400   4.255
 7340SOL     OW22918   2.636   6.430   0.976
 7340SOL    HW122919   2.603   6.376   0.898
 7340SOL    HW222920   2.645   6.526   0.949
 7341SOL     OW22921   6.228   5.303   4.151
 7341SOL    HW122922   6.245   5.401   4.160
 7341SOL    HW222923   6.151   5.277   4.210
 7342SOL     OW22924   1.084   5.320   1.189
 7342SOL    HW122925   1.171   5.344   1.145
 7342SOL    HW222926   1.051   5.233   1.152
 7343SOL     OW22927   5.269   3.592   2.450
 7343SOL    HW122928   5.304   3.516   2.504
 7343SOL    HW222929   5.311   3.592   2.359
 7344SOL     OW22930   2.072   0.791   6.959
 7344SOL    HW122931   1.986   0.752   6.925
 7344SOL    HW222932   2.121   0.721   7.011
 7345SOL     OW22933   3.990   5.466   6.869
 7345SOL    HW122934   3.895   5.439   6.883
 7345SOL    HW222935   4.049   5.417   6.932
 7346SOL     OW22936   3.944   4.743   1.850
 7346SOL    HW122937   4.042   4.731   1.832
 7346SOL    HW222938   3.932   4.786   1.940
 7347SOL     OW22939   6.132   2.026   3.534
 7347SOL    HW122940   6.207   2.011   3.599
 7347SOL    HW222941   6.069   1.949   3.537
 7348SOL     OW22942   0.838   2.234   3.735
 7348SOL    HW122943   0.777   2.237   3.815
 7348SOL    HW222944   0.888   2.147   3.734
 7349SOL     OW22945   3.845   1.373   0.745
 7349SOL    HW122946   3.862   1.289   0.797
 7349SOL    HW222947   3.929   1.427   0.742
 7350SOL     OW22948   2.200   0.677   2.801
 7350SOL    HW122949   2.220   0.635   2.889
 7350SOL    HW222950   2.127   0.745   2.812
 7351SOL     OW22951   3.668   4.736   6.807
 7351SOL    HW122952   3.753   4.714   6.854
 7351SOL    HW222953   3.629   4.819   6.845
 7352SOL     OW22954   6.466   1.099   2.770
 7352SOL    HW122955   6.529   1.161   2.722
 7352SOL    HW222956   6.510   1.010   2.781
 7353SOL     OW22957   5.041   2.854   4.796
 7353SOL    HW122958   5.054   2.953   4.803
 7353SOL    HW222959   5.120   2.813   4.752
 7354SOL     OW22960   5.903   4.612   5.753
 7354SOL    HW122961   5.946   4.602   5.663
 7354SOL    HW222962   5.806   4.635   5.742
 7355SOL     OW22963   1.957   4.812   2.136
 7355SOL    HW122964   1.888   4.761   2.086
 7355SOL    HW222965   1.917   4.897   2.171
 7356SOL     OW22966   6.054   1.568   5.757
 7356SOL    HW122967   6.072   1.470   5.761
 7356SOL    HW222968   6.099   1.613   5.834
 7357SOL     OW22969   6.698   1.579   0.124
 7357SOL    HW122970   6.715   1.499   0.067
 7357SOL    HW222971   6.776   1.640   0.120
 7358SOL     OW22972   2.923   0.738   3.995
 7358SOL    HW122973   2.949   0.651   3.954
 7358SOL    HW222974   2.942   0.736   4.093
 7359SOL     OW22975   3.598   2.870   3.442
 7359SOL    HW122976   3.659   2.950   3.437
 7359SOL    HW222977   3.574   2.853   3.538
 7360SOL     OW22978   6.849   3.011   5.354
 7360SOL    HW122979   6.822   3.078   5.423
 7360SOL    HW222980   6.947   2.993   5.361
 7361SOL     OW22981   4.995   6.524   2.382
 7361SOL    HW122982   4.988   6.616   2.344
 7361SOL    HW222983   5.071   6.475   2.339
 7362SOL     OW22984   1.743   6.131   5.972
 7362SOL    HW122985   1.713   6.113   6.066
 7362SOL    HW222986   1.843   6.134   5.970
 7363SOL     OW22987   5.081   2.931   6.437
 7363SOL    HW122988   5.140   2.851   6.447
 7363SOL    HW222989   5.121   2.995   6.371
 7364SOL     OW22990   4.742   6.876   2.000
 7364SOL    HW122991   4.783   6.794   2.040
 7364SOL    HW222992   4.786   6.897   1.913
 7365SOL     OW22993   3.167   0.843   2.412
 7365SOL    HW122994   3.071   0.851   2.385
 7365SOL    HW222995   3.197   0.748   2.400
 7366SOL     OW22996   0.652   5.334   0.161
 7366SOL    HW122997   0.565   5.325   0.210
 7366SOL    HW222998   0.676   5.246   0.120
 7367SOL     OW22999   4.876   3.443   0.010
 7367SOL    HW123000   4.896   3.366   6.976
 7367SOL    HW223001   4.944   3.448   0.083
 7368SOL     OW23002   3.260   4.037   3.742
 7368SOL    HW123003   3.189   3.972   3.770
 7368SOL    HW223004   3.272   4.032   3.643
 7369SOL     OW23005   4.148   3.064   6.991
 7369SOL    HW123006   4.181   3.155   6.963
 7369SOL    HW223007   4.084   3.074   0.042
 7370SOL     OW23008   2.208   5.762   1.343
 7370SOL    HW123009   2.135   5.721   1.288
 7370SOL    HW223010   2.208   5.861   1.330
 7371SOL     OW23011   2.795   5.431   4.950
 7371SOL    HW123012   2.699   5.416   4.925
 7371SOL    HW223013   2.821   5.365   5.022
 7372SOL     OW23014   3.199   6.551   5.847
 7372SOL    HW123015   3.273   6.492   5.814
 7372SOL    HW223016   3.114   6.524   5.803
 7373SOL     OW23017   3.866   0.800   1.493
 7373SOL    HW123018   3.825   0.805   1.584
 7373SOL    HW223019   3.798   0.824   1.424
 7374SOL     OW23020   1.158   2.878   5.880
 7374SOL    HW123021   1.142   2.959   5.822
 7374SOL    HW223022   1.255   2.872   5.902
 7375SOL     OW23023   1.585   0.333   3.627
 7375SOL    HW123024   1.508   0.291   3.675
 7375SOL    HW223025   1.572   0.325   3.528
 7376SOL     OW23026   2.259   4.062   5.642
 7376SOL    HW123027   2.331   4.006   5.684
 7376SOL    HW223028   2.275   4.069   5.543
 7377SOL     OW23029   4.435   4.635   0.563
 7377SOL    HW123030   4.519   4.672   0.604
 7377SOL    HW223031   4.406   4.695   0.489
 7378SOL     OW23032   6.608   1.225   5.325
 7378SOL    HW123033   6.592   1.322   5.346
 7378SOL    HW223034   6.574   1.169   5.400
 7379SOL     OW23035   3.113   1.354   1.972
 7379SOL    HW123036   3.147   1.441   1.939
 7379SOL    HW223037   3.180   1.314   2.035
 7380SOL     OW23038   0.029   3.477   6.076
 7380SOL    HW123039   0.073   3.517   6.156
 7380SOL    HW223040   0.057   3.528   5.994
 7381SOL     OW23041   5.391   2.221   1.051
 7381SOL    HW123042   5.355   2.267   1.132
 7381SOL    HW223043   5.439   2.288   0.994
 7382SOL     OW23044   0.201   5.949   3.857
 7382SOL    HW123045   0.278   5.888   3.841
 7382SOL    HW223046   0.125   5.922   3.797
 7383SOL     OW23047   0.071   5.468   3.415
 7383SOL    HW123048   0.036   5.561   3.428
 7383SOL    HW223049   0.045   5.411   3.493
 7384SOL     OW23050   5.551   0.246   2.123
 7384SOL    HW123051   5.644   0.231   2.155
 7384SOL    HW223052   5.513   0.328   2.167
 7385SOL     OW23053   4.612   6.493   1.489
 7385SOL    HW123054   4.684   6.544   1.535
 7385SOL    HW223055   4.632   6.486   1.391
 7386SOL     OW23056   0.611   2.445   5.577
 7386SOL    HW123057   0.623   2.448   5.477
 7386SOL    HW223058   0.530   2.390   5.598
 7387SOL     OW23059   4.086   5.901   3.337
 7387SOL    HW123060   3.993   5.923   3.368
 7387SOL    HW223061   4.152   5.955   3.388
 7388SOL     OW23062   6.680   4.959   3.826
 7388SOL    HW123063   6.581   4.964   3.816
 7388SOL    HW223064   6.723   5.015   3.755
 7389SOL     OW23065   1.080   3.792   6.428
 7389SOL    HW123066   1.138   3.851   6.484
 7389SOL    HW223067   0.990   3.784   6.469
 7390SOL     OW23068   2.220   6.454   5.131
 7390SOL    HW123069   2.191   6.544   5.096
 7390SOL    HW223070   2.223   6.457   5.231
 7391SOL     OW23071   6.095   3.099   6.542
 7391SOL    HW123072   6.044   3.074   6.460
 7391SOL    HW223073   6.151   3.021   6.571
 7392SOL     OW23074   2.145   4.584   4.294
 7392SOL    HW123075   2.140   4.535   4.381
 7392SOL    HW223076   2.234   4.628   4.285
 7393SOL     OW23077   0.550   3.862   1.841
 7393SOL    HW123078   0.646   3.834   1.836
 7393SOL    HW223079   0.517   3.849   1.934
 7394SOL     OW23080   3.285   4.176   6.448
 7394SOL    HW123081   3.271   4.149   6.353
 7394SOL    HW223082   3.207   4.147   6.503
 7395SOL     OW23083   1.428   6.902   0.651
 7395SOL    HW123084   1.348   6.842   0.647
 7395SOL    HW223085   1.497   6.862   0.711
 7396SOL     OW23086   0.728   0.080   6.612
 7396SOL    HW123087   0.786   7.025   6.599
 7396SOL    HW223088   0.762   0.133   6.690
 7397SOL     OW23089   6.131   5.140   4.500
 7397SOL    HW123090   6.230   5.151   4.509
 7397SOL    HW223091   6.104   5.162   4.406
 7398SOL     OW23092   4.070   4.805   3.262
 7398SOL    HW123093   4.104   4.895   3.233
 7398SOL    HW223094   4.134   4.766   3.328
 7399SOL     OW23095   5.039   3.815   5.499
 7399SOL    HW123096   5.117   3.831   5.439
 7399SOL    HW223097   5.056   3.860   5.587
 7400SOL     OW23098   2.321   5.139   6.664
 7400SOL    HW123099   2.304   5.166   6.759
 7400SOL    HW223100   2.419   5.144   6.646
 7401SOL     OW23101   6.599   1.767   4.080
 7401SOL    HW123102   6.573   1.707   4.004
 7401SOL    HW223103   6.691   1.804   4.062
 7402SOL     OW23104   2.787   0.318   3.657
 7402SOL    HW123105   2.869   0.265   3.682
 7402SOL    HW223106   2.755   0.289   3.567
 7403SOL     OW23107   1.623   3.407   2.570
 7403SOL    HW123108   1.634   3.308   2.574
 7403SOL    HW223109   1.581   3.433   2.483
 7404SOL     OW23110   1.540   0.863   1.923
 7404SOL    HW123111   1.590   0.797   1.979
 7404SOL    HW223112   1.455   0.888   1.968
 7405SOL     OW23113   2.163   5.071   6.045
 7405SOL    HW123114   2.098   5.014   5.995
 7405SOL    HW223115   2.144   5.065   6.143
 7406SOL     OW23116   0.389   4.993   1.616
 7406SOL    HW123117   0.397   5.088   1.583
 7406SOL    HW223118   0.293   4.965   1.611
 7407SOL     OW23119   1.976   6.913   6.329
 7407SOL    HW123120   1.917   6.925   6.409
 7407SOL    HW223121   2.044   6.986   6.326
 7408SOL     OW23122   1.053   4.007   5.171
 7408SOL    HW123123   1.125   3.939   5.181
 7408SOL    HW223124   0.964   3.962   5.172
 7409SOL     OW23125   2.930   5.215   5.506
 7409SOL    HW123126   3.007   5.271   5.476
 7409SOL    HW223127   2.874   5.267   5.571
 7410SOL     OW23128   6.704   4.842   0.806
 7410SOL    HW123129   6.728   4.911   0.738
 7410SOL    HW223130   6.682   4.887   0.893
 7411SOL     OW23131   4.127   6.686   4.937
 7411SOL    HW123132   4.187   6.672   5.016
 7411SOL    HW223133   4.041   6.637   4.952
 7412SOL     OW23134   1.086   1.723   0.304
 7412SOL    HW123135   1.041   1.754   0.221
 7412SOL    HW223136   1.172   1.772   0.317
 7413SOL     OW23137   6.939   3.291   4.620
 7413SOL    HW123138   6.863   3.237   4.584
 7413SOL    HW223139   6.903   3.362   4.681
 7414SOL     OW23140   6.826   6.215   2.830
 7414SOL    HW123141   6.738   6.232   2.784
 7414SOL    HW223142   6.823   6.255   2.922
 7415SOL     OW23143   2.117   2.131   3.417
 7415SOL    HW123144   2.204   2.085   3.433
 7415SOL    HW223145   2.128   2.230   3.427
 7416SOL     OW23146   4.437   6.727   4.336
 7416SOL    HW123147   4.385   6.713   4.420
 7416SOL    HW223148   4.465   6.638   4.299
 7417SOL     OW23149   0.741   6.142   0.431
 7417SOL    HW123150   0.819   6.169   0.374
 7417SOL    HW223151   0.713   6.219   0.487
 7418SOL     OW23152   2.023   3.602   0.823
 7418SOL    HW123153   2.075   3.658   0.759
 7418SOL    HW223154   1.929   3.635   0.827
 7419SOL     OW23155   6.348   0.827   5.288
 7419SOL    HW123156   6.334   0.896   5.359
 7419SOL    HW223157   6.278   0.837   5.218
 7420SOL     OW23158   0.233   6.060   2.226
 7420SOL    HW123159   0.190   6.137   2.179
 7420SOL    HW223160   0.302   6.094   2.290
 7421SOL     OW23161   3.751   3.621   0.805
 7421SOL    HW123162   3.722   3.695   0.865
 7421SOL    HW223163   3.756   3.536   0.858
 7422SOL     OW23164   0.682   3.333   0.461
 7422SOL    HW123165   0.745   3.283   0.400
 7422SOL    HW223166   0.633   3.402   0.408
 7423SOL     OW23167   1.960   6.012   6.621
 7423SOL    HW123168   2.043   6.054   6.584
 7423SOL    HW223169   1.975   5.985   6.716
 7424SOL     OW23170   5.847   1.720   4.343
 7424SOL    HW123171   5.860   1.724   4.244
 7424SOL    HW223172   5.775   1.785   4.369
 7425SOL     OW23173   3.389   5.870   6.100
 7425SOL    HW123174   3.461   5.807   6.127
 7425SOL    HW223175   3.413   5.963   6.127
 7426SOL     OW23176   0.961   1.251   6.446
 7426SOL    HW123177   0.861   1.249   6.452
 7426SOL    HW223178   1.000   1.262   6.537
 7427SOL     OW23179   4.164   5.465   4.235
 7427SOL    HW123180   4.219   5.468   4.152
 7427SOL    HW223181   4.155   5.371   4.266
 7428SOL     OW23182   3.691   2.190   5.569
 7428SOL    HW123183   3.626   2.119   5.543
 7428SOL    HW223184   3.735   2.228   5.488
 7429SOL     OW23185   6.670   6.826   3.392
 7429SOL    HW123186   6.647   6.752   3.456
 7429SOL    HW223187   6.657   6.795   3.298
 7430SOL     OW23188   6.477   3.983   5.036
 7430SOL    HW123189   6.391   3.933   5.035
 7430SOL    HW223190   6.542   3.937   4.975
 7431SOL     OW23191   1.245   4.143   2.327
 7431SOL    HW123192   1.236   4.236   2.293
 7431SOL    HW223193   1.255   4.143   2.426
 7432SOL     OW23194   0.360   6.958   5.491
 7432SOL    HW123195   0.396   0.012   5.540
 7432SOL    HW223196   0.383   6.966   5.394
 7433SOL     OW23197   6.224   5.621   1.003
 7433SOL    HW123198   6.172   5.536   0.994
 7433SOL    HW223199   6.322   5.600   1.004
 7434SOL     OW23200   4.262   0.836   6.302
 7434SOL    HW123201   4.278   0.929   6.268
 7434SOL    HW223202   4.345   0.782   6.293
 7435SOL     OW23203   2.495   6.082   0.151
 7435SOL    HW123204   2.595   6.078   0.151
 7435SOL    HW223205   2.464   6.149   0.083
 7436SOL     OW23206   5.157   2.654   0.306
 7436SOL    HW123207   5.234   2.606   0.349
 7436SOL    HW223208   5.072   2.621   0.346
 7437SOL     OW23209   0.655   5.734   5.865
 7437SOL    HW123210   0.556   5.746   5.871
 7437SOL    HW223211   0.699   5.782   5.941
 7438SOL     OW23212   6.835   4.698   1.831
 7438SOL    HW123213   6.873   4.703   1.923
 7438SOL    HW223214   6.741   4.663   1.835
 7439SOL     OW23215   1.295   6.919   3.499
 7439SOL    HW123216   1.310   6.834   3.449
 7439SOL    HW223217   1.364   6.928   3.571
 7440SOL     OW23218   1.933   2.031   3.947
 7440SOL    HW123219   2.016   2.010   3.894
 7440SOL    HW223220   1.854   1.987   3.903
 7441SOL     OW23221   5.687   0.328   3.589
 7441SOL    HW123222   5.737   0.412   3.609
 7441SOL    HW223223   5.653   0.288   3.674
 7442SOL     OW23224   1.694   1.139   0.072
 7442SOL    HW123225   1.720   1.110   7.005
 7442SOL    HW223226   1.673   1.058   0.127
 7443SOL     OW23227   0.137   1.091   0.089
 7443SOL    HW123228   0.231   1.058   0.099
 7443SOL    HW223229   0.073   1.021   0.122
 7444SOL     OW23230   6.975   3.140   5.850
 7444SOL    HW123231   6.968   3.068   5.781
 7444SOL    HW223232   0.045   3.148   5.881
 7445SOL     OW23233   5.485   2.147   1.795
 7445SOL    HW123234   5.505   2.170   1.699
 7445SOL    HW223235   5.512   2.052   1.813
 7446SOL     OW23236   0.066   3.600   0.875
 7446SOL    HW123237   0.028   3.512   0.846
 7446SOL    HW223238   0.157   3.612   0.838
 7447SOL     OW23239   0.590   3.867   5.963
 7447SOL    HW123240   0.585   3.777   6.008
 7447SOL    HW223241   0.629   3.856   5.871
 7448SOL     OW23242   6.643   6.422   6.464
 7448SOL    HW123243   6.592   6.460   6.542
 7448SOL    HW223244   6.601   6.336   6.435
 7449SOL     OW23245   5.909   1.806   2.300
 7449SOL    HW123246   5.827   1.832   2.351
 7449SOL    HW223247   5.928   1.875   2.231
 7450SOL     OW23248   4.490   1.277   3.160
 7450SOL    HW123249   4.540   1.356   3.123
 7450SOL    HW223250   4.554   1.201   3.172
 7451SOL     OW23251   2.071   0.222   3.911
 7451SOL    HW123252   1.992   0.283   3.922
 7451SOL    HW223253   2.135   0.237   3.986
 7452SOL     OW23254   2.127   6.093   4.971
 7452SOL    HW123255   2.046   6.092   5.030
 7452SOL    HW223256   2.115   6.026   4.897
 7453SOL     OW23257   5.999   6.130   5.197
 7453SOL    HW123258   6.054   6.086   5.269
 7453SOL    HW223259   5.929   6.066   5.166
 7454SOL     OW23260   0.671   3.672   1.142
 7454SOL    HW123261   0.587   3.676   1.089
 7454SOL    HW223262   0.665   3.599   1.210
 7455SOL     OW23263   5.042   2.663   0.043
 7455SOL    HW123264   5.092   2.665   0.129
 7455SOL    HW223265   4.967   2.728   0.046
 7456SOL     OW23266   1.739   3.315   4.768
 7456SOL    HW123267   1.691   3.402   4.774
 7456SOL    HW223268   1.771   3.300   4.675
 7457SOL     OW23269   6.024   0.555   5.787
 7457SOL    HW123270   6.082   0.561   5.869
 7457SOL    HW223271   6.074   0.508   5.715
 7458SOL     OW23272   2.593   1.314   0.718
 7458SOL    HW123273   2.555   1.243   0.777
 7458SOL    HW223274   2.646   1.271   0.644
 7459SOL     OW23275   4.414   0.624   4.776
 7459SOL    HW123276   4.460   0.623   4.687
 7459SOL    HW223277   4.368   0.712   4.789
 7460SOL     OW23278   0.725   4.350   6.962
 7460SOL    HW123279   0.821   4.375   6.976
 7460SOL    HW223280   0.681   4.418   6.903
 7461SOL     OW23281   5.143   1.088   4.309
 7461SOL    HW123282   5.220   1.148   4.287
 7461SOL    HW223283   5.177   1.000   4.341
 7462SOL     OW23284   2.132   1.607   2.455
 7462SOL    HW123285   2.181   1.520   2.458
 7462SOL    HW223286   2.194   1.682   2.475
 7463SOL     OW23287   3.859   3.796   2.761
 7463SOL    HW123288   3.937   3.791   2.824
 7463SOL    HW223289   3.891   3.816   2.669
 7464SOL     OW23290   5.489   6.222   0.759
 7464SOL    HW123291   5.569   6.281   0.755
 7464SOL    HW223292   5.517   6.126   0.751
 7465SOL     OW23293   2.807   0.303   1.664
 7465SOL    HW123294   2.720   0.304   1.712
 7465SOL    HW223295   2.879   0.268   1.725
 7466SOL     OW23296   0.810   0.745   6.938
 7466SOL    HW123297   0.880   0.741   7.009
 7466SOL    HW223298   0.804   0.838   6.901
 7467SOL     OW23299   6.849   1.403   0.772
 7467SOL    HW123300   6.813   1.335   0.837
 7467SOL    HW223301   6.814   1.493   0.796
 7468SOL     OW23302   6.074   2.368   2.859
 7468SOL    HW123303   6.167   2.397   2.835
 7468SOL    HW223304   6.013   2.389   2.783
 7469SOL     OW23305   1.307   1.060   1.313
 7469SOL    HW123306   1.219   1.017   1.331
 7469SOL    HW223307   1.293   1.156   1.288
 7470SOL     OW23308   6.670   2.085   2.367
 7470SOL    HW123309   6.724   2.053   2.289
 7470SOL    HW223310   6.712   2.055   2.452
 7471SOL     OW23311   6.000   6.103   5.838
 7471SOL    HW123312   5.915   6.053   5.825
 7471SOL    HW223313   6.002   6.143   5.930
 7472SOL     OW23314   3.750   0.088   3.306
 7472SOL    HW123315   3.838   0.057   3.342
 7472SOL    HW223316   3.729   0.178   3.343
 7473SOL     OW23317   0.139   3.347   3.995
 7473SOL    HW123318   0.227   3.391   3.976
 7473SOL    HW223319   0.071   3.418   4.017
 7474SOL     OW23320   4.087   0.987   3.158
 7474SOL    HW123321   4.030   0.994   3.075
 7474SOL    HW223322   4.162   1.053   3.151
 7475SOL     OW23323   3.630   1.164   1.163
 7475SOL    HW123324   3.723   1.138   1.191
 7475SOL    HW223325   3.630   1.259   1.132
 7476SOL     OW23326   4.043   6.557   4.685
 7476SOL    HW123327   3.950   6.569   4.722
 7476SOL    HW223328   4.102   6.517   4.755
 7477SOL     OW23329   4.198   1.967   4.092
 7477SOL    HW123330   4.191   2.020   4.177
 7477SOL    HW223331   4.121   1.905   4.085
 7478SOL     OW23332   0.986   4.758   0.770
 7478SOL    HW123333   0.903   4.801   0.806
 7478SOL    HW223334   0.967   4.717   0.681
 7479SOL     OW23335   4.760   0.633   6.952
 7479SOL    HW123336   4.760   0.722   6.998
 7479SOL    HW223337   4.819   0.570   7.003
 7480SOL     OW23338   6.519   5.279   1.397
 7480SOL    HW123339   6.589   5.233   1.342
 7480SOL    HW223340   6.430   5.236   1.380
 7481SOL     OW23341   5.704   5.176   0.599
 7481SOL    HW123342   5.760   5.246   0.555
 7481SOL    HW223343   5.607   5.196   0.582
 7482SOL     OW23344   4.824   0.510   2.950
 7482SOL    HW123345   4.762   0.574   2.904
 7482SOL    HW223346   4.832   0.535   3.046
 7483SOL     OW23347   3.259   0.543   5.261
 7483SOL    HW123348   3.225   0.602   5.334
 7483SOL    HW223349   3.247   0.447   5.287
 7484SOL     OW23350   1.933   7.010   2.426
 7484SOL    HW123351   1.898   6.966   2.509
 7484SOL    HW223352   1.898   0.078   2.421
 7485SOL     OW23353   2.170   6.050   6.436
 7485SOL    HW123354   2.204   6.143   6.450
 7485SOL    HW223355   2.242   5.984   6.454
 7486SOL     OW23356   2.559   6.794   5.719
 7486SOL    HW123357   2.496   6.850   5.666
 7486SOL    HW223358   2.638   6.849   5.746
 7487SOL     OW23359   3.599   6.306   4.133
 7487SOL    HW123360   3.596   6.233   4.065
 7487SOL    HW223361   3.583   6.269   4.224
 7488SOL     OW23362   3.654   0.578   6.232
 7488SOL    HW123363   3.685   0.673   6.234
 7488SOL    HW223364   3.725   0.520   6.191
 7489SOL     OW23365   5.400   3.533   3.741
 7489SOL    HW123366   5.407   3.441   3.702
 7489SOL    HW223367   5.303   3.558   3.749
 7490SOL     OW23368   5.457   1.212   1.090
 7490SOL    HW123369   5.545   1.170   1.069
 7490SOL    HW223370   5.471   1.298   1.139
 7491SOL     OW23371   6.681   5.644   6.854
 7491SOL    HW123372   6.622   5.717   6.822
 7491SOL    HW223373   6.737   5.678   6.930
 7492SOL     OW23374   1.690   2.807   4.709
 7492SOL    HW123375   1.682   2.720   4.661
 7492SOL    HW223376   1.784   2.841   4.700
 7493SOL     OW23377   4.876   3.661   6.434
 7493SOL    HW123378   4.891   3.564   6.451
 7493SOL    HW223379   4.793   3.674   6.380
 7494SOL     OW23380   5.111   0.361   1.901
 7494SOL    HW123381   5.097   0.264   1.919
 7494SOL    HW223382   5.038   0.395   1.842
 7495SOL     OW23383   1.310   1.994   1.340
 7495SOL    HW123384   1.348   2.073   1.390
 7495SOL    HW223385   1.212   2.007   1.328
 7496SOL     OW23386   0.567   5.118   6.288
 7496SOL    HW123387   0.609   5.097   6.199
 7496SOL    HW223388   0.574   5.038   6.348
 7497SOL     OW23389   1.616   4.144   2.042
 7497SOL    HW123390   1.697   4.088   2.024
 7497SOL    HW223391   1.568   4.109   2.123
 7498SOL     OW23392   4.011   1.731   4.411
 7498SOL    HW123393   3.951   1.712   4.489
 7498SOL    HW223394   4.103   1.697   4.432
 7499SOL     OW23395   5.119   6.795   4.417
 7499SOL    HW123396   5.211   6.759   4.431
 7499SOL    HW223397   5.118   6.893   4.438
 7500SOL     OW23398   5.271   5.337   1.328
 7500SOL    HW123399   5.245   5.415   1.271
 7500SOL    HW223400   5.347   5.288   1.286
 7501SOL     OW23401   0.339   4.431   3.967
 7501SOL    HW123402   0.426   4.456   4.009
 7501SOL    HW223403   0.341   4.452   3.869
 7502SOL     OW23404   2.587   1.398   5.091
 7502SOL    HW123405   2.626   1.320   5.042
 7502SOL    HW223406   2.650   1.428   5.162
 7503SOL     OW23407   2.932   2.122   6.905
 7503SOL    HW123408   3.004   2.190   6.915
 7503SOL    HW223409   2.843   2.167   6.898
 7504SOL     OW23410   3.962   6.346   3.176
 7504SOL    HW123411   3.908   6.411   3.123
 7504SOL    HW223412   3.967   6.259   3.127
 7505SOL     OW23413   1.806   1.503   5.377
 7505SOL    HW123414   1.869   1.556   5.322
 7505SOL    HW223415   1.715   1.504   5.334
 7506SOL     OW23416   3.800   1.584   2.588
 7506SOL    HW123417   3.743   1.514   2.628
 7506SOL    HW223418   3.872   1.541   2.533
 7507SOL     OW23419   0.823   6.208   5.862
 7507SOL    HW123420   0.846   6.161   5.947
 7507SOL    HW223421   0.797   6.140   5.793
 7508SOL     OW23422   5.513   0.348   2.643
 7508SOL    HW123423   5.483   0.263   2.601
 7508SOL    HW223424   5.612   0.358   2.633
 7509SOL     OW23425   4.524   4.010   6.068
 7509SOL    HW123426   4.553   3.988   6.161
 7509SOL    HW223427   4.480   3.931   6.027
 7510SOL     OW23428   4.003   4.010   5.084
 7510SOL    HW123429   3.943   4.053   5.017
 7510SOL    HW223430   3.972   4.034   5.176
 7511SOL     OW23431   0.939   0.864   1.705
 7511SOL    HW123432   1.009   0.819   1.649
 7511SOL    HW223433   0.961   0.961   1.713
 7512SOL     OW23434   2.320   2.705   2.206
 7512SOL    HW123435   2.234   2.715   2.154
 7512SOL    HW223436   2.325   2.776   2.275
 7513SOL     OW23437   1.544   2.253   7.012
 7513SOL    HW123438   1.592   2.168   0.008
 7513SOL    HW223439   1.597   2.306   6.946
 7514SOL     OW23440   2.613   5.405   3.060
 7514SOL    HW123441   2.556   5.346   3.118
 7514SOL    HW223442   2.615   5.497   3.099
 7515SOL     OW23443   6.976   6.125   2.489
 7515SOL    HW123444   6.901   6.184   2.459
 7515SOL    HW223445   6.969   6.109   2.588
 7516SOL     OW23446   0.295   0.892   3.420
 7516SOL    HW123447   0.221   0.889   3.353
 7516SOL    HW223448   0.262   0.859   3.508
 7517SOL     OW23449   0.163   3.514   1.441
 7517SOL    HW123450   0.157   3.582   1.513
 7517SOL    HW223451   0.259   3.488   1.427
 7518SOL     OW23452   4.683   5.532   4.046
 7518SOL    HW123453   4.732   5.550   3.961
 7518SOL    HW223454   4.653   5.619   4.086
 7519SOL     OW23455   1.942   6.031   3.804
 7519SOL    HW123456   2.015   5.966   3.824
 7519SOL    HW223457   1.907   6.014   3.712
 7520SOL     OW23458   1.333   6.607   3.776
 7520SOL    HW123459   1.385   6.526   3.748
 7520SOL    HW223460   1.393   6.670   3.825
 7521SOL     OW23461   4.389   4.272   5.624
 7521SOL    HW123462   4.473   4.308   5.665
 7521SOL    HW223463   4.391   4.286   5.525
 7522SOL     OW23464   2.051   0.941   1.274
 7522SOL    HW123465   2.134   0.904   1.232
 7522SOL    HW223466   2.076   1.002   1.349
 7523SOL     OW23467   5.622   0.280   6.615
 7523SOL    HW123468   5.711   0.261   6.657
 7523SOL    HW223469   5.555   0.215   6.649
 7524SOL     OW23470   0.710   1.775   5.281
 7524SOL    HW123471   0.800   1.739   5.256
 7524SOL    HW223472   0.706   1.787   5.380
 7525SOL     OW23473   0.856   0.781   0.322
 7525SOL    HW123474   0.807   0.693   0.315
 7525SOL    HW223475   0.929   0.773   0.390
 7526SOL     OW23476   3.551   2.867   4.690
 7526SOL    HW123477   3.491   2.811   4.747
 7526SOL    HW223478   3.623   2.907   4.747
 7527SOL     OW23479   5.607   4.662   3.506
 7527SOL    HW123480   5.634   4.574   3.467
 7527SOL    HW223481   5.617   4.658   3.606
 7528SOL     OW23482   5.950   2.776   6.905
 7528SOL    HW123483   5.867   2.723   6.925
 7528SOL    HW223484   6.030   2.725   6.938
 7529SOL     OW23485   3.400   1.525   5.826
 7529SOL    HW123486   3.471   1.454   5.824
 7529SOL    HW223487   3.387   1.561   5.733
 7530SOL     OW23488   0.937   3.961   1.989
 7530SOL    HW123489   0.883   3.883   1.960
 7530SOL    HW223490   1.006   3.932   2.054
 7531SOL     OW23491   4.211   1.919   3.556
 7531SOL    HW123492   4.177   1.859   3.629
 7531SOL    HW223493   4.136   1.942   3.494
 7532SOL     OW23494   5.422   5.543   2.463
 7532SOL    HW123495   5.511   5.543   2.418
 7532SOL    HW223496   5.431   5.578   2.556
 7533SOL     OW23497   3.663   1.216   4.403
 7533SOL    HW123498   3.710   1.181   4.322
 7533SOL    HW223499   3.625   1.307   4.384
 7534SOL     OW23500   4.853   6.537   4.681
 7534SOL    HW123501   4.906   6.465   4.637
 7534SOL    HW223502   4.767   6.551   4.631
 7535SOL     OW23503   3.113   2.582   5.617
 7535SOL    HW123504   3.079   2.677   5.616
 7535SOL    HW223505   3.077   2.535   5.697
 7536SOL     OW23506   4.657   5.919   4.564
 7536SOL    HW123507   4.604   5.910   4.649
 7536SOL    HW223508   4.705   5.833   4.546
 7537SOL     OW23509   1.814   4.793   6.019
 7537SOL    HW123510   1.797   4.856   6.094
 7537SOL    HW223511   1.856   4.843   5.943
 7538SOL     OW23512   3.067   3.556   2.581
 7538SOL    HW123513   3.157   3.543   2.540
 7538SOL    HW223514   2.996   3.522   2.520
 7539SOL     OW23515   2.226   2.854   5.041
 7539SOL    HW123516   2.132   2.858   5.074
 7539SOL    HW223517   2.273   2.940   5.063
 7540SOL     OW23518   2.748   1.332   0.071
 7540SOL    HW123519   2.774   1.354   0.165
 7540SOL    HW223520   2.750   1.232   0.059
 7541SOL     OW23521   6.216   2.495   5.627
 7541SOL    HW123522   6.312   2.523   5.636
 7541SOL    HW223523   6.158   2.576   5.632
 7542SOL     OW23524   1.229   6.624   5.784
 7542SOL    HW123525   1.192   6.531   5.792
 7542SOL    HW223526   1.171   6.678   5.723
 7543SOL     OW23527   4.095   3.167   0.304
 7543SOL    HW123528   4.057   3.080   0.273
 7543SOL    HW223529   4.165   3.150   0.373
 7544SOL     OW23530   2.232   1.907   2.961
 7544SOL    HW123531   2.209   1.983   2.900
 7544SOL    HW223532   2.156   1.892   3.024
 7545SOL     OW23533   5.464   6.860   3.273
 7545SOL    HW123534   5.447   6.957   3.260
 7545SOL    HW223535   5.539   6.847   3.338
 7546SOL     OW23536   4.731   0.854   0.121
 7546SOL    HW123537   4.800   0.834   0.190
 7546SOL    HW223538   4.760   0.931   0.065
 7547SOL     OW23539   3.140   0.264   0.526
 7547SOL    HW123540   3.140   0.253   0.426
 7547SOL    HW223541   3.048   0.250   0.561
 7548SOL     OW23542   1.719   2.303   1.992
 7548SOL    HW123543   1.750   2.258   2.076
 7548SOL    HW223544   1.662   2.239   1.940
 7549SOL     OW23545   5.646   2.007   3.000
 7549SOL    HW123546   5.554   2.048   2.996
 7549SOL    HW223547   5.701   2.057   3.067
 7550SOL     OW23548   1.859   5.523   2.822
 7550SOL    HW123549   1.910   5.446   2.859
 7550SOL    HW223550   1.892   5.546   2.731
 7551SOL     OW23551   5.261   3.359   6.348
 7551SOL    HW123552   5.295   3.380   6.440
 7551SOL    HW223553   5.291   3.268   6.321
 7552SOL     OW23554   2.914   4.795   4.316
 7552SOL    HW123555   2.933   4.749   4.229
 7552SOL    HW223556   2.995   4.846   4.345
 7553SOL     OW23557   3.785   5.583   6.060
 7553SOL    HW123558   3.869   5.541   6.093
 7553SOL    HW223559   3.775   5.565   5.962
 7554SOL     OW23560   6.305   0.622   0.296
 7554SOL    HW123561   6.235   0.685   0.331
 7554SOL    HW223562   6.327   0.646   0.202
 7555SOL     OW23563   0.339   6.137   5.477
 7555SOL    HW123564   0.283   6.169   5.401
 7555SOL    HW223565   0.283   6.136   5.560
 7556SOL     OW23566   0.552   2.635   4.596
 7556SOL    HW123567   0.573   2.666   4.503
 7556SOL    HW223568   0.452   2.632   4.608
 7557SOL     OW23569   4.654   4.173   0.339
 7557SOL    HW123570   4.662   4.272   0.349
 7557SOL    HW223571   4.580   4.140   0.398
 7558SOL     OW23572   1.632   3.306   3.211
 7558SOL    HW123573   1.554   3.246   3.228
 7558SOL    HW223574   1.692   3.265   3.143
 7559SOL     OW23575   0.248   4.289   0.789
 7559SOL    HW123576   0.257   4.351   0.867
 7559SOL    HW223577   0.294   4.202   0.811
 7560SOL     OW23578   5.233   6.838   0.548
 7560SOL    HW123579   5.292   6.767   0.587
 7560SOL    HW223580   5.199   6.896   0.622
 7561SOL     OW23581   0.032   2.885   0.256
 7561SOL    HW123582   7.012   2.969   0.228
 7561SOL    HW223583   6.994   2.829   0.310
 7562SOL     OW23584   5.530   6.323   5.001
 7562SOL    HW123585   5.441   6.367   4.990
 7562SOL    HW223586   5.600   6.379   4.957
 7563SOL     OW23587   2.605   0.848   2.362
 7563SOL    HW123588   2.573   0.815   2.451
 7563SOL    HW223589   2.562   0.936   2.342
 7564SOL     OW23590   5.217   6.844   3.122
 7564SOL    HW123591   5.300   6.832   3.177
 7564SOL    HW223592   5.189   6.940   3.124
 7565SOL     OW23593   4.800   4.602   0.367
 7565SOL    HW123594   4.744   4.675   0.329
 7565SOL    HW223595   4.745   4.546   0.429
 7566SOL     OW23596   1.387   5.870   4.205
 7566SOL    HW123597   1.330   5.936   4.156
 7566SOL    HW223598   1.330   5.817   4.268
 7567SOL     OW23599   2.965   4.307   0.159
 7567SOL    HW123600   2.909   4.288   0.078
 7567SOL    HW223601   3.060   4.319   0.131
 7568SOL     OW23602   4.401   5.410   3.569
 7568SOL    HW123603   4.409   5.379   3.474
 7568SOL    HW223604   4.422   5.334   3.630
 7569SOL     OW23605   3.603   6.658   0.504
 7569SOL    HW123606   3.524   6.680   0.447
 7569SOL    HW223607   3.612   6.559   0.511
 7570SOL     OW23608   6.256   5.513   3.647
 7570SOL    HW123609   6.170   5.491   3.693
 7570SOL    HW223610   6.333   5.485   3.704
 7571SOL     OW23611   5.310   4.329   2.102
 7571SOL    HW123612   5.318   4.273   2.184
 7571SOL    HW223613   5.367   4.290   2.029
 7572SOL     OW23614   3.151   1.305   4.850
 7572SOL    HW123615   3.234   1.258   4.822
 7572SOL    HW223616   3.134   1.288   4.947
 7573SOL     OW23617   1.615   6.194   4.220
 7573SOL    HW123618   1.686   6.234   4.278
 7573SOL    HW223619   1.658   6.149   4.142
 7574SOL     OW23620   5.295   6.462   2.826
 7574SOL    HW123621   5.218   6.479   2.764
 7574SOL    HW223622   5.285   6.371   2.866
 7575SOL     OW23623   3.881   1.674   5.415
 7575SOL    HW123624   3.829   1.643   5.494
 7575SOL    HW223625   3.938   1.599   5.381
 7576SOL     OW23626   6.534   3.012   0.611
 7576SOL    HW123627   6.577   3.001   0.521
 7576SOL    HW223628   6.540   3.107   0.639
 7577SOL     OW23629   6.009   0.576   5.011
 7577SOL    HW123630   6.021   0.481   4.984
 7577SOL    HW223631   5.950   0.622   4.945
 7578SOL     OW23632   2.292   5.089   4.592
 7578SOL    HW123633   2.378   5.043   4.609
 7578SOL    HW223634   2.218   5.043   4.641
 7579SOL     OW23635   3.839   2.026   2.504
 7579SOL    HW123636   3.743   2.051   2.488
 7579SOL    HW223637   3.889   2.030   2.418
 7580SOL     OW23638   1.994   4.279   2.597
 7580SOL    HW123639   2.010   4.289   2.498
 7580SOL    HW223640   2.053   4.207   2.633
 7581SOL     OW23641   5.493   0.653   0.751
 7581SOL    HW123642   5.491   0.730   0.687
 7581SOL    HW223643   5.553   0.675   0.828
 7582SOL     OW23644   2.875   0.974   1.043
 7582SOL    HW123645   2.809   0.945   0.974
 7582SOL    HW223646   2.923   0.894   1.079
 7583SOL     OW23647   5.611   3.753   2.515
 7583SOL    HW123648   5.554   3.829   2.544
 7583SOL    HW223649   5.588   3.729   2.420
 7584SOL     OW23650   2.877   0.015   0.992
 7584SOL    HW123651   2.870   7.021   1.089
 7584SOL    HW223652   2.959   0.070   0.975
 7585SOL     OW23653   1.716   5.268   6.392
 7585SOL    HW123654   1.625   5.302   6.416
 7585SOL    HW223655   1.739   5.297   6.299
 7586SOL     OW23656   3.421   0.945   2.989
 7586SOL    HW123657   3.402   1.012   2.918
 7586SOL    HW223658   3.518   0.946   3.012
 7587SOL     OW23659   0.551   1.695   6.195
 7587SOL    HW123660   0.607   1.629   6.245
 7587SOL    HW223661   0.601   1.727   6.114
 7588SOL     OW23662   6.991   4.478   2.409
 7588SOL    HW123663   7.022   4.404   2.349
 7588SOL    HW223664   6.901   4.454   2.448
 7589SOL     OW23665   6.168   5.389   0.534
 7589SOL    HW123666   6.117   5.339   0.464
 7589SOL    HW223667   6.245   5.334   0.564
 7590SOL     OW23668   2.002   1.313   6.201
 7590SOL    HW123669   2.062   1.242   6.238
 7590SOL    HW223670   1.909   1.298   6.236
 7591SOL     OW23671   6.757   4.713   0.077
 7591SOL    HW123672   6.844   4.723   0.029
 7591SOL    HW223673   6.727   4.803   0.110
 7592SOL     OW23674   5.352   5.309   6.828
 7592SOL    HW123675   5.435   5.254   6.821
 7592SOL    HW223676   5.291   5.286   6.752
 7593SOL     OW23677   5.557   2.174   6.942
 7593SOL    HW123678   5.503   2.156   7.024
 7593SOL    HW223679   5.650   2.202   6.968
 7594SOL     OW23680   1.318   5.949   3.737
 7594SOL    HW123681   1.379   5.871   3.722
 7594SOL    HW223682   1.223   5.916   3.739
 7595SOL     OW23683   6.674   3.241   6.576
 7595SOL    HW123684   6.578   3.267   6.590
 7595SOL    HW223685   6.709   3.198   6.659
 7596SOL     OW23686   5.035   4.878   1.445
 7596SOL    HW123687   4.953   4.913   1.399
 7596SOL    HW223688   5.066   4.945   1.512
 7597SOL     OW23689   3.888   5.377   1.825
 7597SOL    HW123690   3.958   5.386   1.755
 7597SOL    HW223691   3.894   5.454   1.888
 7598SOL     OW23692   7.011   1.284   3.437
 7598SOL    HW123693   0.057   1.287   3.367
 7598SOL    HW223694   0.005   1.211   3.503
 7599SOL     OW23695   6.400   1.782   3.012
 7599SOL    HW123696   6.418   1.872   3.052
 7599SOL    HW223697   6.385   1.791   2.914
 7600SOL     OW23698   2.239   1.307   1.746
 7600SOL    HW123699   2.234   1.371   1.669
 7600SOL    HW223700   2.180   1.228   1.727
 7601SOL     OW23701   1.835   6.272   4.365
 7601SOL    HW123702   1.897   6.206   4.321
 7601SOL    HW223703   1.880   6.361   4.371
 7602SOL     OW23704   0.644   3.891   4.308
 7602SOL    HW123705   0.561   3.908   4.360
 7602SOL    HW223706   0.723   3.929   4.357
 7603SOL     OW23707   1.539   6.532   1.543
 7603SOL    HW123708   1.499   6.554   1.454
 7603SOL    HW223709   1.543   6.433   1.554
 7604SOL     OW23710   4.323   6.097   5.360
 7604SOL    HW123711   4.325   6.116   5.262
 7604SOL    HW223712   4.416   6.106   5.397
 7605SOL     OW23713   6.629   4.165   0.147
 7605SOL    HW123714   6.626   4.164   0.247
 7605SOL    HW223715   6.621   4.260   0.114
 7606SOL     OW23716   5.988   2.304   2.483
 7606SOL    HW123717   5.918   2.356   2.531
 7606SOL    HW223718   6.024   2.232   2.543
 7607SOL     OW23719   4.931   0.316   6.873
 7607SOL    HW123720   4.951   0.383   6.946
 7607SOL    HW223721   4.997   0.242   6.877
 7608SOL     OW23722   3.030   3.750   4.059
 7608SOL    HW123723   3.061   3.830   4.111
 7608SOL    HW223724   3.096   3.676   4.070
 7609SOL     OW23725   0.850   3.261   3.921
 7609SOL    HW123726   0.797   3.336   3.962
 7609SOL    HW223727   0.797   3.176   3.926
 7610SOL     OW23728   5.586   0.185   0.627
 7610SOL    HW123729   5.523   0.262   0.620
 7610SOL    HW223730   5.648   0.199   0.704
 7611SOL     OW23731   1.252   1.875   7.021
 7611SOL    HW123732   1.164   1.919   0.014
 7611SOL    HW223733   1.260   1.857   6.922
 7612SOL     OW23734   3.796   1.912   3.279
 7612SOL    HW123735   3.755   1.829   3.243
 7612SOL    HW223736   3.735   1.952   3.348
 7613SOL     OW23737   4.829   1.052   1.749
 7613SOL    HW123738   4.798   0.964   1.714
 7613SOL    HW223739   4.869   1.105   1.674
 7614SOL     OW23740   4.051   2.486   1.006
 7614SOL    HW123741   4.097   2.479   0.918
 7614SOL    HW223742   3.955   2.459   0.996
 7615SOL     OW23743   3.762   4.986   6.435
 7615SOL    HW123744   3.669   4.969   6.402
 7615SOL    HW223745   3.818   4.904   6.420
 7616SOL     OW23746   6.410   3.707   3.159
 7616SOL    HW123747   6.425   3.801   3.189
 7616SOL    HW223748   6.356   3.659   3.227
 7617SOL     OW23749   3.263   4.876   3.231
 7617SOL    HW123750   3.339   4.845   3.289
 7617SOL    HW223751   3.185   4.902   3.289
 7618SOL     OW23752   2.308   2.364   6.566
 7618SOL    HW123753   2.246   2.440   6.586
 7618SOL    HW223754   2.257   2.289   6.525
 7619SOL     OW23755   6.073   3.739   5.468
 7619SOL    HW123756   6.065   3.642   5.492
 7619SOL    HW223757   6.044   3.795   5.545
 7620SOL     OW23758   3.489   6.808   1.387
 7620SOL    HW123759   3.554   6.744   1.427
 7620SOL    HW223760   3.456   6.871   1.457
 7621SOL     OW23761   2.206   0.441   1.343
 7621SOL    HW123762   2.182   0.369   1.278
 7621SOL    HW223763   2.278   0.498   1.305
 7622SOL     OW23764   4.210   3.029   0.753
 7622SOL    HW123765   4.204   2.931   0.733
 7622SOL    HW223766   4.160   3.049   0.838
 7623SOL     OW23767   4.572   0.276   5.802
 7623SOL    HW123768   4.541   0.195   5.753
 7623SOL    HW223769   4.648   0.253   5.862
 7624SOL     OW23770   0.762   0.958   3.281
 7624SOL    HW123771   0.681   0.915   3.321
 7624SOL    HW223772   0.768   0.936   3.184
 7625SOL     OW23773   5.295   0.826   1.183
 7625SOL    HW123774   5.221   0.792   1.242
 7625SOL    HW223775   5.296   0.926   1.184
 7626SOL     OW23776   1.752   6.598   4.645
 7626SOL    HW123777   1.666   6.548   4.645
 7626SOL    HW223778   1.817   6.552   4.584
 7627SOL     OW23779   6.568   2.558   0.991
 7627SOL    HW123780   6.510   2.614   0.933
 7627SOL    HW223781   6.544   2.572   1.087
 7628SOL     OW23782   3.283   1.596   0.777
 7628SOL    HW123783   3.316   1.539   0.702
 7628SOL    HW223784   3.257   1.686   0.742
 7629SOL     OW23785   6.786   5.401   3.072
 7629SOL    HW123786   6.727   5.400   2.991
 7629SOL    HW223787   6.847   5.480   3.068
 7630SOL     OW23788   6.385   0.594   2.675
 7630SOL    HW123789   6.311   0.537   2.638
 7630SOL    HW223790   6.404   0.565   2.769
 7631SOL     OW23791   0.252   2.293   3.533
 7631SOL    HW123792   0.161   2.318   3.564
 7631SOL    HW223793   0.318   2.309   3.607
 7632SOL     OW23794   4.986   2.464   0.450
 7632SOL    HW123795   4.998   2.516   0.535
 7632SOL    HW223796   4.902   2.494   0.404
 7633SOL     OW23797   5.580   3.907   6.648
 7633SOL    HW123798   5.586   3.931   6.551
 7633SOL    HW223799   5.542   3.984   6.699
 7634SOL     OW23800   2.145   0.917   1.890
 7634SOL    HW123801   2.141   1.000   1.946
 7634SOL    HW223802   2.211   0.853   1.929
 7635SOL     OW23803   2.631   5.091   5.369
 7635SOL    HW123804   2.635   5.180   5.414
 7635SOL    HW223805   2.712   5.078   5.312
 7636SOL     OW23806   0.586   0.461   4.179
 7636SOL    HW123807   0.679   0.428   4.191
 7636SOL    HW223808   0.541   0.407   4.107
 7637SOL     OW23809   1.256   6.067   4.046
 7637SOL    HW123810   1.287   6.060   3.952
 7637SOL    HW223811   1.163   6.103   4.049
 7638SOL     OW23812   5.316   5.261   1.593
 7638SOL    HW123813   5.285   5.332   1.656
 7638SOL    HW223814   5.308   5.295   1.499
 7639SOL     OW23815   0.856   1.543   5.811
 7639SOL    HW123816   0.896   1.518   5.723
 7639SOL    HW223817   0.796   1.622   5.800
 7640SOL     OW23818   2.548   1.851   0.467
 7640SOL    HW123819   2.606   1.903   0.403
 7640SOL    HW223820   2.585   1.759   0.478
 7641SOL     OW23821   5.759   4.101   2.504
 7641SOL    HW123822   5.817   4.157   2.563
 7641SOL    HW223823   5.664   4.105   2.537
 7642SOL     OW23824   2.405   1.654   2.242
 7642SOL    HW123825   2.429   1.750   2.258
 7642SOL    HW223826   2.457   1.620   2.163
 7643SOL     OW23827   4.961   2.885   3.180
 7643SOL    HW123828   5.046   2.904   3.230
 7643SOL    HW223829   4.943   2.959   3.116
 7644SOL     OW23830   6.919   3.501   2.744
 7644SOL    HW123831   6.849   3.490   2.816
 7644SOL    HW223832   6.881   3.471   2.657
 7645SOL     OW23833   4.069   4.532   0.223
 7645SOL    HW123834   3.987   4.569   0.267
 7645SOL    HW223835   4.136   4.605   0.211
 7646SOL     OW23836   2.164   1.850   2.017
 7646SOL    HW123837   2.251   1.878   1.976
 7646SOL    HW223838   2.123   1.928   2.065
 7647SOL     OW23839   2.699   4.095   1.537
 7647SOL    HW123840   2.623   4.133   1.590
 7647SOL    HW223841   2.689   3.996   1.531
 7648SOL     OW23842   4.328   1.376   3.855
 7648SOL    HW123843   4.288   1.360   3.945
 7648SOL    HW223844   4.349   1.473   3.845
 7649SOL     OW23845   2.874   0.663   2.032
 7649SOL    HW123846   2.866   0.712   2.119
 7649SOL    HW223847   2.946   0.705   1.976
 7650SOL     OW23848   6.145   3.867   1.771
 7650SOL    HW123849   6.054   3.826   1.772
 7650SOL    HW223850   6.159   3.914   1.683
 7651SOL     OW23851   3.253   1.313   6.860
 7651SOL    HW123852   3.204   1.317   6.948
 7651SOL    HW223853   3.199   1.259   6.796
 7652SOL     OW23854   0.333   3.774   2.617
 7652SOL    HW123855   0.402   3.784   2.689
 7652SOL    HW223856   0.288   3.686   2.626
 7653SOL     OW23857   2.388   2.279   1.597
 7653SOL    HW123858   2.479   2.316   1.582
 7653SOL    HW223859   2.353   2.240   1.512
 7654SOL     OW23860   5.117   3.660   3.493
 7654SOL    HW123861   5.100   3.754   3.465
 7654SOL    HW223862   5.194   3.623   3.442
 7655SOL     OW23863   3.612   6.482   4.908
 7655SOL    HW123864   3.580   6.568   4.948
 7655SOL    HW223865   3.534   6.428   4.877
 7656SOL     OW23866   6.933   6.056   5.652
 7656SOL    HW123867   0.005   6.032   5.657
 7656SOL    HW223868   6.924   6.149   5.617
 7657SOL     OW23869   3.341   1.527   3.930
 7657SOL    HW123870   3.369   1.621   3.950
 7657SOL    HW223871   3.314   1.519   3.834
 7658SOL     OW23872   4.005   1.053   6.119
 7658SOL    HW123873   4.027   1.150   6.133
 7658SOL    HW223874   3.989   1.037   6.021
 7659SOL     OW23875   5.921   6.797   0.720
 7659SOL    HW123876   5.898   6.878   0.666
 7659SOL    HW223877   5.949   6.723   0.659
 7660SOL     OW23878   5.689   5.614   3.118
 7660SOL    HW123879   5.751   5.543   3.086
 7660SOL    HW223880   5.597   5.575   3.131
 7661SOL     OW23881   6.466   2.844   3.520
 7661SOL    HW123882   6.470   2.943   3.534
 7661SOL    HW223883   6.405   2.802   3.588
 7662SOL     OW23884   1.094   4.827   2.004
 7662SOL    HW123885   1.169   4.892   1.993
 7662SOL    HW223886   1.010   4.866   1.967
 7663SOL     OW23887   0.043   4.527   6.230
 7663SOL    HW123888   0.018   4.562   6.140
 7663SOL    HW223889   0.139   4.549   6.250
 7664SOL     OW23890   2.456   5.291   3.563
 7664SOL    HW123891   2.415   5.350   3.494
 7664SOL    HW223892   2.386   5.231   3.602
 7665SOL     OW23893   2.650   0.057   4.509
 7665SOL    HW123894   2.647   0.037   4.607
 7665SOL    HW223895   2.571   0.111   4.483
 7666SOL     OW23896   1.422   0.856   1.079
 7666SOL    HW123897   1.411   0.782   1.146
 7666SOL    HW223898   1.430   0.943   1.127
 7667SOL     OW23899   4.598   7.019   6.988
 7667SOL    HW123900   4.659   0.048   6.930
 7667SOL    HW223901   4.571   0.047   0.043
 7668SOL     OW23902   3.862   4.388   1.141
 7668SOL    HW123903   3.769   4.382   1.177
 7668SOL    HW223904   3.907   4.299   1.147
 7669SOL     OW23905   5.224   0.202   4.023
 7669SOL    HW123906   5.131   0.187   4.056
 7669SOL    HW223907   5.269   0.271   4.080
 7670SOL     OW23908   1.450   5.249   0.494
 7670SOL    HW123909   1.445   5.185   0.418
 7670SOL    HW223910   1.546   5.272   0.512
 7671SOL     OW23911   6.349   2.852   3.962
 7671SOL    HW123912   6.404   2.874   4.043
 7671SOL    HW223913   6.300   2.934   3.932
 7672SOL     OW23914   5.517   0.623   3.279
 7672SOL    HW123915   5.471   0.673   3.206
 7672SOL    HW223916   5.614   0.615   3.258
 7673SOL     OW23917   0.918   4.363   0.908
 7673SOL    HW123918   0.908   4.365   1.008
 7673SOL    HW223919   0.966   4.279   0.882
 7674SOL     OW23920   6.195   1.253   5.125
 7674SOL    HW123921   6.113   1.304   5.151
 7674SOL    HW223922   6.235   1.294   5.043
 7675SOL     OW23923   4.277   6.792   3.168
 7675SOL    HW123924   4.357   6.852   3.176
 7675SOL    HW223925   4.305   6.703   3.133
 7676SOL     OW23926   1.368   0.876   0.517
 7676SOL    HW123927   1.305   0.898   0.591
 7676SOL    HW223928   1.440   0.816   0.551
 7677SOL     OW23929   1.641   3.157   2.506
 7677SOL    HW123930   1.671   3.064   2.484
 7677SOL    HW223931   1.544   3.167   2.483
 7678SOL     OW23932   6.582   0.047   0.651
 7678SOL    HW123933   6.641   0.128   0.648
 7678SOL    HW223934   6.632   6.993   0.615
 7679SOL     OW23935   0.821   5.059   4.960
 7679SOL    HW123936   0.895   5.085   5.022
 7679SOL    HW223937   0.755   5.002   5.010
 7680SOL     OW23938   3.676   3.065   0.197
 7680SOL    HW123939   3.645   3.036   0.107
 7680SOL    HW223940   3.608   3.038   0.266
 7681SOL     OW23941   2.797   1.759   0.075
 7681SOL    HW123942   2.818   1.851   0.110
 7681SOL    HW223943   2.808   1.692   0.148
 7682SOL     OW23944   3.012   6.945   2.318
 7682SOL    HW123945   3.078   7.020   2.316
 7682SOL    HW223946   2.919   6.981   2.321
 7683SOL     OW23947   5.385   2.065   3.090
 7683SOL    HW123948   5.360   2.160   3.109
 7683SOL    HW223949   5.334   2.032   3.010
 7684SOL     OW23950   4.305   2.130   5.959
 7684SOL    HW123951   4.213   2.168   5.964
 7684SOL    HW223952   4.338   2.136   5.864
 7685SOL     OW23953   3.516   3.080   0.832
 7685SOL    HW123954   3.442   3.060   0.768
 7685SOL    HW223955   3.546   3.174   0.818
 7686SOL     OW23956   4.441   6.428   4.150
 7686SOL    HW123957   4.521   6.431   4.090
 7686SOL    HW223958   4.379   6.503   4.127
 7687SOL     OW23959   4.997   5.419   5.338
 7687SOL    HW123960   5.005   5.353   5.414
 7687SOL    HW223961   5.003   5.512   5.375
 7688SOL     OW23962   0.080   6.522   4.697
 7688SOL    HW123963   0.016   6.541   4.623
 7688SOL    HW223964   0.173   6.517   4.660
 7689SOL     OW23965   4.780   6.903   4.872
 7689SOL    HW123966   4.844   6.832   4.842
 7689SOL    HW223967   4.758   6.890   4.968
 7690SOL     OW23968   6.195   4.836   3.390
 7690SOL    HW123969   6.215   4.897   3.314
 7690SOL    HW223970   6.231   4.745   3.370
 7691SOL     OW23971   5.189   3.251   4.359
 7691SOL    HW123972   5.172   3.166   4.311
 7691SOL    HW223973   5.128   3.322   4.324
 7692SOL     OW23974   2.006   6.674   1.789
 7692SOL    HW123975   2.061   6.715   1.717
 7692SOL    HW223976   1.912   6.708   1.782
 7693SOL     OW23977   4.311   1.429   6.273
 7693SOL    HW123978   4.400   1.414   6.316
 7693SOL    HW223979   4.241   1.439   6.343
 7694SOL     OW23980   6.999   5.246   4.475
 7694SOL    HW123981   6.920   5.204   4.430
 7694SOL    HW223982   6.980   5.343   4.492
 7695SOL     OW23983   4.440   6.745   1.092
 7695SOL    HW123984   4.369   6.738   1.022
 7695SOL    HW223985   4.512   6.807   1.061
 7696SOL     OW23986   0.074   3.759   5.234
 7696SOL    HW123987   7.004   3.768   5.204
 7696SOL    HW223988   0.110   3.849   5.259
 7697SOL     OW23989   2.931   1.142   2.707
 7697SOL    HW123990   2.918   1.230   2.753
 7697SOL    HW223991   2.921   1.068   2.772
 7698SOL     OW23992   6.532   2.734   5.898
 7698SOL    HW123993   6.548   2.666   5.970
 7698SOL    HW223994   6.598   2.808   5.905
 7699SOL     OW23995   3.168   5.506   6.778
 7699SOL    HW123996   3.108   5.430   6.753
 7699SOL    HW223997   3.146   5.586   6.722
 7700SOL     OW23998   5.244   6.364   5.329
 7700SOL    HW123999   5.173   6.396   5.266
 7700SOL    HW224000   5.330   6.412   5.310
 7701SOL     OW24001   0.178   1.695   4.565
 7701SOL    HW124002   0.105   1.763   4.565
 7701SOL    HW224003   0.254   1.727   4.508
 7702SOL     OW24004   3.161   6.130   5.694
 7702SOL    HW124005   3.070   6.125   5.735
 7702SOL    HW224006   3.176   6.050   5.637
 7703SOL     OW24007   0.683   1.134   5.874
 7703SOL    HW124008   0.766   1.176   5.840
 7703SOL    HW224009   0.668   1.046   5.828
 7704SOL     OW24010   4.223   4.124   6.758
 7704SOL    HW124011   4.241   4.222   6.770
 7704SOL    HW224012   4.198   4.084   6.846
 7705SOL     OW24013   3.472   5.208   5.186
 7705SOL    HW124014   3.515   5.277   5.128
 7705SOL    HW224015   3.392   5.247   5.232
 7706SOL     OW24016   6.588   0.832   5.146
 7706SOL    HW124017   6.578   0.894   5.068
 7706SOL    HW224018   6.512   0.846   5.209
 7707SOL     OW24019   6.748   5.536   6.455
 7707SOL    HW124020   6.736   5.449   6.407
 7707SOL    HW224021   6.800   5.521   6.539
 7708SOL     OW24022   4.606   6.925   4.646
 7708SOL    HW124023   4.652   6.980   4.577
 7708SOL    HW224024   4.670   6.905   4.721
 7709SOL     OW24025   4.053   1.945   2.087
 7709SOL    HW124026   4.019   2.009   2.018
 7709SOL    HW224027   4.107   1.873   2.043
 7710SOL     OW24028   2.232   0.662   0.110
 7710SOL    HW124029   2.277   0.574   0.095
 7710SOL    HW224030   2.183   0.660   0.197
 7711SOL     OW24031   5.320   6.541   5.628
 7711SOL    HW124032   5.373   6.475   5.575
 7711SOL    HW224033   5.266   6.492   5.697
 7712SOL     OW24034   5.922   5.166   1.015
 7712SOL    HW124035   5.979   5.084   1.017
 7712SOL    HW224036   5.846   5.152   0.952
 7713SOL     OW24037   1.516   4.058   6.253
 7713SOL    HW124038   1.568   4.034   6.171
 7713SOL    HW224039   1.419   4.038   6.239
 7714SOL     OW24040   6.406   4.297   3.915
 7714SOL    HW124041   6.468   4.375   3.920
 7714SOL    HW224042   6.371   4.288   3.822
 7715SOL     OW24043   4.855   0.018   1.500
 7715SOL    HW124044   4.824   0.003   1.406
 7715SOL    HW224045   4.954   0.007   1.505
 7716SOL     OW24046   4.498   1.942   3.690
 7716SOL    HW124047   4.407   1.983   3.679
 7716SOL    HW224048   4.513   1.919   3.786
 7717SOL     OW24049   2.942   1.216   5.852
 7717SOL    HW124050   2.999   1.277   5.797
 7717SOL    HW224051   2.924   1.132   5.800
 7718SOL     OW24052   2.640   0.785   3.527
 7718SOL    HW124053   2.723   0.783   3.583
 7718SOL    HW224054   2.663   0.769   3.431
 7719SOL     OW24055   6.821   1.796   4.429
 7719SOL    HW124056   6.831   1.729   4.355
 7719SOL    HW224057   6.911   1.816   4.468
 7720SOL     OW24058   5.925   6.023   1.491
 7720SOL    HW124059   5.981   6.050   1.570
 7720SOL    HW224060   5.880   5.936   1.512
 7721SOL     OW24061   2.289   4.219   2.744
 7721SOL    HW124062   2.381   4.179   2.737
 7721SOL    HW224063   2.228   4.174   2.679
 7722SOL     OW24064   6.753   4.778   4.014
 7722SOL    HW124065   6.724   4.843   3.944
 7722SOL    HW224066   6.834   4.729   3.984
 7723SOL     OW24067   6.809   3.187   0.689
 7723SOL    HW124068   6.778   3.095   0.665
 7723SOL    HW224069   6.733   3.240   0.726
 7724SOL     OW24070   1.151   4.293   1.133
 7724SOL    HW124071   1.135   4.391   1.125
 7724SOL    HW224072   1.224   4.266   1.070
 7725SOL     OW24073   5.758   3.210   4.109
 7725SOL    HW124074   5.717   3.248   4.026
 7725SOL    HW224075   5.773   3.283   4.176
 7726SOL     OW24076   0.457   4.696   3.189
 7726SOL    HW124077   0.381   4.652   3.236
 7726SOL    HW224078   0.504   4.629   3.132
 7727SOL     OW24079   6.578   2.287   2.975
 7727SOL    HW124080   6.661   2.330   2.940
 7727SOL    HW224081   6.573   2.192   2.942
 7728SOL     OW24082   1.902   2.787   3.259
 7728SOL    HW124083   1.827   2.805   3.195
 7728SOL    HW224084   1.964   2.865   3.261
 7729SOL     OW24085   5.084   2.547   1.097
 7729SOL    HW124086   5.139   2.623   1.131
 7729SOL    HW224087   5.036   2.504   1.173
 7730SOL     OW24088   5.445   0.493   2.941
 7730SOL    HW124089   5.395   0.550   3.006
 7730SOL    HW224090   5.392   0.487   2.856
 7731SOL     OW24091   6.223   0.867   6.905
 7731SOL    HW124092   6.160   0.913   6.842
 7731SOL    HW224093   6.317   0.879   6.872
 7732SOL     OW24094   3.875   6.078   0.400
 7732SOL    HW124095   3.820   6.090   0.483
 7732SOL    HW224096   3.913   5.985   0.399
 7733SOL     OW24097   3.732   0.305   1.758
 7733SOL    HW124098   3.666   0.276   1.827
 7733SOL    HW224099   3.716   0.401   1.735
 7734SOL     OW24100   1.740   2.240   3.559
 7734SOL    HW124101   1.776   2.245   3.652
 7734SOL    HW224102   1.665   2.306   3.550
 7735SOL     OW24103   5.278   4.114   6.581
 7735SOL    HW124104   5.324   4.093   6.668
 7735SOL    HW224105   5.182   4.087   6.587
 7736SOL     OW24106   6.149   4.710   0.159
 7736SOL    HW124107   6.111   4.683   0.248
 7736SOL    HW224108   6.136   4.809   0.146
 7737SOL     OW24109   4.975   1.697   0.440
 7737SOL    HW124110   4.972   1.612   0.387
 7737SOL    HW224111   4.900   1.756   0.413
 7738SOL     OW24112   2.911   4.990   0.237
 7738SOL    HW124113   3.002   5.028   0.255
 7738SOL    HW224114   2.842   5.047   0.280
 7739SOL     OW24115   6.850   2.031   1.168
 7739SOL    HW124116   6.783   1.959   1.151
 7739SOL    HW224117   6.841   2.063   1.263
 7740SOL     OW24118   6.942   0.044   3.039
 7740SOL    HW124119   6.983   0.130   3.009
 7740SOL    HW224120   6.904   0.054   3.131
 7741SOL     OW24121   1.452   5.937   4.556
 7741SOL    HW124122   1.465   5.900   4.648
 7741SOL    HW224123   1.534   5.922   4.501
 7742SOL     OW24124   6.520   1.605   3.882
 7742SOL    HW124125   6.530   1.521   3.936
 7742SOL    HW224126   6.542   1.587   3.786
 7743SOL     OW24127   4.711   2.749   4.268
 7743SOL    HW124128   4.636   2.688   4.293
 7743SOL    HW224129   4.748   2.722   4.179
 7744SOL     OW24130   6.786   0.188   3.640
 7744SOL    HW124131   6.839   0.180   3.724
 7744SOL    HW224132   6.696   0.228   3.662
 7745SOL     OW24133   4.158   2.719   6.159
 7745SOL    HW124134   4.117   2.719   6.068
 7745SOL    HW224135   4.114   2.789   6.215
 7746SOL     OW24136   1.383   0.977   0.252
 7746SOL    HW124137   1.364   0.948   0.346
 7746SOL    HW224138   1.472   0.941   0.224
 7747SOL     OW24139   5.383   6.241   1.022
 7747SOL    HW124140   5.396   6.204   0.930
 7747SOL    HW224141   5.292   6.283   1.028
 7748SOL     OW24142   2.704   4.656   6.063
 7748SOL    HW124143   2.761   4.730   6.028
 7748SOL    HW224144   2.758   4.598   6.125
 7749SOL     OW24145   5.449   2.715   5.661
 7749SOL    HW124146   5.398   2.629   5.657
 7749SOL    HW224147   5.522   2.714   5.592
 7750SOL     OW24148   0.350   5.695   2.176
 7750SOL    HW124149   0.261   5.720   2.214
 7750SOL    HW224150   0.374   5.758   2.103
 7751SOL     OW24151   0.861   2.794   2.487
 7751SOL    HW124152   0.876   2.790   2.389
 7751SOL    HW224153   0.821   2.882   2.511
 7752SOL     OW24154   4.213   1.584   4.543
 7752SOL    HW124155   4.270   1.502   4.549
 7752SOL    HW224156   4.269   1.665   4.558
 7753SOL     OW24157   2.910   1.534   4.980
 7753SOL    HW124158   2.912   1.509   5.077
 7753SOL    HW224159   2.950   1.626   4.969
 7754SOL     OW24160   4.859   6.224   1.721
 7754SOL    HW124161   4.770   6.178   1.721
 7754SOL    HW224162   4.846   6.320   1.745
 7755SOL     OW24163   0.417   4.083   5.930
 7755SOL    HW124164   0.465   3.999   5.954
 7755SOL    HW224165   0.483   4.154   5.905
 7756SOL     OW24166   3.190   5.590   1.701
 7756SOL    HW124167   3.146   5.673   1.667
 7756SOL    HW224168   3.266   5.566   1.641
 7757SOL     OW24169   0.320   4.538   2.239
 7757SOL    HW124170   0.320   4.439   2.253
 7757SOL    HW224171   0.377   4.582   2.309
 7758SOL     OW24172   1.777   0.990   4.925
 7758SOL    HW124173   1.717   0.948   4.856
 7758SOL    HW224174   1.750   1.085   4.939
 7759SOL     OW24175   2.517   2.566   6.498
 7759SOL    HW124176   2.616   2.549   6.504
 7759SOL    HW224177   2.471   2.519   6.573
 7760SOL     OW24178   4.196   3.408   1.013
 7760SOL    HW124179   4.262   3.475   1.047
 7760SOL    HW224180   4.180   3.424   0.916
 7761SOL     OW24181   4.791   5.426   4.758
 7761SOL    HW124182   4.781   5.412   4.856
 7761SOL    HW224183   4.742   5.354   4.708
 7762SOL     OW24184   5.980   1.483   3.027
 7762SOL    HW124185   5.908   1.532   3.077
 7762SOL    HW224186   6.012   1.540   2.951
 7763SOL     OW24187   2.348   0.053   4.142
 7763SOL    HW124188   2.429   0.058   4.083
 7763SOL    HW224189   2.307   6.987   4.135
 7764SOL     OW24190   2.744   3.814   5.703
 7764SOL    HW124191   2.653   3.816   5.744
 7764SOL    HW224192   2.736   3.830   5.604
 7765SOL     OW24193   6.954   3.471   5.184
 7765SOL    HW124194   7.019   3.503   5.253
 7765SOL    HW224195   6.862   3.473   5.222
 7766SOL     OW24196   6.343   3.719   6.127
 7766SOL    HW124197   6.401   3.638   6.128
 7766SOL    HW224198   6.283   3.719   6.207
 7767SOL     OW24199   2.932   0.568   3.607
 7767SOL    HW124200   2.917   0.572   3.508
 7767SOL    HW224201   2.879   0.493   3.645
 7768SOL     OW24202   4.374   4.919   3.372
 7768SOL    HW124203   4.463   4.965   3.374
 7768SOL    HW224204   4.310   4.969   3.429
 7769SOL     OW24205   3.792   2.677   5.368
 7769SOL    HW124206   3.710   2.621   5.385
 7769SOL    HW224207   3.872   2.630   5.404
 7770SOL     OW24208   2.152   3.413   4.843
 7770SOL    HW124209   2.108   3.459   4.920
 7770SOL    HW224210   2.185   3.323   4.872
 7771SOL     OW24211   2.530   2.544   6.233
 7771SOL    HW124212   2.605   2.608   6.215
 7771SOL    HW224213   2.508   2.546   6.331
 7772SOL     OW24214   4.823   6.500   1.897
 7772SOL    HW124215   4.792   6.508   1.992
 7772SOL    HW224216   4.887   6.573   1.876
 7773SOL     OW24217   3.384   6.288   6.977
 7773SOL    HW124218   3.289   6.278   6.950
 7773SOL    HW224219   3.439   6.214   6.937
 7774SOL     OW24220   4.140   1.656   2.597
 7774SOL    HW124221   4.077   1.711   2.651
 7774SOL    HW224222   4.178   1.712   2.523
 7775SOL     OW24223   3.085   1.186   0.098
 7775SOL    HW124224   3.045   1.119   0.161
 7775SOL    HW224225   3.023   1.264   0.090
 7776SOL     OW24226   1.828   1.286   4.971
 7776SOL    HW124227   1.763   1.333   4.911
 7776SOL    HW224228   1.887   1.353   5.016
 7777SOL     OW24229   6.279   4.988   3.609
 7777SOL    HW124230   6.255   4.904   3.561
 7777SOL    HW224231   6.199   5.049   3.610
 7778SOL     OW24232   6.825   5.082   2.712
 7778SOL    HW124233   6.737   5.102   2.755
 7778SOL    HW224234   6.893   5.058   2.782
 7779SOL     OW24235   3.983   6.111   2.042
 7779SOL    HW124236   3.959   6.194   2.093
 7779SOL    HW224237   3.903   6.078   1.993
 7780SOL     OW24238   6.202   6.507   4.628
 7780SOL    HW124239   6.172   6.418   4.663
 7780SOL    HW224240   6.246   6.495   4.539
 7781SOL     OW24241   1.432   2.474   0.624
 7781SOL    HW124242   1.525   2.440   0.634
 7781SOL    HW224243   1.398   2.506   0.712
 7782SOL     OW24244   5.671   2.962   4.159
 7782SOL    HW124245   5.710   3.054   4.153
 7782SOL    HW224246   5.597   2.962   4.227
 7783SOL     OW24247   1.316   0.083   5.030
 7783SOL    HW124248   1.371   0.144   5.087
 7783SOL    HW224249   1.231   0.061   5.078
 7784SOL     OW24250   1.811   2.317   2.266
 7784SOL    HW124251   1.772   2.232   2.300
 7784SOL    HW224252   1.794   2.390   2.332
 7785SOL     OW24253   0.869   0.013   2.710
 7785SOL    HW124254   0.779   0.021   2.752
 7785SOL    HW224255   0.860   0.012   2.610
 7786SOL     OW24256   3.941   0.699   6.306
 7786SOL    HW124257   3.949   0.734   6.399
 7786SOL    HW224258   4.021   0.645   6.283
 7787SOL     OW24259   1.969   2.410   1.706
 7787SOL    HW124260   1.881   2.374   1.676
 7787SOL    HW224261   1.954   2.483   1.773
 7788SOL     OW24262   6.976   4.443   1.505
 7788SOL    HW124263   7.000   4.531   1.547
 7788SOL    HW224264   0.019   4.374   1.529
 7789SOL     OW24265   3.045   1.750   5.775
 7789SOL    HW124266   3.004   1.676   5.722
 7789SOL    HW224267   3.101   1.808   5.716
 7790SOL     OW24268   4.509   4.448   1.685
 7790SOL    HW124269   4.497   4.373   1.750
 7790SOL    HW224270   4.603   4.481   1.688
 7791SOL     OW24271   2.579   4.858   2.158
 7791SOL    HW124272   2.629   4.804   2.226
 7791SOL    HW224273   2.643   4.895   2.091
 7792SOL     OW24274   0.576   1.794   2.746
 7792SOL    HW124275   0.567   1.762   2.840
 7792SOL    HW224276   0.554   1.719   2.683
 7793SOL     OW24277   4.664   0.597   6.094
 7793SOL    HW124278   4.633   0.538   6.020
 7793SOL    HW224279   4.717   0.673   6.056
 7794SOL     OW24280   0.779   6.935   3.076
 7794SOL    HW124281   0.700   6.907   3.021
 7794SOL    HW224282   0.748   6.990   3.154
 7795SOL     OW24283   3.063   5.676   6.531
 7795SOL    HW124284   3.039   5.766   6.567
 7795SOL    HW224285   3.160   5.658   6.546
 7796SOL     OW24286   4.042   3.671   6.665
 7796SOL    HW124287   4.126   3.615   6.662
 7796SOL    HW224288   4.017   3.697   6.572
 7797SOL     OW24289   0.949   6.031   2.810
 7797SOL    HW124290   0.895   5.987   2.882
 7797SOL    HW224291   0.911   6.006   2.721
 7798SOL     OW24292   1.481   3.589   1.051
 7798SOL    HW124293   1.520   3.499   1.072
 7798SOL    HW224294   1.421   3.582   0.972
 7799SOL     OW24295   2.408   5.480   3.361
 7799SOL    HW124296   2.376   5.567   3.399
 7799SOL    HW224297   2.391   5.479   3.263
 7800SOL     OW24298   0.518   6.306   2.023
 7800SOL    HW124299   0.590   6.349   1.969
 7800SOL    HW224300   0.538   6.318   2.120
 7801SOL     OW24301   1.318   2.204   2.377
 7801SOL    HW124302   1.218   2.202   2.372
 7801SOL    HW224303   1.354   2.265   2.306
 7802SOL     OW24304   0.202   3.901   4.332
 7802SOL    HW124305   0.131   3.971   4.324
 7802SOL    HW224306   0.181   3.841   4.410
 7803SOL     OW24307   4.062   2.968   5.867
 7803SOL    HW124308   4.028   3.061   5.873
 7803SOL    HW224309   4.162   2.968   5.869
 7804SOL     OW24310   3.305   1.624   5.225
 7804SOL    HW124311   3.317   1.638   5.126
 7804SOL    HW224312   3.393   1.606   5.267
 7805SOL     OW24313   5.557   2.981   0.676
 7805SOL    HW124314   5.523   2.994   0.769
 7805SOL    HW224315   5.481   2.976   0.612
 7806SOL     OW24316   6.872   1.954   5.716
 7806SOL    HW124317   6.895   1.952   5.813
 7806SOL    HW224318   6.801   1.886   5.697
 7807SOL     OW24319   2.123   4.610   6.016
 7807SOL    HW124320   2.187   4.642   6.086
 7807SOL    HW224321   2.034   4.653   6.029
 7808SOL     OW24322   5.237   4.032   2.731
 7808SOL    HW124323   5.183   3.977   2.795
 7808SOL    HW224324   5.180   4.059   2.653
 7809SOL     OW24325   4.778   4.829   3.189
 7809SOL    HW124326   4.803   4.737   3.219
 7809SOL    HW224327   4.776   4.832   3.089
 7810SOL     OW24328   3.467   6.509   5.232
 7810SOL    HW124329   3.479   6.600   5.193
 7810SOL    HW224330   3.555   6.463   5.236
 7811SOL     OW24331   1.445   6.223   3.134
 7811SOL    HW124332   1.388   6.289   3.183
 7811SOL    HW224333   1.533   6.215   3.180
 7812SOL     OW24334   3.064   2.132   6.013
 7812SOL    HW124335   3.109   2.127   6.102
 7812SOL    HW224336   3.129   2.107   5.941
 7813SOL     OW24337   5.935   0.513   0.414
 7813SOL    HW124338   6.019   0.484   0.460
 7813SOL    HW224339   5.924   0.461   0.329
 7814SOL     OW24340   6.491   2.932   1.979
 7814SOL    HW124341   6.564   2.948   1.912
 7814SOL    HW224342   6.445   3.019   2.000
 7815SOL     OW24343   5.766   3.740   5.598
 7815SOL    HW124344   5.854   3.772   5.632
 7815SOL    HW224345   5.715   3.695   5.671
 7816SOL     OW24346   0.632   0.246   5.412
 7816SOL    HW124347   0.570   0.301   5.468
 7816SOL    HW224348   0.725   0.252   5.448
 7817SOL     OW24349   3.038   3.115   6.677
 7817SOL    HW124350   2.973   3.190   6.663
 7817SOL    HW224351   2.987   3.031   6.698
 7818SOL     OW24352   5.509   0.930   3.285
 7818SOL    HW124353   5.476   1.023   3.268
 7818SOL    HW224354   5.462   0.892   3.365
 7819SOL     OW24355   1.756   3.754   3.755
 7819SOL    HW124356   1.707   3.807   3.824
 7819SOL    HW224357   1.802   3.677   3.799
 7820SOL     OW24358   1.731   6.902   6.202
 7820SOL    HW124359   1.825   6.893   6.236
 7820SOL    HW224360   1.716   6.836   6.129
 7821SOL     OW24361   5.012   5.878   6.503
 7821SOL    HW124362   5.055   5.958   6.463
 7821SOL    HW224363   4.918   5.901   6.530
 7822SOL     OW24364   0.365   0.692   4.910
 7822SOL    HW124365   0.320   0.716   4.824
 7822SOL    HW224366   0.391   0.776   4.958
 7823SOL     OW24367   2.245   3.475   5.645
 7823SOL    HW124368   2.292   3.391   5.619
 7823SOL    HW224369   2.164   3.487   5.588
 7824SOL     OW24370   5.591   2.754   3.168
 7824SOL    HW124371   5.669   2.694   3.189
 7824SOL    HW224372   5.597   2.836   3.224
 7825SOL     OW24373   3.524   3.667   2.252
 7825SOL    HW124374   3.574   3.687   2.168
 7825SOL    HW224375   3.569   3.712   2.329
 7826SOL     OW24376   6.689   0.088   1.347
 7826SOL    HW124377   6.617   0.027   1.312
 7826SOL    HW224378   6.743   0.122   1.270
 7827SOL     OW24379   5.107   4.003   0.944
 7827SOL    HW124380   5.150   4.063   1.011
 7827SOL    HW224381   5.134   3.909   0.961
 7828SOL     OW24382   0.866   5.686   0.843
 7828SOL    HW124383   0.819   5.772   0.821
 7828SOL    HW224384   0.964   5.704   0.854
 7829SOL     OW24385   3.782   3.036   2.459
 7829SOL    HW124386   3.753   2.956   2.511
 7829SOL    HW224387   3.751   3.119   2.504
 7830SOL     OW24388   5.799   2.754   6.646
 7830SOL    HW124389   5.828   2.783   6.738
 7830SOL    HW224390   5.793   2.834   6.587
 7831SOL     OW24391   2.079   2.502   6.776
 7831SOL    HW124392   1.988   2.544   6.780
 7831SOL    HW224393   2.072   2.406   6.804
 7832SOL     OW24394   2.836   2.419   5.266
 7832SOL    HW124395   2.830   2.360   5.185
 7832SOL    HW224396   2.929   2.415   5.303
 7833SOL     OW24397   1.130   6.812   0.642
 7833SOL    HW124398   1.135   6.744   0.715
 7833SOL    HW224399   1.062   6.881   0.667
 7834SOL     OW24400   0.317   0.572   1.196
 7834SOL    HW124401   0.226   0.530   1.190
 7834SOL    HW224402   0.385   0.510   1.159
 7835SOL     OW24403   1.953   2.838   5.110
 7835SOL    HW124404   1.915   2.861   5.199
 7835SOL    HW224405   1.930   2.910   5.044
 7836SOL     OW24406   2.129   0.062   0.277
 7836SOL    HW124407   2.127   0.054   0.178
 7836SOL    HW224408   2.045   0.106   0.309
 7837SOL     OW24409   6.201   0.113   3.220
 7837SOL    HW124410   6.178   0.016   3.219
 7837SOL    HW224411   6.258   0.134   3.141
 7838SOL     OW24412   4.108   6.848   3.673
 7838SOL    HW124413   4.110   6.918   3.745
 7838SOL    HW224414   4.152   6.883   3.591
 7839SOL     OW24415   6.273   4.904   4.278
 7839SOL    HW124416   6.281   4.889   4.180
 7839SOL    HW224417   6.330   4.981   4.305
 7840SOL     OW24418   5.351   2.823   5.354
 7840SOL    HW124419   5.309   2.735   5.334
 7840SOL    HW224420   5.434   2.833   5.300
 7841SOL     OW24421   1.138   1.844   6.576
 7841SOL    HW124422   1.223   1.863   6.626
 7841SOL    HW224423   1.131   1.746   6.557
 7842SOL     OW24424   3.156   0.921   3.099
 7842SOL    HW124425   3.145   0.829   3.138
 7842SOL    HW224426   3.250   0.931   3.065
 7843SOL     OW24427   5.225   3.353   1.296
 7843SOL    HW124428   5.129   3.333   1.278
 7843SOL    HW224429   5.278   3.268   1.298
 7844SOL     OW24430   4.556   1.158   4.093
 7844SOL    HW124431   4.467   1.117   4.112
 7844SOL    HW224432   4.615   1.151   4.174
 7845SOL     OW24433   0.145   0.916   4.054
 7845SOL    HW124434   0.056   0.871   4.042
 7845SOL    HW224435   0.185   0.888   4.141
 7846SOL     OW24436   3.437   6.814   1.993
 7846SOL    HW124437   3.340   6.792   1.984
 7846SOL    HW224438   3.491   6.752   1.936
 7847SOL     OW24439   0.059   0.511   0.171
 7847SOL    HW124440   0.050   0.474   0.264
 7847SOL    HW224441   0.154   0.504   0.141
 7848SOL     OW24442   4.848   4.404   0.676
 7848SOL    HW124443   4.851   4.353   0.763
 7848SOL    HW224444   4.934   4.454   0.664
 7849SOL     OW24445   5.740   3.473   5.357
 7849SOL    HW124446   5.750   3.386   5.405
 7849SOL    HW224447   5.775   3.547   5.414
 7850SOL     OW24448   0.417   0.425   4.412
 7850SOL    HW124449   0.467   0.430   4.326
 7850SOL    HW224450   0.408   0.329   4.441
 7851SOL     OW24451   5.552   0.008   6.961
 7851SOL    HW124452   5.555   0.094   7.011
 7851SOL    HW224453   5.600   6.963   7.013
 7852SOL     OW24454   1.934   5.645   6.886
 7852SOL    HW124455   2.030   5.630   6.909
 7852SOL    HW224456   1.924   5.642   6.786
 7853SOL     OW24457   2.442   3.133   0.797
 7853SOL    HW124458   2.350   3.157   0.766
 7853SOL    HW224459   2.460   3.177   0.885
 7854SOL     OW24460   3.370   4.143   2.831
 7854SOL    HW124461   3.420   4.137   2.745
 7854SOL    HW224462   3.429   4.185   2.901
 7855SOL     OW24463   3.692   6.659   5.653
 7855SOL    HW124464   3.685   6.565   5.688
 7855SOL    HW224465   3.655   6.722   5.721
 7856SOL     OW24466   4.847   2.902   6.266
 7856SOL    HW124467   4.932   2.903   6.318
 7856SOL    HW224468   4.769   2.908   6.330
 7857SOL     OW24469   0.407   1.850   5.255
 7857SOL    HW124470   0.502   1.819   5.251
 7857SOL    HW224471   0.354   1.802   5.184
 7858SOL     OW24472   6.248   4.066   3.510
 7858SOL    HW124473   6.255   4.156   3.555
 7858SOL    HW224474   6.162   4.023   3.536
 7859SOL     OW24475   1.158   5.572   6.767
 7859SOL    HW124476   1.081   5.598   6.709
 7859SOL    HW224477   1.124   5.532   6.851
 7860SOL     OW24478   3.526   0.306   1.956
 7860SOL    HW124479   3.426   0.304   1.959
 7860SOL    HW224480   3.559   0.381   2.013
 7861SOL     OW24481   5.526   4.189   0.506
 7861SOL    HW124482   5.468   4.199   0.587
 7861SOL    HW224483   5.470   4.162   0.428
 7862SOL     OW24484   2.947   4.788   1.800
 7862SOL    HW124485   2.950   4.853   1.876
 7862SOL    HW224486   2.930   4.696   1.835
 7863SOL     OW24487   7.024   5.801   1.959
 7863SOL    HW124488   0.010   5.892   1.919
 7863SOL    HW224489   6.929   5.789   1.987
 7864SOL     OW24490   0.807   5.286   4.828
 7864SOL    HW124491   0.826   5.206   4.885
 7864SOL    HW224492   0.709   5.291   4.809
 7865SOL     OW24493   3.424   0.201   2.797
 7865SOL    HW124494   3.517   0.219   2.765
 7865SOL    HW224495   3.361   0.202   2.719
 7866SOL     OW24496   2.698   2.365   4.296
 7866SOL    HW124497   2.636   2.422   4.243
 7866SOL    HW224498   2.756   2.312   4.234
 7867SOL     OW24499   5.362   4.558   2.228
 7867SOL    HW124500   5.341   4.468   2.189
 7867SOL    HW224501   5.408   4.547   2.316
 7868SOL     OW24502   4.967   6.944   0.743
 7868SOL    HW124503   5.045   7.007   0.743
 7868SOL    HW224504   4.893   6.983   0.688
 7869SOL     OW24505   0.266   3.253   2.248
 7869SOL    HW124506   0.283   3.239   2.346
 7869SOL    HW224507   0.208   3.334   2.237
 7870SOL     OW24508   0.097   6.083   4.099
 7870SOL    HW124509   0.129   6.042   4.184
 7870SOL    HW224510   0.134   6.032   4.021
 7871SOL     OW24511   5.570   2.648   2.929
 7871SOL    HW124512   5.571   2.693   3.019
 7871SOL    HW224513   5.478   2.617   2.908
 7872SOL     OW24514   6.554   3.117   3.342
 7872SOL    HW124515   6.522   3.204   3.304
 7872SOL    HW224516   6.650   3.126   3.368
 7873SOL     OW24517   0.257   4.759   5.225
 7873SOL    HW124518   0.287   4.719   5.139
 7873SOL    HW224519   0.239   4.856   5.212
 7874SOL     OW24520   5.507   1.080   0.366
 7874SOL    HW124521   5.577   1.034   0.310
 7874SOL    HW224522   5.521   1.179   0.362
 7875SOL     OW24523   4.684   2.858   6.690
 7875SOL    HW124524   4.770   2.897   6.659
 7875SOL    HW224525   4.673   2.875   6.788
 7876SOL     OW24526   6.643   0.681   4.011
 7876SOL    HW124527   6.616   0.660   3.917
 7876SOL    HW224528   6.561   0.699   4.066
 7877SOL     OW24529   0.008   2.345   2.610
 7877SOL    HW124530   0.052   2.299   2.533
 7877SOL    HW224531   6.975   2.419   2.576
 7878SOL     OW24532   4.881   4.034   1.746
 7878SOL    HW124533   4.783   4.055   1.738
 7878SOL    HW224534   4.935   4.115   1.726
 7879SOL     OW24535   5.332   0.409   4.184
 7879SOL    HW124536   5.304   0.483   4.245
 7879SOL    HW224537   5.380   0.447   4.105
 7880SOL     OW24538   0.498   6.877   6.622
 7880SOL    HW124539   0.542   6.962   6.594
 7880SOL    HW224540   0.536   6.800   6.571
 7881SOL     OW24541   6.962   4.761   3.827
 7881SOL    HW124542   7.024   4.716   3.891
 7881SOL    HW224543   6.974   4.860   3.833
 7882SOL     OW24544   0.363   3.995   2.319
 7882SOL    HW124545   0.361   3.998   2.418
 7882SOL    HW224546   0.275   3.962   2.285
 7883SOL     OW24547   3.585   1.424   3.959
 7883SOL    HW124548   3.489   1.450   3.945
 7883SOL    HW224549   3.590   1.325   3.974
 7884SOL     OW24550   0.344   3.620   3.793
 7884SOL    HW124551   0.272   3.674   3.835
 7884SOL    HW224552   0.354   3.533   3.842
 7885SOL     OW24553   6.096   5.340   3.438
 7885SOL    HW124554   6.060   5.279   3.508
 7885SOL    HW224555   6.146   5.415   3.481
 7886SOL     OW24556   4.887   3.091   2.994
 7886SOL    HW124557   4.920   3.173   2.948
 7886SOL    HW224558   4.851   3.027   2.925
 7887SOL     OW24559   2.396   3.545   0.933
 7887SOL    HW124560   2.411   3.538   0.834
 7887SOL    HW224561   2.301   3.524   0.953
 7888SOL     OW24562   6.016   2.177   4.798
 7888SOL    HW124563   6.081   2.228   4.854
 7888SOL    HW224564   6.050   2.173   4.704
 7889SOL     OW24565   5.538   5.491   0.351
 7889SOL    HW124566   5.475   5.539   0.290
 7889SOL    HW224567   5.486   5.449   0.426
 7890SOL     OW24568   1.348   3.519   4.378
 7890SOL    HW124569   1.391   3.563   4.299
 7890SOL    HW224570   1.380   3.563   4.462
 7891SOL     OW24571   0.150   1.446   4.635
 7891SOL    HW124572   0.140   1.541   4.606
 7891SOL    HW224573   0.113   1.385   4.565
 7892SOL     OW24574   0.302   2.376   5.763
 7892SOL    HW124575   0.229   2.411   5.704
 7892SOL    HW224576   0.263   2.343   5.849
 7893SOL     OW24577   6.209   0.385   0.384
 7893SOL    HW124578   6.250   0.469   0.348
 7893SOL    HW224579   6.205   0.316   0.312
 7894SOL     OW24580   3.125   1.720   6.076
 7894SOL    HW124581   3.122   1.746   5.980
 7894SOL    HW224582   3.126   1.621   6.085
 7895SOL     OW24583   4.219   6.464   3.855
 7895SOL    HW124584   4.199   6.380   3.906
 7895SOL    HW224585   4.213   6.446   3.757
 7896SOL     OW24586   2.626   2.113   1.283
 7896SOL    HW124587   2.645   2.098   1.186
 7896SOL    HW224588   2.527   2.111   1.299
 7897SOL     OW24589   3.443   3.488   0.370
 7897SOL    HW124590   3.460   3.481   0.272
 7897SOL    HW224591   3.421   3.397   0.407
 7898SOL     OW24592   5.087   0.002   3.756
 7898SOL    HW124593   5.154   0.060   3.709
 7898SOL    HW224594   5.034   0.057   3.820
 7899SOL     OW24595   6.137   4.822   2.937
 7899SOL    HW124596   6.058   4.842   2.994
 7899SOL    HW224597   6.125   4.862   2.846
 7900SOL     OW24598   0.837   4.430   1.724
 7900SOL    HW124599   0.923   4.436   1.775
 7900SOL    HW224600   0.764   4.401   1.786
 7901SOL     OW24601   6.274   1.513   6.313
 7901SOL    HW124602   6.279   1.440   6.382
 7901SOL    HW224603   6.258   1.472   6.223
 7902SOL     OW24604   0.915   6.792   3.466
 7902SOL    HW124605   0.894   6.745   3.380
 7902SOL    HW224606   1.002   6.757   3.502
 7903SOL     OW24607   2.838   2.258   5.051
 7903SOL    HW124608   2.938   2.263   5.053
 7903SOL    HW224609   2.806   2.269   4.957
 7904SOL     OW24610   4.852   1.766   2.612
 7904SOL    HW124611   4.795   1.685   2.598
 7904SOL    HW224612   4.947   1.743   2.591
 7905SOL     OW24613   5.639   0.702   0.986
 7905SOL    HW124614   5.730   0.662   0.978
 7905SOL    HW224615   5.606   0.693   1.080
 7906SOL     OW24616   2.009   5.402   0.252
 7906SOL    HW124617   2.102   5.438   0.262
 7906SOL    HW224618   1.945   5.461   0.301
 7907SOL     OW24619   6.315   0.197   2.899
 7907SOL    HW124620   6.376   0.121   2.921
 7907SOL    HW224621   6.369   0.280   2.885
 7908SOL     OW24622   0.980   0.332   6.794
 7908SOL    HW124623   1.035   0.312   6.713
 7908SOL    HW224624   1.038   0.375   6.863
 7909SOL     OW24625   5.777   4.954   1.965
 7909SOL    HW124626   5.730   4.880   1.919
 7909SOL    HW224627   5.717   5.034   1.971
 7910SOL     OW24628   1.424   3.734   0.338
 7910SOL    HW124629   1.343   3.701   0.291
 7910SOL    HW224630   1.451   3.670   0.409
 7911SOL     OW24631   0.858   4.156   0.474
 7911SOL    HW124632   0.880   4.245   0.515
 7911SOL    HW224633   0.844   4.167   0.376
 7912SOL     OW24634   5.947   6.015   0.852
 7912SOL    HW124635   5.946   5.940   0.786
 7912SOL    HW224636   5.976   6.099   0.806
 7913SOL     OW24637   0.869   3.868   1.030
 7913SOL    HW124638   0.911   3.840   0.944
 7913SOL    HW224639   0.828   3.788   1.075
 7914SOL     OW24640   6.466   5.715   4.862
 7914SOL    HW124641   6.511   5.774   4.929
 7914SOL    HW224642   6.448   5.767   4.778
 7915SOL     OW24643   3.609   6.462   2.859
 7915SOL    HW124644   3.581   6.500   2.771
 7915SOL    HW224645   3.594   6.363   2.859
 7916SOL     OW24646   1.516   0.894   4.520
 7916SOL    HW124647   1.465   0.809   4.537
 7916SOL    HW224648   1.474   0.943   4.444
 7917SOL     OW24649   4.574   3.784   1.090
 7917SOL    HW124650   4.525   3.867   1.113
 7917SOL    HW224651   4.557   3.715   1.161
 7918SOL     OW24652   2.245   1.736   4.311
 7918SOL    HW124653   2.146   1.725   4.323
 7918SOL    HW224654   2.265   1.832   4.287
 7919SOL     OW24655   1.731   6.239   3.623
 7919SOL    HW124656   1.686   6.265   3.708
 7919SOL    HW224657   1.736   6.318   3.562
 7920SOL     OW24658   5.440   0.405   0.611
 7920SOL    HW124659   5.519   0.466   0.613
 7920SOL    HW224660   5.368   0.443   0.670
 7921SOL     OW24661   4.726   1.872   1.871
 7921SOL    HW124662   4.788   1.853   1.796
 7921SOL    HW224663   4.769   1.847   1.958
 7922SOL     OW24664   1.574   5.544   1.149
 7922SOL    HW124665   1.648   5.494   1.194
 7922SOL    HW224666   1.537   5.612   1.212
 7923SOL     OW24667   4.706   1.667   0.271
 7923SOL    HW124668   4.674   1.723   0.194
 7923SOL    HW224669   4.667   1.703   0.356
 7924SOL     OW24670   6.399   6.751   0.919
 7924SOL    HW124671   6.300   6.755   0.935
 7924SOL    HW224672   6.430   6.835   0.876
 7925SOL     OW24673   1.687   6.581   0.398
 7925SOL    HW124674   1.704   6.496   0.348
 7925SOL    HW224675   1.593   6.583   0.431
 7926SOL     OW24676   4.774   5.730   6.693
 7926SOL    HW124677   4.709   5.762   6.623
 7926SOL    HW224678   4.790   5.632   6.682
 7927SOL     OW24679   4.724   0.696   1.879
 7927SOL    HW124680   4.668   0.633   1.825
 7927SOL    HW224681   4.664   0.764   1.923
 7928SOL     OW24682   0.086   1.657   3.356
 7928SOL    HW124683   0.032   1.718   3.297
 7928SOL    HW224684   0.025   1.611   3.421
 7929SOL     OW24685   3.858   4.783   5.771
 7929SOL    HW124686   3.902   4.872   5.757
 7929SOL    HW224687   3.925   4.710   5.755
 7930SOL     OW24688   4.412   6.199   5.643
 7930SOL    HW124689   4.434   6.102   5.649
 7930SOL    HW224690   4.328   6.217   5.694
 7931SOL     OW24691   3.503   2.424   0.634
 7931SOL    HW124692   3.473   2.396   0.542
 7931SOL    HW224693   3.425   2.417   0.697
 7932SOL     OW24694   1.603   5.506   2.828
 7932SOL    HW124695   1.693   5.511   2.872
 7932SOL    HW224696   1.571   5.598   2.807
 7933SOL     OW24697   0.363   0.956   6.334
 7933SOL    HW124698   0.296   0.937   6.406
 7933SOL    HW224699   0.448   0.987   6.375
 7934SOL     OW24700   0.888   4.640   1.127
 7934SOL    HW124701   0.984   4.634   1.097
 7934SOL    HW224702   0.854   4.549   1.150
 7935SOL     OW24703   4.926   2.988   3.555
 7935SOL    HW124704   4.867   2.912   3.583
 7935SOL    HW224705   4.957   2.973   3.460
 7936SOL     OW24706   3.399   6.489   4.027
 7936SOL    HW124707   3.419   6.413   4.087
 7936SOL    HW224708   3.349   6.456   3.946
 7937SOL     OW24709   3.705   0.339   0.187
 7937SOL    HW124710   3.616   0.323   0.145
 7937SOL    HW224711   3.769   0.267   0.158
 7938SOL     OW24712   3.801   6.832   4.406
 7938SOL    HW124713   3.863   6.857   4.332
 7938SOL    HW224714   3.849   6.840   4.493
 7939SOL     OW24715   0.636   1.705   3.536
 7939SOL    HW124716   0.609   1.743   3.448
 7939SOL    HW224717   0.723   1.657   3.527
 7940SOL     OW24718   5.037   1.036   2.628
 7940SOL    HW124719   5.115   0.995   2.581
 7940SOL    HW224720   4.952   1.001   2.589
 7941SOL     OW24721   3.665   0.196   1.304
 7941SOL    HW124722   3.576   0.175   1.344
 7941SOL    HW224723   3.686   0.129   1.233
 7942SOL     OW24724   1.360   4.497   1.337
 7942SOL    HW124725   1.270   4.468   1.370
 7942SOL    HW224726   1.369   4.596   1.346
 7943SOL     OW24727   1.315   5.760   6.245
 7943SOL    HW124728   1.253   5.682   6.245
 7943SOL    HW224729   1.263   5.844   6.263
 7944SOL     OW24730   1.717   2.658   0.791
 7944SOL    HW124731   1.803   2.692   0.829
 7944SOL    HW224732   1.727   2.644   0.693
 7945SOL     OW24733   5.643   5.024   3.092
 7945SOL    HW124734   5.710   5.007   3.164
 7945SOL    HW224735   5.690   5.061   3.011
 7946SOL     OW24736   3.925   1.167   5.853
 7946SOL    HW124737   3.931   1.220   5.769
 7946SOL    HW224738   3.829   1.157   5.880
 7947SOL     OW24739   0.429   3.346   5.943
 7947SOL    HW124740   0.494   3.351   5.867
 7947SOL    HW224741   0.478   3.335   6.029
 7948SOL     OW24742   1.361   4.355   2.169
 7948SOL    HW124743   1.418   4.351   2.087
 7948SOL    HW224744   1.278   4.409   2.150
 7949SOL     OW24745   3.452   5.471   6.647
 7949SOL    HW124746   3.490   5.388   6.688
 7949SOL    HW224747   3.368   5.496   6.695
 7950SOL     OW24748   5.314   5.135   5.338
 7950SOL    HW124749   5.369   5.219   5.346
 7950SOL    HW224750   5.285   5.124   5.243
 7951SOL     OW24751   2.723   5.626   3.153
 7951SOL    HW124752   2.801   5.636   3.214
 7951SOL    HW224753   2.675   5.713   3.146
 7952SOL     OW24754   5.488   3.632   6.747
 7952SOL    HW124755   5.390   3.625   6.726
 7952SOL    HW224756   5.522   3.723   6.722
 7953SOL     OW24757   2.247   0.769   1.133
 7953SOL    HW124758   2.218   0.688   1.082
 7953SOL    HW224759   2.278   0.839   1.069
 7954SOL     OW24760   3.497   3.180   6.659
 7954SOL    HW124761   3.586   3.219   6.683
 7954SOL    HW224762   3.431   3.203   6.730
 7955SOL     OW24763   1.622   1.433   7.013
 7955SOL    HW124764   1.623   1.445   0.087
 7955SOL    HW224765   1.645   1.339   6.991
 7956SOL     OW24766   6.024   6.217   0.700
 7956SOL    HW124767   6.088   6.185   0.630
 7956SOL    HW224768   6.038   6.315   0.715
 7957SOL     OW24769   4.731   0.745   5.014
 7957SOL    HW124770   4.722   0.663   4.958
 7957SOL    HW224771   4.641   0.775   5.046
 7958SOL     OW24772   5.788   2.296   7.001
 7958SOL    HW124773   5.807   2.369   6.935
 7958SOL    HW224774   5.873   2.267   0.019
 7959SOL     OW24775   5.833   1.662   6.353
 7959SOL    HW124776   5.836   1.644   6.255
 7959SOL    HW224777   5.782   1.590   6.399
 7960SOL     OW24778   0.933   0.542   5.719
 7960SOL    HW124779   0.916   0.602   5.642
 7960SOL    HW224780   0.851   0.488   5.739
 7961SOL     OW24781   6.582   6.402   0.705
 7961SOL    HW124782   6.611   6.377   0.798
 7961SOL    HW224783   6.567   6.500   0.700
 7962SOL     OW24784   5.493   6.795   5.694
 7962SOL    HW124785   5.445   6.856   5.757
 7962SOL    HW224786   5.436   6.715   5.675
 7963SOL     OW24787   0.207   4.989   4.727
 7963SOL    HW124788   0.196   4.949   4.636
 7963SOL    HW224789   0.305   5.000   4.746
 7964SOL     OW24790   6.588   4.281   2.464
 7964SOL    HW124791   6.668   4.314   2.514
 7964SOL    HW224792   6.530   4.358   2.439
 7965SOL     OW24793   3.558   2.412   6.520
 7965SOL    HW124794   3.551   2.361   6.606
 7965SOL    HW224795   3.604   2.499   6.536
 7966SOL     OW24796   4.875   3.860   5.135
 7966SOL    HW124797   4.805   3.929   5.154
 7966SOL    HW224798   4.831   3.776   5.105
 7967SOL     OW24799   1.613   4.419   2.473
 7967SOL    HW124800   1.674   4.360   2.419
 7967SOL    HW224801   1.520   4.411   2.439
 7968SOL     OW24802   0.191   2.501   4.343
 7968SOL    HW124803   0.241   2.563   4.404
 7968SOL    HW224804   0.220   2.407   4.361
 7969SOL     OW24805   4.732   5.031   0.060
 7969SOL    HW124806   4.788   5.077   7.016
 7969SOL    HW224807   4.645   5.002   0.020
 7970SOL     OW24808   5.688   2.895   2.141
 7970SOL    HW124809   5.650   2.921   2.052
 7970SOL    HW224810   5.613   2.869   2.202
 7971SOL     OW24811   2.987   1.011   0.293
 7971SOL    HW124812   2.930   0.946   0.242
 7971SOL    HW224813   2.968   1.001   0.391
 7972SOL     OW24814   3.411   3.841   2.792
 7972SOL    HW124815   3.419   3.810   2.887
 7972SOL    HW224816   3.450   3.933   2.783
 7973SOL     OW24817   6.078   3.705   2.339
 7973SOL    HW124818   6.172   3.731   2.315
 7973SOL    HW224819   6.039   3.650   2.265
 7974SOL     OW24820   6.677   2.274   6.108
 7974SOL    HW124821   6.758   2.303   6.159
 7974SOL    HW224822   6.647   2.185   6.143
 7975SOL     OW24823   4.963   0.431   1.069
 7975SOL    HW124824   5.035   0.499   1.079
 7975SOL    HW224825   4.876   0.469   1.101
 7976SOL     OW24826   0.793   0.176   6.857
 7976SOL    HW124827   0.872   0.237   6.852
 7976SOL    HW224828   0.825   0.082   6.873
 7977SOL     OW24829   5.933   5.798   2.749
 7977SOL    HW124830   5.965   5.780   2.842
 7977SOL    HW224831   6.011   5.802   2.687
 7978SOL     OW24832   0.508   4.473   1.382
 7978SOL    HW124833   0.569   4.394   1.376
 7978SOL    HW224834   0.478   4.485   1.477
 7979SOL     OW24835   1.712   2.869   4.412
 7979SOL    HW124836   1.783   2.913   4.466
 7979SOL    HW224837   1.752   2.792   4.361
 7980SOL     OW24838   4.145   5.689   6.784
 7980SOL    HW124839   4.210   5.634   6.732
 7980SOL    HW224840   4.077   5.629   6.827
 7981SOL     OW24841   1.582   4.345   2.809
 7981SOL    HW124842   1.530   4.260   2.802
 7981SOL    HW224843   1.643   4.341   2.888
 7982SOL     OW24844   0.012   1.933   5.221
 7982SOL    HW124845   0.102   1.961   5.252
 7982SOL    HW224846   6.969   1.958   5.289
 7983SOL     OW24847   4.843   1.791   2.113
 7983SOL    HW124848   4.787   1.829   2.187
 7983SOL    HW224849   4.826   1.693   2.106
 7984SOL     OW24850   0.621   2.170   2.550
 7984SOL    HW124851   0.660   2.087   2.589
 7984SOL    HW224852   0.648   2.249   2.605
 7985SOL     OW24853   2.535   2.036   5.300
 7985SOL    HW124854   2.484   1.996   5.224
 7985SOL    HW224855   2.524   1.980   5.382
 7986SOL     OW24856   2.692   1.059   3.912
 7986SOL    HW124857   2.597   1.089   3.905
 7986SOL    HW224858   2.727   1.038   3.821
 7987SOL     OW24859   1.440   3.179   0.233
 7987SOL    HW124860   1.420   3.195   0.330
 7987SOL    HW224861   1.354   3.162   0.184
 7988SOL     OW24862   0.140   1.696   0.765
 7988SOL    HW124863   0.100   1.642   0.840
 7988SOL    HW224864   0.239   1.695   0.772
 7989SOL     OW24865   0.410   4.447   0.267
 7989SOL    HW124866   0.487   4.396   0.230
 7989SOL    HW224867   0.410   4.440   0.367
 7990SOL     OW24868   3.593   5.379   5.385
 7990SOL    HW124869   3.644   5.385   5.299
 7990SOL    HW224870   3.595   5.285   5.419
 7991SOL     OW24871   6.449   1.388   4.875
 7991SOL    HW124872   6.381   1.460   4.890
 7991SOL    HW224873   6.402   1.306   4.841
 7992SOL     OW24874   2.606   0.487   0.673
 7992SOL    HW124875   2.584   0.581   0.647
 7992SOL    HW224876   2.570   0.424   0.604
 7993SOL     OW24877   6.621   6.003   1.151
 7993SOL    HW124878   6.717   6.020   1.132
 7993SOL    HW224879   6.596   6.048   1.237
 7994SOL     OW24880   5.725   0.548   3.009
 7994SOL    HW124881   5.743   0.453   3.034
 7994SOL    HW224882   5.630   0.557   2.980
 7995SOL     OW24883   0.224   4.539   1.228
 7995SOL    HW124884   0.226   4.636   1.202
 7995SOL    HW224885   0.300   4.520   1.290
 7996SOL     OW24886   3.581   0.493   2.965
 7996SOL    HW124887   3.489   0.527   2.983
 7996SOL    HW224888   3.637   0.503   3.047
 7997SOL     OW24889   0.653   2.600   0.171
 7997SOL    HW124890   0.734   2.589   0.228
 7997SOL    HW224891   0.613   2.690   0.185
 7998SOL     OW24892   2.377   1.524   0.753
 7998SOL    HW124893   2.455   1.478   0.711
 7998SOL    HW224894   2.296   1.465   0.747
 7999SOL     OW24895   0.682   0.716   4.840
 7999SOL    HW124896   0.669   0.625   4.880
 7999SOL    HW224897   0.632   0.784   4.893
 8000SOL     OW24898   5.029   5.580   6.911
 8000SOL    HW124899   5.024   5.600   6.813
 8000SOL    HW224900   4.949   5.618   6.957
 8001SOL     OW24901   4.609   6.551   1.199
 8001SOL    HW124902   4.559   6.628   1.160
 8001SOL    HW224903   4.604   6.473   1.136
 8002SOL     OW24904   0.911   6.915   5.089
 8002SOL    HW124905   0.932   6.977   5.014
 8002SOL    HW224906   0.933   6.959   5.176
 8003SOL     OW24907   2.697   6.328   2.607
 8003SOL    HW124908   2.677   6.238   2.568
 8003SOL    HW224909   2.734   6.387   2.535
 8004SOL     OW24910   1.310   3.171   3.724
 8004SOL    HW124911   1.326   3.269   3.714
 8004SOL    HW224912   1.213   3.155   3.745
 8005SOL     OW24913   2.732   0.715   3.279
 8005SOL    HW124914   2.689   0.777   3.214
 8005SOL    HW224915   2.824   0.692   3.248
 8006SOL     OW24916   3.438   4.737   5.213
 8006SOL    HW124917   3.342   4.755   5.238
 8006SOL    HW224918   3.473   4.662   5.268
 8007SOL     OW24919   6.098   0.473   6.398
 8007SOL    HW124920   6.174   0.462   6.333
 8007SOL    HW224921   6.090   0.391   6.453
 8008SOL     OW24922   5.220   6.906   6.219
 8008SOL    HW124923   5.319   6.903   6.205
 8008SOL    HW224924   5.175   6.918   6.130
 8009SOL     OW24925   4.808   1.275   6.490
 8009SOL    HW124926   4.808   1.374   6.501
 8009SOL    HW224927   4.866   1.251   6.412
 8010SOL     OW24928   2.542   1.964   5.599
 8010SOL    HW124929   2.632   2.002   5.618
 8010SOL    HW224930   2.479   2.038   5.574
 8011SOL     OW24931   3.846   1.586   1.992
 8011SOL    HW124932   3.916   1.548   1.932
 8011SOL    HW224933   3.883   1.597   2.084
 8012SOL     OW24934   0.024   2.457   5.599
 8012SOL    HW124935   6.982   2.503   5.657
 8012SOL    HW224936   7.025   2.361   5.589
 8013SOL     OW24937   2.708   2.219   2.911
 8013SOL    HW124938   2.802   2.197   2.938
 8013SOL    HW224939   2.710   2.285   2.836
 8014SOL     OW24940   1.891   1.059   2.703
 8014SOL    HW124941   1.977   1.046   2.653
 8014SOL    HW224942   1.875   1.157   2.717
 8015SOL     OW24943   2.426   6.941   5.495
 8015SOL    HW124944   2.332   6.975   5.498
 8015SOL    HW224945   2.455   6.931   5.400
 8016SOL     OW24946   4.466   1.220   4.885
 8016SOL    HW124947   4.430   1.149   4.945
 8016SOL    HW224948   4.553   1.190   4.846
 8017SOL     OW24949   6.513   6.521   1.296
 8017SOL    HW124950   6.544   6.607   1.255
 8017SOL    HW224951   6.591   6.461   1.311
 8018SOL     OW24952   3.959   2.415   0.089
 8018SOL    HW124953   4.042   2.454   0.050
 8018SOL    HW224954   3.961   2.315   0.079
 8019SOL     OW24955   2.425   3.449   1.438
 8019SOL    HW124956   2.397   3.359   1.406
 8019SOL    HW224957   2.524   3.452   1.449
 8020SOL     OW24958   0.258   0.274   5.447
 8020SOL    HW124959   0.341   0.235   5.484
 8020SOL    HW224960   0.222   0.215   5.374
 8021SOL     OW24961   1.351   2.371   2.131
 8021SOL    HW124962   1.422   2.425   2.087
 8021SOL    HW224963   1.326   2.294   2.073
 8022SOL     OW24964   4.500   1.298   1.838
 8022SOL    HW124965   4.544   1.388   1.838
 8022SOL    HW224966   4.505   1.259   1.929
 8023SOL     OW24967   4.674   5.565   2.969
 8023SOL    HW124968   4.598   5.541   3.028
 8023SOL    HW224969   4.640   5.606   2.885
 8024SOL     OW24970   1.987   0.680   6.552
 8024SOL    HW124971   2.057   0.656   6.485
 8024SOL    HW224972   1.900   0.694   6.507
 8025SOL     OW24973   1.909   5.047   1.012
 8025SOL    HW124974   1.839   5.001   0.958
 8025SOL    HW224975   1.872   5.071   1.101
 8026SOL     OW24976   1.154   5.567   6.285
 8026SOL    HW124977   1.178   5.478   6.245
 8026SOL    HW224978   1.097   5.553   6.366
 8027SOL     OW24979   3.328   6.964   0.203
 8027SOL    HW124980   3.258   6.929   0.266
 8027SOL    HW224981   3.320   6.918   0.115
 8028SOL     OW24982   3.210   5.494   5.088
 8028SOL    HW124983   3.129   5.524   5.037
 8028SOL    HW224984   3.194   5.507   5.186
 8029SOL     OW24985   6.476   6.722   0.419
 8029SOL    HW124986   6.443   6.816   0.424
 8029SOL    HW224987   6.480   6.683   0.511
 8030SOL     OW24988   0.970   3.898   0.555
 8030SOL    HW124989   0.927   3.981   0.518
 8030SOL    HW224990   0.936   3.818   0.506
 8031SOL     OW24991   6.600   1.439   2.608
 8031SOL    HW124992   6.611   1.352   2.559
 8031SOL    HW224993   6.670   1.447   2.678
 8032SOL     OW24994   5.482   2.885   1.317
 8032SOL    HW124995   5.517   2.828   1.391
 8032SOL    HW224996   5.523   2.856   1.230
 8033SOL     OW24997   4.528   3.672   0.838
 8033SOL    HW124998   4.481   3.740   0.783
 8033SOL    HW224999   4.530   3.703   0.933
 8034SOL     OW25000   5.885   0.300   5.377
 8034SOL    HW125001   5.829   0.377   5.410
 8034SOL    HW225002   5.959   0.335   5.320
 8035SOL     OW25003   5.810   1.801   3.213
 8035SOL    HW125004   5.893   1.855   3.206
 8035SOL    HW225005   5.738   1.841   3.157
 8036SOL     OW25006   5.935   2.660   3.737
 8036SOL    HW125007   5.891   2.749   3.723
 8036SOL    HW225008   5.967   2.625   3.649
 8037SOL     OW25009   1.037   2.627   5.922
 8037SOL    HW125010   1.077   2.716   5.899
 8037SOL    HW225011   1.075   2.557   5.861
 8038SOL     OW25012   0.403   5.129   2.930
 8038SOL    HW125013   0.474   5.199   2.941
 8038SOL    HW225014   0.423   5.053   2.992
 8039SOL     OW25015   1.338   2.523   5.483
 8039SOL    HW125016   1.402   2.599   5.493
 8039SOL    HW225017   1.250   2.557   5.450
 8040SOL     OW25018   2.302   6.015   5.786
 8040SOL    HW125019   2.243   6.035   5.865
 8040SOL    HW225020   2.325   5.917   5.785
 8041SOL     OW25021   4.004   1.165   3.401
 8041SOL    HW125022   4.104   1.158   3.396
 8041SOL    HW225023   3.963   1.123   3.320
 8042SOL     OW25024   4.031   4.262   5.602
 8042SOL    HW125025   4.045   4.216   5.514
 8042SOL    HW225026   3.947   4.227   5.645
 8043SOL     OW25027   5.412   4.947   6.742
 8043SOL    HW125028   5.482   5.016   6.726
 8043SOL    HW225029   5.385   4.948   6.838
 8044SOL     OW25030   3.347   3.542   1.665
 8044SOL    HW125031   3.331   3.566   1.760
 8044SOL    HW225032   3.287   3.597   1.606
 8045SOL     OW25033   0.434   1.310   2.723
 8045SOL    HW125034   0.494   1.231   2.732
 8045SOL    HW225035   0.374   1.315   2.803
 8046SOL     OW25036   0.492   5.227   2.282
 8046SOL    HW125037   0.559   5.276   2.227
 8046SOL    HW225038   0.513   5.239   2.379
 8047SOL     OW25039   3.500   6.766   6.687
 8047SOL    HW125040   3.523   6.855   6.647
 8047SOL    HW225041   3.543   6.693   6.634
 8048SOL     OW25042   3.772   2.823   6.930
 8048SOL    HW125043   3.842   2.752   6.930
 8048SOL    HW225044   3.695   2.794   6.987
 8049SOL     OW25045   1.417   1.385   0.633
 8049SOL    HW125046   1.471   1.465   0.606
 8049SOL    HW225047   1.422   1.316   0.561
 8050SOL     OW25048   0.478   4.419   5.997
 8050SOL    HW125049   0.569   4.398   5.960
 8050SOL    HW225050   0.412   4.419   5.922
 8051SOL     OW25051   3.641   5.682   3.761
 8051SOL    HW125052   3.700   5.632   3.825
 8051SOL    HW225053   3.545   5.664   3.782
 8052SOL     OW25054   2.186   2.551   2.446
 8052SOL    HW125055   2.112   2.505   2.397
 8052SOL    HW225056   2.269   2.548   2.391
 8053SOL     OW25057   2.369   2.787   6.444
 8053SOL    HW125058   2.455   2.743   6.470
 8053SOL    HW225059   2.297   2.718   6.440
 8054SOL     OW25060   5.390   3.392   5.272
 8054SOL    HW125061   5.319   3.436   5.217
 8054SOL    HW225062   5.368   3.295   5.283
 8055SOL     OW25063   6.739   0.137   6.336
 8055SOL    HW125064   6.765   0.228   6.368
 8055SOL    HW225065   6.815   0.074   6.351
 8056SOL     OW25066   2.500   1.277   4.300
 8056SOL    HW125067   2.524   1.281   4.397
 8056SOL    HW225068   2.402   1.295   4.289
 8057SOL     OW25069   2.661   2.329   2.236
 8057SOL    HW125070   2.698   2.292   2.321
 8057SOL    HW225071   2.734   2.341   2.169
 8058SOL     OW25072   3.272   6.310   2.856
 8058SOL    HW125073   3.227   6.255   2.926
 8058SOL    HW225074   3.245   6.405   2.866
 8059SOL     OW25075   2.605   3.045   6.394
 8059SOL    HW125076   2.589   3.045   6.295
 8059SOL    HW225077   2.521   3.073   6.441
 8060SOL     OW25078   6.421   6.968   5.812
 8060SOL    HW125079   6.440   0.038   5.836
 8060SOL    HW225080   6.457   6.908   5.883
 8061SOL     OW25081   6.696   0.560   1.969
 8061SOL    HW125082   6.726   0.564   2.065
 8061SOL    HW225083   6.597   0.546   1.966
 8062SOL     OW25084   4.190   5.755   5.858
 8062SOL    HW125085   4.231   5.823   5.918
 8062SOL    HW225086   4.245   5.672   5.859
 8063SOL     OW25087   3.818   5.912   3.152
 8063SOL    HW125088   3.876   5.979   3.107
 8063SOL    HW225089   3.832   5.917   3.251
 8064SOL     OW25090   6.093   1.850   0.691
 8064SOL    HW125091   6.046   1.768   0.658
 8064SOL    HW225092   6.027   1.912   0.732
 8065SOL     OW25093   3.189   5.499   5.781
 8065SOL    HW125094   3.133   5.551   5.717
 8065SOL    HW225095   3.206   5.408   5.744
 8066SOL     OW25096   0.258   6.800   4.668
 8066SOL    HW125097   0.224   6.832   4.579
 8066SOL    HW225098   0.222   6.709   4.687
 8067SOL     OW25099   5.143   3.273   3.517
 8067SOL    HW125100   5.219   3.302   3.575
 8067SOL    HW225101   5.121   3.345   3.451
 8068SOL     OW25102   6.467   4.149   1.159
 8068SOL    HW125103   6.415   4.068   1.134
 8068SOL    HW225104   6.471   4.212   1.081
 8069SOL     OW25105   2.541   4.786   2.709
 8069SOL    HW125106   2.545   4.874   2.756
 8069SOL    HW225107   2.634   4.752   2.694
 8070SOL     OW25108   5.266   4.808   0.028
 8070SOL    HW125109   5.297   4.902   0.045
 8070SOL    HW225110   5.171   4.809   7.024
 8071SOL     OW25111   2.813   6.979   5.741
 8071SOL    HW125112   2.742   0.008   5.695
 8071SOL    HW225113   2.881   0.015   5.781
 8072SOL     OW25114   1.815   2.678   6.066
 8072SOL    HW125115   1.811   2.706   5.971
 8072SOL    HW225116   1.802   2.757   6.126
 8073SOL     OW25117   3.853   0.357   6.618
 8073SOL    HW125118   3.785   0.382   6.549
 8073SOL    HW225119   3.808   0.317   6.697
 8074SOL     OW25120   1.525   1.274   6.643
 8074SOL    HW125121   1.487   1.257   6.552
 8074SOL    HW225122   1.605   1.333   6.635
 8075SOL     OW25123   0.675   6.736   0.633
 8075SOL    HW125124   0.594   6.683   0.607
 8075SOL    HW225125   0.745   6.675   0.670
 8076SOL     OW25126   0.068   6.412   0.727
 8076SOL    HW125127   7.021   6.345   0.712
 8076SOL    HW225128   0.143   6.394   0.663
 8077SOL     OW25129   3.948   5.161   0.618
 8077SOL    HW125130   3.978   5.165   0.713
 8077SOL    HW225131   3.935   5.066   0.591
 8078SOL     OW25132   0.389   0.332   1.986
 8078SOL    HW125133   0.480   0.365   2.009
 8078SOL    HW225134   0.332   0.410   1.958
 8079SOL     OW25135   1.413   2.420   5.078
 8079SOL    HW125136   1.443   2.396   5.170
 8079SOL    HW225137   1.492   2.421   5.017
 8080SOL     OW25138   1.281   3.278   3.030
 8080SOL    HW125139   1.295   3.334   2.948
 8080SOL    HW225140   1.182   3.269   3.046
 8081SOL     OW25141   6.464   5.829   4.611
 8081SOL    HW125142   6.518   5.787   4.538
 8081SOL    HW225143   6.367   5.810   4.596
 8082SOL     OW25144   3.660   2.004   1.850
 8082SOL    HW125145   3.666   2.086   1.907
 8082SOL    HW225146   3.637   2.030   1.756
 8083SOL     OW25147   5.911   2.678   4.735
 8083SOL    HW125148   5.844   2.628   4.790
 8083SOL    HW225149   5.921   2.633   4.646
 8084SOL     OW25150   2.918   0.712   6.573
 8084SOL    HW125151   2.879   0.625   6.543
 8084SOL    HW225152   2.844   0.778   6.587
 8085SOL     OW25153   0.713   6.187   4.765
 8085SOL    HW125154   0.645   6.190   4.837
 8085SOL    HW225155   0.723   6.278   4.725
 8086SOL     OW25156   0.071   1.292   1.970
 8086SOL    HW125157   0.137   1.249   2.032
 8086SOL    HW225158   0.099   1.273   1.876
 8087SOL     OW25159   0.820   0.828   0.870
 8087SOL    HW125160   0.875   0.749   0.843
 8087SOL    HW225161   0.833   0.903   0.805
 8088SOL     OW25162   5.738   6.928   5.077
 8088SOL    HW125163   5.748   7.000   5.008
 8088SOL    HW225164   5.653   6.878   5.060
 8089SOL     OW25165   5.031   2.737   5.841
 8089SOL    HW125166   5.092   2.804   5.799
 8089SOL    HW225167   5.073   2.702   5.925
 8090SOL     OW25168   3.997   1.606   5.796
 8090SOL    HW125169   4.025   1.684   5.851
 8090SOL    HW225170   3.900   1.612   5.776
 8091SOL     OW25171   1.637   4.623   4.586
 8091SOL    HW125172   1.577   4.609   4.665
 8091SOL    HW225173   1.715   4.561   4.592
 8092SOL     OW25174   5.070   2.446   5.664
 8092SOL    HW125175   5.086   2.358   5.620
 8092SOL    HW225176   5.035   2.431   5.756
 8093SOL     OW25177   4.394   6.843   2.214
 8093SOL    HW125178   4.323   6.863   2.282
 8093SOL    HW225179   4.468   6.792   2.257
 8094SOL     OW25180   1.445   3.869   3.576
 8094SOL    HW125181   1.428   3.799   3.644
 8094SOL    HW225182   1.504   3.833   3.505
 8095SOL     OW25183   1.126   4.422   5.937
 8095SOL    HW125184   1.056   4.447   5.869
 8095SOL    HW225185   1.082   4.378   6.015
 8096SOL     OW25186   1.174   6.250   2.090
 8096SOL    HW125187   1.201   6.177   2.153
 8096SOL    HW225188   1.092   6.222   2.040
 8097SOL     OW25189   3.920   5.274   5.370
 8097SOL    HW125190   3.917   5.299   5.273
 8097SOL    HW225191   3.858   5.198   5.387
 8098SOL     OW25192   1.183   5.525   5.104
 8098SOL    HW125193   1.183   5.617   5.143
 8098SOL    HW225194   1.092   5.504   5.068
 8099SOL     OW25195   2.513   5.729   3.859
 8099SOL    HW125196   2.577   5.673   3.806
 8099SOL    HW225197   2.479   5.675   3.937
 8100SOL     OW25198   0.135   0.332   6.298
 8100SOL    HW125199   0.089   0.254   6.340
 8100SOL    HW225200   0.208   0.364   6.358
 8101SOL     OW25201   2.688   5.950   1.950
 8101SOL    HW125202   2.649   5.863   1.978
 8101SOL    HW225203   2.616   6.018   1.942
 8102SOL     OW25204   1.431   2.887   4.446
 8102SOL    HW125205   1.385   2.822   4.386
 8102SOL    HW225206   1.530   2.875   4.438
 8103SOL     OW25207   3.625   1.397   2.373
 8103SOL    HW125208   3.603   1.306   2.338
 8103SOL    HW225209   3.566   1.465   2.330
 8104SOL     OW25210   2.264   6.755   0.278
 8104SOL    HW125211   2.209   6.806   0.212
 8104SOL    HW225212   2.264   6.803   0.366
 8105SOL     OW25213   6.859   1.417   2.458
 8105SOL    HW125214   6.804   1.440   2.378
 8105SOL    HW225215   6.921   1.342   2.436
 8106SOL     OW25216   2.389   6.205   4.787
 8106SOL    HW125217   2.300   6.213   4.741
 8106SOL    HW225218   2.377   6.220   4.885
 8107SOL     OW25219   1.695   5.767   5.267
 8107SOL    HW125220   1.792   5.775   5.241
 8107SOL    HW225221   1.673   5.672   5.285
 8108SOL     OW25222   0.007   1.323   0.034
 8108SOL    HW125223   0.060   1.407   0.020
 8108SOL    HW225224   0.067   1.250   0.066
 8109SOL     OW25225   6.440   2.958   0.183
 8109SOL    HW125226   6.510   2.998   0.242
 8109SOL    HW225227   6.469   2.867   0.154
 8110SOL     OW25228   4.119   5.391   0.520
 8110SOL    HW125229   4.095   5.384   0.423
 8110SOL    HW225230   4.121   5.300   0.561
 8111SOL     OW25231   5.856   1.146   3.017
 8111SOL    HW125232   5.911   1.201   2.954
 8111SOL    HW225233   5.759   1.168   3.004
 8112SOL     OW25234   0.624   2.842   5.639
 8112SOL    HW125235   0.583   2.859   5.729
 8112SOL    HW225236   0.696   2.909   5.622
 8113SOL     OW25237   6.174   2.859   0.979
 8113SOL    HW125238   6.174   2.912   1.064
 8113SOL    HW225239   6.192   2.763   0.999
 8114SOL     OW25240   2.170   4.359   1.936
 8114SOL    HW125241   2.148   4.268   1.900
 8114SOL    HW225242   2.106   4.382   2.009
 8115SOL     OW25243   2.530   0.705   0.120
 8115SOL    HW125244   2.445   0.687   0.169
 8115SOL    HW225245   2.522   0.791   0.070
 8116SOL     OW25246   2.970   4.711   1.504
 8116SOL    HW125247   2.916   4.626   1.507
 8116SOL    HW225248   2.991   4.740   1.597
 8117SOL     OW25249   2.967   6.739   3.107
 8117SOL    HW125250   3.046   6.778   3.059
 8117SOL    HW225251   2.929   6.807   3.169
 8118SOL     OW25252   6.263   3.143   0.272
 8118SOL    HW125253   6.338   3.116   0.212
 8118SOL    HW225254   6.195   3.070   0.276
 8119SOL     OW25255   5.822   5.603   6.452
 8119SOL    HW125256   5.848   5.603   6.548
 8119SOL    HW225257   5.900   5.575   6.396
 8120SOL     OW25258   2.105   6.261   0.916
 8120SOL    HW125259   2.074   6.191   0.981
 8120SOL    HW225260   2.060   6.348   0.936
 8121SOL     OW25261   1.341   3.172   2.442
 8121SOL    HW125262   1.269   3.239   2.462
 8121SOL    HW225263   1.307   3.080   2.463
 8122SOL     OW25264   1.001   4.384   2.323
 8122SOL    HW125265   0.999   4.300   2.378
 8122SOL    HW225266   0.946   4.371   2.240
 8123SOL     OW25267   0.564   1.495   5.891
 8123SOL    HW125268   0.592   1.472   5.798
 8123SOL    HW225269   0.632   1.460   5.956
 8124SOL     OW25270   5.720   5.085   4.251
 8124SOL    HW125271   5.658   5.032   4.193
 8124SOL    HW225272   5.750   5.029   4.329
 8125SOL     OW25273   0.921   0.143   2.349
 8125SOL    HW125274   0.982   0.121   2.425
 8125SOL    HW225275   0.972   0.140   2.263
 8126SOL     OW25276   3.859   4.886   4.376
 8126SOL    HW125277   3.922   4.870   4.452
 8126SOL    HW225278   3.777   4.933   4.410
 8127SOL     OW25279   3.177   2.890   0.304
 8127SOL    HW125280   3.128   2.940   0.375
 8127SOL    HW225281   3.145   2.919   0.214
 8128SOL     OW25282   3.471   2.746   1.947
 8128SOL    HW125283   3.552   2.804   1.942
 8128SOL    HW225284   3.446   2.732   2.043
 8129SOL     OW25285   1.557   2.802   0.438
 8129SOL    HW125286   1.595   2.870   0.376
 8129SOL    HW225287   1.631   2.748   0.479
 8130SOL     OW25288   1.450   5.322   6.407
 8130SOL    HW125289   1.411   5.387   6.473
 8130SOL    HW225290   1.398   5.236   6.410
 8131SOL     OW25291   2.258   3.690   1.213
 8131SOL    HW125292   2.329   3.623   1.237
 8131SOL    HW225293   2.278   3.729   1.123
 8132SOL     OW25294   6.653   6.851   4.540
 8132SOL    HW125295   6.700   6.775   4.584
 8132SOL    HW225296   6.699   6.937   4.563
 8133SOL     OW25297   3.213   4.874   1.006
 8133SOL    HW125298   3.186   4.784   0.974
 8133SOL    HW225299   3.143   4.941   0.981
 8134SOL     OW25300   5.925   0.873   5.181
 8134SOL    HW125301   5.986   0.824   5.119
 8134SOL    HW225302   5.969   0.881   5.271
 8135SOL     OW25303   2.508   6.990   1.610
 8135SOL    HW125304   2.421   7.024   1.575
 8135SOL    HW225305   2.513   6.891   1.598
 8136SOL     OW25306   4.307   5.164   2.592
 8136SOL    HW125307   4.255   5.246   2.616
 8136SOL    HW225308   4.405   5.185   2.591
 8137SOL     OW25309   3.852   1.710   4.644
 8137SOL    HW125310   3.943   1.726   4.681
 8137SOL    HW225311   3.783   1.730   4.713
 8138SOL     OW25312   5.337   1.122   1.316
 8138SOL    HW125313   5.400   1.159   1.385
 8138SOL    HW225314   5.377   1.134   1.225
 8139SOL     OW25315   0.949   1.716   2.631
 8139SOL    HW125316   0.902   1.778   2.693
 8139SOL    HW225317   1.044   1.706   2.659
 8140SOL     OW25318   3.996   1.447   3.528
 8140SOL    HW125319   4.071   1.498   3.569
 8140SOL    HW225320   4.030   1.362   3.490
 8141SOL     OW25321   4.140   5.531   5.081
 8141SOL    HW125322   4.188   5.447   5.055
 8141SOL    HW225323   4.114   5.581   4.998
 8142SOL     OW25324   6.105   5.050   0.429
 8142SOL    HW125325   6.162   4.969   0.440
 8142SOL    HW225326   6.015   5.034   0.470
 8143SOL     OW25327   5.980   4.347   5.815
 8143SOL    HW125328   5.986   4.377   5.719
 8143SOL    HW225329   5.975   4.428   5.874
 8144SOL     OW25330   5.426   6.512   7.024
 8144SOL    HW125331   5.337   6.468   7.012
 8144SOL    HW225332   5.467   6.529   6.935
 8145SOL     OW25333   6.081   5.793   2.534
 8145SOL    HW125334   6.049   5.799   2.440
 8145SOL    HW225335   6.162   5.734   2.538
 8146SOL     OW25336   3.318   1.046   5.735
 8146SOL    HW125337   3.306   0.995   5.650
 8146SOL    HW225338   3.271   1.134   5.728
 8147SOL     OW25339   5.363   1.941   4.218
 8147SOL    HW125340   5.376   1.870   4.287
 8147SOL    HW225341   5.302   1.907   4.146
 8148SOL     OW25342   5.917   3.217   2.880
 8148SOL    HW125343   6.014   3.195   2.877
 8148SOL    HW225344   5.867   3.157   2.818
 8149SOL     OW25345   4.277   5.121   3.599
 8149SOL    HW125346   4.191   5.081   3.631
 8149SOL    HW225347   4.259   5.188   3.527
 8150SOL     OW25348   1.064   5.353   6.494
 8150SOL    HW125349   0.993   5.286   6.471
 8150SOL    HW225350   1.154   5.310   6.484
 8151SOL     OW25351   1.380   2.120   5.301
 8151SOL    HW125352   1.376   2.050   5.372
 8151SOL    HW225353   1.350   2.081   5.214
 8152SOL     OW25354   1.870   0.647   3.344
 8152SOL    HW125355   1.871   0.734   3.393
 8152SOL    HW225356   1.804   0.652   3.269
 8153SOL     OW25357   2.824   6.199   0.915
 8153SOL    HW125358   2.786   6.287   0.946
 8153SOL    HW225359   2.779   6.172   0.830
 8154SOL     OW25360   1.939   6.724   3.817
 8154SOL    HW125361   1.932   6.649   3.751
 8154SOL    HW225362   1.857   6.726   3.874
 8155SOL     OW25363   3.167   3.528   3.120
 8155SOL    HW125364   3.247   3.471   3.133
 8155SOL    HW225365   3.192   3.610   3.069
 8156SOL     OW25366   5.721   0.715   5.294
 8156SOL    HW125367   5.787   0.765   5.238
 8156SOL    HW225368   5.643   0.775   5.315
 8157SOL     OW25369   5.741   4.390   6.856
 8157SOL    HW125370   5.796   4.346   6.786
 8157SOL    HW225371   5.778   4.370   6.946
 8158SOL     OW25372   1.564   5.288   1.892
 8158SOL    HW125373   1.470   5.321   1.899
 8158SOL    HW225374   1.627   5.365   1.899
 8159SOL     OW25375   1.876   5.942   2.417
 8159SOL    HW125376   1.894   6.031   2.376
 8159SOL    HW225377   1.846   5.878   2.346
 8160SOL     OW25378   4.115   2.310   1.739
 8160SOL    HW125379   4.074   2.400   1.722
 8160SOL    HW225380   4.062   2.263   1.810
 8161SOL     OW25381   4.891   1.385   0.074
 8161SOL    HW125382   4.808   1.407   0.023
 8161SOL    HW225383   4.866   1.359   0.168
 8162SOL     OW25384   5.265   6.986   1.190
 8162SOL    HW125385   5.350   0.010   1.172
 8162SOL    HW225386   5.187   0.016   1.162
 8163SOL     OW25387   2.281   4.085   5.360
 8163SOL    HW125388   2.337   4.167   5.346
 8163SOL    HW225389   2.319   4.010   5.306
 8164SOL     OW25390   4.392   2.315   1.859
 8164SOL    HW125391   4.432   2.223   1.858
 8164SOL    HW225392   4.294   2.308   1.840
 8165SOL     OW25393   2.309   4.583   1.526
 8165SOL    HW125394   2.223   4.550   1.488
 8165SOL    HW225395   2.306   4.577   1.626
 8166SOL     OW25396   2.793   6.849   1.735
 8166SOL    HW125397   2.769   6.752   1.741
 8166SOL    HW225398   2.741   6.901   1.803
 8167SOL     OW25399   5.985   2.699   3.997
 8167SOL    HW125400   5.966   2.683   3.900
 8167SOL    HW225401   6.082   2.685   4.015
 8168SOL     OW25402   3.819   0.953   3.258
 8168SOL    HW125403   3.919   0.954   3.253
 8168SOL    HW225404   3.782   0.927   3.169
 8169SOL     OW25405   4.309   3.600   6.561
 8169SOL    HW125406   4.382   3.558   6.507
 8169SOL    HW225407   4.287   3.690   6.523
 8170SOL     OW25408   0.773   5.658   4.077
 8170SOL    HW125409   0.803   5.565   4.097
 8170SOL    HW225410   0.720   5.659   3.993
 8171SOL     OW25411   0.868   2.590   5.632
 8171SOL    HW125412   0.873   2.586   5.731
 8171SOL    HW225413   0.789   2.536   5.600
 8172SOL     OW25414   0.672   6.509   1.104
 8172SOL    HW125415   0.726   6.561   1.038
 8172SOL    HW225416   0.717   6.512   1.193
 8173SOL     OW25417   4.318   2.237   6.723
 8173SOL    HW125418   4.286   2.255   6.630
 8173SOL    HW225419   4.257   2.171   6.767
 8174SOL     OW25420   5.644   1.077   2.076
 8174SOL    HW125421   5.590   1.019   2.136
 8174SOL    HW225422   5.622   1.057   1.980
 8175SOL     OW25423   0.712   2.869   6.334
 8175SOL    HW125424   0.615   2.846   6.334
 8175SOL    HW225425   0.733   2.920   6.251
 8176SOL     OW25426   2.578   5.629   2.657
 8176SOL    HW125427   2.533   5.679   2.731
 8176SOL    HW225428   2.559   5.674   2.569
 8177SOL     OW25429   6.707   6.493   5.326
 8177SOL    HW125430   6.729   6.530   5.416
 8177SOL    HW225431   6.791   6.459   5.283
 8178SOL     OW25432   2.083   6.406   6.124
 8178SOL    HW125433   2.176   6.416   6.162
 8178SOL    HW225434   2.041   6.324   6.162
 8179SOL     OW25435   3.365   2.375   0.396
 8179SOL    HW125436   3.368   2.290   0.344
 8179SOL    HW225437   3.328   2.448   0.338
 8180SOL     OW25438   6.242   6.073   5.053
 8180SOL    HW125439   6.258   6.096   4.957
 8180SOL    HW225440   6.149   6.101   5.079
 8181SOL     OW25441   2.690   2.386   3.192
 8181SOL    HW125442   2.695   2.390   3.092
 8181SOL    HW225443   2.768   2.336   3.228
 8182SOL     OW25444   4.151   2.206   5.218
 8182SOL    HW125445   4.189   2.270   5.285
 8182SOL    HW225446   4.090   2.142   5.265
 8183SOL     OW25447   1.430   3.637   4.612
 8183SOL    HW125448   1.375   3.720   4.599
 8183SOL    HW225449   1.383   3.576   4.675
 8184SOL     OW25450   6.710   6.419   5.733
 8184SOL    HW125451   6.655   6.495   5.767
 8184SOL    HW225452   6.682   6.335   5.780
 8185SOL     OW25453   2.682   1.178   2.542
 8185SOL    HW125454   2.757   1.172   2.608
 8185SOL    HW225455   2.719   1.166   2.449
 8186SOL     OW25456   3.649   5.805   5.870
 8186SOL    HW125457   3.552   5.794   5.887
 8186SOL    HW225458   3.687   5.719   5.836
 8187SOL     OW25459   1.945   1.642   4.779
 8187SOL    HW125460   2.007   1.654   4.702
 8187SOL    HW225461   1.996   1.654   4.865
 8188SOL     OW25462   5.833   2.889   3.343
 8188SOL    HW125463   5.925   2.884   3.382
 8188SOL    HW225464   5.828   2.963   3.277
 8189SOL     OW25465   5.967   4.246   2.581
 8189SOL    HW125466   6.027   4.174   2.614
 8189SOL    HW225467   5.988   4.332   2.628
 8190SOL     OW25468   5.111   3.666   3.119
 8190SOL    HW125469   5.142   3.709   3.205
 8190SOL    HW225470   5.040   3.723   3.078
 8191SOL     OW25471   0.909   4.690   4.045
 8191SOL    HW125472   0.966   4.611   4.021
 8191SOL    HW225473   0.870   4.676   4.136
 8192SOL     OW25474   2.062   4.442   1.631
 8192SOL    HW125475   1.988   4.377   1.652
 8192SOL    HW225476   2.042   4.486   1.543
 8193SOL     OW25477   3.878   6.937   5.792
 8193SOL    HW125478   3.802   6.882   5.827
 8193SOL    HW225479   3.862   6.957   5.695
 8194SOL     OW25480   0.257   0.769   0.346
 8194SOL    HW125481   0.277   0.851   0.401
 8194SOL    HW225482   0.281   0.687   0.399
 8195SOL     OW25483   6.714   6.236   0.527
 8195SOL    HW125484   6.690   6.319   0.578
 8195SOL    HW225485   6.803   6.203   0.557
 8196SOL     OW25486   2.642   6.732   6.312
 8196SOL    HW125487   2.553   6.688   6.298
 8196SOL    HW225488   2.690   6.740   6.225
 8197SOL     OW25489   0.714   0.213   6.385
 8197SOL    HW125490   0.716   0.187   6.482
 8197SOL    HW225491   0.623   0.193   6.347
 8198SOL     OW25492   3.081   6.265   3.276
 8198SOL    HW125493   3.082   6.222   3.185
 8198SOL    HW225494   3.032   6.352   3.271
 8199SOL     OW25495   6.959   3.671   0.055
 8199SOL    HW125496   7.022   3.638   7.010
 8199SOL    HW225497   6.934   3.766   0.036
 8200SOL     OW25498   5.080   4.554   0.650
 8200SOL    HW125499   5.173   4.569   0.682
 8200SOL    HW225500   5.077   4.568   0.551
 8201SOL     OW25501   6.170   0.606   3.539
 8201SOL    HW125502   6.175   0.508   3.520
 8201SOL    HW225503   6.161   0.656   3.454
 8202SOL     OW25504   1.655   3.877   3.380
 8202SOL    HW125505   1.567   3.913   3.351
 8202SOL    HW225506   1.678   3.796   3.324
 8203SOL     OW25507   5.788   3.025   1.126
 8203SOL    HW125508   5.729   3.099   1.094
 8203SOL    HW225509   5.860   3.009   1.059
 8204SOL     OW25510   2.996   7.003   2.029
 8204SOL    HW125511   3.008   6.915   2.075
 8204SOL    HW225512   2.909   7.002   1.979
 8205SOL     OW25513   6.028   5.212   2.182
 8205SOL    HW125514   6.054   5.119   2.206
 8205SOL    HW225515   6.032   5.224   2.083
 8206SOL     OW25516   4.731   1.977   4.117
 8206SOL    HW125517   4.827   1.992   4.139
 8206SOL    HW225518   4.676   2.051   4.155
 8207SOL     OW25519   2.484   5.935   0.385
 8207SOL    HW125520   2.474   6.011   0.448
 8207SOL    HW225521   2.468   5.967   0.291
 8208SOL     OW25522   1.666   4.701   6.909
 8208SOL    HW125523   1.750   4.697   6.963
 8208SOL    HW225524   1.674   4.771   6.839
 8209SOL     OW25525   0.335   0.162   5.037
 8209SOL    HW125526   0.268   0.146   5.109
 8209SOL    HW225527   0.314   0.105   4.958
 8210SOL     OW25528   2.751   1.723   6.833
 8210SOL    HW125529   2.727   1.794   6.767
 8210SOL    HW225530   2.746   1.761   6.926
 8211SOL     OW25531   2.899   3.407   4.433
 8211SOL    HW125532   2.882   3.337   4.363
 8211SOL    HW225533   2.875   3.497   4.397
 8212SOL     OW25534   3.095   0.372   1.188
 8212SOL    HW125535   3.070   0.329   1.101
 8212SOL    HW225536   3.025   0.440   1.212
 8213SOL     OW25537   4.607   4.091   1.728
 8213SOL    HW125538   4.597   4.080   1.629
 8213SOL    HW225539   4.540   4.157   1.761
 8214SOL     OW25540   4.445   5.858   4.402
 8214SOL    HW125541   4.533   5.898   4.431
 8214SOL    HW225542   4.392   5.834   4.483
 8215SOL     OW25543   4.277   6.915   0.494
 8215SOL    HW125544   4.205   6.852   0.526
 8215SOL    HW225545   4.262   6.935   0.397
 8216SOL     OW25546   5.820   4.766   1.287
 8216SOL    HW125547   5.734   4.727   1.255
 8216SOL    HW225548   5.801   4.836   1.356
 8217SOL     OW25549   2.886   6.339   3.865
 8217SOL    HW125550   2.960   6.366   3.927
 8217SOL    HW225551   2.798   6.347   3.911
 8218SOL     OW25552   2.913   0.065   4.388
 8218SOL    HW125553   2.923   7.001   4.343
 8218SOL    HW225554   2.859   0.054   4.472
 8219SOL     OW25555   3.993   3.539   1.160
 8219SOL    HW125556   3.905   3.516   1.118
 8219SOL    HW225557   4.067   3.506   1.103
 8220SOL     OW25558   3.854   3.305   4.017
 8220SOL    HW125559   3.846   3.391   3.967
 8220SOL    HW225560   3.900   3.320   4.104
 8221SOL     OW25561   5.548   3.932   3.202
 8221SOL    HW125562   5.584   3.923   3.109
 8221SOL    HW225563   5.475   4.000   3.204
 8222SOL     OW25564   6.475   3.334   0.432
 8222SOL    HW125565   6.536   3.386   0.371
 8222SOL    HW225566   6.423   3.267   0.378
 8223SOL     OW25567   1.059   6.042   5.468
 8223SOL    HW125568   1.086   6.131   5.503
 8223SOL    HW225569   1.139   5.984   5.456
 8224SOL     OW25570   5.493   1.887   0.544
 8224SOL    HW125571   5.410   1.832   0.546
 8224SOL    HW225572   5.503   1.935   0.632
 8225SOL     OW25573   5.685   1.811   0.254
 8225SOL    HW125574   5.676   1.878   0.328
 8225SOL    HW225575   5.779   1.812   0.220
 8226SOL     OW25576   4.238   0.017   0.269
 8226SOL    HW125577   4.198   0.007   0.178
 8226SOL    HW225578   4.270   0.111   0.281
 8227SOL     OW25579   4.982   2.476   2.946
 8227SOL    HW125580   5.036   2.542   2.997
 8227SOL    HW225581   5.008   2.478   2.849
 8228SOL     OW25582   2.421   0.205   4.515
 8228SOL    HW125583   2.397   0.297   4.485
 8228SOL    HW225584   2.351   0.141   4.483
 8229SOL     OW25585   4.902   4.194   0.876
 8229SOL    HW125586   4.831   4.166   0.940
 8229SOL    HW225587   4.990   4.155   0.903
 8230SOL     OW25588   5.812   0.523   6.329
 8230SOL    HW125589   5.739   0.540   6.395
 8230SOL    HW225590   5.891   0.484   6.377
 8231SOL     OW25591   2.622   1.850   2.848
 8231SOL    HW125592   2.652   1.780   2.783
 8231SOL    HW225593   2.613   1.938   2.801
 8232SOL     OW25594   3.773   5.473   3.072
 8232SOL    HW125595   3.845   5.519   3.020
 8232SOL    HW225596   3.778   5.502   3.168
 8233SOL     OW25597   0.229   1.166   6.196
 8233SOL    HW125598   0.268   1.076   6.214
 8233SOL    HW225599   0.300   1.236   6.208
 8234SOL     OW25600   1.063   2.272   0.785
 8234SOL    HW125601   1.064   2.274   0.685
 8234SOL    HW225602   1.152   2.300   0.820
 8235SOL     OW25603   1.203   6.326   1.195
 8235SOL    HW125604   1.113   6.351   1.160
 8235SOL    HW225605   1.218   6.371   1.283
 8236SOL     OW25606   0.796   6.187   1.545
 8236SOL    HW125607   0.709   6.196   1.497
 8236SOL    HW225608   0.783   6.134   1.628
 8237SOL     OW25609   4.234   5.021   6.940
 8237SOL    HW125610   4.228   5.072   6.854
 8237SOL    HW225611   4.144   4.987   6.965
 8238SOL     OW25612   0.969   4.627   0.005
 8238SOL    HW125613   0.910   4.681   0.065
 8238SOL    HW225614   0.969   4.668   6.939
 8239SOL     OW25615   1.696   1.458   4.824
 8239SOL    HW125616   1.759   1.515   4.770
 8239SOL    HW225617   1.654   1.513   4.895
 8240SOL     OW25618   3.364   3.401   4.714
 8240SOL    HW125619   3.351   3.474   4.647
 8240SOL    HW225620   3.395   3.318   4.666
 8241SOL     OW25621   1.940   4.513   5.773
 8241SOL    HW125622   2.005   4.588   5.786
 8241SOL    HW225623   1.980   4.444   5.712
 8242SOL     OW25624   0.839   2.973   2.878
 8242SOL    HW125625   0.807   3.064   2.851
 8242SOL    HW225626   0.765   2.923   2.923
 8243SOL     OW25627   1.003   5.880   4.076
 8243SOL    HW125628   1.032   5.931   4.157
 8243SOL    HW225629   0.920   5.829   4.098
 8244SOL     OW25630   0.504   1.217   4.428
 8244SOL    HW125631   0.591   1.201   4.380
 8244SOL    HW225632   0.435   1.247   4.363
 8245SOL     OW25633   5.411   1.809   3.244
 8245SOL    HW125634   5.396   1.837   3.339
 8245SOL    HW225635   5.425   1.891   3.188
 8246SOL     OW25636   1.753   5.053   6.552
 8246SOL    HW125637   1.806   4.979   6.512
 8246SOL    HW225638   1.744   5.127   6.485
 8247SOL     OW25639   2.933   5.261   3.340
 8247SOL    HW125640   2.876   5.319   3.399
 8247SOL    HW225641   2.954   5.176   3.387
 8248SOL     OW25642   6.662   5.080   3.063
 8248SOL    HW125643   6.761   5.072   3.058
 8248SOL    HW225644   6.628   5.131   2.984
 8249SOL     OW25645   3.352   1.626   6.334
 8249SOL    HW125646   3.369   1.717   6.296
 8249SOL    HW225647   3.271   1.631   6.394
 8250SOL     OW25648   1.118   1.603   7.005
 8250SOL    HW125649   1.209   1.617   0.018
 8250SOL    HW225650   1.057   1.676   0.011
 8251SOL     OW25651   1.046   2.328   4.727
 8251SOL    HW125652   0.995   2.371   4.802
 8251SOL    HW225653   1.117   2.268   4.765
 8252SOL     OW25654   1.230   2.443   6.493
 8252SOL    HW125655   1.187   2.409   6.409
 8252SOL    HW225656   1.160   2.472   6.557
 8253SOL     OW25657   4.425   5.793   0.478
 8253SOL    HW125658   4.413   5.847   0.562
 8253SOL    HW225659   4.336   5.774   0.437
 8254SOL     OW25660   5.437   4.771   6.536
 8254SOL    HW125661   5.413   4.674   6.535
 8254SOL    HW225662   5.414   4.810   6.625
 8255SOL     OW25663   1.737   0.103   6.058
 8255SOL    HW125664   1.657   0.164   6.061
 8255SOL    HW225665   1.724   0.028   6.124
 8256SOL     OW25666   1.390   5.378   5.205
 8256SOL    HW125667   1.386   5.278   5.208
 8256SOL    HW225668   1.298   5.414   5.187
 8257SOL     OW25669   5.269   3.959   3.058
 8257SOL    HW125670   5.339   3.947   2.987
 8257SOL    HW225671   5.184   3.917   3.028
 8258SOL     OW25672   6.914   3.334   1.660
 8258SOL    HW125673   6.913   3.373   1.568
 8258SOL    HW225674   6.834   3.366   1.710
 8259SOL     OW25675   5.362   1.714   4.388
 8259SOL    HW125676   5.445   1.731   4.442
 8259SOL    HW225677   5.284   1.702   4.450
 8260SOL     OW25678   4.400   1.625   1.052
 8260SOL    HW125679   4.406   1.716   1.093
 8260SOL    HW225680   4.460   1.562   1.101
 8261SOL     OW25681   5.865   0.575   2.643
 8261SOL    HW125682   5.769   0.602   2.652
 8261SOL    HW225683   5.912   0.592   2.730
 8262SOL     OW25684   5.470   4.196   1.894
 8262SOL    HW125685   5.474   4.261   1.819
 8262SOL    HW225686   5.479   4.103   1.859
 8263SOL     OW25687   6.933   2.364   5.892
 8263SOL    HW125688   6.846   2.371   5.843
 8263SOL    HW225689   6.953   2.451   5.937
 8264SOL     OW25690   3.131   0.113   2.984
 8264SOL    HW125691   3.190   0.127   3.063
 8264SOL    HW225692   3.186   0.079   2.907
 8265SOL     OW25693   4.998   6.742   0.312
 8265SOL    HW125694   4.981   6.661   0.257
 8265SOL    HW225695   5.097   6.760   0.314
 8266SOL     OW25696   2.435   0.960   3.612
 8266SOL    HW125697   2.365   0.889   3.610
 8266SOL    HW225698   2.525   0.919   3.594
 8267SOL     OW25699   1.698   3.718   2.474
 8267SOL    HW125700   1.757   3.694   2.552
 8267SOL    HW225701   1.750   3.708   2.389
 8268SOL     OW25702   3.732   5.279   6.117
 8268SOL    HW125703   3.773   5.249   6.203
 8268SOL    HW225704   3.804   5.294   6.049
 8269SOL     OW25705   6.228   3.079   4.249
 8269SOL    HW125706   6.197   3.140   4.176
 8269SOL    HW225707   6.319   3.043   4.225
 8270SOL     OW25708   3.464   0.080   6.953
 8270SOL    HW125709   3.543   0.031   6.915
 8270SOL    HW225710   3.396   0.014   6.984
 8271SOL     OW25711   3.470   6.146   6.244
 8271SOL    HW125712   3.563   6.182   6.247
 8271SOL    HW225713   3.415   6.202   6.181
 8272SOL     OW25714   0.625   0.484   2.034
 8272SOL    HW125715   0.626   0.576   2.072
 8272SOL    HW225716   0.638   0.488   1.935
 8273SOL     OW25717   4.089   0.487   6.568
 8273SOL    HW125718   4.004   0.442   6.597
 8273SOL    HW225719   4.089   0.581   6.601
 8274SOL     OW25720   5.484   6.339   5.587
 8274SOL    HW125721   5.526   6.302   5.504
 8274SOL    HW225722   5.554   6.377   5.646
 8275SOL     OW25723   5.507   0.381   3.390
 8275SOL    HW125724   5.511   0.470   3.343
 8275SOL    HW225725   5.580   0.376   3.458
 8276SOL     OW25726   6.791   1.755   6.798
 8276SOL    HW125727   6.816   1.660   6.817
 8276SOL    HW225728   6.866   1.799   6.748
 8277SOL     OW25729   1.395   6.687   7.017
 8277SOL    HW125730   1.419   6.704   6.921
 8277SOL    HW225731   1.445   6.751   0.050
 8278SOL     OW25732   2.954   1.611   0.594
 8278SOL    HW125733   2.950   1.706   0.563
 8278SOL    HW225734   3.027   1.564   0.546
 8279SOL     OW25735   4.098   5.705   4.866
 8279SOL    HW125736   4.012   5.686   4.818
 8279SOL    HW225737   4.123   5.801   4.851
 8280SOL     OW25738   5.371   3.653   0.342
 8280SOL    HW125739   5.414   3.732   0.297
 8280SOL    HW225740   5.388   3.658   0.441
 8281SOL     OW25741   2.905   4.855   0.476
 8281SOL    HW125742   2.813   4.860   0.513
 8281SOL    HW225743   2.902   4.873   0.377
 8282SOL     OW25744   3.032   2.544   1.221
 8282SOL    HW125745   3.009   2.590   1.135
 8282SOL    HW225746   3.124   2.573   1.250
 8283SOL     OW25747   0.475   5.743   3.357
 8283SOL    HW125748   0.397   5.681   3.357
 8283SOL    HW225749   0.560   5.691   3.341
 8284SOL     OW25750   3.275   1.573   1.938
 8284SOL    HW125751   3.324   1.537   1.859
 8284SOL    HW225752   3.300   1.521   2.020
 8285SOL     OW25753   2.961   4.552   6.908
 8285SOL    HW125754   3.005   4.478   6.858
 8285SOL    HW225755   2.939   4.627   6.845
 8286SOL     OW25756   5.532   2.003   5.430
 8286SOL    HW125757   5.612   2.023   5.486
 8286SOL    HW225758   5.541   2.050   5.342
 8287SOL     OW25759   1.879   6.992   3.798
 8287SOL    HW125760   1.934   6.915   3.832
 8287SOL    HW225761   1.905   7.012   3.704
 8288SOL     OW25762   2.409   7.021   3.051
 8288SOL    HW125763   2.359   6.942   3.087
 8288SOL    HW225764   2.505   6.997   3.040
 8289SOL     OW25765   6.515   1.034   6.057
 8289SOL    HW125766   6.583   1.093   6.012
 8289SOL    HW225767   6.560   0.950   6.088
 8290SOL     OW25768   4.682   2.804   1.769
 8290SOL    HW125769   4.611   2.749   1.725
 8290SOL    HW225770   4.640   2.885   1.811
 8291SOL     OW25771   3.980   5.810   6.581
 8291SOL    HW125772   3.998   5.815   6.679
 8291SOL    HW225773   3.884   5.785   6.565
 8292SOL     OW25774   0.761   3.125   4.700
 8292SOL    HW125775   0.759   3.188   4.621
 8292SOL    HW225776   0.690   3.056   4.689
 8293SOL     OW25777   2.982   4.773   3.690
 8293SOL    HW125778   2.909   4.759   3.757
 8293SOL    HW225779   3.066   4.802   3.738
 8294SOL     OW25780   4.430   3.356   6.109
 8294SOL    HW125781   4.519   3.371   6.066
 8294SOL    HW225782   4.425   3.263   6.145
 8295SOL     OW25783   4.889   4.701   2.416
 8295SOL    HW125784   4.928   4.761   2.346
 8295SOL    HW225785   4.891   4.747   2.505
 8296SOL     OW25786   4.174   6.500   1.943
 8296SOL    HW125787   4.109   6.493   1.867
 8296SOL    HW225788   4.216   6.590   1.944
 8297SOL     OW25789   5.528   4.644   3.778
 8297SOL    HW125790   5.440   4.663   3.822
 8297SOL    HW225791   5.600   4.642   3.847
 8298SOL     OW25792   6.792   6.751   6.786
 8298SOL    HW125793   6.768   6.767   6.690
 8298SOL    HW225794   6.884   6.786   6.804
 8299SOL     OW25795   0.630   3.795   0.695
 8299SOL    HW125796   0.704   3.856   0.722
 8299SOL    HW225797   0.542   3.838   0.714
 8300SOL     OW25798   5.863   5.455   2.951
 8300SOL    HW125799   5.773   5.444   2.909
 8300SOL    HW225800   5.908   5.366   2.958
 8301SOL     OW25801   5.045   6.514   0.169
 8301SOL    HW125802   5.007   6.440   0.223
 8301SOL    HW225803   5.110   6.477   0.102
 8302SOL     OW25804   3.344   6.690   5.539
 8302SOL    HW125805   3.393   6.697   5.626
 8302SOL    HW225806   3.278   6.765   5.531
 8303SOL     OW25807   0.468   5.394   3.163
 8303SOL    HW125808   0.463   5.398   3.063
 8303SOL    HW225809   0.562   5.408   3.192
 8304SOL     OW25810   6.013   4.585   3.216
 8304SOL    HW125811   5.985   4.492   3.190
 8304SOL    HW225812   6.103   4.582   3.258
 8305SOL     OW25813   5.265   6.682   4.771
 8305SOL    HW125814   5.299   6.602   4.820
 8305SOL    HW225815   5.317   6.694   4.686
 8306SOL     OW25816   6.299   1.313   2.229
 8306SOL    HW125817   6.268   1.247   2.297
 8306SOL    HW225818   6.220   1.350   2.180
 8307SOL     OW25819   1.358   3.390   2.736
 8307SOL    HW125820   1.332   3.431   2.648
 8307SOL    HW225821   1.453   3.411   2.756
 8308SOL     OW25822   1.565   4.989   0.611
 8308SOL    HW125823   1.514   4.903   0.618
 8308SOL    HW225824   1.503   5.066   0.627
 8309SOL     OW25825   6.472   4.750   4.562
 8309SOL    HW125826   6.538   4.822   4.542
 8309SOL    HW225827   6.520   4.666   4.590
 8310SOL     OW25828   1.853   0.401   0.697
 8310SOL    HW125829   1.775   0.351   0.659
 8310SOL    HW225830   1.844   0.405   0.797
 8311SOL     OW25831   5.627   6.193   3.463
 8311SOL    HW125832   5.682   6.216   3.543
 8311SOL    HW225833   5.549   6.256   3.457
 8312SOL     OW25834   5.769   1.478   0.349
 8312SOL    HW125835   5.746   1.553   0.287
 8312SOL    HW225836   5.861   1.445   0.329
 8313SOL     OW25837   5.733   2.400   5.487
 8313SOL    HW125838   5.801   2.420   5.558
 8313SOL    HW225839   5.780   2.375   5.403
 8314SOL     OW25840   5.156   6.547   4.022
 8314SOL    HW125841   5.235   6.491   3.995
 8314SOL    HW225842   5.170   6.641   3.990
 8315SOL     OW25843   3.585   4.094   4.743
 8315SOL    HW125844   3.522   4.167   4.768
 8315SOL    HW225845   3.534   4.010   4.726
 8316SOL     OW25846   1.763   2.232   6.116
 8316SOL    HW125847   1.803   2.240   6.207
 8316SOL    HW225848   1.820   2.280   6.050
 8317SOL     OW25849   1.511   1.625   3.811
 8317SOL    HW125850   1.503   1.725   3.810
 8317SOL    HW225851   1.604   1.599   3.784
 8318SOL     OW25852   4.535   0.213   6.608
 8318SOL    HW125853   4.492   0.303   6.611
 8318SOL    HW225854   4.587   0.198   6.692
 8319SOL     OW25855   1.704   5.874   6.716
 8319SOL    HW125856   1.763   5.936   6.663
 8319SOL    HW225857   1.732   5.779   6.698
 8320SOL     OW25858   3.230   3.297   5.161
 8320SOL    HW125859   3.219   3.319   5.064
 8320SOL    HW225860   3.140   3.279   5.201
 8321SOL     OW25861   0.241   6.815   1.245
 8321SOL    HW125862   0.225   6.840   1.150
 8321SOL    HW225863   0.310   6.743   1.250
 8322SOL     OW25864   0.837   6.618   0.283
 8322SOL    HW125865   0.932   6.589   0.268
 8322SOL    HW225866   0.780   6.539   0.304
 8323SOL     OW25867   5.547   4.630   0.892
 8323SOL    HW125868   5.580   4.593   0.805
 8323SOL    HW225869   5.599   4.590   0.967
 8324SOL     OW25870   4.488   5.435   6.225
 8324SOL    HW125871   4.520   5.401   6.136
 8324SOL    HW225872   4.462   5.531   6.216
 8325SOL     OW25873   1.362   5.754   6.528
 8325SOL    HW125874   1.364   5.774   6.430
 8325SOL    HW225875   1.400   5.662   6.543
 8326SOL     OW25876   1.509   3.042   6.938
 8326SOL    HW125877   1.562   2.967   6.897
 8326SOL    HW225878   1.546   3.129   6.907
 8327SOL     OW25879   0.682   6.622   4.855
 8327SOL    HW125880   0.755   6.640   4.921
 8327SOL    HW225881   0.604   6.681   4.876
 8328SOL     OW25882   0.897   6.898   0.376
 8328SOL    HW125883   0.869   6.803   0.362
 8328SOL    HW225884   0.876   6.926   0.469
 8329SOL     OW25885   1.973   2.840   4.703
 8329SOL    HW125886   2.001   2.745   4.689
 8329SOL    HW225887   2.054   2.897   4.716
 8330SOL     OW25888   3.205   1.526   0.470
 8330SOL    HW125889   3.289   1.485   0.506
 8330SOL    HW225890   3.160   1.461   0.408
 8331SOL     OW25891   1.929   2.370   5.785
 8331SOL    HW125892   1.917   2.278   5.749
 8331SOL    HW225893   1.870   2.433   5.734
 8332SOL     OW25894   6.337   5.510   1.497
 8332SOL    HW125895   6.394   5.428   1.501
 8332SOL    HW225896   6.284   5.510   1.412
 8333SOL     OW25897   2.009   4.313   0.453
 8333SOL    HW125898   2.089   4.331   0.510
 8333SOL    HW225899   1.951   4.394   0.451
 8334SOL     OW25900   3.717   2.176   6.448
 8334SOL    HW125901   3.668   2.262   6.465
 8334SOL    HW225902   3.672   2.126   6.374
 8335SOL     OW25903   5.191   4.544   6.370
 8335SOL    HW125904   5.171   4.473   6.303
 8335SOL    HW225905   5.224   4.501   6.455
 8336SOL     OW25906   0.960   3.846   3.520
 8336SOL    HW125907   1.041   3.814   3.570
 8336SOL    HW225908   0.970   3.943   3.497
 8337SOL     OW25909   0.498   1.260   4.717
 8337SOL    HW125910   0.505   1.231   4.622
 8337SOL    HW225911   0.493   1.360   4.721
 8338SOL     OW25912   3.852   5.601   1.491
 8338SOL    HW125913   3.921   5.602   1.563
 8338SOL    HW225914   3.779   5.537   1.516
 8339SOL     OW25915   5.958   0.149   1.431
 8339SOL    HW125916   5.979   0.241   1.397
 8339SOL    HW225917   5.977   0.082   1.360
 8340SOL     OW25918   6.040   2.001   6.582
 8340SOL    HW125919   5.940   1.999   6.573
 8340SOL    HW225920   6.076   1.908   6.581
 8341SOL     OW25921   3.659   0.682   0.731
 8341SOL    HW125922   3.726   0.723   0.793
 8341SOL    HW225923   3.612   0.606   0.777
 8342SOL     OW25924   4.666   0.548   0.285
 8342SOL    HW125925   4.733   0.590   0.346
 8342SOL    HW225926   4.606   0.618   0.246
 8343SOL     OW25927   5.565   3.711   4.230
 8343SOL    HW125928   5.554   3.803   4.268
 8343SOL    HW225929   5.563   3.716   4.130
 8344SOL     OW25930   1.012   5.102   5.143
 8344SOL    HW125931   0.996   5.168   5.217
 8344SOL    HW225932   1.070   5.028   5.177
 8345SOL     OW25933   4.817   0.622   3.500
 8345SOL    HW125934   4.743   0.688   3.489
 8345SOL    HW225935   4.786   0.547   3.559
 8346SOL     OW25936   5.887   3.843   5.185
 8346SOL    HW125937   5.794   3.808   5.194
 8346SOL    HW225938   5.942   3.809   5.262
 8347SOL     OW25939   2.275   1.152   6.930
 8347SOL    HW125940   2.179   1.130   6.944
 8347SOL    HW225941   2.290   1.177   6.835
 8348SOL     OW25942   3.283   5.821   2.014
 8348SOL    HW125943   3.209   5.848   1.951
 8348SOL    HW225944   3.266   5.863   2.103
 8349SOL     OW25945   0.192   6.713   2.494
 8349SOL    HW125946   0.248   6.753   2.421
 8349SOL    HW225947   0.157   6.625   2.464
 8350SOL     OW25948   1.910   0.819   0.323
 8350SOL    HW125949   1.956   0.815   0.412
 8350SOL    HW225950   1.923   0.732   0.274
 8351SOL     OW25951   6.967   3.413   3.151
 8351SOL    HW125952   6.877   3.452   3.131
 8351SOL    HW225953   6.966   3.372   3.243
 8352SOL     OW25954   2.632   6.136   1.562
 8352SOL    HW125955   2.656   6.050   1.516
 8352SOL    HW225956   2.715   6.189   1.579
 8353SOL     OW25957   1.566   4.901   2.469
 8353SOL    HW125958   1.474   4.870   2.493
 8353SOL    HW225959   1.623   4.822   2.445
 8354SOL     OW25960   3.810   0.621   3.053
 8354SOL    HW125961   3.837   0.549   2.989
 8354SOL    HW225962   3.891   0.653   3.103
 8355SOL     OW25963   2.553   6.505   6.537
 8355SOL    HW125964   2.461   6.519   6.573
 8355SOL    HW225965   2.611   6.582   6.562
 8356SOL     OW25966   2.142   5.374   0.711
 8356SOL    HW125967   2.134   5.310   0.787
 8356SOL    HW225968   2.126   5.326   0.625
 8357SOL     OW25969   4.488   6.541   5.267
 8357SOL    HW125970   4.561   6.506   5.209
 8357SOL    HW225971   4.527   6.599   5.338
 8358SOL     OW25972   0.619   1.295   5.130
 8358SOL    HW125973   0.636   1.218   5.069
 8358SOL    HW225974   0.525   1.326   5.119
 8359SOL     OW25975   3.962   2.123   5.641
 8359SOL    HW125976   4.002   2.151   5.728
 8359SOL    HW225977   3.862   2.116   5.650
 8360SOL     OW25978   4.692   0.895   0.759
 8360SOL    HW125979   4.608   0.887   0.705
 8360SOL    HW225980   4.674   0.863   0.853
 8361SOL     OW25981   3.916   0.871   6.966
 8361SOL    HW125982   4.012   0.900   6.963
 8361SOL    HW225983   3.871   0.900   6.882
 8362SOL     OW25984   6.479   4.292   1.400
 8362SOL    HW125985   6.447   4.222   1.336
 8362SOL    HW225986   6.579   4.296   1.399
 8363SOL     OW25987   2.551   3.244   0.379
 8363SOL    HW125988   2.616   3.273   0.448
 8363SOL    HW225989   2.551   3.144   0.374
 8364SOL     OW25990   0.741   3.465   4.356
 8364SOL    HW125991   0.699   3.384   4.397
 8364SOL    HW225992   0.711   3.546   4.405
 8365SOL     OW25993   1.016   2.175   2.131
 8365SOL    HW125994   1.054   2.262   2.100
 8365SOL    HW225995   1.009   2.175   2.231
 8366SOL     OW25996   5.284   5.010   1.952
 8366SOL    HW125997   5.290   5.098   1.998
 8366SOL    HW225998   5.313   5.020   1.856
 8367SOL     OW25999   3.620   5.400   4.134
 8367SOL    HW126000   3.673   5.328   4.180
 8367SOL    HW226001   3.535   5.416   4.183
 8368SOL     OW26002   6.093   6.278   6.525
 8368SOL    HW126003   6.012   6.221   6.510
 8368SOL    HW226004   6.167   6.246   6.467
 8369SOL     OW26005   2.742   6.523   1.273
 8369SOL    HW126006   2.714   6.617   1.257
 8369SOL    HW226007   2.739   6.472   1.187
 8370SOL     OW26008   2.545   3.797   6.781
 8370SOL    HW126009   2.518   3.829   6.691
 8370SOL    HW226010   2.491   3.716   6.805
 8371SOL     OW26011   1.688   4.609   5.784
 8371SOL    HW126012   1.694   4.684   5.849
 8371SOL    HW226013   1.778   4.566   5.775
 8372SOL     OW26014   2.306   5.907   2.311
 8372SOL    HW126015   2.260   5.988   2.348
 8372SOL    HW226016   2.404   5.927   2.300
 8373SOL     OW26017   6.831   1.544   4.181
 8373SOL    HW126018   6.866   1.540   4.088
 8373SOL    HW226019   6.733   1.564   4.179
 8374SOL     OW26020   0.792   0.975   4.320
 8374SOL    HW126021   0.741   0.891   4.307
 8374SOL    HW226022   0.858   0.987   4.245
 8375SOL     OW26023   3.210   0.969   4.890
 8375SOL    HW126024   3.227   1.034   4.964
 8375SOL    HW226025   3.271   0.990   4.813
 8376SOL     OW26026   1.950   0.596   3.005
 8376SOL    HW126027   2.046   0.569   3.005
 8376SOL    HW226028   1.940   0.684   2.958
 8377SOL     OW26029   4.857   5.365   0.099
 8377SOL    HW126030   4.860   5.327   0.192
 8377SOL    HW226031   4.916   5.311   0.039
 8378SOL     OW26032   5.384   6.000   3.993
 8378SOL    HW126033   5.296   5.967   4.027
 8378SOL    HW226034   5.447   6.013   4.070
 8379SOL     OW26035   6.030   1.212   1.518
 8379SOL    HW126036   6.097   1.174   1.582
 8379SOL    HW226037   5.993   1.139   1.461
 8380SOL     OW26038   7.004   5.778   0.562
 8380SOL    HW126039   6.965   5.688   0.585
 8380SOL    HW226040   6.946   5.824   0.496
 8381SOL     OW26041   0.313   1.789   2.387
 8381SOL    HW126042   0.233   1.788   2.327
 8381SOL    HW226043   0.367   1.871   2.369
 8382SOL     OW26044   1.801   0.904   0.706
 8382SOL    HW126045   1.872   0.931   0.640
 8382SOL    HW226046   1.839   0.910   0.799
 8383SOL     OW26047   2.716   6.724   6.566
 8383SOL    HW126048   2.714   6.819   6.598
 8383SOL    HW226049   2.721   6.723   6.466
 8384SOL     OW26050   0.530   3.108   2.818
 8384SOL    HW126051   0.543   3.009   2.809
 8384SOL    HW226052   0.441   3.127   2.858
 8385SOL     OW26053   4.209   3.391   1.331
 8385SOL    HW126054   4.140   3.410   1.262
 8385SOL    HW226055   4.173   3.415   1.421
 8386SOL     OW26056   2.566   5.981   2.264
 8386SOL    HW126057   2.650   5.928   2.258
 8386SOL    HW226058   2.525   5.989   2.173
 8387SOL     OW26059   1.514   1.119   2.520
 8387SOL    HW126060   1.560   1.045   2.571
 8387SOL    HW226061   1.417   1.121   2.545
 8388SOL     OW26062   3.898   6.509   1.370
 8388SOL    HW126063   3.825   6.533   1.434
 8388SOL    HW226064   3.953   6.590   1.349
 8389SOL     OW26065   0.466   2.465   3.966
 8389SOL    HW126066   0.372   2.435   3.977
 8389SOL    HW226067   0.481   2.548   4.021
 8390SOL     OW26068   3.067   0.420   5.877
 8390SOL    HW126069   3.061   0.402   5.975
 8390SOL    HW226070   3.080   0.518   5.861
 8391SOL     OW26071   5.463   5.545   0.889
 8391SOL    HW126072   5.442   5.546   0.986
 8391SOL    HW226073   5.561   5.538   0.875
 8392SOL     OW26074   5.636   6.407   5.777
 8392SOL    HW126075   5.717   6.459   5.749
 8392SOL    HW226076   5.648   6.374   5.870
 8393SOL     OW26077   0.042   6.065   3.280
 8393SOL    HW126078   0.069   6.126   3.205
 8393SOL    HW226079   0.040   6.117   3.365
 8394SOL     OW26080   0.762   1.980   2.685
 8394SOL    HW126081   0.805   2.029   2.762
 8394SOL    HW226082   0.690   1.920   2.720
 8395SOL     OW26083   0.477   6.037   6.009
 8395SOL    HW126084   0.433   6.082   5.931
 8395SOL    HW226085   0.451   5.940   6.011
 8396SOL     OW26086   4.667   3.387   1.454
 8396SOL    HW126087   4.679   3.336   1.538
 8396SOL    HW226088   4.585   3.357   1.407
 8397SOL     OW26089   2.130   5.629   3.308
 8397SOL    HW126090   2.092   5.696   3.244
 8397SOL    HW226091   2.209   5.669   3.355
 8398SOL     OW26092   5.240   2.120   0.578
 8398SOL    HW126093   5.205   2.193   0.637
 8398SOL    HW226094   5.340   2.127   0.572
 8399SOL     OW26095   5.564   5.704   0.599
 8399SOL    HW126096   5.543   5.608   0.580
 8399SOL    HW226097   5.631   5.738   0.534
 8400SOL     OW26098   6.069   0.727   3.780
 8400SOL    HW126099   6.132   0.696   3.709
 8400SOL    HW226100   5.980   0.683   3.766
 8401SOL     OW26101   3.140   4.077   6.655
 8401SOL    HW126102   3.166   3.981   6.658
 8401SOL    HW226103   3.195   4.129   6.721
 8402SOL     OW26104   4.143   2.127   0.208
 8402SOL    HW126105   4.226   2.183   0.211
 8402SOL    HW226106   4.088   2.154   0.129
 8403SOL     OW26107   1.641   1.438   4.031
 8403SOL    HW126108   1.712   1.486   3.979
 8403SOL    HW226109   1.569   1.407   3.968
 8404SOL     OW26110   4.498   4.884   5.724
 8404SOL    HW126111   4.508   4.954   5.795
 8404SOL    HW226112   4.462   4.925   5.641
 8405SOL     OW26113   0.517   2.917   4.922
 8405SOL    HW126114   0.439   2.874   4.968
 8405SOL    HW226115   0.485   2.991   4.863
 8406SOL     OW26116   5.431   3.533   1.829
 8406SOL    HW126117   5.347   3.561   1.876
 8406SOL    HW226118   5.478   3.464   1.884
 8407SOL     OW26119   5.043   4.136   2.479
 8407SOL    HW126120   5.064   4.206   2.410
 8407SOL    HW226121   4.966   4.081   2.448
 8408SOL     OW26122   4.506   2.475   4.295
 8408SOL    HW126123   4.499   2.429   4.383
 8408SOL    HW226124   4.517   2.408   4.222
 8409SOL     OW26125   0.455   2.402   3.691
 8409SOL    HW126126   0.457   2.421   3.789
 8409SOL    HW226127   0.535   2.445   3.648
 8410SOL     OW26128   4.066   0.109   1.586
 8410SOL    HW126129   3.978   0.081   1.547
 8410SOL    HW226130   4.132   0.035   1.576
 8411SOL     OW26131   1.874   3.272   4.130
 8411SOL    HW126132   1.840   3.364   4.151
 8411SOL    HW226133   1.918   3.233   4.211
 8412SOL     OW26134   5.941   2.363   3.860
 8412SOL    HW126135   6.020   2.309   3.890
 8412SOL    HW226136   5.973   2.451   3.824
 8413SOL     OW26137   2.894   4.530   0.843
 8413SOL    HW126138   2.845   4.453   0.885
 8413SOL    HW226139   2.984   4.500   0.812
 8414SOL     OW26140   3.982   6.112   2.619
 8414SOL    HW126141   3.933   6.176   2.561
 8414SOL    HW226142   4.060   6.074   2.568
 8415SOL     OW26143   6.772   3.625   2.421
 8415SOL    HW126144   6.852   3.674   2.454
 8415SOL    HW226145   6.692   3.684   2.426
 8416SOL     OW26146   5.052   4.294   2.920
 8416SOL    HW126147   5.003   4.236   2.856
 8416SOL    HW226148   5.147   4.305   2.890
 8417SOL     OW26149   2.846   6.050   5.786
 8417SOL    HW126150   2.766   6.064   5.845
 8417SOL    HW226151   2.929   6.067   5.838
 8418SOL     OW26152   6.236   5.460   2.760
 8418SOL    HW126153   6.186   5.538   2.799
 8418SOL    HW226154   6.293   5.418   2.830
 8419SOL     OW26155   4.613   0.447   4.085
 8419SOL    HW126156   4.678   0.521   4.102
 8419SOL    HW226157   4.642   0.365   4.134
 8420SOL     OW26158   4.128   1.407   6.556
 8420SOL    HW126159   4.056   1.375   6.617
 8420SOL    HW226160   4.217   1.379   6.592
 8421SOL     OW26161   2.582   6.460   2.035
 8421SOL    HW126162   2.682   6.456   2.039
 8421SOL    HW226163   2.553   6.475   1.941
 8422SOL     OW26164   3.612   6.713   1.024
 8422SOL    HW126165   3.710   6.706   1.045
 8422SOL    HW226166   3.599   6.746   0.931
 8423SOL     OW26167   3.125   4.415   1.424
 8423SOL    HW126168   3.072   4.395   1.507
 8423SOL    HW226169   3.199   4.479   1.447
 8424SOL     OW26170   3.594   1.747   2.515
 8424SOL    HW126171   3.514   1.688   2.500
 8424SOL    HW226172   3.673   1.690   2.538
 8425SOL     OW26173   5.642   4.654   6.895
 8425SOL    HW126174   5.544   4.649   6.878
 8425SOL    HW226175   5.685   4.567   6.870
 8426SOL     OW26176   4.005   3.145   3.194
 8426SOL    HW126177   3.983   3.084   3.119
 8426SOL    HW226178   4.043   3.230   3.158
 8427SOL     OW26179   2.439   3.847   6.541
 8427SOL    HW126180   2.487   3.835   6.454
 8427SOL    HW226181   2.362   3.783   6.546
 8428SOL     OW26182   6.089   4.364   2.136
 8428SOL    HW126183   6.113   4.457   2.107
 8428SOL    HW226184   6.017   4.369   2.206
 8429SOL     OW26185   2.194   6.581   2.552
 8429SOL    HW126186   2.150   6.643   2.487
 8429SOL    HW226187   2.289   6.611   2.567
 8430SOL     OW26188   4.638   4.998   3.339
 8430SOL    HW126189   4.692   5.032   3.417
 8430SOL    HW226190   4.692   4.931   3.289
 8431SOL     OW26191   3.993   3.895   1.051
 8431SOL    HW126192   3.932   3.959   1.004
 8431SOL    HW226193   4.082   3.894   1.005
 8432SOL     OW26194   3.930   6.632   0.252
 8432SOL    HW126195   4.016   6.602   0.211
 8432SOL    HW226196   3.938   6.632   0.351
 8433SOL     OW26197   1.306   1.628   5.995
 8433SOL    HW126198   1.244   1.703   6.018
 8433SOL    HW226199   1.401   1.660   6.003
 8434SOL     OW26200   5.487   6.476   5.245
 8434SOL    HW126201   5.557   6.432   5.189
 8434SOL    HW226202   5.530   6.547   5.302
 8435SOL     OW26203   4.407   1.861   1.161
 8435SOL    HW126204   4.347   1.826   1.233
 8435SOL    HW226205   4.421   1.959   1.174
 8436SOL     OW26206   3.882   4.480   1.575
 8436SOL    HW126207   3.966   4.507   1.527
 8436SOL    HW226208   3.850   4.392   1.538
 8437SOL     OW26209   0.254   0.915   1.449
 8437SOL    HW126210   0.264   0.816   1.452
 8437SOL    HW226211   0.279   0.948   1.358
 8438SOL     OW26212   1.432   6.975   1.541
 8438SOL    HW126213   1.422   6.998   1.445
 8438SOL    HW226214   1.468   0.029   1.591
 8439SOL     OW26215   0.473   6.043   2.425
 8439SOL    HW126216   0.384   6.042   2.471
 8439SOL    HW226217   0.509   5.949   2.421
 8440SOL     OW26218   0.593   1.364   3.469
 8440SOL    HW126219   0.532   1.432   3.508
 8440SOL    HW226220   0.541   1.281   3.447
 8441SOL     OW26221   4.795   6.030   6.599
 8441SOL    HW126222   4.737   6.064   6.525
 8441SOL    HW226223   4.742   6.025   6.684
 8442SOL     OW26224   2.028   4.592   6.742
 8442SOL    HW126225   1.932   4.621   6.735
 8442SOL    HW226226   2.035   4.495   6.721
 8443SOL     OW26227   1.671   0.897   2.640
 8443SOL    HW126228   1.689   0.813   2.691
 8443SOL    HW226229   1.746   0.961   2.655
 8444SOL     OW26230   3.563   6.405   3.387
 8444SOL    HW126231   3.559   6.428   3.290
 8444SOL    HW226232   3.657   6.379   3.411
 8445SOL     OW26233   3.819   4.890   2.062
 8445SOL    HW126234   3.851   4.881   2.157
 8445SOL    HW226235   3.741   4.830   2.047
 8446SOL     OW26236   5.926   4.785   3.103
 8446SOL    HW126237   5.974   4.719   3.161
 8446SOL    HW226238   5.853   4.829   3.155
 8447SOL     OW26239   4.721   2.362   1.732
 8447SOL    HW126240   4.763   2.425   1.667
 8447SOL    HW226241   4.721   2.404   1.823
 8448SOL     OW26242   1.089   2.970   6.900
 8448SOL    HW126243   1.040   3.051   6.868
 8448SOL    HW226244   1.124   2.919   6.821
 8449SOL     OW26245   2.035   2.584   4.635
 8449SOL    HW126246   2.113   2.559   4.578
 8449SOL    HW226247   1.957   2.526   4.612
 8450SOL     OW26248   2.028   5.129   2.332
 8450SOL    HW126249   2.008   5.120   2.235
 8450SOL    HW226250   2.113   5.081   2.354
 8451SOL     OW26251   3.324   2.760   0.819
 8451SOL    HW126252   3.323   2.811   0.905
 8451SOL    HW226253   3.418   2.743   0.790
 8452SOL     OW26254   6.612   6.064   0.873
 8452SOL    HW126255   6.593   6.058   0.971
 8452SOL    HW226256   6.528   6.048   0.821
 8453SOL     OW26257   6.915   4.622   6.459
 8453SOL    HW126258   6.935   4.578   6.371
 8453SOL    HW226259   6.975   4.583   6.529
 8454SOL     OW26260   1.437   0.616   4.546
 8454SOL    HW126261   1.485   0.568   4.472
 8454SOL    HW226262   1.350   0.570   4.564
 8455SOL     OW26263   4.973   1.255   1.600
 8455SOL    HW126264   4.998   1.225   1.508
 8455SOL    HW226265   4.979   1.354   1.605
 8456SOL     OW26266   5.733   5.899   2.996
 8456SOL    HW126267   5.833   5.902   2.998
 8456SOL    HW226268   5.702   5.806   3.013
 8457SOL     OW26269   0.473   6.046   6.464
 8457SOL    HW126270   0.533   6.075   6.539
 8457SOL    HW226271   0.506   6.085   6.378
 8458SOL     OW26272   1.138   1.177   0.944
 8458SOL    HW126273   1.224   1.134   0.919
 8458SOL    HW226274   1.156   1.257   1.002
 8459SOL     OW26275   2.862   5.421   2.335
 8459SOL    HW126276   2.937   5.483   2.314
 8459SOL    HW226277   2.896   5.328   2.345
 8460SOL     OW26278   4.756   1.596   0.665
 8460SOL    HW126279   4.765   1.644   0.578
 8460SOL    HW226280   4.725   1.502   0.649
 8461SOL     OW26281   6.046   4.236   1.441
 8461SOL    HW126282   5.989   4.314   1.466
 8461SOL    HW226283   6.070   4.242   1.344
 8462SOL     OW26284   2.685   4.844   0.033
 8462SOL    HW126285   2.765   4.786   0.048
 8462SOL    HW226286   2.602   4.791   0.049
 8463SOL     OW26287   6.287   1.056   0.362
 8463SOL    HW126288   6.305   1.015   0.272
 8463SOL    HW226289   6.190   1.047   0.384
 8464SOL     OW26290   0.247   3.438   0.091
 8464SOL    HW126291   0.257   3.495   0.173
 8464SOL    HW226292   0.201   3.490   0.020
 8465SOL     OW26293   3.876   3.114   1.032
 8465SOL    HW126294   3.976   3.115   1.023
 8465SOL    HW226295   3.851   3.083   1.124
 8466SOL     OW26296   6.021   0.775   5.630
 8466SOL    HW126297   5.973   0.852   5.671
 8466SOL    HW226298   5.996   0.691   5.679
 8467SOL     OW26299   3.169   0.769   0.956
 8467SOL    HW126300   3.186   0.866   0.968
 8467SOL    HW226301   3.156   0.749   0.859
 8468SOL     OW26302   6.313   3.037   0.804
 8468SOL    HW126303   6.272   2.962   0.857
 8468SOL    HW226304   6.380   3.000   0.740
 8469SOL     OW26305   4.112   3.127   6.161
 8469SOL    HW126306   4.089   3.043   6.211
 8469SOL    HW226307   4.211   3.135   6.153
 8470SOL     OW26308   1.571   4.965   1.607
 8470SOL    HW126309   1.644   4.925   1.552
 8470SOL    HW226310   1.531   4.894   1.666
 8471SOL     OW26311   3.859   2.047   4.728
 8471SOL    HW126312   3.931   1.999   4.778
 8471SOL    HW226313   3.896   2.132   4.690
 8472SOL     OW26314   5.717   1.295   6.058
 8472SOL    HW126315   5.785   1.238   6.104
 8472SOL    HW226316   5.711   1.384   6.104
 8473SOL     OW26317   4.704   4.755   6.701
 8473SOL    HW126318   4.717   4.669   6.751
 8473SOL    HW226319   4.778   4.766   6.634
 8474SOL     OW26320   3.681   3.621   2.664
 8474SOL    HW126321   3.647   3.686   2.595
 8474SOL    HW226322   3.750   3.666   2.721
 8475SOL     OW26323   6.511   2.478   2.252
 8475SOL    HW126324   6.507   2.576   2.237
 8475SOL    HW226325   6.607   2.448   2.252
 8476SOL     OW26326   6.200   0.247   2.127
 8476SOL    HW126327   6.189   0.289   2.217
 8476SOL    HW226328   6.269   0.297   2.075
 8477SOL     OW26329   5.731   6.356   1.990
 8477SOL    HW126330   5.661   6.425   2.004
 8477SOL    HW226331   5.821   6.397   2.006
 8478SOL     OW26332   6.542   0.216   5.840
 8478SOL    HW126333   6.632   0.189   5.874
 8478SOL    HW226334   6.546   0.229   5.741
 8479SOL     OW26335   0.890   2.757   1.551
 8479SOL    HW126336   0.957   2.794   1.616
 8479SOL    HW226337   0.937   2.702   1.482
 8480SOL     OW26338   4.628   4.443   0.485
 8480SOL    HW126339   4.542   4.490   0.502
 8480SOL    HW226340   4.653   4.390   0.566
 8481SOL     OW26341   4.132   2.299   3.398
 8481SOL    HW126342   4.112   2.286   3.495
 8481SOL    HW226343   4.231   2.310   3.385
 8482SOL     OW26344   4.355   1.081   0.407
 8482SOL    HW126345   4.438   1.083   0.463
 8482SOL    HW226346   4.276   1.109   0.462
 8483SOL     OW26347   3.104   5.161   3.819
 8483SOL    HW126348   3.014   5.197   3.840
 8483SOL    HW226349   3.168   5.184   3.892
 8484SOL     OW26350   5.660   5.773   3.794
 8484SOL    HW126351   5.748   5.790   3.750
 8484SOL    HW226352   5.627   5.682   3.770
 8485SOL     OW26353   3.050   3.003   0.501
 8485SOL    HW126354   2.973   3.060   0.473
 8485SOL    HW226355   3.040   2.979   0.598
 8486SOL     OW26356   0.777   1.323   2.800
 8486SOL    HW126357   0.770   1.387   2.723
 8486SOL    HW226358   0.694   1.268   2.805
 8487SOL     OW26359   6.554   1.575   5.775
 8487SOL    HW126360   6.496   1.553   5.697
 8487SOL    HW226361   6.592   1.667   5.764
 8488SOL     OW26362   4.882   4.656   1.574
 8488SOL    HW126363   4.925   4.623   1.658
 8488SOL    HW226364   4.945   4.716   1.526
 8489SOL     OW26365   5.143   1.349   1.806
 8489SOL    HW126366   5.115   1.308   1.719
 8489SOL    HW226367   5.209   1.289   1.852
 8490SOL     OW26368   2.343   0.389   6.821
 8490SOL    HW126369   2.319   0.479   6.783
 8490SOL    HW226370   2.353   0.396   6.920
 8491SOL     OW26371   3.242   5.244   2.444
 8491SOL    HW126372   3.181   5.185   2.391
 8491SOL    HW226373   3.194   5.279   2.524
 8492SOL     OW26374   6.924   5.863   4.400
 8492SOL    HW126375   6.972   5.891   4.483
 8492SOL    HW226376   6.987   5.812   4.341
 8493SOL     OW26377   3.925   0.654   6.810
 8493SOL    HW126378   3.892   0.663   6.904
 8493SOL    HW226379   4.025   0.653   6.810
 8494SOL     OW26380   6.677   5.179   2.357
 8494SOL    HW126381   6.620   5.246   2.405
 8494SOL    HW226382   6.689   5.098   2.414
 8495SOL     OW26383   6.647   5.501   0.487
 8495SOL    HW126384   6.742   5.469   0.486
 8495SOL    HW226385   6.631   5.556   0.405
 8496SOL     OW26386   5.415   2.451   2.327
 8496SOL    HW126387   5.327   2.497   2.323
 8496SOL    HW226388   5.417   2.377   2.259
 8497SOL     OW26389   6.342   1.041   3.959
 8497SOL    HW126390   6.392   0.991   3.888
 8497SOL    HW226391   6.249   1.060   3.928
 8498SOL     OW26392   4.868   0.423   4.400
 8498SOL    HW126393   4.803   0.400   4.472
 8498SOL    HW226394   4.903   0.515   4.414
 8499SOL     OW26395   6.358   6.489   6.282
 8499SOL    HW126396   6.381   6.539   6.199
 8499SOL    HW226397   6.393   6.540   6.362
 8500SOL     OW26398   1.645   0.874   4.747
 8500SOL    HW126399   1.589   0.817   4.808
 8500SOL    HW226400   1.596   0.889   4.662
 8501SOL     OW26401   1.155   2.524   6.191
 8501SOL    HW126402   1.253   2.507   6.197
 8501SOL    HW226403   1.133   2.561   6.101
 8502SOL     OW26404   0.483   2.819   6.857
 8502SOL    HW126405   0.458   2.735   6.905
 8502SOL    HW226406   0.577   2.812   6.824
 8503SOL     OW26407   5.829   0.273   4.372
 8503SOL    HW126408   5.896   0.338   4.408
 8503SOL    HW226409   5.784   0.311   4.292
 8504SOL     OW26410   1.677   6.184   2.092
 8504SOL    HW126411   1.581   6.196   2.120
 8504SOL    HW226412   1.683   6.190   1.993
 8505SOL     OW26413   5.290   3.380   2.609
 8505SOL    HW126414   5.303   3.361   2.706
 8505SOL    HW226415   5.193   3.368   2.585
 8506SOL     OW26416   2.011   0.077   6.715
 8506SOL    HW126417   1.913   0.082   6.696
 8506SOL    HW226418   2.029   0.005   6.783
 8507SOL     OW26419   4.041   6.442   5.463
 8507SOL    HW126420   4.014   6.428   5.558
 8507SOL    HW226421   4.138   6.422   5.452
 8508SOL     OW26422   3.418   1.715   0.017
 8508SOL    HW126423   3.391   1.763   6.959
 8508SOL    HW226424   3.352   1.643   0.037
 8509SOL     OW26425   5.785   1.050   3.798
 8509SOL    HW126426   5.690   1.080   3.801
 8509SOL    HW226427   5.800   0.995   3.716
 8510SOL     OW26428   6.579   1.911   4.493
 8510SOL    HW126429   6.525   1.912   4.409
 8510SOL    HW226430   6.673   1.888   4.472
 8511SOL     OW26431   5.656   2.464   2.043
 8511SOL    HW126432   5.604   2.379   2.035
 8511SOL    HW226433   5.717   2.459   2.122
 8512SOL     OW26434   1.757   0.289   4.701
 8512SOL    HW126435   1.825   0.341   4.752
 8512SOL    HW226436   1.665   0.318   4.729
 8513SOL     OW26437   5.113   6.065   6.300
 8513SOL    HW126438   5.180   6.001   6.263
 8513SOL    HW226439   5.135   6.158   6.270
 8514SOL     OW26440   2.254   6.032   3.730
 8514SOL    HW126441   2.264   6.026   3.829
 8514SOL    HW226442   2.179   6.094   3.708
 8515SOL     OW26443   5.152   2.078   0.970
 8515SOL    HW126444   5.098   2.143   1.022
 8515SOL    HW226445   5.249   2.096   0.984
 8516SOL     OW26446   6.890   1.999   2.153
 8516SOL    HW126447   6.961   1.950   2.203
 8516SOL    HW226448   6.932   2.070   2.097
 8517SOL     OW26449   2.348   3.177   6.711
 8517SOL    HW126450   2.369   3.106   6.778
 8517SOL    HW226451   2.339   3.135   6.620
 8518SOL     OW26452   3.365   5.295   0.297
 8518SOL    HW126453   3.424   5.371   0.269
 8518SOL    HW226454   3.372   5.283   0.396
 8519SOL     OW26455   1.138   5.021   2.915
 8519SOL    HW126456   1.228   5.037   2.875
 8519SOL    HW226457   1.109   5.103   2.965
 8520SOL     OW26458   3.544   0.709   0.250
 8520SOL    HW126459   3.570   0.669   0.338
 8520SOL    HW226460   3.511   0.802   0.263
 8521SOL     OW26461   0.791   6.451   6.506
 8521SOL    HW126462   0.880   6.405   6.505
 8521SOL    HW226463   0.801   6.540   6.551
 8522SOL     OW26464   1.807   5.860   4.960
 8522SOL    HW126465   1.734   5.857   4.892
 8522SOL    HW226466   1.819   5.954   4.992
 8523SOL     OW26467   1.601   0.120   6.773
 8523SOL    HW126468   1.539   0.057   6.820
 8523SOL    HW226469   1.644   0.180   6.841
 8524SOL     OW26470   1.404   2.670   6.401
 8524SOL    HW126471   1.464   2.627   6.333
 8524SOL    HW226472   1.356   2.599   6.452
 8525SOL     OW26473   5.488   3.081   2.696
 8525SOL    HW126474   5.461   3.052   2.604
 8525SOL    HW226475   5.416   3.139   2.735
 8526SOL     OW26476   1.951   2.788   2.333
 8526SOL    HW126477   2.020   2.861   2.336
 8526SOL    HW226478   1.965   2.734   2.250
 8527SOL     OW26479   4.219   0.343   4.303
 8527SOL    HW126480   4.145   0.345   4.236
 8527SOL    HW226481   4.278   0.423   4.290
 8528SOL     OW26482   4.986   2.650   6.592
 8528SOL    HW126483   5.057   2.668   6.661
 8528SOL    HW226484   4.903   2.700   6.616
 8529SOL     OW26485   0.123   4.739   0.420
 8529SOL    HW126486   0.206   4.764   0.470
 8529SOL    HW226487   0.094   4.648   0.447
 8530SOL     OW26488   1.696   3.407   5.534
 8530SOL    HW126489   1.672   3.469   5.458
 8530SOL    HW226490   1.639   3.429   5.613
 8531SOL     OW26491   4.400   4.831   2.720
 8531SOL    HW126492   4.311   4.860   2.753
 8531SOL    HW226493   4.390   4.747   2.665
 8532SOL     OW26494   1.480   3.902   5.833
 8532SOL    HW126495   1.499   3.836   5.761
 8532SOL    HW226496   1.384   3.930   5.828
 8533SOL     OW26497   3.637   0.325   5.313
 8533SOL    HW126498   3.608   0.238   5.272
 8533SOL    HW226499   3.564   0.361   5.371
 8534SOL     OW26500   1.621   2.605   3.104
 8534SOL    HW126501   1.678   2.683   3.079
 8534SOL    HW226502   1.526   2.624   3.081
 8535SOL     OW26503   0.012   2.374   4.161
 8535SOL    HW126504   0.049   2.441   4.226
 8535SOL    HW226505   6.990   2.302   4.211
 8536SOL     OW26506   0.315   1.480   5.578
 8536SOL    HW126507   0.220   1.495   5.608
 8536SOL    HW226508   0.358   1.413   5.638
 8537SOL     OW26509   5.586   0.540   1.638
 8537SOL    HW126510   5.630   0.502   1.556
 8537SOL    HW226511   5.600   0.479   1.715
 8538SOL     OW26512   5.768   1.433   4.440
 8538SOL    HW126513   5.794   1.456   4.346
 8538SOL    HW226514   5.727   1.342   4.441
 8539SOL     OW26515   6.872   3.144   2.623
 8539SOL    HW126516   6.913   3.095   2.545
 8539SOL    HW226517   6.851   3.237   2.595
 8540SOL     OW26518   4.535   0.346   0.374
 8540SOL    HW126519   4.558   0.355   0.471
 8540SOL    HW226520   4.565   0.428   0.325
 8541SOL     OW26521   3.171   7.006   5.360
 8541SOL    HW126522   3.091   0.035   5.337
 8541SOL    HW226523   3.155   6.956   5.445
 8542SOL     OW26524   1.258   4.701   6.190
 8542SOL    HW126525   1.298   4.658   6.108
 8542SOL    HW226526   1.187   4.765   6.162
 8543SOL     OW26527   2.405   1.722   6.365
 8543SOL    HW126528   2.445   1.791   6.305
 8543SOL    HW226529   2.338   1.668   6.314
 8544SOL     OW26530   5.687   4.214   5.450
 8544SOL    HW126531   5.608   4.267   5.420
 8544SOL    HW226532   5.666   4.116   5.444
 8545SOL     OW26533   2.932   0.550   6.801
 8545SOL    HW126534   3.019   0.501   6.797
 8545SOL    HW226535   2.927   0.615   6.725
 8546SOL     OW26536   5.140   0.406   1.470
 8546SOL    HW126537   5.230   0.363   1.482
 8546SOL    HW226538   5.095   0.416   1.559
 8547SOL     OW26539   6.140   5.927   5.329
 8547SOL    HW126540   6.119   5.951   5.424
 8547SOL    HW226541   6.232   5.888   5.325
 8548SOL     OW26542   0.364   3.137   5.507
 8548SOL    HW126543   0.413   3.051   5.526
 8548SOL    HW226544   0.397   3.176   5.422
 8549SOL     OW26545   2.207   0.098   3.716
 8549SOL    HW126546   2.239   0.004   3.728
 8549SOL    HW226547   2.160   0.128   3.798
 8550SOL     OW26548   6.713   4.179   6.537
 8550SOL    HW126549   6.792   4.147   6.485
 8550SOL    HW226550   6.631   4.169   6.481
 8551SOL     OW26551   1.679   1.084   6.283
 8551SOL    HW126552   1.624   1.158   6.321
 8551SOL    HW226553   1.644   1.060   6.192
 8552SOL     OW26554   3.088   1.772   3.662
 8552SOL    HW126555   3.138   1.851   3.627
 8552SOL    HW226556   3.084   1.777   3.762
 8553SOL     OW26557   4.972   3.883   0.046
 8553SOL    HW126558   5.013   3.859   0.134
 8553SOL    HW226559   4.899   3.818   0.025
 8554SOL     OW26560   2.154   1.548   1.206
 8554SOL    HW126561   2.215   1.550   1.126
 8554SOL    HW226562   2.070   1.598   1.185
 8555SOL     OW26563   4.234   1.526   3.632
 8555SOL    HW126564   4.267   1.465   3.704
 8555SOL    HW226565   4.312   1.569   3.587
 8556SOL     OW26566   1.726   6.358   0.234
 8556SOL    HW126567   1.818   6.329   0.209
 8556SOL    HW226568   1.688   6.294   0.301
 8557SOL     OW26569   0.382   0.374   6.840
 8557SOL    HW126570   0.348   0.381   6.934
 8557SOL    HW226571   0.351   0.289   6.799
 8558SOL     OW26572   3.516   6.071   4.623
 8558SOL    HW126573   3.418   6.056   4.627
 8558SOL    HW226574   3.555   6.062   4.714
 8559SOL     OW26575   1.510   4.818   2.910
 8559SOL    HW126576   1.481   4.740   2.854
 8559SOL    HW226577   1.607   4.836   2.894
 8560SOL     OW26578   3.013   4.608   1.241
 8560SOL    HW126579   3.037   4.545   1.314
 8560SOL    HW226580   2.993   4.699   1.279
 8561SOL     OW26581   4.931   0.907   2.304
 8561SOL    HW126582   5.001   0.961   2.257
 8561SOL    HW226583   4.953   0.810   2.297
 8562SOL     OW26584   4.812   1.530   6.563
 8562SOL    HW126585   4.911   1.516   6.558
 8562SOL    HW226586   4.783   1.530   6.658
 8563SOL     OW26587   2.372   5.130   2.241
 8563SOL    HW126588   2.363   5.047   2.296
 8563SOL    HW226589   2.382   5.209   2.302
 8564SOL     OW26590   4.187   0.161   6.901
 8564SOL    HW126591   4.239   0.230   6.950
 8564SOL    HW226592   4.107   0.204   6.858
 8565SOL     OW26593   2.060   4.697   0.771
 8565SOL    HW126594   2.026   4.697   0.677
 8565SOL    HW226595   2.072   4.791   0.802
 8566SOL     OW26596   3.638   1.385   2.649
 8566SOL    HW126597   3.552   1.418   2.686
 8566SOL    HW226598   3.636   1.389   2.550
 8567SOL     OW26599   2.057   3.119   2.124
 8567SOL    HW126600   1.967   3.157   2.146
 8567SOL    HW226601   2.111   3.109   2.207
 8568SOL     OW26602   5.709   0.222   6.313
 8568SOL    HW126603   5.762   0.300   6.282
 8568SOL    HW226604   5.657   0.247   6.395
 8569SOL     OW26605   4.460   2.343   6.221
 8569SOL    HW126606   4.406   2.403   6.163
 8569SOL    HW226607   4.528   2.397   6.271
 8570SOL     OW26608   1.750   2.855   2.682
 8570SOL    HW126609   1.767   2.850   2.584
 8570SOL    HW226610   1.711   2.768   2.713
 8571SOL     OW26611   1.657   0.981   3.149
 8571SOL    HW126612   1.565   1.021   3.150
 8571SOL    HW226613   1.724   1.051   3.125
 8572SOL     OW26614   2.910   4.631   5.555
 8572SOL    HW126615   2.933   4.712   5.609
 8572SOL    HW226616   2.992   4.578   5.538
 8573SOL     OW26617   4.005   6.311   0.327
 8573SOL    HW126618   4.087   6.298   0.271
 8573SOL    HW226619   3.965   6.222   0.349
 8574SOL     OW26620   5.484   0.723   4.590
 8574SOL    HW126621   5.416   0.667   4.638
 8574SOL    HW226622   5.550   0.758   4.656
 8575SOL     OW26623   3.490   5.978   3.496
 8575SOL    HW126624   3.449   5.950   3.582
 8575SOL    HW226625   3.577   6.024   3.514
 8576SOL     OW26626   1.601   4.726   3.428
 8576SOL    HW126627   1.627   4.631   3.411
 8576SOL    HW226628   1.659   4.787   3.374
 8577SOL     OW26629   1.480   1.825   0.531
 8577SOL    HW126630   1.441   1.852   0.443
 8577SOL    HW226631   1.560   1.882   0.551
 8578SOL     OW26632   0.139   6.377   6.378
 8578SOL    HW126633   0.161   6.330   6.292
 8578SOL    HW226634   0.054   6.428   6.366
 8579SOL     OW26635   3.110   6.654   2.715
 8579SOL    HW126636   3.123   6.569   2.663
 8579SOL    HW226637   3.121   6.636   2.812
 8580SOL     OW26638   1.921   0.547   1.136
 8580SOL    HW126639   1.899   0.637   1.174
 8580SOL    HW226640   2.014   0.549   1.100
 8581SOL     OW26641   3.420   4.794   1.355
 8581SOL    HW126642   3.327   4.824   1.376
 8581SOL    HW226643   3.422   4.756   1.262
 8582SOL     OW26644   3.748   4.855   6.094
 8582SOL    HW126645   3.688   4.861   6.174
 8582SOL    HW226646   3.708   4.793   6.027
 8583SOL     OW26647   4.432   0.575   2.651
 8583SOL    HW126648   4.350   0.522   2.629
 8583SOL    HW226649   4.499   0.565   2.577
 8584SOL     OW26650   6.720   1.440   4.943
 8584SOL    HW126651   6.724   1.494   4.859
 8584SOL    HW226652   6.632   1.393   4.949
 8585SOL     OW26653   5.070   2.344   2.521
 8585SOL    HW126654   4.994   2.287   2.553
 8585SOL    HW226655   5.047   2.384   2.432
 8586SOL     OW26656   6.615   5.879   0.547
 8586SOL    HW126657   6.564   5.950   0.597
 8586SOL    HW226658   6.552   5.828   0.489
 8587SOL     OW26659   0.964   1.811   0.028
 8587SOL    HW126660   0.960   1.864   6.969
 8587SOL    HW226661   0.873   1.809   0.071
 8588SOL     OW26662   2.059   1.685   6.726
 8588SOL    HW126663   1.961   1.701   6.737
 8588SOL    HW226664   2.076   1.649   6.634
 8589SOL     OW26665   6.501   2.497   6.447
 8589SOL    HW126666   6.474   2.549   6.528
 8589SOL    HW226667   6.515   2.401   6.472
 8590SOL     OW26668   1.308   1.271   4.541
 8590SOL    HW126669   1.370   1.193   4.535
 8590SOL    HW226670   1.346   1.339   4.604
 8591SOL     OW26671   6.649   4.418   6.711
 8591SOL    HW126672   6.657   4.339   6.651
 8591SOL    HW226673   6.591   4.394   6.789
 8592SOL     OW26674   0.988   1.525   6.059
 8592SOL    HW126675   0.932   1.523   5.976
 8592SOL    HW226676   0.984   1.436   6.104
 8593SOL     OW26677   3.983   1.413   0.342
 8593SOL    HW126678   4.032   1.500   0.337
 8593SOL    HW226679   4.009   1.355   0.265
 8594SOL     OW26680   6.323   2.840   5.381
 8594SOL    HW126681   6.374   2.921   5.409
 8594SOL    HW226682   6.263   2.810   5.455
 8595SOL     OW26683   6.076   6.825   2.708
 8595SOL    HW126684   5.987   6.782   2.699
 8595SOL    HW226685   6.148   6.756   2.699
 8596SOL     OW26686   1.029   1.485   4.021
 8596SOL    HW126687   1.079   1.556   3.971
 8596SOL    HW226688   1.092   1.415   4.053
 8597SOL     OW26689   5.880   3.401   6.904
 8597SOL    HW126690   5.852   3.450   6.821
 8597SOL    HW226691   5.868   3.303   6.890
 8598SOL     OW26692   5.941   6.513   4.426
 8598SOL    HW126693   5.923   6.604   4.465
 8598SOL    HW226694   6.039   6.495   4.427
 8599SOL     OW26695   0.399   3.415   3.952
 8599SOL    HW126696   0.406   3.327   3.905
 8599SOL    HW226697   0.486   3.438   3.995
 8600SOL     OW26698   4.521   2.230   0.944
 8600SOL    HW126699   4.547   2.247   1.039
 8600SOL    HW226700   4.493   2.316   0.901
 8601SOL     OW26701   0.850   6.619   3.261
 8601SOL    HW126702   0.777   6.615   3.192
 8601SOL    HW226703   0.938   6.623   3.215
 8602SOL     OW26704   2.837   6.427   5.135
 8602SOL    HW126705   2.912   6.442   5.070
 8602SOL    HW226706   2.813   6.514   5.178
 8603SOL     OW26707   0.115   0.058   0.044
 8603SOL    HW126708   0.197   0.016   0.005
 8603SOL    HW226709   0.112   0.154   0.018
 8604SOL     OW26710   0.008   4.262   6.189
 8604SOL    HW126711   0.072   4.245   6.115
 8604SOL    HW226712   7.023   4.361   6.202
 8605SOL     OW26713   6.632   5.007   4.127
 8605SOL    HW126714   6.600   4.987   4.035
 8605SOL    HW226715   6.700   4.939   4.155
 8606SOL     OW26716   1.599   2.420   0.349
 8606SOL    HW126717   1.589   2.497   0.412
 8606SOL    HW226718   1.511   2.373   0.339
 8607SOL     OW26719   2.551   4.279   1.358
 8607SOL    HW126720   2.620   4.210   1.381
 8607SOL    HW226721   2.473   4.269   1.419
 8608SOL     OW26722   2.246   5.169   2.773
 8608SOL    HW126723   2.175   5.148   2.840
 8608SOL    HW226724   2.318   5.099   2.778
 8609SOL     OW26725   4.647   1.598   4.507
 8609SOL    HW126726   4.728   1.592   4.449
 8609SOL    HW226727   4.566   1.612   4.450
 8610SOL     OW26728   6.975   5.743   3.398
 8610SOL    HW126729   6.932   5.707   3.481
 8610SOL    HW226730   0.013   5.816   3.421
 8611SOL     OW26731   3.362   1.714   4.961
 8611SOL    HW126732   3.438   1.649   4.964
 8611SOL    HW226733   3.298   1.687   4.890
 8612SOL     OW26734   3.815   4.041   3.923
 8612SOL    HW126735   3.809   4.040   4.023
 8612SOL    HW226736   3.845   4.131   3.892
 8613SOL     OW26737   3.984   2.814   1.770
 8613SOL    HW126738   3.902   2.773   1.809
 8613SOL    HW226739   3.966   2.910   1.746
 8614SOL     OW26740   1.546   1.642   2.716
 8614SOL    HW126741   1.469   1.637   2.780
 8614SOL    HW226742   1.511   1.646   2.623
 8615SOL     OW26743   3.951   1.367   4.393
 8615SOL    HW126744   3.990   1.450   4.354
 8615SOL    HW226745   3.858   1.386   4.425
 8616SOL     OW26746   4.666   4.340   2.950
 8616SOL    HW126747   4.584   4.390   2.979
 8616SOL    HW226748   4.665   4.331   2.851
 8617SOL     OW26749   2.987   0.163   3.809
 8617SOL    HW126750   3.079   0.190   3.779
 8617SOL    HW226751   2.983   0.064   3.818
 8618SOL     OW26752   5.648   4.613   0.597
 8618SOL    HW126753   5.589   4.625   0.517
 8618SOL    HW226754   5.694   4.524   0.591
 8619SOL     OW26755   4.713   5.421   0.713
 8619SOL    HW126756   4.691   5.465   0.799
 8619SOL    HW226757   4.643   5.352   0.692
 8620SOL     OW26758   2.015   0.602   4.558
 8620SOL    HW126759   2.012   0.701   4.566
 8620SOL    HW226760   2.060   0.563   4.638
 8621SOL     OW26761   5.627   2.698   1.569
 8621SOL    HW126762   5.707   2.658   1.525
 8621SOL    HW226763   5.596   2.639   1.644
 8622SOL     OW26764   6.554   5.157   2.827
 8622SOL    HW126765   6.509   5.087   2.771
 8622SOL    HW226766   6.514   5.246   2.807
 8623SOL     OW26767   0.646   3.341   3.585
 8623SOL    HW126768   0.672   3.244   3.585
 8623SOL    HW226769   0.633   3.372   3.491
 8624SOL     OW26770   2.886   3.780   5.015
 8624SOL    HW126771   2.805   3.837   5.029
 8624SOL    HW226772   2.941   3.779   5.099
 8625SOL     OW26773   4.101   2.827   5.591
 8625SOL    HW126774   4.165   2.765   5.636
 8625SOL    HW226775   4.028   2.852   5.654
 8626SOL     OW26776   4.171   4.287   0.972
 8626SOL    HW126777   4.146   4.253   1.063
 8626SOL    HW226778   4.226   4.218   0.925
 8627SOL     OW26779   1.826   0.654   1.609
 8627SOL    HW126780   1.884   0.575   1.626
 8627SOL    HW226781   1.880   0.728   1.570
 8628SOL     OW26782   0.583   6.182   0.713
 8628SOL    HW126783   0.619   6.234   0.636
 8628SOL    HW226784   0.569   6.242   0.792
 8629SOL     OW26785   0.037   6.576   5.958
 8629SOL    HW126786   0.125   6.595   6.001
 8629SOL    HW226787   0.052   6.542   5.865
 8630SOL     OW26788   5.429   3.024   2.432
 8630SOL    HW126789   5.346   3.071   2.401
 8630SOL    HW226790   5.451   2.951   2.367
 8631SOL     OW26791   2.454   0.161   0.220
 8631SOL    HW126792   2.504   0.168   0.134
 8631SOL    HW226793   2.379   0.096   0.210
 8632SOL     OW26794   5.256   5.100   5.683
 8632SOL    HW126795   5.222   5.007   5.670
 8632SOL    HW226796   5.353   5.105   5.660
 8633SOL     OW26797   5.586   4.324   6.135
 8633SOL    HW126798   5.608   4.419   6.159
 8633SOL    HW226799   5.623   4.302   6.045
 8634SOL     OW26800   4.463   3.629   0.456
 8634SOL    HW126801   4.455   3.696   0.530
 8634SOL    HW226802   4.379   3.629   0.402
 8635SOL     OW26803   5.612   2.180   5.978
 8635SOL    HW126804   5.578   2.187   5.884
 8635SOL    HW226805   5.576   2.097   6.020
 8636SOL     OW26806   5.115   0.690   1.364
 8636SOL    HW126807   5.090   0.594   1.377
 8636SOL    HW226808   5.203   0.708   1.408
 8637SOL     OW26809   1.358   1.873   0.266
 8637SOL    HW126810   1.325   1.956   0.221
 8637SOL    HW226811   1.399   1.812   0.198
 8638SOL     OW26812   4.841   2.316   4.120
 8638SOL    HW126813   4.866   2.291   4.213
 8638SOL    HW226814   4.745   2.292   4.104
 8639SOL     OW26815   3.472   3.914   6.792
 8639SOL    HW126816   3.526   3.935   6.874
 8639SOL    HW226817   3.376   3.903   6.818
 8640SOL     OW26818   3.008   3.371   1.243
 8640SOL    HW126819   3.011   3.341   1.147
 8640SOL    HW226820   2.919   3.414   1.261
 8641SOL     OW26821   4.387   6.440   2.363
 8641SOL    HW126822   4.376   6.511   2.433
 8641SOL    HW226823   4.301   6.431   2.312
 8642SOL     OW26824   1.035   5.923   3.764
 8642SOL    HW126825   0.992   5.977   3.692
 8642SOL    HW226826   0.971   5.912   3.841
 8643SOL     OW26827   3.916   6.063   1.068
 8643SOL    HW126828   3.826   6.100   1.089
 8643SOL    HW226829   3.979   6.138   1.045
 8644SOL     OW26830   6.341   1.949   6.804
 8644SOL    HW126831   6.389   1.887   6.866
 8644SOL    HW226832   6.300   1.896   6.729
 8645SOL     OW26833   5.536   4.508   2.798
 8645SOL    HW126834   5.595   4.571   2.850
 8645SOL    HW226835   5.592   4.434   2.761
 8646SOL     OW26836   0.219   2.309   5.133
 8646SOL    HW126837   0.261   2.240   5.192
 8646SOL    HW226838   0.222   2.278   5.038
 8647SOL     OW26839   2.360   5.567   1.843
 8647SOL    HW126840   2.347   5.616   1.757
 8647SOL    HW226841   2.271   5.545   1.883
 8648SOL     OW26842   5.193   5.094   0.197
 8648SOL    HW126843   5.202   5.190   0.223
 8648SOL    HW226844   5.214   5.036   0.275
 8649SOL     OW26845   4.579   0.443   0.918
 8649SOL    HW126846   4.653   0.454   0.984
 8649SOL    HW226847   4.591   0.507   0.842
 8650SOL     OW26848   2.031   6.320   4.592
 8650SOL    HW126849   1.963   6.329   4.664
 8650SOL    HW226850   2.092   6.244   4.612
 8651SOL     OW26851   3.346   1.930   1.272
 8651SOL    HW126852   3.297   1.911   1.186
 8651SOL    HW226853   3.295   1.892   1.349
 8652SOL     OW26854   0.757   2.814   3.699
 8652SOL    HW126855   0.787   2.785   3.790
 8652SOL    HW226856   0.673   2.765   3.674
 8653SOL     OW26857   6.886   1.524   6.415
 8653SOL    HW126858   6.960   1.588   6.435
 8653SOL    HW226859   6.874   1.516   6.316
 8654SOL     OW26860   0.609   4.638   2.016
 8654SOL    HW126861   0.522   4.687   2.025
 8654SOL    HW226862   0.593   4.549   1.972
 8655SOL     OW26863   0.752   0.485   4.979
 8655SOL    HW126864   0.760   0.415   4.907
 8655SOL    HW226865   0.658   0.486   5.013
 8656SOL     OW26866   5.000   6.931   1.035
 8656SOL    HW126867   4.996   6.976   0.946
 8656SOL    HW226868   5.071   6.860   1.032
 8657SOL     OW26869   4.753   1.105   3.151
 8657SOL    HW126870   4.778   1.163   3.229
 8657SOL    HW226871   4.783   1.012   3.168
 8658SOL     OW26872   6.427   4.116   0.803
 8658SOL    HW126873   6.356   4.137   0.871
 8658SOL    HW226874   6.462   4.024   0.818
 8659SOL     OW26875   4.409   0.866   2.625
 8659SOL    HW126876   4.419   0.767   2.627
 8659SOL    HW226877   4.492   0.908   2.587
 8660SOL     OW26878   6.404   3.877   1.474
 8660SOL    HW126879   6.373   3.828   1.393
 8660SOL    HW226880   6.331   3.936   1.508
 8661SOL     OW26881   6.153   4.048   2.664
 8661SOL    HW126882   6.196   4.090   2.584
 8661SOL    HW226883   6.117   3.958   2.640
 8662SOL     OW26884   2.273   4.304   3.397
 8662SOL    HW126885   2.268   4.222   3.453
 8662SOL    HW226886   2.246   4.282   3.303
 8663SOL     OW26887   3.897   5.755   2.447
 8663SOL    HW126888   3.867   5.669   2.408
 8663SOL    HW226889   3.916   5.821   2.374
 8664SOL     OW26890   3.426   6.134   3.963
 8664SOL    HW126891   3.404   6.043   4.000
 8664SOL    HW226892   3.342   6.178   3.932
 8665SOL     OW26893   5.904   2.563   6.465
 8665SOL    HW126894   5.864   2.601   6.548
 8665SOL    HW226895   6.001   2.584   6.462
 8666SOL     OW26896   4.439   6.698   2.638
 8666SOL    HW126897   4.495   6.630   2.687
 8666SOL    HW226898   4.466   6.700   2.542
 8667SOL     OW26899   5.399   2.018   3.710
 8667SOL    HW126900   5.388   1.919   3.696
 8667SOL    HW226901   5.497   2.040   3.711
 8668SOL     OW26902   5.006   2.488   4.650
 8668SOL    HW126903   4.994   2.537   4.564
 8668SOL    HW226904   4.994   2.552   4.726
 8669SOL     OW26905   6.110   5.955   5.631
 8669SOL    HW126906   6.068   6.019   5.696
 8669SOL    HW226907   6.046   5.881   5.612
 8670SOL     OW26908   6.167   4.257   6.106
 8670SOL    HW126909   6.176   4.342   6.158
 8670SOL    HW226910   6.070   4.234   6.098
 8671SOL     OW26911   6.896   2.131   3.043
 8671SOL    HW126912   6.967   2.117   3.112
 8671SOL    HW226913   6.937   2.127   2.952
 8672SOL     OW26914   0.534   0.825   3.303
 8672SOL    HW126915   0.445   0.842   3.348
 8672SOL    HW226916   0.519   0.801   3.208
 8673SOL     OW26917   0.683   1.441   1.326
 8673SOL    HW126918   0.727   1.434   1.416
 8673SOL    HW226919   0.674   1.537   1.300
 8674SOL     OW26920   6.777   4.299   3.756
 8674SOL    HW126921   6.756   4.205   3.730
 8674SOL    HW226922   6.703   4.336   3.811
 8675SOL     OW26923   3.805   2.009   5.217
 8675SOL    HW126924   3.887   2.000   5.273
 8675SOL    HW226925   3.825   1.983   5.123
 8676SOL     OW26926   5.561   1.500   0.678
 8676SOL    HW126927   5.528   1.408   0.698
 8676SOL    HW226928   5.661   1.500   0.676
 8677SOL     OW26929   2.343   6.278   5.959
 8677SOL    HW126930   2.311   6.303   5.868
 8677SOL    HW226931   2.409   6.346   5.992
 8678SOL     OW26932   1.374   1.934   1.057
 8678SOL    HW126933   1.340   1.989   1.133
 8678SOL    HW226934   1.397   1.994   0.980
 8679SOL     OW26935   1.142   1.505   5.117
 8679SOL    HW126936   1.164   1.599   5.088
 8679SOL    HW226937   1.075   1.507   5.191
 8680SOL     OW26938   6.508   0.940   6.866
 8680SOL    HW126939   6.576   0.905   6.802
 8680SOL    HW226940   6.508   1.040   6.862
 8681SOL     OW26941   5.213   6.227   1.333
 8681SOL    HW126942   5.162   6.276   1.263
 8681SOL    HW226943   5.179   6.252   1.424
 8682SOL     OW26944   1.749   1.108   1.291
 8682SOL    HW126945   1.734   1.181   1.359
 8682SOL    HW226946   1.839   1.121   1.249
 8683SOL     OW26947   1.787   4.382   4.770
 8683SOL    HW126948   1.818   4.476   4.787
 8683SOL    HW226949   1.856   4.319   4.806
 8684SOL     OW26950   1.218   3.583   3.957
 8684SOL    HW126951   1.132   3.625   3.928
 8684SOL    HW226952   1.202   3.486   3.976
 8685SOL     OW26953   5.114   2.269   5.094
 8685SOL    HW126954   5.168   2.287   5.176
 8685SOL    HW226955   5.174   2.268   5.014
 8686SOL     OW26956   0.724   5.641   2.853
 8686SOL    HW126957   0.691   5.732   2.881
 8686SOL    HW226958   0.648   5.576   2.857
 8687SOL     OW26959   5.283   3.927   5.423
 8687SOL    HW126960   5.343   3.914   5.502
 8687SOL    HW226961   5.289   4.022   5.392
 8688SOL     OW26962   0.234   4.009   5.734
 8688SOL    HW126963   0.270   4.051   5.818
 8688SOL    HW226964   0.306   3.955   5.691
 8689SOL     OW26965   4.184   3.940   6.971
 8689SOL    HW126966   4.109   3.880   6.942
 8689SOL    HW226967   4.161   3.979   0.035
 8690SOL     OW26968   1.593   2.635   2.769
 8690SOL    HW126969   1.549   2.586   2.844
 8690SOL    HW226970   1.645   2.570   2.714
 8691SOL     OW26971   3.293   2.619   5.283
 8691SOL    HW126972   3.280   2.529   5.243
 8691SOL    HW226973   3.380   2.623   5.331
 8692SOL     OW26974   4.335   1.985   5.000
 8692SOL    HW126975   4.255   1.963   4.945
 8692SOL    HW226976   4.418   1.974   4.945
 8693SOL     OW26977   6.337   6.720   6.506
 8693SOL    HW126978   6.251   6.706   6.457
 8693SOL    HW226979   6.319   6.723   6.604
 8694SOL     OW26980   6.184   3.620   4.620
 8694SOL    HW126981   6.184   3.629   4.719
 8694SOL    HW226982   6.114   3.554   4.593
 8695SOL     OW26983   3.593   4.234   5.849
 8695SOL    HW126984   3.522   4.180   5.893
 8695SOL    HW226985   3.656   4.269   5.919
 8696SOL     OW26986   2.903   5.349   5.770
 8696SOL    HW126987   2.961   5.413   5.821
 8696SOL    HW226988   2.817   5.394   5.745
 8697SOL     OW26989   1.334   3.678   5.594
 8697SOL    HW126990   1.293   3.763   5.561
 8697SOL    HW226991   1.433   3.681   5.581
 8698SOL     OW26992   5.339   5.409   5.271
 8698SOL    HW126993   5.267   5.398   5.203
 8698SOL    HW226994   5.423   5.438   5.226
 8699SOL     OW26995   1.584   2.862   6.720
 8699SOL    HW126996   1.635   2.818   6.646
 8699SOL    HW226997   1.502   2.906   6.683
 8700SOL     OW26998   0.979   6.809   4.770
 8700SOL    HW126999   1.012   6.903   4.762
 8700SOL    HW227000   0.895   6.806   4.823
 8701SOL     OW27001   0.667   2.364   0.593
 8701SOL    HW127002   0.672   2.463   0.584
 8701SOL    HW227003   0.709   2.336   0.680
 8702SOL     OW27004   5.504   5.140   1.763
 8702SOL    HW127005   5.437   5.191   1.709
 8702SOL    HW227006   5.489   5.042   1.750
 8703SOL     OW27007   2.664   5.565   1.326
 8703SOL    HW127008   2.699   5.611   1.408
 8703SOL    HW227009   2.737   5.508   1.287
 8704SOL     OW27010   0.926   0.360   4.355
 8704SOL    HW127011   0.914   0.397   4.447
 8704SOL    HW227012   0.974   0.273   4.360
 8705SOL     OW27013   4.611   2.500   0.022
 8705SOL    HW127014   4.705   2.517   0.052
 8705SOL    HW227015   4.589   2.561   6.972
 8706SOL     OW27016   4.632   2.868   6.412
 8706SOL    HW127017   4.615   2.873   6.510
 8706SOL    HW227018   4.551   2.901   6.362
 8707SOL     OW27019   1.996   1.944   5.017
 8707SOL    HW127020   2.031   1.885   5.089
 8707SOL    HW227021   1.914   1.904   4.977
 8708SOL     OW27022   6.023   2.296   1.316
 8708SOL    HW127023   6.119   2.286   1.288
 8708SOL    HW227024   5.974   2.350   1.248
 8709SOL     OW27025   6.691   0.047   6.073
 8709SOL    HW127026   6.593   0.057   6.059
 8709SOL    HW227027   6.718   0.099   6.154
 8710SOL     OW27028   2.408   1.055   3.053
 8710SOL    HW127029   2.442   1.135   3.100
 8710SOL    HW227030   2.359   0.996   3.118
 8711SOL     OW27031   1.584   0.701   1.472
 8711SOL    HW127032   1.554   0.796   1.474
 8711SOL    HW227033   1.666   0.691   1.529
 8712SOL     OW27034   1.586   3.593   5.960
 8712SOL    HW127035   1.501   3.604   6.011
 8712SOL    HW227036   1.589   3.501   5.920
 8713SOL     OW27037   0.174   5.098   1.993
 8713SOL    HW127038   0.201   5.185   2.035
 8713SOL    HW227039   0.121   5.117   1.910
 8714SOL     OW27040   0.055   5.835   6.961
 8714SOL    HW127041   6.999   5.838   7.018
 8714SOL    HW227042   0.037   5.782   6.878
 8715SOL     OW27043   2.221   3.210   1.506
 8715SOL    HW127044   2.261   3.118   1.504
 8715SOL    HW227045   2.178   3.226   1.595
 8716SOL     OW27046   6.656   6.625   1.544
 8716SOL    HW127047   6.722   6.700   1.551
 8716SOL    HW227048   6.563   6.662   1.541
 8717SOL     OW27049   3.025   4.049   0.862
 8717SOL    HW127050   3.079   4.115   0.914
 8717SOL    HW227051   2.993   4.092   0.778
 8718SOL     OW27052   2.335   4.518   6.560
 8718SOL    HW127053   2.291   4.595   6.514
 8718SOL    HW227054   2.422   4.498   6.515
 8719SOL     OW27055   4.011   0.499   5.515
 8719SOL    HW127056   4.101   0.462   5.538
 8719SOL    HW227057   3.942   0.428   5.524
 8720SOL     OW27058   6.691   4.925   4.875
 8720SOL    HW127059   6.679   4.829   4.902
 8720SOL    HW227060   6.607   4.959   4.835
 8721SOL     OW27061   0.566   0.420   6.639
 8721SOL    HW127062   0.511   0.391   6.717
 8721SOL    HW227063   0.655   0.452   6.671
 8722SOL     OW27064   3.354   1.449   1.301
 8722SOL    HW127065   3.328   1.372   1.243
 8722SOL    HW227066   3.285   1.462   1.372
 8723SOL     OW27067   4.020   0.558   2.134
 8723SOL    HW127068   3.993   0.477   2.185
 8723SOL    HW227069   3.996   0.640   2.187
 8724SOL     OW27070   4.005   0.980   4.563
 8724SOL    HW127071   3.934   0.911   4.554
 8724SOL    HW227072   4.042   1.002   4.473
 8725SOL     OW27073   0.306   6.504   3.856
 8725SOL    HW127074   0.370   6.574   3.888
 8725SOL    HW227075   0.213   6.540   3.858
 8726SOL     OW27076   0.199   0.743   0.937
 8726SOL    HW127077   0.265   0.669   0.949
 8726SOL    HW227078   0.171   0.747   0.842
 8727SOL     OW27079   4.450   5.700   6.153
 8727SOL    HW127080   4.515   5.734   6.221
 8727SOL    HW227081   4.406   5.777   6.107
 8728SOL     OW27082   6.955   0.360   3.327
 8728SOL    HW127083   6.989   0.392   3.415
 8728SOL    HW227084   6.944   0.438   3.264
 8729SOL     OW27085   3.981   6.443   6.450
 8729SOL    HW127086   3.961   6.347   6.433
 8729SOL    HW227087   4.070   6.452   6.494
 8730SOL     OW27088   4.339   5.402   1.890
 8730SOL    HW127089   4.382   5.466   1.954
 8730SOL    HW227090   4.289   5.333   1.942
 8731SOL     OW27091   0.289   1.811   3.472
 8731SOL    HW127092   0.247   1.745   3.409
 8731SOL    HW227093   0.381   1.780   3.497
 8732SOL     OW27094   5.860   6.909   0.369
 8732SOL    HW127095   5.812   6.876   0.450
 8732SOL    HW227096   5.795   6.947   0.304
 8733SOL     OW27097   6.502   5.285   1.884
 8733SOL    HW127098   6.548   5.372   1.870
 8733SOL    HW227099   6.564   5.222   1.931
 8734SOL     OW27100   0.125   3.492   2.281
 8734SOL    HW127101   0.129   3.571   2.343
 8734SOL    HW227102   0.053   3.430   2.311
 8735SOL     OW27103   0.924   3.729   5.362
 8735SOL    HW127104   0.859   3.673   5.413
 8735SOL    HW227105   1.002   3.672   5.335
 8736SOL     OW27106   1.302   6.183   3.616
 8736SOL    HW127107   1.319   6.103   3.675
 8736SOL    HW227108   1.250   6.154   3.536
 8737SOL     OW27109   1.977   6.526   7.016
 8737SOL    HW127110   1.946   6.436   0.019
 8737SOL    HW227111   2.009   6.577   0.070
 8738SOL     OW27112   1.183   2.818   3.699
 8738SOL    HW127113   1.103   2.872   3.724
 8738SOL    HW227114   1.163   2.765   3.616
 8739SOL     OW27115   5.055   3.953   5.723
 8739SOL    HW127116   5.129   4.020   5.729
 8739SOL    HW227117   4.977   3.985   5.777
 8740SOL     OW27118   2.594   0.808   5.246
 8740SOL    HW127119   2.614   0.809   5.148
 8740SOL    HW227120   2.512   0.753   5.262
 8741SOL     OW27121   1.161   0.452   2.346
 8741SOL    HW127122   1.093   0.412   2.284
 8741SOL    HW227123   1.176   0.390   2.423
 8742SOL     OW27124   2.931   1.382   2.834
 8742SOL    HW127125   2.848   1.410   2.785
 8742SOL    HW227126   2.975   1.463   2.873
 8743SOL     OW27127   0.249   1.760   1.556
 8743SOL    HW127128   0.292   1.683   1.602
 8743SOL    HW227129   0.158   1.733   1.524
 8744SOL     OW27130   3.263   4.446   6.493
 8744SOL    HW127131   3.333   4.486   6.435
 8744SOL    HW227132   3.279   4.347   6.501
 8745SOL     OW27133   5.622   0.991   5.804
 8745SOL    HW127134   5.680   0.921   5.762
 8745SOL    HW227135   5.538   0.949   5.838
 8746SOL     OW27136   4.434   5.625   4.863
 8746SOL    HW127137   4.411   5.632   4.960
 8746SOL    HW227138   4.363   5.573   4.816
 8747SOL     OW27139   6.960   0.550   1.843
 8747SOL    HW127140   6.880   0.538   1.902
 8747SOL    HW227141   6.933   0.603   1.762
 8748SOL     OW27142   0.007   1.863   3.775
 8748SOL    HW127143   0.085   1.810   3.808
 8748SOL    HW227144   0.039   1.939   3.720
 8749SOL     OW27145   2.809   1.003   4.171
 8749SOL    HW127146   2.740   0.962   4.231
 8749SOL    HW227147   2.765   1.036   4.087
 8750SOL     OW27148   4.221   3.291   6.844
 8750SOL    HW127149   4.248   3.387   6.852
 8750SOL    HW227150   4.177   3.276   6.756
 8751SOL     OW27151   1.281   6.041   1.248
 8751SOL    HW127152   1.209   6.110   1.244
 8751SOL    HW227153   1.269   5.975   1.173
 8752SOL     OW27154   5.852   3.515   6.296
 8752SOL    HW127155   5.794   3.597   6.299
 8752SOL    HW227156   5.815   3.446   6.359
 8753SOL     OW27157   2.496   2.954   0.486
 8753SOL    HW127158   2.438   2.974   0.408
 8753SOL    HW227159   2.440   2.948   0.569
 8754SOL     OW27160   2.084   5.054   6.509
 8754SOL    HW127161   2.163   5.114   6.523
 8754SOL    HW227162   2.047   5.028   6.598
 8755SOL     OW27163   6.996   2.911   1.798
 8755SOL    HW127164   0.046   2.973   1.822
 8755SOL    HW227165   7.023   2.855   1.720
 8756SOL     OW27166   1.715   1.674   2.104
 8756SOL    HW127167   1.795   1.723   2.138
 8756SOL    HW227168   1.639   1.684   2.169
 8757SOL     OW27169   5.638   6.225   5.405
 8757SOL    HW127170   5.561   6.184   5.356
 8757SOL    HW227171   5.694   6.278   5.342
 8758SOL     OW27172   3.462   5.399   4.988
 8758SOL    HW127173   3.373   5.428   5.024
 8758SOL    HW227174   3.526   5.475   4.992
 8759SOL     OW27175   6.118   0.819   0.376
 8759SOL    HW127176   6.053   0.828   0.300
 8759SOL    HW227177   6.072   0.845   0.461
 8760SOL     OW27178   2.536   2.501   4.101
 8760SOL    HW127179   2.524   2.585   4.048
 8760SOL    HW227180   2.454   2.485   4.156
 8761SOL     OW27181   5.301   1.192   2.971
 8761SOL    HW127182   5.286   1.214   2.875
 8761SOL    HW227183   5.320   1.275   3.022
 8762SOL     OW27184   1.967   4.615   3.420
 8762SOL    HW127185   1.920   4.535   3.384
 8762SOL    HW227186   2.066   4.600   3.416
 8763SOL     OW27187   0.937   0.934   6.189
 8763SOL    HW127188   0.843   0.957   6.210
 8763SOL    HW227189   0.959   0.964   6.096
 8764SOL     OW27190   2.826   5.006   5.193
 8764SOL    HW127191   2.914   5.042   5.161
 8764SOL    HW227192   2.842   4.932   5.259
 8765SOL     OW27193   5.125   0.633   4.312
 8765SOL    HW127194   5.098   0.569   4.241
 8765SOL    HW227195   5.127   0.726   4.275
 8766SOL     OW27196   5.014   6.004   5.796
 8766SOL    HW127197   4.995   5.925   5.738
 8766SOL    HW227198   4.953   6.079   5.771
 8767SOL     OW27199   2.474   0.990   4.197
 8767SOL    HW127200   2.413   0.970   4.121
 8767SOL    HW227201   2.500   1.087   4.195
 8768SOL     OW27202   5.982   1.471   6.693
 8768SOL    HW127203   5.970   1.551   6.634
 8768SOL    HW227204   5.892   1.438   6.722
 8769SOL     OW27205   6.467   0.293   0.135
 8769SOL    HW127206   6.455   0.246   0.047
 8769SOL    HW227207   6.480   0.225   0.207
 8770SOL     OW27208   5.054   3.363   0.225
 8770SOL    HW127209   5.031   3.274   0.265
 8770SOL    HW227210   5.020   3.436   0.284
 8771SOL     OW27211   0.340   3.701   0.289
 8771SOL    HW127212   0.320   3.754   0.206
 8771SOL    HW227213   0.255   3.672   0.332
 8772SOL     OW27214   5.826   0.054   4.540
 8772SOL    HW127215   5.864   0.087   4.626
 8772SOL    HW227216   5.809   0.132   4.479
 8773SOL     OW27217   0.053   1.205   3.987
 8773SOL    HW127218   0.042   1.106   3.989
 8773SOL    HW227219   0.018   1.244   4.072
 8774SOL     OW27220   1.826   1.932   0.997
 8774SOL    HW127221   1.791   1.987   0.922
 8774SOL    HW227222   1.750   1.888   1.046
 8775SOL     OW27223   5.877   2.416   4.187
 8775SOL    HW127224   5.889   2.512   4.162
 8775SOL    HW227225   5.788   2.384   4.156
 8776SOL     OW27226   4.291   3.145   0.489
 8776SOL    HW127227   4.255   3.105   0.574
 8776SOL    HW227228   4.352   3.221   0.511
 8777SOL     OW27229   0.545   2.112   3.638
 8777SOL    HW127230   0.484   2.077   3.709
 8777SOL    HW227231   0.573   2.205   3.662
 8778SOL     OW27232   3.027   4.851   0.003
 8778SOL    HW127233   3.066   4.768   0.044
 8778SOL    HW227234   2.978   4.903   0.072
 8779SOL     OW27235   4.427   4.983   4.013
 8779SOL    HW127236   4.412   5.005   3.917
 8779SOL    HW227237   4.386   5.053   4.071
 8780SOL     OW27238   5.986   4.933   3.999
 8780SOL    HW127239   5.956   4.881   4.078
 8780SOL    HW227240   5.908   4.948   3.938
 8781SOL     OW27241   3.423   0.229   1.455
 8781SOL    HW127242   3.421   0.318   1.500
 8781SOL    HW227243   3.329   0.199   1.436
 8782SOL     OW27244   5.329   2.247   1.340
 8782SOL    HW127245   5.330   2.147   1.335
 8782SOL    HW227246   5.238   2.278   1.369
 8783SOL     OW27247   5.241   3.673   4.631
 8783SOL    HW127248   5.258   3.594   4.572
 8783SOL    HW227249   5.142   3.681   4.647
 8784SOL     OW27250   5.771   0.660   1.315
 8784SOL    HW127251   5.696   0.597   1.292
 8784SOL    HW227252   5.741   0.722   1.387
 8785SOL     OW27253   0.098   4.865   5.838
 8785SOL    HW127254   0.076   4.918   5.757
 8785SOL    HW227255   0.196   4.873   5.858
 8786SOL     OW27256   4.550   1.705   2.448
 8786SOL    HW127257   4.469   1.750   2.487
 8786SOL    HW227258   4.589   1.762   2.376
 8787SOL     OW27259   3.560   6.170   0.842
 8787SOL    HW127260   3.461   6.181   0.829
 8787SOL    HW227261   3.601   6.260   0.860
 8788SOL     OW27262   0.583   6.845   4.122
 8788SOL    HW127263   0.539   6.768   4.074
 8788SOL    HW227264   0.667   6.813   4.166
 8789SOL     OW27265   6.653   3.197   5.759
 8789SOL    HW127266   6.561   3.174   5.791
 8789SOL    HW227267   6.657   3.295   5.738
 8790SOL     OW27268   5.505   3.255   5.887
 8790SOL    HW127269   5.535   3.233   5.794
 8790SOL    HW227270   5.410   3.227   5.899
 8791SOL     OW27271   4.008   5.699   5.282
 8791SOL    HW127272   4.081   5.653   5.231
 8791SOL    HW227273   4.047   5.760   5.351
 8792SOL     OW27274   5.152   4.876   1.189
 8792SOL    HW127275   5.135   4.903   1.284
 8792SOL    HW227276   5.197   4.787   1.187
 8793SOL     OW27277   6.879   4.739   4.374
 8793SOL    HW127278   6.820   4.802   4.425
 8793SOL    HW227279   6.939   4.792   4.313
 8794SOL     OW27280   0.252   0.673   2.383
 8794SOL    HW127281   0.298   0.758   2.357
 8794SOL    HW227282   0.318   0.598   2.384
 8795SOL     OW27283   1.397   6.145   6.261
 8795SOL    HW127284   1.388   6.244   6.251
 8795SOL    HW227285   1.306   6.104   6.264
 8796SOL     OW27286   6.655   3.652   3.285
 8796SOL    HW127287   6.695   3.562   3.301
 8796SOL    HW227288   6.590   3.647   3.209
 8797SOL     OW27289   4.909   0.234   4.143
 8797SOL    HW127290   4.904   0.135   4.139
 8797SOL    HW227291   4.839   0.269   4.206
 8798SOL     OW27292   2.973   6.400   5.734
 8798SOL    HW127293   3.013   6.317   5.772
 8798SOL    HW227294   2.896   6.429   5.790
 8799SOL     OW27295   1.118   5.381   2.714
 8799SOL    HW127296   1.213   5.388   2.683
 8799SOL    HW227297   1.069   5.316   2.657
 8800SOL     OW27298   0.003   5.654   5.779
 8800SOL    HW127299   0.065   5.705   5.720
 8800SOL    HW227300   0.005   5.557   5.753
 8801SOL     OW27301   6.000   2.960   5.555
 8801SOL    HW127302   6.021   3.025   5.628
 8801SOL    HW227303   6.029   2.997   5.467
 8802SOL     OW27304   1.183   6.615   6.166
 8802SOL    HW127305   1.143   6.592   6.077
 8802SOL    HW227306   1.184   6.714   6.178
 8803SOL     OW27307   6.267   6.880   6.780
 8803SOL    HW127308   6.189   6.886   6.716
 8803SOL    HW227309   6.288   6.784   6.798
 8804SOL     OW27310   1.717   6.310   2.759
 8804SOL    HW127311   1.644   6.259   2.714
 8804SOL    HW227312   1.802   6.257   2.757
 8805SOL     OW27313   5.522   5.142   3.470
 8805SOL    HW127314   5.459   5.098   3.534
 8805SOL    HW227315   5.563   5.222   3.512
 8806SOL     OW27316   2.129   0.550   0.984
 8806SOL    HW127317   2.090   0.628   0.934
 8806SOL    HW227318   2.210   0.517   0.937
 8807SOL     OW27319   4.902   2.735   1.396
 8807SOL    HW127320   4.805   2.709   1.397
 8807SOL    HW227321   4.921   2.790   1.314
 8808SOL     OW27322   2.183   2.763   0.163
 8808SOL    HW127323   2.089   2.739   0.139
 8808SOL    HW227324   2.240   2.681   0.157
 8809SOL     OW27325   0.014   4.162   2.503
 8809SOL    HW127326   0.005   4.198   2.410
 8809SOL    HW227327   0.088   4.095   2.506
 8810SOL     OW27328   0.651   1.279   6.347
 8810SOL    HW127329   0.562   1.273   6.393
 8810SOL    HW227330   0.666   1.197   6.292
 8811SOL     OW27331   3.739   5.792   2.674
 8811SOL    HW127332   3.642   5.802   2.653
 8811SOL    HW227333   3.787   5.753   2.596
 8812SOL     OW27334   4.746   1.372   6.138
 8812SOL    HW127335   4.670   1.355   6.076
 8812SOL    HW227336   4.830   1.333   6.100
 8813SOL     OW27337   2.075   4.053   3.158
 8813SOL    HW127338   2.002   4.052   3.089
 8813SOL    HW227339   2.142   4.123   3.134
 8814SOL     OW27340   4.871   0.518   5.723
 8814SOL    HW127341   4.929   0.587   5.767
 8814SOL    HW227342   4.775   0.544   5.734
 8815SOL     OW27343   5.903   1.698   6.939
 8815SOL    HW127344   5.852   1.779   6.968
 8815SOL    HW227345   5.922   1.705   6.841
 8816SOL     OW27346   1.202   6.608   4.518
 8816SOL    HW127347   1.242   6.563   4.598
 8816SOL    HW227348   1.272   6.619   4.448
 8817SOL     OW27349   1.588   2.873   3.466
 8817SOL    HW127350   1.608   2.911   3.556
 8817SOL    HW227351   1.493   2.894   3.441
 8818SOL     OW27352   1.004   0.773   4.610
 8818SOL    HW127353   0.926   0.833   4.628
 8818SOL    HW227354   1.031   0.727   4.695
 8819SOL     OW27355   5.227   4.349   5.946
 8819SOL    HW127356   5.188   4.425   5.895
 8819SOL    HW227357   5.166   4.270   5.940
 8820SOL     OW27358   2.915   0.494   4.826
 8820SOL    HW127359   2.957   0.480   4.916
 8820SOL    HW227360   2.987   0.494   4.756
 8821SOL     OW27361   0.085   4.495   6.604
 8821SOL    HW127362   0.036   4.473   6.688
 8821SOL    HW227363   0.130   4.413   6.568
 8822SOL     OW27364   6.689   0.062   4.176
 8822SOL    HW127365   6.671   7.014   4.242
 8822SOL    HW227366   6.681   0.150   4.222
 8823SOL     OW27367   4.450   1.395   2.671
 8823SOL    HW127368   4.436   1.416   2.574
 8823SOL    HW227369   4.387   1.450   2.726
 8824SOL     OW27370   1.726   0.709   2.093
 8824SOL    HW127371   1.808   0.754   2.057
 8824SOL    HW227372   1.716   0.619   2.050
 8825SOL     OW27373   6.834   5.939   0.431
 8825SOL    HW127374   6.852   6.035   0.453
 8825SOL    HW227375   6.749   5.910   0.474
 8826SOL     OW27376   1.619   3.987   0.587
 8826SOL    HW127377   1.534   3.937   0.605
 8826SOL    HW227378   1.600   4.066   0.529
 8827SOL     OW27379   4.250   0.212   2.052
 8827SOL    HW127380   4.153   0.235   2.051
 8827SOL    HW227381   4.288   0.229   2.143
 8828SOL     OW27382   3.209   3.019   6.044
 8828SOL    HW127383   3.238   3.072   5.964
 8828SOL    HW227384   3.289   2.997   6.100
 8829SOL     OW27385   6.835   1.321   1.974
 8829SOL    HW127386   6.807   1.351   1.883
 8829SOL    HW227387   6.934   1.310   1.977
 8830SOL     OW27388   3.016   0.649   3.171
 8830SOL    HW127389   2.959   0.603   3.103
 8830SOL    HW227390   3.108   0.611   3.169
 8831SOL     OW27391   0.081   2.679   2.318
 8831SOL    HW127392   0.059   2.756   2.258
 8831SOL    HW227393   0.174   2.648   2.300
 8832SOL     OW27394   5.686   0.910   4.194
 8832SOL    HW127395   5.737   0.996   4.186
 8832SOL    HW227396   5.747   0.839   4.228
 8833SOL     OW27397   4.115   2.920   1.499
 8833SOL    HW127398   4.074   2.979   1.569
 8833SOL    HW227399   4.177   2.855   1.542
 8834SOL     OW27400   5.453   4.268   5.335
 8834SOL    HW127401   5.444   4.209   5.255
 8834SOL    HW227402   5.362   4.290   5.371
 8835SOL     OW27403   6.794   0.452   6.064
 8835SOL    HW127404   6.870   0.516   6.053
 8835SOL    HW227405   6.799   0.410   6.155
 8836SOL     OW27406   4.870   2.029   1.187
 8836SOL    HW127407   4.789   2.004   1.133
 8836SOL    HW227408   4.910   2.112   1.148
 8837SOL     OW27409   4.826   0.142   0.661
 8837SOL    HW127410   4.730   0.133   0.687
 8837SOL    HW227411   4.874   0.197   0.729
 8838SOL     OW27412   0.961   3.717   2.446
 8838SOL    HW127413   0.929   3.808   2.421
 8838SOL    HW227414   0.899   3.677   2.514
 8839SOL     OW27415   4.878   5.303   3.229
 8839SOL    HW127416   4.849   5.330   3.137
 8839SOL    HW227417   4.977   5.309   3.235
 8840SOL     OW27418   6.875   0.693   1.609
 8840SOL    HW127419   6.892   0.630   1.534
 8840SOL    HW227420   6.779   0.689   1.636
 8841SOL     OW27421   3.538   0.788   1.097
 8841SOL    HW127422   3.528   0.708   1.038
 8841SOL    HW227423   3.556   0.869   1.041
 8842SOL     OW27424   3.438   2.984   4.287
 8842SOL    HW127425   3.377   3.032   4.223
 8842SOL    HW227426   3.384   2.948   4.363
 8843SOL     OW27427   2.421   5.563   6.583
 8843SOL    HW127428   2.406   5.531   6.677
 8843SOL    HW227429   2.446   5.485   6.525
 8844SOL     OW27430   4.020   2.191   5.896
 8844SOL    HW127431   4.006   2.278   5.944
 8844SOL    HW227432   3.941   2.132   5.909
 8845SOL     OW27433   0.010   4.676   1.664
 8845SOL    HW127434   6.956   4.683   1.725
 8845SOL    HW227435   0.093   4.694   1.716
 8846SOL     OW27436   6.170   4.344   4.738
 8846SOL    HW127437   6.089   4.400   4.755
 8846SOL    HW227438   6.222   4.384   4.662
 8847SOL     OW27439   2.468   1.547   3.499
 8847SOL    HW127440   2.504   1.498   3.578
 8847SOL    HW227441   2.540   1.607   3.461
 8848SOL     OW27442   3.672   1.386   1.024
 8848SOL    HW127443   3.626   1.465   1.064
 8848SOL    HW227444   3.767   1.409   1.005
 8849SOL     OW27445   2.533   4.964   4.595
 8849SOL    HW127446   2.584   4.893   4.545
 8849SOL    HW227447   2.531   4.941   4.692
 8850SOL     OW27448   2.895   0.829   1.569
 8850SOL    HW127449   2.875   0.756   1.503
 8850SOL    HW227450   2.845   0.911   1.543
 8851SOL     OW27451   0.094   4.691   2.295
 8851SOL    HW127452   0.053   4.612   2.340
 8851SOL    HW227453   0.194   4.683   2.299
 8852SOL     OW27454   4.643   2.561   4.775
 8852SOL    HW127455   4.570   2.547   4.842
 8852SOL    HW227456   4.674   2.656   4.778
 8853SOL     OW27457   4.330   1.297   5.755
 8853SOL    HW127458   4.337   1.228   5.683
 8853SOL    HW227459   4.237   1.334   5.757
 8854SOL     OW27460   1.049   1.987   6.819
 8854SOL    HW127461   1.051   1.916   6.749
 8854SOL    HW227462   1.129   2.046   6.809
 8855SOL     OW27463   6.249   5.137   6.917
 8855SOL    HW127464   6.229   5.234   6.902
 8855SOL    HW227465   6.261   5.092   6.829
 8856SOL     OW27466   5.438   0.981   4.195
 8856SOL    HW127467   5.534   0.956   4.193
 8856SOL    HW227468   5.427   1.076   4.164
 8857SOL     OW27469   0.024   2.888   4.363
 8857SOL    HW127470   6.967   2.877   4.420
 8857SOL    HW227471   0.071   2.972   4.389
 8858SOL     OW27472   0.398   3.424   6.528
 8858SOL    HW127473   0.363   3.509   6.490
 8858SOL    HW227474   0.467   3.385   6.467
 8859SOL     OW27475   2.541   5.345   5.162
 8859SOL    HW127476   2.490   5.356   5.247
 8859SOL    HW227477   2.513   5.416   5.098
 8860SOL     OW27478   1.098   2.411   1.950
 8860SOL    HW127479   1.121   2.504   1.922
 8860SOL    HW227480   0.999   2.401   1.954
 8861SOL     OW27481   3.357   3.804   0.238
 8861SOL    HW127482   3.338   3.718   0.190
 8861SOL    HW227483   3.456   3.819   0.242
 8862SOL     OW27484   6.260   2.563   4.000
 8862SOL    HW127485   6.263   2.497   3.925
 8862SOL    HW227486   6.320   2.640   3.980
 8863SOL     OW27487   2.216   5.474   5.238
 8863SOL    HW127488   2.236   5.424   5.154
 8863SOL    HW227489   2.147   5.424   5.291
 8864SOL     OW27490   1.015   2.464   6.661
 8864SOL    HW127491   0.958   2.546   6.652
 8864SOL    HW227492   1.049   2.457   6.755
 8865SOL     OW27493   3.276   2.652   5.918
 8865SOL    HW127494   3.313   2.650   5.825
 8865SOL    HW227495   3.210   2.727   5.927
 8866SOL     OW27496   3.852   6.491   4.408
 8866SOL    HW127497   3.940   6.538   4.397
 8866SOL    HW227498   3.825   6.495   4.505
 8867SOL     OW27499   0.418   3.116   3.433
 8867SOL    HW127500   0.350   3.155   3.370
 8867SOL    HW227501   0.370   3.067   3.506
 8868SOL     OW27502   3.841   3.755   0.117
 8868SOL    HW127503   3.894   3.734   0.199
 8868SOL    HW227504   3.903   3.779   0.043
 8869SOL     OW27505   5.287   2.755   3.944
 8869SOL    HW127506   5.274   2.713   3.855
 8869SOL    HW227507   5.359   2.824   3.939
 8870SOL     OW27508   4.557   1.365   0.530
 8870SOL    HW127509   4.563   1.279   0.581
 8870SOL    HW227510   4.464   1.399   0.533
 8871SOL     OW27511   2.386   2.036   4.420
 8871SOL    HW127512   2.473   2.084   4.416
 8871SOL    HW227513   2.380   1.984   4.505
 8872SOL     OW27514   2.171   3.095   4.645
 8872SOL    HW127515   2.105   3.165   4.619
 8872SOL    HW227516   2.215   3.122   4.731
 8873SOL     OW27517   0.152   5.557   4.714
 8873SOL    HW127518   0.074   5.567   4.653
 8873SOL    HW227519   0.147   5.627   4.786
 8874SOL     OW27520   2.581   1.037   0.564
 8874SOL    HW127521   2.670   1.019   0.605
 8874SOL    HW227522   2.509   1.024   0.633
 8875SOL     OW27523   1.968   2.377   4.323
 8875SOL    HW127524   2.068   2.373   4.328
 8875SOL    HW227525   1.936   2.314   4.252
 8876SOL     OW27526   1.839   0.064   4.534
 8876SOL    HW127527   1.806   0.146   4.581
 8876SOL    HW227528   1.830   7.010   4.594
 8877SOL     OW27529   2.905   6.736   5.048
 8877SOL    HW127530   2.827   6.700   4.997
 8877SOL    HW227531   2.980   6.757   4.986
 8878SOL     OW27532   6.349   4.275   6.794
 8878SOL    HW127533   6.295   4.338   6.850
 8878SOL    HW227534   6.401   4.214   6.853
 8879SOL     OW27535   5.089   6.602   5.088
 8879SOL    HW127536   5.060   6.670   5.155
 8879SOL    HW227537   5.064   6.634   4.996
 8880SOL     OW27538   0.159   4.987   5.099
 8880SOL    HW127539   0.163   5.049   5.021
 8880SOL    HW227540   0.112   5.031   5.175
 8881SOL     OW27541   6.287   0.386   1.165
 8881SOL    HW127542   6.320   0.330   1.240
 8881SOL    HW227543   6.361   0.445   1.132
 8882SOL     OW27544   5.466   1.750   6.360
 8882SOL    HW127545   5.435   1.671   6.307
 8882SOL    HW227546   5.512   1.718   6.443
 8883SOL     OW27547   6.580   1.259   5.793
 8883SOL    HW127548   6.565   1.355   5.772
 8883SOL    HW227549   6.504   1.205   5.756
 8884SOL     OW27550   6.905   6.548   6.389
 8884SOL    HW127551   6.928   6.599   6.472
 8884SOL    HW227552   6.819   6.499   6.402
 8885SOL     OW27553   5.091   4.019   1.960
 8885SOL    HW127554   5.161   3.967   2.009
 8885SOL    HW227555   5.008   3.963   1.951
 8886SOL     OW27556   3.136   6.993   6.746
 8886SOL    HW127557   3.133   6.897   6.719
 8886SOL    HW227558   3.175   0.022   6.672
 8887SOL     OW27559   2.754   1.407   1.360
 8887SOL    HW127560   2.799   1.484   1.313
 8887SOL    HW227561   2.774   1.412   1.458
 8888SOL     OW27562   2.920   1.623   2.355
 8888SOL    HW127563   3.009   1.584   2.333
 8888SOL    HW227564   2.850   1.552   2.348
 8889SOL     OW27565   3.396   0.151   4.853
 8889SOL    HW127566   3.298   0.151   4.834
 8889SOL    HW227567   3.441   0.222   4.798
 8890SOL     OW27568   0.868   5.202   4.360
 8890SOL    HW127569   0.896   5.148   4.439
 8890SOL    HW227570   0.777   5.239   4.376
 8891SOL     OW27571   4.012   2.610   6.587
 8891SOL    HW127572   4.077   2.660   6.646
 8891SOL    HW227573   4.039   2.514   6.583
 8892SOL     OW27574   1.499   6.399   2.498
 8892SOL    HW127575   1.522   6.496   2.489
 8892SOL    HW227576   1.492   6.358   2.406
 8893SOL     OW27577   0.705   1.191   0.882
 8893SOL    HW127578   0.733   1.274   0.930
 8893SOL    HW227579   0.782   1.155   0.829
 8894SOL     OW27580   3.724   2.537   6.019
 8894SOL    HW127581   3.682   2.548   6.109
 8894SOL    HW227582   3.809   2.486   6.028
 8895SOL     OW27583   0.931   6.530   2.404
 8895SOL    HW127584   0.936   6.491   2.312
 8895SOL    HW227585   0.970   6.622   2.404
 8896SOL     OW27586   1.185   3.085   4.792
 8896SOL    HW127587   1.251   3.070   4.866
 8896SOL    HW227588   1.131   3.167   4.812
 8897SOL     OW27589   1.559   2.487   1.559
 8897SOL    HW127590   1.598   2.555   1.496
 8897SOL    HW227591   1.633   2.435   1.601
 8898SOL     OW27592   5.343   4.077   4.136
 8898SOL    HW127593   5.253   4.116   4.154
 8898SOL    HW227594   5.357   4.069   4.037
 8899SOL     OW27595   1.694   4.378   6.926
 8899SOL    HW127596   1.776   4.323   6.941
 8899SOL    HW227597   1.649   4.394   7.014
 8900SOL     OW27598   5.861   1.918   4.130
 8900SOL    HW127599   5.960   1.911   4.114
 8900SOL    HW227600   5.827   2.004   4.091
 8901SOL     OW27601   2.036   6.747   2.988
 8901SOL    HW127602   1.983   6.664   3.005
 8901SOL    HW227603   1.984   6.808   2.928
 8902SOL     OW27604   1.644   5.888   5.922
 8902SOL    HW127605   1.729   5.852   5.960
 8902SOL    HW227606   1.645   5.988   5.928
 8903SOL     OW27607   2.463   1.462   2.977
 8903SOL    HW127608   2.506   1.463   3.067
 8903SOL    HW227609   2.382   1.402   2.979
 8904SOL     OW27610   1.300   6.478   3.159
 8904SOL    HW127611   1.328   6.574   3.147
 8904SOL    HW227612   1.215   6.462   3.110
 8905SOL     OW27613   2.684   3.868   5.443
 8905SOL    HW127614   2.664   3.965   5.425
 8905SOL    HW227615   2.622   3.811   5.389
 8906SOL     OW27616   0.107   5.532   6.022
 8906SOL    HW127617   0.148   5.578   6.101
 8906SOL    HW227618   0.055   5.598   5.968
 8907SOL     OW27619   3.415   2.912   5.561
 8907SOL    HW127620   3.352   2.947   5.492
 8907SOL    HW227621   3.509   2.917   5.526
 8908SOL     OW27622   0.540   2.849   1.092
 8908SOL    HW127623   0.586   2.920   1.040
 8908SOL    HW227624   0.525   2.769   1.033
 8909SOL     OW27625   2.577   0.629   6.619
 8909SOL    HW127626   2.517   0.600   6.545
 8909SOL    HW227627   2.593   0.728   6.612
 8910SOL     OW27628   3.344   3.485   6.724
 8910SOL    HW127629   3.262   3.476   6.668
 8910SOL    HW227630   3.401   3.559   6.689
 8911SOL     OW27631   3.888   2.066   4.024
 8911SOL    HW127632   3.790   2.076   4.008
 8911SOL    HW227633   3.907   1.975   4.061
 8912SOL     OW27634   4.786   2.854   5.806
 8912SOL    HW127635   4.870   2.806   5.831
 8912SOL    HW227636   4.752   2.819   5.719
 8913SOL     OW27637   5.545   3.826   0.949
 8913SOL    HW127638   5.551   3.727   0.964
 8913SOL    HW227639   5.452   3.857   0.970
 8914SOL     OW27640   4.139   1.950   4.807
 8914SOL    HW127641   4.135   1.984   4.713
 8914SOL    HW227642   4.139   1.850   4.806
 8915SOL     OW27643   1.359   4.748   2.561
 8915SOL    HW127644   1.396   4.690   2.634
 8915SOL    HW227645   1.336   4.691   2.482
 8916SOL     OW27646   6.401   3.127   2.342
 8916SOL    HW127647   6.456   3.065   2.400
 8916SOL    HW227648   6.309   3.089   2.331
 8917SOL     OW27649   5.980   5.294   6.724
 8917SOL    HW127650   6.029   5.215   6.686
 8917SOL    HW227651   6.020   5.378   6.689
 8918SOL     OW27652   4.836   5.301   6.280
 8918SOL    HW127653   4.811   5.372   6.347
 8918SOL    HW227654   4.826   5.338   6.187
 8919SOL     OW27655   2.509   4.913   0.968
 8919SOL    HW127656   2.608   4.918   0.954
 8919SOL    HW227657   2.480   4.987   1.029
 8920SOL     OW27658   6.394   5.692   5.544
 8920SOL    HW127659   6.394   5.755   5.466
 8920SOL    HW227660   6.368   5.601   5.512
 8921SOL     OW27661   1.862   0.140   4.104
 8921SOL    HW127662   1.769   0.135   4.067
 8921SOL    HW227663   1.928   0.144   4.029
 8922SOL     OW27664   0.222   4.259   6.533
 8922SOL    HW127665   0.279   4.256   6.615
 8922SOL    HW227666   0.140   4.204   6.548
 8923SOL     OW27667   2.117   4.306   5.629
 8923SOL    HW127668   2.190   4.364   5.593
 8923SOL    HW227669   2.146   4.210   5.626
 8924SOL     OW27670   2.637   5.337   5.490
 8924SOL    HW127671   2.645   5.340   5.590
 8924SOL    HW227672   2.563   5.398   5.461
 8925SOL     OW27673   6.979   6.452   2.167
 8925SOL    HW127674   0.016   6.449   2.246
 8925SOL    HW227675   0.008   6.456   2.083
 8926SOL     OW27676   5.520   1.930   0.812
 8926SOL    HW127677   5.480   1.935   0.904
 8926SOL    HW227678   5.563   2.018   0.790
 8927SOL     OW27679   2.433   1.926   5.075
 8927SOL    HW127680   2.481   1.961   4.994
 8927SOL    HW227681   2.443   1.827   5.079
 8928SOL     OW27682   0.450   0.155   5.619
 8928SOL    HW127683   0.378   0.127   5.683
 8928SOL    HW227684   0.539   0.146   5.664
 8929SOL     OW27685   5.764   3.464   3.671
 8929SOL    HW127686   5.847   3.432   3.626
 8929SOL    HW227687   5.730   3.545   3.624
 8930SOL     OW27688   0.763   4.745   5.128
 8930SOL    HW127689   0.845   4.723   5.076
 8930SOL    HW227690   0.786   4.755   5.225
 8931SOL     OW27691   4.791   1.428   0.340
 8931SOL    HW127692   4.738   1.505   0.305
 8931SOL    HW227693   4.733   1.374   0.402
 8932SOL     OW27694   6.933   6.898   0.152
 8932SOL    HW127695   6.849   6.930   0.109
 8932SOL    HW227696   7.005   6.968   0.142
 8933SOL     OW27697   1.446   0.428   5.163
 8933SOL    HW127698   1.488   0.355   5.218
 8933SOL    HW227699   1.393   0.489   5.222
 8934SOL     OW27700   3.560   6.192   2.846
 8934SOL    HW127701   3.481   6.133   2.827
 8934SOL    HW227702   3.644   6.138   2.838
 8935SOL     OW27703   5.765   2.153   3.221
 8935SOL    HW127704   5.733   2.191   3.308
 8935SOL    HW227705   5.788   2.228   3.159
 8936SOL     OW27706   0.871   5.053   2.040
 8936SOL    HW127707   0.843   4.969   1.994
 8936SOL    HW227708   0.884   5.126   1.973
 8937SOL     OW27709   4.829   0.066   4.475
 8937SOL    HW127710   4.869   0.015   4.399
 8937SOL    HW227711   4.879   0.043   4.559
 8938SOL     OW27712   6.134   0.402   1.640
 8938SOL    HW127713   6.226   0.385   1.676
 8938SOL    HW227714   6.068   0.347   1.691
 8939SOL     OW27715   6.818   3.144   3.410
 8939SOL    HW127716   6.804   3.083   3.488
 8939SOL    HW227717   6.911   3.133   3.375
 8940SOL     OW27718   6.488   2.773   0.798
 8940SOL    HW127719   6.574   2.823   0.788
 8940SOL    HW227720   6.436   2.777   0.713
 8941SOL     OW27721   4.256   2.775   1.676
 8941SOL    HW127722   4.329   2.708   1.687
 8941SOL    HW227723   4.183   2.755   1.740
 8942SOL     OW27724   5.556   4.825   4.589
 8942SOL    HW127725   5.595   4.756   4.650
 8942SOL    HW227726   5.485   4.784   4.532
 8943SOL     OW27727   4.637   3.981   6.822
 8943SOL    HW127728   4.664   3.968   6.726
 8943SOL    HW227729   4.715   3.961   6.881
 8944SOL     OW27730   5.961   5.720   4.914
 8944SOL    HW127731   6.052   5.761   4.910
 8944SOL    HW227732   5.961   5.644   4.979
 8945SOL     OW27733   5.433   4.668   4.377
 8945SOL    HW127734   5.364   4.597   4.392
 8945SOL    HW227735   5.520   4.626   4.351
 8946SOL     OW27736   4.915   1.409   5.276
 8946SOL    HW127737   4.958   1.433   5.189
 8946SOL    HW227738   4.836   1.468   5.292
 8947SOL     OW27739   1.823   5.546   6.558
 8947SOL    HW127740   1.896   5.614   6.555
 8947SOL    HW227741   1.854   5.462   6.512
 8948SOL     OW27742   6.194   1.104   2.718
 8948SOL    HW127743   6.154   1.020   2.755
 8948SOL    HW227744   6.293   1.103   2.733
 8949SOL     OW27745   3.820   6.845   0.496
 8949SOL    HW127746   3.780   6.933   0.522
 8949SOL    HW227747   3.747   6.783   0.467
 8950SOL     OW27748   3.904   3.677   0.405
 8950SOL    HW127749   3.807   3.676   0.430
 8950SOL    HW227750   3.946   3.589   0.427
 8951SOL     OW27751   2.271   1.448   4.329
 8951SOL    HW127752   2.274   1.547   4.331
 8951SOL    HW227753   2.226   1.414   4.411
 8952SOL     OW27754   1.580   3.806   4.267
 8952SOL    HW127755   1.663   3.815   4.323
 8952SOL    HW227756   1.596   3.848   4.178
 8953SOL     OW27757   1.146   4.609   1.184
 8953SOL    HW127758   1.109   4.612   1.277
 8953SOL    HW227759   1.238   4.571   1.186
 8954SOL     OW27760   1.780   5.340   5.204
 8954SOL    HW127761   1.725   5.258   5.193
 8954SOL    HW227762   1.873   5.314   5.231
 8955SOL     OW27763   5.520   2.267   4.509
 8955SOL    HW127764   5.428   2.267   4.548
 8955SOL    HW227765   5.565   2.354   4.530
 8956SOL     OW27766   0.793   5.516   6.683
 8956SOL    HW127767   0.755   5.548   6.770
 8956SOL    HW227768   0.787   5.417   6.679
 8957SOL     OW27769   0.449   5.931   3.123
 8957SOL    HW127770   0.464   5.869   3.200
 8957SOL    HW227771   0.430   6.023   3.157
 8958SOL     OW27772   1.531   3.198   5.231
 8958SOL    HW127773   1.549   3.114   5.282
 8958SOL    HW227774   1.616   3.231   5.189
 8959SOL     OW27775   6.451   2.387   3.244
 8959SOL    HW127776   6.521   2.453   3.270
 8959SOL    HW227777   6.466   2.358   3.149
 8960SOL     OW27778   5.427   4.819   3.143
 8960SOL    HW127779   5.374   4.793   3.063
 8960SOL    HW227780   5.490   4.893   3.120
 8961SOL     OW27781   2.051   0.541   5.574
 8961SOL    HW127782   2.029   0.617   5.514
 8961SOL    HW227783   2.133   0.563   5.628
 8962SOL     OW27784   0.220   6.006   2.544
 8962SOL    HW127785   0.143   6.068   2.526
 8962SOL    HW227786   0.196   5.945   2.620
 8963SOL     OW27787   5.017   6.980   4.679
 8963SOL    HW127788   5.022   6.881   4.664
 8963SOL    HW227789   5.101   7.011   4.724
 8964SOL     OW27790   1.412   3.368   3.944
 8964SOL    HW127791   1.348   3.307   3.990
 8964SOL    HW227792   1.446   3.436   4.009
 8965SOL     OW27793   3.890   6.170   6.530
 8965SOL    HW127794   3.823   6.244   6.534
 8965SOL    HW227795   3.843   6.083   6.517
 8966SOL     OW27796   4.408   5.536   5.478
 8966SOL    HW127797   4.377   5.484   5.399
 8966SOL    HW227798   4.334   5.595   5.510
 8967SOL     OW27799   3.368   0.112   4.020
 8967SOL    HW127800   3.285   0.060   4.002
 8967SOL    HW227801   3.350   0.181   4.090
 8968SOL     OW27802   3.977   5.363   2.384
 8968SOL    HW127803   3.941   5.278   2.423
 8968SOL    HW227804   3.902   5.428   2.370
 8969SOL     OW27805   1.106   0.694   2.454
 8969SOL    HW127806   1.017   0.732   2.431
 8969SOL    HW227807   1.113   0.601   2.416
 8970SOL     OW27808   2.133   0.696   4.195
 8970SOL    HW127809   2.186   0.713   4.111
 8970SOL    HW227810   2.106   0.784   4.235
 8971SOL     OW27811   3.693   4.910   0.598
 8971SOL    HW127812   3.756   4.845   0.638
 8971SOL    HW227813   3.641   4.866   0.525
 8972SOL     OW27814   5.877   4.199   0.642
 8972SOL    HW127815   5.859   4.117   0.588
 8972SOL    HW227816   5.959   4.185   0.697
 8973SOL     OW27817   1.170   2.695   3.275
 8973SOL    HW127818   1.111   2.770   3.305
 8973SOL    HW227819   1.258   2.701   3.322
 8974SOL     OW27820   2.333   4.307   4.721
 8974SOL    HW127821   2.419   4.325   4.769
 8974SOL    HW227822   2.256   4.333   4.779
 8975SOL     OW27823   6.932   5.695   6.166
 8975SOL    HW127824   7.019   5.741   6.150
 8975SOL    HW227825   6.870   5.711   6.090
 8976SOL     OW27826   6.450   6.396   2.110
 8976SOL    HW127827   6.533   6.431   2.065
 8976SOL    HW227828   6.371   6.414   2.051
 8977SOL     OW27829   0.107   4.913   6.280
 8977SOL    HW127830   0.052   4.950   6.205
 8977SOL    HW227831   0.099   4.813   6.282
 8978SOL     OW27832   5.715   6.190   6.725
 8978SOL    HW127833   5.702   6.136   6.808
 8978SOL    HW227834   5.790   6.253   6.738
 8979SOL     OW27835   1.050   4.924   5.603
 8979SOL    HW127836   1.038   4.848   5.539
 8979SOL    HW227837   1.132   4.908   5.658
 8980SOL     OW27838   3.331   0.155   6.046
 8980SOL    HW127839   3.420   0.149   6.001
 8980SOL    HW227840   3.296   0.064   6.065
 8981SOL     OW27841   4.510   3.308   6.940
 8981SOL    HW127842   4.502   3.390   6.998
 8981SOL    HW227843   4.427   3.298   6.885
 8982SOL     OW27844   0.383   1.548   1.594
 8982SOL    HW127845   0.428   1.469   1.636
 8982SOL    HW227846   0.453   1.614   1.564
 8983SOL     OW27847   1.322   6.713   2.062
 8983SOL    HW127848   1.352   6.772   1.986
 8983SOL    HW227849   1.261   6.642   2.027
 8984SOL     OW27850   6.502   0.326   3.984
 8984SOL    HW127851   6.539   0.246   3.938
 8984SOL    HW227852   6.569   0.360   4.050
 8985SOL     OW27853   4.748   2.379   0.884
 8985SOL    HW127854   4.746   2.424   0.973
 8985SOL    HW227855   4.711   2.286   0.893
 8986SOL     OW27856   0.017   4.983   0.405
 8986SOL    HW127857   0.066   4.895   0.407
 8986SOL    HW227858   0.013   5.021   0.497
 8987SOL     OW27859   2.142   0.078   1.908
 8987SOL    HW127860   2.130   0.020   1.989
 8987SOL    HW227861   2.196   0.028   1.839
 8988SOL     OW27862   1.863   5.699   2.062
 8988SOL    HW127863   1.900   5.788   2.090
 8988SOL    HW227864   1.766   5.694   2.087
 8989SOL     OW27865   5.633   1.668   2.605
 8989SOL    HW127866   5.540   1.683   2.639
 8989SOL    HW227867   5.692   1.638   2.680
 8990SOL     OW27868   3.406   0.739   1.634
 8990SOL    HW127869   3.462   0.684   1.572
 8990SOL    HW227870   3.336   0.787   1.581
 8991SOL     OW27871   2.090   1.978   0.891
 8991SOL    HW127872   2.000   1.955   0.928
 8991SOL    HW227873   2.079   2.034   0.809
 8992SOL     OW27874   1.109   4.065   6.954
 8992SOL    HW127875   1.020   4.109   6.942
 8992SOL    HW227876   1.132   4.064   0.026
 8993SOL     OW27877   6.209   3.760   3.965
 8993SOL    HW127878   6.288   3.777   3.905
 8993SOL    HW227879   6.224   3.678   4.018
 8994SOL     OW27880   1.072   4.771   3.058
 8994SOL    HW127881   1.130   4.756   3.138
 8994SOL    HW227882   1.097   4.858   3.015
 8995SOL     OW27883   2.112   3.974   4.895
 8995SOL    HW127884   2.181   4.010   4.959
 8995SOL    HW227885   2.085   3.882   4.925
 8996SOL     OW27886   0.755   3.759   2.243
 8996SOL    HW127887   0.698   3.721   2.315
 8996SOL    HW227888   0.804   3.685   2.197
 8997SOL     OW27889   4.033   1.809   5.581
 8997SOL    HW127890   3.988   1.748   5.516
 8997SOL    HW227891   4.017   1.776   5.674
 8998SOL     OW27892   0.937   2.385   6.218
 8998SOL    HW127893   0.956   2.354   6.311
 8998SOL    HW227894   0.983   2.473   6.203
 8999SOL     OW27895   6.067   1.145   4.471
 8999SOL    HW127896   5.984   1.198   4.486
 8999SOL    HW227897   6.064   1.106   4.379
 9000SOL     OW27898   3.379   3.965   0.547
 9000SOL    HW127899   3.335   3.875   0.545
 9000SOL    HW227900   3.310   4.036   0.534
 9001SOL     OW27901   1.441   4.257   3.417
 9001SOL    HW127902   1.460   4.181   3.479
 9001SOL    HW227903   1.383   4.325   3.462
 9002SOL     OW27904   5.164   4.829   5.710
 9002SOL    HW127905   5.202   4.764   5.776
 9002SOL    HW227906   5.158   4.787   5.620
 9003SOL     OW27907   5.642   2.427   6.066
 9003SOL    HW127908   5.626   2.333   6.035
 9003SOL    HW227909   5.554   2.470   6.089
 9004SOL     OW27910   4.325   5.921   1.198
 9004SOL    HW127911   4.225   5.916   1.202
 9004SOL    HW227912   4.353   6.016   1.185
 9005SOL     OW27913   5.063   2.092   3.252
 9005SOL    HW127914   5.023   2.001   3.260
 9005SOL    HW227915   5.145   2.097   3.309
 9006SOL     OW27916   1.606   6.296   0.916
 9006SOL    HW127917   1.685   6.253   0.873
 9006SOL    HW227918   1.571   6.238   0.989
 9007SOL     OW27919   2.761   6.426   4.640
 9007SOL    HW127920   2.822   6.347   4.636
 9007SOL    HW227921   2.706   6.431   4.556
 9008SOL     OW27922   6.421   4.792   2.513
 9008SOL    HW127923   6.431   4.758   2.420
 9008SOL    HW227924   6.387   4.719   2.572
 9009SOL     OW27925   3.588   6.448   0.902
 9009SOL    HW127926   3.612   6.538   0.937
 9009SOL    HW227927   3.488   6.438   0.903
 9010SOL     OW27928   0.941   6.418   4.691
 9010SOL    HW127929   0.966   6.461   4.777
 9010SOL    HW227930   0.989   6.330   4.683
 9011SOL     OW27931   4.539   1.979   0.813
 9011SOL    HW127932   4.636   1.957   0.803
 9011SOL    HW227933   4.529   2.059   0.872
 9012SOL     OW27934   6.818   5.638   1.588
 9012SOL    HW127935   6.740   5.699   1.575
 9012SOL    HW227936   6.790   5.544   1.569
 9013SOL     OW27937   5.275   6.155   3.638
 9013SOL    HW127938   5.178   6.130   3.644
 9013SOL    HW227939   5.296   6.183   3.544
 9014SOL     OW27940   2.631   1.121   1.109
 9014SOL    HW127941   2.577   1.068   1.175
 9014SOL    HW227942   2.721   1.079   1.098
 9015SOL     OW27943   7.014   0.972   5.302
 9015SOL    HW127944   6.967   1.044   5.353
 9015SOL    HW227945   0.059   1.012   5.244
 9016SOL     OW27946   6.613   6.174   6.815
 9016SOL    HW127947   6.701   6.179   6.863
 9016SOL    HW227948   6.580   6.266   6.796
 9017SOL     OW27949   6.724   3.390   3.344
 9017SOL    HW127950   6.761   3.298   3.360
 9017SOL    HW227951   6.628   3.383   3.318
 9018SOL     OW27952   3.767   2.280   5.278
 9018SOL    HW127953   3.672   2.295   5.305
 9018SOL    HW227954   3.784   2.182   5.267
 9019SOL     OW27955   1.746   0.394   0.965
 9019SOL    HW127956   1.818   0.435   1.022
 9019SOL    HW227957   1.743   0.295   0.982
 9020SOL     OW27958   0.756   4.955   3.714
 9020SOL    HW127959   0.785   4.859   3.719
 9020SOL    HW227960   0.711   4.972   3.627
 9021SOL     OW27961   6.771   5.648   4.793
 9021SOL    HW127962   6.773   5.738   4.836
 9021SOL    HW227963   6.676   5.616   4.786
 9022SOL     OW27964   3.220   0.505   6.895
 9022SOL    HW127965   3.310   0.519   6.935
 9022SOL    HW227966   3.162   0.584   6.916
 9023SOL     OW27967   3.051   3.082   3.476
 9023SOL    HW127968   2.992   3.002   3.489
 9023SOL    HW227969   3.145   3.051   3.465
 9024SOL     OW27970   1.740   6.835   0.328
 9024SOL    HW127971   1.685   6.883   0.397
 9024SOL    HW227972   1.737   6.736   0.346
 9025SOL     OW27973   5.884   4.723   0.677
 9025SOL    HW127974   5.910   4.664   0.753
 9025SOL    HW227975   5.807   4.682   0.628
 9026SOL     OW27976   3.518   3.031   5.307
 9026SOL    HW127977   3.520   2.949   5.249
 9026SOL    HW227978   3.564   3.011   5.393
 9027SOL     OW27979   2.058   2.588   3.123
 9027SOL    HW127980   1.989   2.515   3.133
 9027SOL    HW227981   2.026   2.671   3.169
 9028SOL     OW27982   2.543   4.614   4.620
 9028SOL    HW127983   2.506   4.540   4.565
 9028SOL    HW227984   2.621   4.655   4.572
 9029SOL     OW27985   5.248   5.483   2.915
 9029SOL    HW127986   5.200   5.568   2.937
 9029SOL    HW227987   5.299   5.453   2.996
 9030SOL     OW27988   2.619   1.308   1.677
 9030SOL    HW127989   2.695   1.371   1.664
 9030SOL    HW227990   2.604   1.292   1.774
 9031SOL     OW27991   2.235   6.870   6.756
 9031SOL    HW127992   2.268   6.796   6.816
 9031SOL    HW227993   2.313   6.923   6.723
 9032SOL     OW27994   1.975   1.357   1.857
 9032SOL    HW127995   2.072   1.375   1.844
 9032SOL    HW227996   1.938   1.420   1.925
 9033SOL     OW27997   0.914   3.379   2.319
 9033SOL    HW127998   0.836   3.440   2.336
 9033SOL    HW227999   0.993   3.434   2.291
 9034SOL     OW28000   2.715   6.639   6.047
 9034SOL    HW128001   2.734   6.560   5.988
 9034SOL    HW228002   2.618   6.663   6.042
 9035SOL     OW28003   6.887   1.314   4.713
 9035SOL    HW128004   6.808   1.339   4.768
 9035SOL    HW228005   6.968   1.361   4.748
 9036SOL     OW28006   1.619   1.981   5.138
 9036SOL    HW128007   1.529   2.024   5.140
 9036SOL    HW228008   1.669   2.002   5.222
 9037SOL     OW28009   2.046   3.653   6.152
 9037SOL    HW128010   2.120   3.641   6.085
 9037SOL    HW228011   2.028   3.750   6.164
 9038SOL     OW28012   5.822   6.545   5.612
 9038SOL    HW128013   5.760   6.555   5.534
 9038SOL    HW228014   5.896   6.612   5.605
 9039SOL     OW28015   2.085   5.486   5.725
 9039SOL    HW128016   2.039   5.570   5.752
 9039SOL    HW228017   2.177   5.484   5.763
 9040SOL     OW28018   2.133   1.025   2.578
 9040SOL    HW128019   2.176   0.996   2.493
 9040SOL    HW228020   2.196   1.011   2.654
 9041SOL     OW28021   1.796   3.449   6.838
 9041SOL    HW128022   1.738   3.368   6.830
 9041SOL    HW228023   1.819   3.464   6.934
 9042SOL     OW28024   2.800   5.115   3.871
 9042SOL    HW128025   2.740   5.176   3.923
 9042SOL    HW228026   2.831   5.041   3.931
 9043SOL     OW28027   6.783   2.072   6.450
 9043SOL    HW128028   6.866   2.019   6.429
 9043SOL    HW228029   6.724   2.018   6.510
 9044SOL     OW28030   6.363   5.590   0.499
 9044SOL    HW128031   6.275   5.543   0.499
 9044SOL    HW228032   6.421   5.554   0.573
 9045SOL     OW28033   3.395   6.749   4.075
 9045SOL    HW128034   3.406   6.652   4.053
 9045SOL    HW228035   3.478   6.798   4.048
 9046SOL     OW28036   3.352   3.834   4.996
 9046SOL    HW128037   3.302   3.760   5.040
 9046SOL    HW228038   3.298   3.918   4.998
 9047SOL     OW28039   1.409   4.644   4.938
 9047SOL    HW128040   1.414   4.545   4.929
 9047SOL    HW228041   1.369   4.668   5.027
 9048SOL     OW28042   1.077   3.179   4.496
 9048SOL    HW128043   1.164   3.223   4.475
 9048SOL    HW228044   1.092   3.101   4.556
 9049SOL     OW28045   5.035   5.565   5.952
 9049SOL    HW128046   5.086   5.508   6.016
 9049SOL    HW228047   5.034   5.659   5.984
 9050SOL     OW28048   0.567   5.358   6.058
 9050SOL    HW128049   0.640   5.389   5.997
 9050SOL    HW228050   0.591   5.269   6.096
 9051SOL     OW28051   5.183   6.578   6.145
 9051SOL    HW128052   5.248   6.550   6.074
 9051SOL    HW228053   5.232   6.616   6.223
 9052SOL     OW28054   2.243   5.334   5.028
 9052SOL    HW128055   2.323   5.368   4.979
 9052SOL    HW228056   2.257   5.239   5.055
 9053SOL     OW28057   3.072   1.484   3.692
 9053SOL    HW128058   3.065   1.582   3.675
 9053SOL    HW228059   3.011   1.459   3.767
 9054SOL     OW28060   3.030   0.301   0.898
 9054SOL    HW128061   2.935   0.328   0.881
 9054SOL    HW228062   3.092   0.375   0.872
 9055SOL     OW28063   1.737   1.787   3.592
 9055SOL    HW128064   1.781   1.831   3.514
 9055SOL    HW228065   1.668   1.722   3.560
 9056SOL     OW28066   5.322   1.440   3.111
 9056SOL    HW128067   5.329   1.450   3.211
 9056SOL    HW228068   5.277   1.520   3.073
 9057SOL     OW28069   4.646   6.168   6.389
 9057SOL    HW128070   4.581   6.225   6.339
 9057SOL    HW228071   4.723   6.224   6.419
 9058SOL     OW28072   1.517   3.006   4.794
 9058SOL    HW128073   1.471   3.065   4.727
 9058SOL    HW228074   1.566   2.933   4.746
 9059SOL     OW28075   0.330   1.499   2.359
 9059SOL    HW128076   0.359   1.581   2.408
 9059SOL    HW228077   0.239   1.514   2.321
 9060SOL     OW28078   0.530   5.162   1.209
 9060SOL    HW128079   0.437   5.164   1.245
 9060SOL    HW228080   0.595   5.187   1.281
 9061SOL     OW28081   5.732   4.683   2.262
 9061SOL    HW128082   5.673   4.690   2.181
 9061SOL    HW228083   5.803   4.753   2.256
 9062SOL     OW28084   0.698   5.539   3.337
 9062SOL    HW128085   0.771   5.496   3.284
 9062SOL    HW228086   0.645   5.468   3.385
 9063SOL     OW28087   3.838   1.236   1.590
 9063SOL    HW128088   3.923   1.276   1.554
 9063SOL    HW228089   3.826   1.265   1.685
 9064SOL     OW28090   1.172   5.148   3.847
 9064SOL    HW128091   1.198   5.140   3.751
 9064SOL    HW228092   1.137   5.060   3.879
 9065SOL     OW28093   2.429   4.464   5.162
 9065SOL    HW128094   2.496   4.517   5.109
 9065SOL    HW228095   2.445   4.479   5.259
 9066SOL     OW28096   5.031   4.665   5.540
 9066SOL    HW128097   4.960   4.659   5.469
 9066SOL    HW228098   5.118   4.633   5.503
 9067SOL     OW28099   0.741   6.746   4.320
 9067SOL    HW128100   0.824   6.734   4.375
 9067SOL    HW228101   0.669   6.686   4.355
 9068SOL     OW28102   5.075   6.942   4.997
 9068SOL    HW128103   5.068   6.897   5.086
 9068SOL    HW228104   5.006   6.906   4.935
 9069SOL     OW28105   5.136   1.753   1.538
 9069SOL    HW128106   5.069   1.821   1.510
 9069SOL    HW228107   5.089   1.676   1.581
 9070SOL     OW28108   1.409   2.556   6.063
 9070SOL    HW128109   1.495   2.550   6.114
 9070SOL    HW228110   1.404   2.481   5.997
 9071SOL     OW28111   4.968   1.768   5.334
 9071SOL    HW128112   4.886   1.765   5.278
 9071SOL    HW228113   5.028   1.842   5.303
 9072SOL     OW28114   4.937   1.418   2.325
 9072SOL    HW128115   4.941   1.430   2.424
 9072SOL    HW228116   5.010   1.356   2.296
 9073SOL     OW28117   4.655   1.071   6.348
 9073SOL    HW128118   4.711   1.128   6.408
 9073SOL    HW228119   4.591   1.017   6.403
 9074SOL     OW28120   1.747   0.004   2.095
 9074SOL    HW128121   1.807   0.073   2.056
 9074SOL    HW228122   1.798   6.944   2.109
 9075SOL     OW28123   6.279   6.337   1.333
 9075SOL    HW128124   6.272   6.306   1.428
 9075SOL    HW228125   6.358   6.398   1.325
 9076SOL     OW28126   6.462   0.958   2.396
 9076SOL    HW128127   6.529   0.947   2.470
 9076SOL    HW228128   6.507   0.941   2.308
 9077SOL     OW28129   6.173   1.672   5.975
 9077SOL    HW128130   6.262   1.626   5.976
 9077SOL    HW228131   6.165   1.730   6.056
 9078SOL     OW28132   5.204   5.974   6.736
 9078SOL    HW128133   5.302   5.965   6.754
 9078SOL    HW228134   5.169   5.888   6.699
 9079SOL     OW28135   1.373   0.724   6.577
 9079SOL    HW128136   1.296   0.744   6.637
 9079SOL    HW228137   1.383   0.798   6.510
 9080SOL     OW28138   5.637   3.486   1.599
 9080SOL    HW128139   5.564   3.545   1.635
 9080SOL    HW228140   5.689   3.447   1.674
 9081SOL     OW28141   4.722   1.870   0.490
 9081SOL    HW128142   4.662   1.855   0.569
 9081SOL    HW228143   4.735   1.968   0.476
 9082SOL     OW28144   3.201   5.840   5.656
 9082SOL    HW128145   3.258   5.804   5.730
 9082SOL    HW228146   3.118   5.786   5.648
 9083SOL     OW28147   4.185   5.626   6.199
 9083SOL    HW128148   4.283   5.623   6.178
 9083SOL    HW228149   4.172   5.612   6.297
 9084SOL     OW28150   0.234   2.626   5.635
 9084SOL    HW128151   0.314   2.566   5.632
 9084SOL    HW228152   0.151   2.571   5.620
 9085SOL     OW28153   2.746   4.988   6.819
 9085SOL    HW128154   2.825   4.946   6.774
 9085SOL    HW228155   2.727   4.939   6.904
 9086SOL     OW28156   6.892   4.367   0.725
 9086SOL    HW128157   6.815   4.357   0.663
 9086SOL    HW228158   6.899   4.462   0.756
 9087SOL     OW28159   5.968   0.956   1.423
 9087SOL    HW128160   5.957   0.888   1.496
 9087SOL    HW228161   6.050   0.935   1.370
 9088SOL     OW28162   6.519   6.670   0.697
 9088SOL    HW128163   6.451   6.678   0.770
 9088SOL    HW228164   6.605   6.710   0.727
 9089SOL     OW28165   5.054   5.756   3.704
 9089SOL    HW128166   5.145   5.743   3.665
 9089SOL    HW228167   4.990   5.782   3.632
 9090SOL     OW28168   5.843   6.215   4.723
 9090SOL    HW128169   5.849   6.176   4.631
 9090SOL    HW228170   5.775   6.163   4.776
 9091SOL     OW28171   2.039   1.818   1.575
 9091SOL    HW128172   2.123   1.870   1.587
 9091SOL    HW228173   1.967   1.858   1.632
 9092SOL     OW28174   1.212   6.928   5.352
 9092SOL    HW128175   1.263   6.877   5.282
 9092SOL    HW228176   1.170   6.863   5.416
 9093SOL     OW28177   2.493   5.072   0.666
 9093SOL    HW128178   2.466   5.115   0.752
 9093SOL    HW228179   2.431   5.102   0.593
 9094SOL     OW28180   0.305   5.324   2.080
 9094SOL    HW128181   0.371   5.261   2.122
 9094SOL    HW228182   0.354   5.403   2.042
 9095SOL     OW28183   3.319   3.285   6.893
 9095SOL    HW128184   3.350   3.364   6.839
 9095SOL    HW228185   3.220   3.291   6.907
 9096SOL     OW28186   5.672   2.399   2.894
 9096SOL    HW128187   5.615   2.365   2.820
 9096SOL    HW228188   5.636   2.486   2.927
 9097SOL     OW28189   1.200   4.285   6.526
 9097SOL    HW128190   1.102   4.303   6.514
 9097SOL    HW228191   1.251   4.332   6.455
 9098SOL     OW28192   3.964   3.758   2.523
 9098SOL    HW128193   3.925   3.694   2.457
 9098SOL    HW228194   4.047   3.719   2.563
 9099SOL     OW28195   2.497   3.796   1.026
 9099SOL    HW128196   2.410   3.844   1.014
 9099SOL    HW228197   2.482   3.697   1.021
 9100SOL     OW28198   0.999   3.306   0.851
 9100SOL    HW128199   1.062   3.368   0.899
 9100SOL    HW228200   0.978   3.228   0.909
 9101SOL     OW28201   1.878   2.524   1.941
 9101SOL    HW128202   1.849   2.607   1.988
 9101SOL    HW228203   1.842   2.444   1.989
 9102SOL     OW28204   3.553   5.460   2.066
 9102SOL    HW128205   3.591   5.389   2.007
 9102SOL    HW228206   3.485   5.420   2.127
 9103SOL     OW28207   0.053   3.878   0.682
 9103SOL    HW128208   0.014   3.952   0.735
 9103SOL    HW228209   0.131   3.838   0.731
 9104SOL     OW28210   4.334   6.657   1.360
 9104SOL    HW128211   4.364   6.707   1.279
 9104SOL    HW228212   4.391   6.681   1.438
 9105SOL     OW28213   1.479   1.638   6.760
 9105SOL    HW128214   1.561   1.585   6.777
 9105SOL    HW228215   1.423   1.592   6.691
 9106SOL     OW28216   5.573   5.066   0.175
 9106SOL    HW128217   5.488   5.049   0.125
 9106SOL    HW228218   5.552   5.106   0.264
 9107SOL     OW28219   3.716   0.224   0.732
 9107SOL    HW128220   3.742   0.273   0.815
 9107SOL    HW228221   3.769   0.258   0.655
 9108SOL     OW28222   4.393   5.380   5.245
 9108SOL    HW128223   4.347   5.341   5.166
 9108SOL    HW228224   4.422   5.307   5.307
 9109SOL     OW28225   3.370   2.127   3.776
 9109SOL    HW128226   3.351   2.150   3.680
 9109SOL    HW228227   3.285   2.135   3.829
 9110SOL     OW28228   2.085   3.983   3.991
 9110SOL    HW128229   2.160   4.047   3.974
 9110SOL    HW228230   1.999   4.026   3.965
 9111SOL     OW28231   3.787   4.209   1.471
 9111SOL    HW128232   3.689   4.208   1.493
 9111SOL    HW228233   3.813   4.120   1.433
 9112SOL     OW28234   0.220   4.503   1.993
 9112SOL    HW128235   0.226   4.404   1.981
 9112SOL    HW228236   0.232   4.526   2.089
 9113SOL     OW28237   5.351   0.074   0.324
 9113SOL    HW128238   5.385   0.157   0.280
 9113SOL    HW228239   5.288   0.099   0.398
 9114SOL     OW28240   2.339   4.788   2.255
 9114SOL    HW128241   2.348   4.689   2.269
 9114SOL    HW228242   2.421   4.823   2.210
 9115SOL     OW28243   1.199   4.816   4.817
 9115SOL    HW128244   1.295   4.798   4.839
 9115SOL    HW228245   1.192   4.846   4.722
 9116SOL     OW28246   6.852   1.494   6.827
 9116SOL    HW128247   6.815   1.447   6.907
 9116SOL    HW228248   6.886   1.427   6.761
 9117SOL     OW28249   6.375   2.964   6.471
 9117SOL    HW128250   6.301   2.930   6.414
 9117SOL    HW228251   6.417   3.043   6.427
 9118SOL     OW28252   6.917   6.354   1.126
 9118SOL    HW128253   6.940   6.451   1.116
 9118SOL    HW228254   6.847   6.330   1.060
 9119SOL     OW28255   5.979   0.509   2.063
 9119SOL    HW128256   6.038   0.528   1.985
 9119SOL    HW228257   5.922   0.588   2.082
 9120SOL     OW28258   5.659   1.273   5.774
 9120SOL    HW128259   5.663   1.297   5.871
 9120SOL    HW228260   5.628   1.179   5.764
 9121SOL     OW28261   0.517   2.231   5.826
 9121SOL    HW128262   0.493   2.142   5.787
 9121SOL    HW228263   0.447   2.298   5.802
 9122SOL     OW28264   1.801   2.433   2.739
 9122SOL    HW128265   1.794   2.394   2.831
 9122SOL    HW228266   1.890   2.477   2.727
 9123SOL     OW28267   2.559   6.167   6.269
 9123SOL    HW128268   2.566   6.141   6.365
 9123SOL    HW228269   2.616   6.247   6.251
 9124SOL     OW28270   6.766   5.715   5.376
 9124SOL    HW128271   6.857   5.723   5.417
 9124SOL    HW228272   6.696   5.737   5.444
 9125SOL     OW28273   5.114   3.865   3.732
 9125SOL    HW128274   5.139   3.961   3.719
 9125SOL    HW228275   5.173   3.807   3.676
 9126SOL     OW28276   6.030   1.034   1.874
 9126SOL    HW128277   5.970   0.956   1.859
 9126SOL    HW228278   5.989   1.095   1.942
 9127SOL     OW28279   5.430   0.285   6.399
 9127SOL    HW128280   5.437   0.347   6.477
 9127SOL    HW228281   5.411   0.192   6.431
 9128SOL     OW28282   3.545   2.002   5.368
 9128SOL    HW128283   3.479   1.995   5.293
 9128SOL    HW228284   3.636   1.980   5.334
 9129SOL     OW28285   2.178   2.610   6.529
 9129SOL    HW128286   2.147   2.607   6.624
 9129SOL    HW228287   2.114   2.561   6.471
 9130SOL     OW28288   6.438   5.022   0.673
 9130SOL    HW128289   6.532   4.995   0.654
 9130SOL    HW228290   6.377   4.946   0.654
 9131SOL     OW28291   0.697   4.229   4.213
 9131SOL    HW128292   0.658   4.223   4.121
 9131SOL    HW228293   0.628   4.204   4.281
 9132SOL     OW28294   6.916   3.434   3.559
 9132SOL    HW128295   6.876   3.443   3.467
 9132SOL    HW228296   7.005   3.390   3.552
 9133SOL     OW28297   2.288   4.442   1.070
 9133SOL    HW128298   2.362   4.477   1.013
 9133SOL    HW228299   2.276   4.500   1.150
 9134SOL     OW28300   3.595   6.678   6.959
 9134SOL    HW128301   3.639   6.747   6.900
 9134SOL    HW228302   3.597   6.709   0.028
 9135SOL     OW28303   6.514   6.546   2.913
 9135SOL    HW128304   6.543   6.504   2.827
 9135SOL    HW228305   6.570   6.510   2.988
 9136SOL     OW28306   4.738   5.359   6.009
 9136SOL    HW128307   4.737   5.458   5.997
 9136SOL    HW228308   4.792   5.317   5.936
 9137SOL     OW28309   5.174   1.514   1.151
 9137SOL    HW128310   5.127   1.464   1.079
 9137SOL    HW228311   5.210   1.600   1.115
 9138SOL     OW28312   6.119   4.872   6.144
 9138SOL    HW128313   6.189   4.840   6.208
 9138SOL    HW228314   6.154   4.950   6.093
 9139SOL     OW28315   3.105   0.645   6.276
 9139SOL    HW128316   3.033   0.673   6.213
 9139SOL    HW228317   3.173   0.719   6.284
 9140SOL     OW28318   6.179   2.456   3.133
 9140SOL    HW128319   6.201   2.445   3.036
 9140SOL    HW228320   6.239   2.397   3.188
 9141SOL     OW28321   5.391   0.238   6.110
 9141SOL    HW128322   5.460   0.170   6.088
 9141SOL    HW228323   5.397   0.262   6.206
 9142SOL     OW28324   0.130   2.990   5.365
 9142SOL    HW128325   0.164   3.051   5.437
 9142SOL    HW228326   0.206   2.934   5.330
 9143SOL     OW28327   4.644   3.429   0.154
 9143SOL    HW128328   4.734   3.404   0.119
 9143SOL    HW228329   4.645   3.525   0.182
 9144SOL     OW28330   2.065   6.013   5.988
 9144SOL    HW128331   2.027   5.940   6.045
 9144SOL    HW228332   2.105   6.084   6.047
 9145SOL     OW28333   0.542   4.543   0.578
 9145SOL    HW128334   0.444   4.532   0.567
 9145SOL    HW228335   0.564   4.550   0.675
 9146SOL     OW28336   5.347   2.537   1.588
 9146SOL    HW128337   5.401   2.550   1.671
 9146SOL    HW228338   5.409   2.534   1.509
 9147SOL     OW28339   4.529   6.363   3.894
 9147SOL    HW128340   4.432   6.383   3.880
 9147SOL    HW228341   4.569   6.333   3.807
 9148SOL     OW28342   5.546   6.385   2.715
 9148SOL    HW128343   5.484   6.314   2.680
 9148SOL    HW228344   5.491   6.458   2.756
 9149SOL     OW28345   4.896   2.999   4.086
 9149SOL    HW128346   4.907   3.089   4.128
 9149SOL    HW228347   4.856   3.008   3.995
 9150SOL     OW28348   4.654   6.543   3.207
 9150SOL    HW128349   4.735   6.509   3.255
 9150SOL    HW228350   4.682   6.601   3.130
 9151SOL     OW28351   1.289   4.162   1.739
 9151SOL    HW128352   1.355   4.129   1.806
 9151SOL    HW228353   1.215   4.096   1.729
 9152SOL     OW28354   2.486   5.912   3.670
 9152SOL    HW128355   2.512   5.847   3.741
 9152SOL    HW228356   2.415   5.974   3.705
 9153SOL     OW28357   1.448   2.630   0.026
 9153SOL    HW128358   1.460   2.719   0.070
 9153SOL    HW228359   1.370   2.583   0.067
 9154SOL     OW28360   2.892   5.678   6.906
 9154SOL    HW128361   2.823   5.616   6.944
 9154SOL    HW228362   2.886   5.678   6.806
 9155SOL     OW28363   2.133   3.710   6.692
 9155SOL    HW128364   2.111   3.788   6.633
 9155SOL    HW228365   2.160   3.632   6.636
 9156SOL     OW28366   3.389   2.391   1.232
 9156SOL    HW128367   3.446   2.345   1.300
 9156SOL    HW228368   3.301   2.344   1.225
 9157SOL     OW28369   5.794   4.570   5.273
 9157SOL    HW128370   5.838   4.483   5.297
 9157SOL    HW228371   5.817   4.595   5.179
 9158SOL     OW28372   0.158   3.720   4.563
 9158SOL    HW128373   0.232   3.764   4.613
 9158SOL    HW228374   0.071   3.738   4.609
 9159SOL     OW28375   0.246   5.588   3.252
 9159SOL    HW128376   0.273   5.538   3.170
 9159SOL    HW228377   0.181   5.533   3.305
 9160SOL     OW28378   0.477   6.975   5.871
 9160SOL    HW128379   0.563   7.017   5.839
 9160SOL    HW228380   0.458   6.894   5.816
 9161SOL     OW28381   4.806   4.136   4.969
 9161SOL    HW128382   4.770   4.105   5.056
 9161SOL    HW228383   4.873   4.208   4.984
 9162SOL     OW28384   5.280   2.595   2.904
 9162SOL    HW128385   5.218   2.581   2.827
 9162SOL    HW228386   5.227   2.604   2.989
 9163SOL     OW28387   2.442   2.676   3.903
 9163SOL    HW128388   2.362   2.616   3.892
 9163SOL    HW228389   2.413   2.762   3.946
 9164SOL     OW28390   2.728   0.787   6.896
 9164SOL    HW128391   2.681   0.773   6.983
 9164SOL    HW228392   2.770   0.701   6.867
 9165SOL     OW28393   6.205   0.626   5.993
 9165SOL    HW128394   6.167   0.652   6.082
 9165SOL    HW228395   6.267   0.549   6.004
 9166SOL     OW28396   4.594   6.348   1.004
 9166SOL    HW128397   4.639   6.411   0.942
 9166SOL    HW228398   4.650   6.266   1.016
 9167SOL     OW28399   1.597   3.370   5.822
 9167SOL    HW128400   1.523   3.409   5.767
 9167SOL    HW228401   1.574   3.276   5.847
 9168SOL     OW28402   2.351   0.211   5.941
 9168SOL    HW128403   2.330   0.266   6.022
 9168SOL    HW228404   2.278   0.144   5.926
 9169SOL     OW28405   0.123   0.653   5.020
 9169SOL    HW128406   0.123   0.692   5.112
 9169SOL    HW228407   0.216   0.652   4.984
 9170SOL     OW28408   0.261   5.019   6.674
 9170SOL    HW128409   0.333   4.960   6.638
 9170SOL    HW228410   0.301   5.104   6.709
 9171SOL     OW28411   3.106   5.485   0.070
 9171SOL    HW128412   3.200   5.468   0.042
 9171SOL    HW228413   3.054   5.520   7.017
 9172SOL     OW28414   3.485   1.466   4.566
 9172SOL    HW128415   3.393   1.478   4.529
 9172SOL    HW228416   3.488   1.384   4.623
 9173SOL     OW28417   5.695   4.598   4.704
 9173SOL    HW128418   5.789   4.568   4.722
 9173SOL    HW228419   5.632   4.530   4.741
 9174SOL     OW28420   6.326   4.109   0.392
 9174SOL    HW128421   6.288   4.078   0.479
 9174SOL    HW228422   6.260   4.169   0.346
 9175SOL     OW28423   2.629   6.380   5.354
 9175SOL    HW128424   2.694   6.332   5.413
 9175SOL    HW228425   2.670   6.392   5.263
 9176SOL     OW28426   1.572   0.828   5.421
 9176SOL    HW128427   1.605   0.747   5.469
 9176SOL    HW228428   1.646   0.895   5.415
 9177SOL     OW28429   1.210   4.319   3.909
 9177SOL    HW128430   1.159   4.240   3.876
 9177SOL    HW228431   1.307   4.296   3.916
 9178SOL     OW28432   2.347   4.691   0.581
 9178SOL    HW128433   2.440   4.722   0.558
 9178SOL    HW228434   2.337   4.687   0.680
 9179SOL     OW28435   2.331   5.148   4.095
 9179SOL    HW128436   2.258   5.173   4.160
 9179SOL    HW228437   2.290   5.100   4.017
 9180SOL     OW28438   6.190   2.460   3.633
 9180SOL    HW128439   6.266   2.407   3.596
 9180SOL    HW228440   6.125   2.481   3.560
 9181SOL     OW28441   4.644   2.306   3.052
 9181SOL    HW128442   4.736   2.304   3.091
 9181SOL    HW228443   4.583   2.248   3.105
 9182SOL     OW28444   2.629   6.769   2.333
 9182SOL    HW128445   2.551   6.798   2.278
 9182SOL    HW228446   2.691   6.714   2.276
 9183SOL     OW28447   5.367   5.846   0.436
 9183SOL    HW128448   5.416   5.795   0.507
 9183SOL    HW228449   5.297   5.788   0.395
 9184SOL     OW28450   5.059   0.771   0.603
 9184SOL    HW128451   5.105   0.799   0.519
 9184SOL    HW228452   5.038   0.853   0.658
 9185SOL     OW28453   4.195   0.194   5.738
 9185SOL    HW128454   4.128   0.257   5.777
 9185SOL    HW228455   4.224   0.129   5.808
 9186SOL     OW28456   6.580   1.204   4.654
 9186SOL    HW128457   6.572   1.149   4.737
 9186SOL    HW228458   6.492   1.247   4.633
 9187SOL     OW28459   2.159   6.844   1.644
 9187SOL    HW128460   2.187   6.935   1.613
 9187SOL    HW228461   2.214   6.775   1.598
 9188SOL     OW28462   2.306   6.083   1.123
 9188SOL    HW128463   2.375   6.149   1.094
 9188SOL    HW228464   2.310   6.072   1.222
 9189SOL     OW28465   5.560   6.104   2.890
 9189SOL    HW128466   5.525   6.178   2.946
 9189SOL    HW228467   5.631   6.054   2.940
 9190SOL     OW28468   1.844   5.456   0.032
 9190SOL    HW128469   1.870   5.529   6.994
 9190SOL    HW228470   1.917   5.440   0.098
 9191SOL     OW28471   6.227   0.741   5.057
 9191SOL    HW128472   6.315   0.693   5.053
 9191SOL    HW228473   6.155   0.681   5.023
 9192SOL     OW28474   0.307   4.341   4.677
 9192SOL    HW128475   0.386   4.399   4.698
 9192SOL    HW228476   0.313   4.257   4.732
 9193SOL     OW28477   4.089   4.034   0.203
 9193SOL    HW128478   4.183   4.038   0.237
 9193SOL    HW228479   4.064   4.121   0.162
 9194SOL     OW28480   3.467   0.657   3.536
 9194SOL    HW128481   3.374   0.694   3.545
 9194SOL    HW228482   3.513   0.701   3.459
 9195SOL     OW28483   1.920   2.284   4.078
 9195SOL    HW128484   1.924   2.220   4.000
 9195SOL    HW228485   1.985   2.358   4.063
 9196SOL     OW28486   4.005   1.070   5.025
 9196SOL    HW128487   4.066   0.992   5.039
 9196SOL    HW228488   4.059   1.152   5.004
 9197SOL     OW28489   1.814   4.081   1.682
 9197SOL    HW128490   1.751   4.067   1.606
 9197SOL    HW228491   1.804   4.174   1.717
 9198SOL     OW28492   6.505   5.152   5.249
 9198SOL    HW128493   6.439   5.162   5.324
 9198SOL    HW228494   6.543   5.059   5.251
 9199SOL     OW28495   0.613   3.347   6.689
 9199SOL    HW128496   0.607   3.438   6.732
 9199SOL    HW228497   0.538   3.336   6.624
 9200SOL     OW28498   1.974   6.870   1.180
 9200SOL    HW128499   2.074   6.861   1.188
 9200SOL    HW228500   1.939   6.918   1.261
 9201SOL     OW28501   0.848   3.214   0.268
 9201SOL    HW128502   0.901   3.129   0.270
 9201SOL    HW228503   0.784   3.211   0.191
 9202SOL     OW28504   2.248   6.484   3.670
 9202SOL    HW128505   2.283   6.542   3.743
 9202SOL    HW228506   2.177   6.533   3.619
 9203SOL     OW28507   0.085   5.093   6.876
 9203SOL    HW128508   0.128   5.029   6.812
 9203SOL    HW228509   0.139   5.098   6.960
 9204SOL     OW28510   4.939   1.969   6.803
 9204SOL    HW128511   4.953   1.927   6.892
 9204SOL    HW228512   5.005   2.042   6.790
 9205SOL     OW28513   6.388   4.349   2.756
 9205SOL    HW128514   6.321   4.389   2.693
 9205SOL    HW228515   6.460   4.303   2.704
 9206SOL     OW28516   3.498   5.265   1.116
 9206SOL    HW128517   3.483   5.181   1.064
 9206SOL    HW228518   3.540   5.334   1.056
 9207SOL     OW28519   4.415   5.024   0.109
 9207SOL    HW128520   4.367   5.037   0.196
 9207SOL    HW228521   4.349   5.026   0.034
 9208SOL     OW28522   6.024   4.103   4.656
 9208SOL    HW128523   6.051   4.024   4.711
 9208SOL    HW228524   6.082   4.181   4.680
 9209SOL     OW28525   2.922   1.438   0.293
 9209SOL    HW128526   2.939   1.533   0.319
 9209SOL    HW228527   2.933   1.379   0.372
 9210SOL     OW28528   6.174   1.471   3.228
 9210SOL    HW128529   6.105   1.517   3.172
 9210SOL    HW228530   6.145   1.471   3.323
 9211SOL     OW28531   6.957   2.921   4.098
 9211SOL    HW128532   6.875   2.978   4.107
 9211SOL    HW228533   6.977   2.876   4.185
 9212SOL     OW28534   4.090   5.218   4.339
 9212SOL    HW128535   4.000   5.244   4.304
 9212SOL    HW228536   4.086   5.209   4.438
 9213SOL     OW28537   6.077   3.041   5.281
 9213SOL    HW128538   6.070   3.058   5.183
 9213SOL    HW228539   6.140   2.964   5.298
 9214SOL     OW28540   6.664   5.307   5.965
 9214SOL    HW128541   6.569   5.337   5.955
 9214SOL    HW228542   6.708   5.359   6.039
 9215SOL     OW28543   0.709   1.919   0.437
 9215SOL    HW128544   0.790   1.909   0.495
 9215SOL    HW228545   0.628   1.890   0.488
 9216SOL     OW28546   2.913   0.192   3.243
 9216SOL    HW128547   2.854   0.255   3.294
 9216SOL    HW228548   3.001   0.236   3.226
 9217SOL     OW28549   0.113   0.798   6.208
 9217SOL    HW128550   0.135   0.756   6.296
 9217SOL    HW228551   0.190   0.855   6.178
 9218SOL     OW28552   3.483   6.407   0.180
 9218SOL    HW128553   3.450   6.365   0.096
 9218SOL    HW228554   3.583   6.401   0.184
 9219SOL     OW28555   0.973   2.959   0.247
 9219SOL    HW128556   0.885   2.931   0.208
 9219SOL    HW228557   1.033   2.879   0.256
 9220SOL     OW28558   3.226   6.638   1.426
 9220SOL    HW128559   3.297   6.629   1.357
 9220SOL    HW228560   3.188   6.730   1.424
 9221SOL     OW28561   3.728   0.462   3.868
 9221SOL    HW128562   3.718   0.422   3.959
 9221SOL    HW228563   3.750   0.560   3.877
 9222SOL     OW28564   2.315   0.802   6.825
 9222SOL    HW128565   2.241   0.819   6.891
 9222SOL    HW228566   2.401   0.834   6.864
 9223SOL     OW28567   1.838   2.294   4.789
 9223SOL    HW128568   1.817   2.348   4.707
 9223SOL    HW228569   1.937   2.293   4.804
 9224SOL     OW28570   2.674   5.677   4.168
 9224SOL    HW128571   2.677   5.776   4.159
 9224SOL    HW228572   2.584   5.644   4.138
 9225SOL     OW28573   3.142   6.429   6.706
 9225SOL    HW128574   3.227   6.449   6.753
 9225SOL    HW228575   3.161   6.386   6.617
 9226SOL     OW28576   5.097   6.636   1.522
 9226SOL    HW128577   5.137   6.545   1.538
 9226SOL    HW228578   5.146   6.681   1.447
 9227SOL     OW28579   1.209   5.111   3.557
 9227SOL    HW128580   1.123   5.070   3.525
 9227SOL    HW228581   1.286   5.061   3.518
 9228SOL     OW28582   1.594   1.083   5.716
 9228SOL    HW128583   1.648   1.004   5.687
 9228SOL    HW228584   1.584   1.146   5.639
 9229SOL     OW28585   1.655   5.453   4.106
 9229SOL    HW128586   1.557   5.434   4.106
 9229SOL    HW228587   1.707   5.368   4.114
 9230SOL     OW28588   5.791   0.320   2.558
 9230SOL    HW128589   5.855   0.244   2.570
 9230SOL    HW228590   5.834   0.405   2.591
 9231SOL     OW28591   2.068   3.181   4.308
 9231SOL    HW128592   2.129   3.254   4.338
 9231SOL    HW228593   2.117   3.121   4.244
 9232SOL     OW28594   3.515   4.965   1.031
 9232SOL    HW128595   3.431   4.924   1.065
 9232SOL    HW228596   3.529   4.940   0.936
 9233SOL     OW28597   5.860   5.395   1.638
 9233SOL    HW128598   5.805   5.469   1.676
 9233SOL    HW228599   5.957   5.413   1.656
 9234SOL     OW28600   2.832   5.683   3.946
 9234SOL    HW128601   2.787   5.614   3.890
 9234SOL    HW228602   2.798   5.677   4.040
 9235SOL     OW28603   1.876   1.984   3.083
 9235SOL    HW128604   1.903   1.981   2.987
 9235SOL    HW228605   1.932   1.920   3.135
 9236SOL     OW28606   3.456   4.257   5.500
 9236SOL    HW128607   3.441   4.288   5.594
 9236SOL    HW228608   3.495   4.165   5.501
 9237SOL     OW28609   1.333   4.380   4.969
 9237SOL    HW128610   1.322   4.360   4.872
 9237SOL    HW228611   1.320   4.296   5.022
 9238SOL     OW28612   4.276   2.489   6.086
 9238SOL    HW128613   4.302   2.488   5.989
 9238SOL    HW228614   4.262   2.583   6.116
 9239SOL     OW28615   0.142   3.841   0.976
 9239SOL    HW128616   0.098   3.756   0.948
 9239SOL    HW228617   0.081   3.892   1.036
 9240SOL     OW28618   5.766   1.767   0.548
 9240SOL    HW128619   5.671   1.796   0.561
 9240SOL    HW228620   5.774   1.669   0.566
 9241SOL     OW28621   6.874   5.525   6.696
 9241SOL    HW128622   6.903   5.438   6.735
 9241SOL    HW228623   6.794   5.558   6.746
 9242SOL     OW28624   0.297   5.938   1.102
 9242SOL    HW128625   0.385   5.910   1.143
 9242SOL    HW228626   0.237   5.974   1.174
 9243SOL     OW28627   6.714   5.512   3.569
 9243SOL    HW128628   6.765   5.550   3.647
 9243SOL    HW228629   6.752   5.423   3.545
 9244SOL     OW28630   4.559   5.746   6.506
 9244SOL    HW128631   4.533   5.842   6.502
 9244SOL    HW228632   4.480   5.691   6.534
 9245SOL     OW28633   1.256   5.396   2.425
 9245SOL    HW128634   1.322   5.321   2.433
 9245SOL    HW228635   1.163   5.358   2.428
 9246SOL     OW28636   6.354   4.585   3.664
 9246SOL    HW128637   6.262   4.620   3.684
 9246SOL    HW228638   6.406   4.655   3.615
 9247SOL     OW28639   0.777   0.831   2.678
 9247SOL    HW128640   0.678   0.834   2.688
 9247SOL    HW228641   0.818   0.903   2.734
 9248SOL     OW28642   2.761   2.530   5.705
 9248SOL    HW128643   2.774   2.578   5.619
 9248SOL    HW228644   2.743   2.597   5.778
 9249SOL     OW28645   5.291   1.687   5.298
 9249SOL    HW128646   5.332   1.601   5.268
 9249SOL    HW228647   5.295   1.754   5.223
 9250SOL     OW28648   4.844   3.831   4.486
 9250SOL    HW128649   4.894   3.902   4.536
 9250SOL    HW228650   4.800   3.769   4.551
 9251SOL     OW28651   3.843   1.344   2.999
 9251SOL    HW128652   3.830   1.281   2.922
 9251SOL    HW228653   3.939   1.368   3.007
 9252SOL     OW28654   6.819   0.062   4.669
 9252SOL    HW128655   6.763   0.077   4.751
 9252SOL    HW228656   6.897   0.004   4.692
 9253SOL     OW28657   3.068   6.038   6.343
 9253SOL    HW128658   3.079   5.986   6.258
 9253SOL    HW228659   2.981   6.014   6.386
 9254SOL     OW28660   5.520   3.584   1.047
 9254SOL    HW128661   5.471   3.507   1.006
 9254SOL    HW228662   5.495   3.591   1.144
 9255SOL     OW28663   5.362   2.902   0.069
 9255SOL    HW128664   5.420   2.979   0.096
 9255SOL    HW228665   5.413   2.842   0.007
 9256SOL     OW28666   4.074   4.795   2.749
 9256SOL    HW128667   4.084   4.891   2.724
 9256SOL    HW228668   3.984   4.762   2.720
 9257SOL     OW28669   0.947   4.185   2.533
 9257SOL    HW128670   0.995   4.150   2.614
 9257SOL    HW228671   0.937   4.112   2.466
 9258SOL     OW28672   3.567   3.284   4.007
 9258SOL    HW128673   3.649   3.275   3.950
 9258SOL    HW228674   3.490   3.313   3.951
 9259SOL     OW28675   0.998   2.591   1.330
 9259SOL    HW128676   1.070   2.526   1.304
 9259SOL    HW228677   0.909   2.548   1.321
 9260SOL     OW28678   4.856   2.169   5.393
 9260SOL    HW128679   4.844   2.144   5.489
 9260SOL    HW228680   4.780   2.229   5.365
 9261SOL     OW28681   4.210   0.229   6.564
 9261SOL    HW128682   4.152   0.310   6.569
 9261SOL    HW228683   4.298   0.248   6.608
 9262SOL     OW28684   5.937   1.879   5.985
 9262SOL    HW128685   5.896   1.912   6.070
 9262SOL    HW228686   5.871   1.819   5.938
 9263SOL     OW28687   5.570   4.452   1.499
 9263SOL    HW128688   5.667   4.439   1.521
 9263SOL    HW228689   5.521   4.366   1.512
 9264SOL     OW28690   6.484   3.843   0.331
 9264SOL    HW128691   6.460   3.937   0.353
 9264SOL    HW228692   6.412   3.782   0.363
 9265SOL     OW28693   2.973   2.004   0.710
 9265SOL    HW128694   2.984   1.963   0.800
 9265SOL    HW228695   2.904   2.077   0.715
 9266SOL     OW28696   2.453   6.013   3.148
 9266SOL    HW128697   2.415   6.104   3.132
 9266SOL    HW228698   2.472   6.001   3.245
 9267SOL     OW28699   0.398   3.867   4.145
 9267SOL    HW128700   0.317   3.885   4.200
 9267SOL    HW228701   0.480   3.871   4.202
 9268SOL     OW28702   1.025   6.518   3.030
 9268SOL    HW128703   1.077   6.576   2.967
 9268SOL    HW228704   0.981   6.444   2.978
 9269SOL     OW28705   3.113   2.457   0.214
 9269SOL    HW128706   3.166   2.529   0.169
 9269SOL    HW228707   3.051   2.498   0.281
 9270SOL     OW28708   6.173   6.794   5.731
 9270SOL    HW128709   6.149   6.797   5.634
 9270SOL    HW228710   6.263   6.835   5.744
 9271SOL     OW28711   1.781   6.321   1.199
 9271SOL    HW128712   1.698   6.266   1.188
 9271SOL    HW228713   1.771   6.407   1.149
 9272SOL     OW28714   3.142   4.251   6.078
 9272SOL    HW128715   3.047   4.257   6.109
 9272SOL    HW228716   3.145   4.216   5.985
 9273SOL     OW28717   4.386   5.673   3.453
 9273SOL    HW128718   4.405   5.653   3.357
 9273SOL    HW228719   4.393   5.589   3.506
 9274SOL     OW28720   5.342   2.408   6.804
 9274SOL    HW128721   5.438   2.381   6.799
 9274SOL    HW228722   5.306   2.423   6.712
 9275SOL     OW28723   1.172   1.327   7.015
 9275SOL    HW128724   1.132   1.411   6.979
 9275SOL    HW228725   1.251   1.301   6.960
 9276SOL     OW28726   2.760   4.815   4.541
 9276SOL    HW128727   2.806   4.816   4.452
 9276SOL    HW228728   2.829   4.816   4.614
 9277SOL     OW28729   3.682   3.328   0.217
 9277SOL    HW128730   3.687   3.337   0.317
 9277SOL    HW228731   3.692   3.231   0.192
 9278SOL     OW28732   1.365   1.866   3.805
 9278SOL    HW128733   1.430   1.939   3.784
 9278SOL    HW228734   1.272   1.899   3.788
 9279SOL     OW28735   4.194   0.690   1.964
 9279SOL    HW128736   4.123   0.644   2.017
 9279SOL    HW228737   4.244   0.754   2.022
 9280SOL     OW28738   1.344   0.205   3.745
 9280SOL    HW128739   1.341   0.211   3.845
 9280SOL    HW228740   1.251   0.201   3.709
 9281SOL     OW28741   2.470   3.012   1.262
 9281SOL    HW128742   2.567   3.013   1.289
 9281SOL    HW228743   2.433   2.920   1.274
 9282SOL     OW28744   4.987   2.073   4.175
 9282SOL    HW128745   5.072   2.071   4.228
 9282SOL    HW228746   4.988   2.149   4.111
 9283SOL     OW28747   6.091   1.887   3.196
 9283SOL    HW128748   6.120   1.982   3.199
 9283SOL    HW228749   6.069   1.861   3.102
 9284SOL     OW28750   3.872   4.926   0.250
 9284SOL    HW128751   3.888   4.886   0.160
 9284SOL    HW228752   3.774   4.934   0.267
 9285SOL     OW28753   6.149   2.978   6.984
 9285SOL    HW128754   6.070   2.935   6.939
 9285SOL    HW228755   6.151   2.951   0.055
 9286SOL     OW28756   5.475   6.868   6.089
 9286SOL    HW128757   5.542   6.793   6.090
 9286SOL    HW228758   5.401   6.846   6.025
 9287SOL     OW28759   3.354   5.494   1.495
 9287SOL    HW128760   3.331   5.409   1.447
 9287SOL    HW228761   3.418   5.547   1.440
 9288SOL     OW28762   4.039   1.295   6.185
 9288SOL    HW128763   4.127   1.344   6.179
 9288SOL    HW228764   3.965   1.362   6.193
 9289SOL     OW28765   4.657   2.143   2.446
 9289SOL    HW128766   4.745   2.158   2.490
 9289SOL    HW228767   4.595   2.218   2.468
 9290SOL     OW28768   4.180   1.780   5.162
 9290SOL    HW128769   4.246   1.707   5.178
 9290SOL    HW228770   4.221   1.850   5.104
 9291SOL     OW28771   2.035   0.452   5.050
 9291SOL    HW128772   1.963   0.518   5.031
 9291SOL    HW228773   2.020   0.369   4.995
 9292SOL     OW28774   6.774   3.090   6.327
 9292SOL    HW128775   6.743   3.099   6.421
 9292SOL    HW228776   6.830   3.169   6.302
 9293SOL     OW28777   5.283   4.657   0.834
 9293SOL    HW128778   5.382   4.671   0.833
 9293SOL    HW228779   5.238   4.742   0.862
 9294SOL     OW28780   3.987   5.970   0.097
 9294SOL    HW128781   3.940   5.882   0.099
 9294SOL    HW228782   3.932   6.036   0.045
 9295SOL     OW28783   4.954   1.690   3.308
 9295SOL    HW128784   4.903   1.766   3.269
 9295SOL    HW228785   4.895   1.609   3.313
 9296SOL     OW28786   6.264   6.290   6.113
 9296SOL    HW128787   6.293   6.355   6.184
 9296SOL    HW228788   6.326   6.296   6.035
 9297SOL     OW28789   0.241   0.423   1.589
 9297SOL    HW128790   0.167   0.364   1.558
 9297SOL    HW228791   0.235   0.434   1.689
 9298SOL     OW28792   2.583   6.017   5.476
 9298SOL    HW128793   2.676   6.036   5.446
 9298SOL    HW228794   2.519   6.034   5.400
 9299SOL     OW28795   1.525   2.962   4.079
 9299SOL    HW128796   1.539   2.864   4.063
 9299SOL    HW228797   1.584   2.992   4.153
 9300SOL     OW28798   6.283   4.834   4.724
 9300SOL    HW128799   6.343   4.796   4.652
 9300SOL    HW228800   6.332   4.905   4.774
 9301SOL     OW28801   5.003   4.291   3.194
 9301SOL    HW128802   5.091   4.265   3.233
 9301SOL    HW228803   5.014   4.307   3.096
 9302SOL     OW28804   2.562   2.541   3.692
 9302SOL    HW128805   2.526   2.606   3.758
 9302SOL    HW228806   2.657   2.520   3.714
 9303SOL     OW28807   4.159   6.762   0.813
 9303SOL    HW128808   4.220   6.842   0.817
 9303SOL    HW228809   4.097   6.771   0.735
 9304SOL     OW28810   3.599   4.063   0.390
 9304SOL    HW128811   3.513   4.029   0.428
 9304SOL    HW228812   3.650   3.987   0.350
 9305SOL     OW28813   5.834   1.895   1.553
 9305SOL    HW128814   5.927   1.858   1.541
 9305SOL    HW228815   5.837   1.995   1.550
 9306SOL     OW28816   0.681   4.926   4.316
 9306SOL    HW128817   0.605   4.909   4.252
 9306SOL    HW228818   0.746   4.851   4.311
 9307SOL     OW28819   1.556   2.761   1.001
 9307SOL    HW128820   1.491   2.699   1.045
 9307SOL    HW228821   1.612   2.709   0.936
 9308SOL     OW28822   0.622   4.044   1.054
 9308SOL    HW128823   0.702   3.984   1.057
 9308SOL    HW228824   0.590   4.062   1.146
 9309SOL     OW28825   3.698   4.802   5.294
 9309SOL    HW128826   3.613   4.792   5.242
 9309SOL    HW228827   3.746   4.715   5.296
 9310SOL     OW28828   4.593   6.547   5.677
 9310SOL    HW128829   4.625   6.530   5.770
 9310SOL    HW228830   4.494   6.531   5.673
 9311SOL     OW28831   5.718   4.495   1.051
 9311SOL    HW128832   5.706   4.396   1.059
 9311SOL    HW228833   5.694   4.538   1.138
 9312SOL     OW28834   1.880   4.712   0.060
 9312SOL    HW128835   1.932   4.769   7.022
 9312SOL    HW228836   1.928   4.625   0.074
 9313SOL     OW28837   6.783   0.607   2.235
 9313SOL    HW128838   6.714   0.679   2.238
 9313SOL    HW228839   6.872   0.644   2.261
 9314SOL     OW28840   4.115   5.583   6.462
 9314SOL    HW128841   4.056   5.664   6.470
 9314SOL    HW228842   4.076   5.508   6.514
 9315SOL     OW28843   6.256   0.212   5.612
 9315SOL    HW128844   6.188   0.141   5.594
 9315SOL    HW228845   6.212   0.302   5.604
 9316SOL     OW28846   4.195   5.809   4.581
 9316SOL    HW128847   4.120   5.777   4.522
 9316SOL    HW228848   4.161   5.881   4.641
 9317SOL     OW28849   6.019   5.893   3.042
 9317SOL    HW128850   6.025   5.883   3.142
 9317SOL    HW228851   6.088   5.958   3.011
 9318SOL     OW28852   6.588   0.772   6.117
 9318SOL    HW128853   6.621   0.778   6.022
 9318SOL    HW228854   6.666   0.775   6.180
 9319SOL     OW28855   0.371   3.067   6.268
 9319SOL    HW128856   0.418   2.986   6.303
 9319SOL    HW228857   0.278   3.069   6.306
 9320SOL     OW28858   3.714   2.450   5.714
 9320SOL    HW128859   3.687   2.520   5.648
 9320SOL    HW228860   3.673   2.362   5.689
 9321SOL     OW28861   5.984   0.132   2.560
 9321SOL    HW128862   6.076   0.150   2.595
 9321SOL    HW228863   5.982   0.045   2.511
 9322SOL     OW28864   0.095   5.861   6.077
 9322SOL    HW128865   0.146   5.907   6.150
 9322SOL    HW228866   0.013   5.913   6.056
 9323SOL     OW28867   1.502   0.096   5.709
 9323SOL    HW128868   1.592   0.064   5.681
 9323SOL    HW228869   1.459   0.027   5.768
 9324SOL     OW28870   1.821   5.047   0.466
 9324SOL    HW128871   1.747   4.996   0.509
 9324SOL    HW228872   1.817   5.143   0.496
 9325SOL     OW28873   5.076   1.782   1.025
 9325SOL    HW128874   5.111   1.872   0.997
 9325SOL    HW228875   4.996   1.795   1.083
 9326SOL     OW28876   2.660   7.000   0.475
 9326SOL    HW128877   2.714   7.017   0.393
 9326SOL    HW228878   2.708   6.932   0.532
 9327SOL     OW28879   4.748   6.694   3.552
 9327SOL    HW128880   4.660   6.712   3.507
 9327SOL    HW228881   4.779   6.777   3.597
 9328SOL     OW28882   3.972   1.555   6.878
 9328SOL    HW128883   3.998   1.460   6.863
 9328SOL    HW228884   3.881   1.571   6.838
 9329SOL     OW28885   6.606   3.221   2.971
 9329SOL    HW128886   6.563   3.222   2.881
 9329SOL    HW228887   6.649   3.132   2.985
 9330SOL     OW28888   0.092   6.555   0.384
 9330SOL    HW128889   0.177   6.520   0.425
 9330SOL    HW228890   0.043   6.479   0.341
 9331SOL     OW28891   0.392   1.158   6.758
 9331SOL    HW128892   0.308   1.212   6.751
 9331SOL    HW228893   0.369   1.063   6.781
 9332SOL     OW28894   3.296   4.027   3.475
 9332SOL    HW128895   3.340   3.963   3.411
 9332SOL    HW228896   3.220   4.073   3.429
 9333SOL     OW28897   5.145   3.905   0.573
 9333SOL    HW128898   5.206   3.983   0.557
 9333SOL    HW228899   5.187   3.842   0.638
 9334SOL     OW28900   3.456   0.260   3.261
 9334SOL    HW128901   3.521   0.219   3.196
 9334SOL    HW228902   3.498   0.340   3.302
 9335SOL     OW28903   1.350   1.895   6.756
 9335SOL    HW128904   1.374   1.991   6.774
 9335SOL    HW228905   1.434   1.842   6.741
 9336SOL     OW28906   2.668   6.423   6.248
 9336SOL    HW128907   2.648   6.476   6.331
 9336SOL    HW228908   2.688   6.485   6.172
 9337SOL     OW28909   5.224   0.586   2.738
 9337SOL    HW128910   5.183   0.539   2.660
 9337SOL    HW228911   5.162   0.582   2.816
 9338SOL     OW28912   3.957   0.347   1.962
 9338SOL    HW128913   4.003   0.430   1.995
 9338SOL    HW228914   3.963   0.345   1.862
 9339SOL     OW28915   5.738   6.789   0.937
 9339SOL    HW128916   5.812   6.806   0.872
 9339SOL    HW228917   5.650   6.814   0.894
 9340SOL     OW28918   5.149   3.379   5.696
 9340SOL    HW128919   5.223   3.383   5.628
 9340SOL    HW228920   5.101   3.292   5.687
 9341SOL     OW28921   1.205   5.855   6.743
 9341SOL    HW128922   1.119   5.810   6.768
 9341SOL    HW228923   1.249   5.803   6.669
 9342SOL     OW28924   2.407   0.484   4.772
 9342SOL    HW128925   2.472   0.469   4.697
 9342SOL    HW228926   2.456   0.481   4.859
 9343SOL     OW28927   6.026   4.981   4.700
 9343SOL    HW128928   6.091   4.905   4.701
 9343SOL    HW228929   6.055   5.048   4.631
 9344SOL     OW28930   5.286   6.093   0.538
 9344SOL    HW128931   5.315   6.001   0.513
 9344SOL    HW228932   5.348   6.160   0.497
 9345SOL     OW28933   6.468   2.786   2.824
 9345SOL    HW128934   6.405   2.720   2.784
 9345SOL    HW228935   6.560   2.747   2.829
 9346SOL     OW28936   5.711   0.381   1.457
 9346SOL    HW128937   5.674   0.290   1.476
 9346SOL    HW228938   5.774   0.376   1.380
 9347SOL     OW28939   1.708   5.933   1.247
 9347SOL    HW128940   1.667   5.845   1.270
 9347SOL    HW228941   1.747   5.974   1.329
 9348SOL     OW28942   4.009   6.222   0.734
 9348SOL    HW128943   3.940   6.281   0.775
 9348SOL    HW228944   4.090   6.276   0.711
 9349SOL     OW28945   0.997   6.771   2.288
 9349SOL    HW128946   1.096   6.766   2.303
 9349SOL    HW228947   0.979   6.779   2.190
 9350SOL     OW28948   0.379   2.791   6.040
 9350SOL    HW128949   0.410   2.699   6.017
 9350SOL    HW228950   0.383   2.805   6.139
 9351SOL     OW28951   3.101   2.463   6.552
 9351SOL    HW128952   3.153   2.484   6.469
 9351SOL    HW228953   3.088   2.365   6.559
 9352SOL     OW28954   2.598   4.039   6.931
 9352SOL    HW128955   2.626   3.975   7.002
 9352SOL    HW228956   2.536   3.992   6.867
 9353SOL     OW28957   1.356   5.650   2.041
 9353SOL    HW128958   1.304   5.642   2.127
 9353SOL    HW228959   1.319   5.585   1.974
 9354SOL     OW28960   6.096   2.393   6.717
 9354SOL    HW128961   6.126   2.323   6.652
 9354SOL    HW228962   6.122   2.483   6.685
 9355SOL     OW28963   0.261   1.712   5.021
 9355SOL    HW128964   0.263   1.780   4.948
 9355SOL    HW228965   0.166   1.692   5.046
 9356SOL     OW28966   4.444   0.243   1.834
 9356SOL    HW128967   4.467   0.146   1.827
 9356SOL    HW228968   4.373   0.255   1.904
 9357SOL     OW28969   0.823   2.140   6.825
 9357SOL    HW128970   0.780   2.154   6.736
 9357SOL    HW228971   0.913   2.099   6.812
 9358SOL     OW28972   0.886   3.564   2.028
 9358SOL    HW128973   0.954   3.587   2.097
 9358SOL    HW228974   0.914   3.481   1.979
 9359SOL     OW28975   2.010   6.227   5.812
 9359SOL    HW128976   2.042   6.150   5.867
 9359SOL    HW228977   2.044   6.217   5.718
 9360SOL     OW28978   1.373   6.893   6.540
 9360SOL    HW128979   1.352   6.990   6.557
 9360SOL    HW228980   1.295   6.837   6.567
 9361SOL     OW28981   1.969   6.078   4.240
 9361SOL    HW128982   2.061   6.118   4.238
 9361SOL    HW228983   1.933   6.070   4.147
 9362SOL     OW28984   2.061   0.590   2.590
 9362SOL    HW128985   2.126   0.515   2.588
 9362SOL    HW228986   2.074   0.644   2.674
 9363SOL     OW28987   2.750   5.421   2.600
 9363SOL    HW128988   2.773   5.419   2.503
 9363SOL    HW228989   2.712   5.511   2.623
 9364SOL     OW28990   1.776   2.002   2.094
 9364SOL    HW128991   1.788   2.042   2.184
 9364SOL    HW228992   1.680   1.974   2.083
 9365SOL     OW28993   3.176   1.749   4.139
 9365SOL    HW128994   3.153   1.778   4.232
 9365SOL    HW228995   3.273   1.725   4.135
 9366SOL     OW28996   3.390   5.774   0.535
 9366SOL    HW128997   3.364   5.696   0.592
 9366SOL    HW228998   3.358   5.758   0.441
 9367SOL     OW28999   5.590   0.355   1.107
 9367SOL    HW129000   5.682   0.368   1.145
 9367SOL    HW229001   5.562   0.260   1.120
 9368SOL     OW29002   3.568   0.758   2.658
 9368SOL    HW129003   3.620   0.810   2.725
 9368SOL    HW229004   3.630   0.725   2.587
 9369SOL     OW29005   1.144   5.054   6.198
 9369SOL    HW129006   1.126   5.152   6.201
 9369SOL    HW229007   1.088   5.008   6.267
 9370SOL     OW29008   4.818   2.055   4.526
 9370SOL    HW129009   4.860   2.141   4.498
 9370SOL    HW229010   4.820   2.048   4.626
 9371SOL     OW29011   3.314   6.072   1.402
 9371SOL    HW129012   3.348   6.019   1.325
 9371SOL    HW229013   3.293   6.165   1.372
 9372SOL     OW29014   5.020   0.083   1.940
 9372SOL    HW129015   4.939   0.127   1.901
 9372SOL    HW229016   5.067   0.031   1.869
 9373SOL     OW29017   6.764   1.456   0.511
 9373SOL    HW129018   6.814   1.530   0.556
 9373SOL    HW229019   6.827   1.398   0.461
 9374SOL     OW29020   0.781   4.951   5.691
 9374SOL    HW129021   0.861   4.935   5.633
 9374SOL    HW229022   0.763   5.049   5.696
 9375SOL     OW29023   0.409   1.988   6.602
 9375SOL    HW129024   0.361   1.917   6.653
 9375SOL    HW229025   0.507   1.980   6.618
 9376SOL     OW29026   2.115   3.659   2.210
 9376SOL    HW129027   2.128   3.595   2.286
 9376SOL    HW229028   2.166   3.627   2.130
 9377SOL     OW29029   2.219   6.103   2.866
 9377SOL    HW129030   2.292   6.134   2.805
 9377SOL    HW229031   2.245   6.015   2.907
 9378SOL     OW29032   3.651   0.448   3.594
 9378SOL    HW129033   3.646   0.442   3.693
 9378SOL    HW229034   3.599   0.528   3.562
 9379SOL     OW29035   4.456   6.183   4.597
 9379SOL    HW129036   4.486   6.097   4.556
 9379SOL    HW229037   4.369   6.169   4.644
 9380SOL     OW29038   4.862   5.842   0.037
 9380SOL    HW129039   4.806   5.838   6.979
 9380SOL    HW229040   4.805   5.871   0.114
 9381SOL     OW29041   5.934   2.012   5.213
 9381SOL    HW129042   5.937   2.071   5.132
 9381SOL    HW229043   5.865   1.942   5.201
 9382SOL     OW29044   3.383   0.322   4.162
 9382SOL    HW129045   3.287   0.346   4.146
 9382SOL    HW229046   3.401   0.316   4.260
 9383SOL     OW29047   4.835   3.782   3.671
 9383SOL    HW129048   4.935   3.787   3.670
 9383SOL    HW229049   4.798   3.874   3.654
 9384SOL     OW29050   1.739   0.479   1.988
 9384SOL    HW129051   1.819   0.464   1.929
 9384SOL    HW229052   1.732   0.404   2.054
 9385SOL     OW29053   4.385   1.547   3.271
 9385SOL    HW129054   4.464   1.493   3.242
 9385SOL    HW229055   4.336   1.499   3.344
 9386SOL     OW29056   3.956   6.385   5.715
 9386SOL    HW129057   3.862   6.386   5.680
 9386SOL    HW229058   3.961   6.437   5.800
 9387SOL     OW29059   3.563   2.342   6.777
 9387SOL    HW129060   3.493   2.366   6.845
 9387SOL    HW229061   3.573   2.242   6.775
 9388SOL     OW29062   1.935   6.530   4.426
 9388SOL    HW129063   1.985   6.612   4.450
 9388SOL    HW229064   1.966   6.454   4.483
 9389SOL     OW29065   2.967   5.099   1.523
 9389SOL    HW129066   2.875   5.063   1.534
 9389SOL    HW229067   3.022   5.037   1.468
 9390SOL     OW29068   4.593   5.348   5.523
 9390SOL    HW129069   4.653   5.371   5.600
 9390SOL    HW229070   4.517   5.413   5.519
 9391SOL     OW29071   1.552   6.423   4.621
 9391SOL    HW129072   1.463   6.432   4.667
 9391SOL    HW229073   1.558   6.333   4.577
 9392SOL     OW29074   5.710   4.648   2.957
 9392SOL    HW129075   5.681   4.739   2.927
 9392SOL    HW229076   5.799   4.655   3.001
 9393SOL     OW29077   2.864   6.563   5.441
 9393SOL    HW129078   2.772   6.529   5.464
 9393SOL    HW229079   2.870   6.660   5.463
 9394SOL     OW29080   4.769   6.783   0.864
 9394SOL    HW129081   4.691   6.820   0.914
 9394SOL    HW229082   4.851   6.788   0.922
 9395SOL     OW29083   2.411   2.236   0.760
 9395SOL    HW129084   2.334   2.243   0.697
 9395SOL    HW229085   2.431   2.140   0.778
 9396SOL     OW29086   1.050   6.357   6.404
 9396SOL    HW129087   1.061   6.271   6.455
 9396SOL    HW229088   1.023   6.336   6.310
 9397SOL     OW29089   3.926   0.774   6.564
 9397SOL    HW129090   3.999   0.841   6.551
 9397SOL    HW229091   3.920   0.750   6.661
 9398SOL     OW29092   0.223   1.445   6.943
 9398SOL    HW129093   0.240   1.376   6.873
 9398SOL    HW229094   0.306   1.498   6.959
 9399SOL     OW29095   2.174   2.615   3.842
 9399SOL    HW129096   2.137   2.702   3.874
 9399SOL    HW229097   2.207   2.626   3.748
 9400SOL     OW29098   5.823   1.468   0.650
 9400SOL    HW129099   5.867   1.383   0.681
 9400SOL    HW229100   5.832   1.476   0.551
 9401SOL     OW29101   0.071   1.762   3.030
 9401SOL    HW129102   0.037   1.793   2.941
 9401SOL    HW229103   0.148   1.699   3.016
 9402SOL     OW29104   1.153   5.660   3.346
 9402SOL    HW129105   1.219   5.641   3.274
 9402SOL    HW229106   1.180   5.610   3.429
 9403SOL     OW29107   6.111   2.750   1.768
 9403SOL    HW129108   6.141   2.770   1.861
 9403SOL    HW229109   6.014   2.774   1.758
 9404SOL     OW29110   2.143   3.377   0.934
 9404SOL    HW129111   2.097   3.300   0.889
 9404SOL    HW229112   2.096   3.462   0.912
 9405SOL     OW29113   0.435   4.843   5.443
 9405SOL    HW129114   0.389   4.839   5.354
 9405SOL    HW229115   0.381   4.792   5.511
 9406SOL     OW29116   6.833   2.678   7.005
 9406SOL    HW129117   6.818   2.766   0.025
 9406SOL    HW229118   6.925   2.677   6.965
 9407SOL     OW29119   1.434   5.119   5.305
 9407SOL    HW129120   1.374   5.065   5.246
 9407SOL    HW229121   1.528   5.089   5.293
 9408SOL     OW29122   6.682   4.362   4.383
 9408SOL    HW129123   6.629   4.277   4.383
 9408SOL    HW229124   6.685   4.399   4.476
 9409SOL     OW29125   0.066   5.362   2.203
 9409SOL    HW129126   0.148   5.370   2.146
 9409SOL    HW229127   0.027   5.452   2.219
 9410SOL     OW29128   4.376   1.073   1.110
 9410SOL    HW129129   4.403   1.138   1.181
 9410SOL    HW229130   4.433   0.992   1.116
 9411SOL     OW29131   2.987   3.281   3.868
 9411SOL    HW129132   2.952   3.374   3.854
 9411SOL    HW229133   3.064   3.264   3.807
 9412SOL     OW29134   6.313   6.708   1.755
 9412SOL    HW129135   6.345   6.713   1.660
 9412SOL    HW229136   6.217   6.737   1.759
 9413SOL     OW29137   4.267   4.696   3.411
 9413SOL    HW129138   4.321   4.781   3.409
 9413SOL    HW229139   4.310   4.631   3.474
 9414SOL     OW29140   1.589   1.967   4.004
 9414SOL    HW129141   1.628   1.905   3.935
 9414SOL    HW229142   1.658   1.989   4.072
 9415SOL     OW29143   4.022   1.272   2.178
 9415SOL    HW129144   3.984   1.243   2.089
 9415SOL    HW229145   4.107   1.223   2.195
 9416SOL     OW29146   6.443   5.309   6.570
 9416SOL    HW129147   6.488   5.340   6.654
 9416SOL    HW229148   6.503   5.245   6.521
 9417SOL     OW29149   3.802   6.436   1.868
 9417SOL    HW129150   3.865   6.507   1.838
 9417SOL    HW229151   3.837   6.347   1.838
 9418SOL     OW29152   3.157   2.091   4.346
 9418SOL    HW129153   3.210   2.096   4.431
 9418SOL    HW229154   3.130   1.996   4.330
 9419SOL     OW29155   2.345   3.060   6.467
 9419SOL    HW129156   2.332   2.963   6.445
 9419SOL    HW229157   2.301   3.116   6.397
 9420SOL     OW29158   6.152   4.066   6.925
 9420SOL    HW129159   6.093   4.040   7.002
 9420SOL    HW229160   6.233   4.113   6.960
 9421SOL     OW29161   3.480   6.068   5.458
 9421SOL    HW129162   3.538   5.988   5.473
 9421SOL    HW229163   3.387   6.038   5.433
 9422SOL     OW29164   2.754   5.697   4.754
 9422SOL    HW129165   2.739   5.627   4.684
 9422SOL    HW229166   2.845   5.686   4.794
 9423SOL     OW29167   4.929   4.982   3.809
 9423SOL    HW129168   4.877   4.897   3.812
 9423SOL    HW229169   4.868   5.057   3.784
 9424SOL     OW29170   5.792   0.700   4.473
 9424SOL    HW129171   5.724   0.754   4.423
 9424SOL    HW229172   5.763   0.692   4.569
 9425SOL     OW29173   0.004   5.446   0.774
 9425SOL    HW129174   6.985   5.526   0.815
 9425SOL    HW229175   0.048   5.392   0.846
 9426SOL     OW29176   6.967   2.292   6.717
 9426SOL    HW129177   6.930   2.200   6.706
 9426SOL    HW229178   6.892   2.355   6.738
 9427SOL     OW29179   4.213   5.014   3.148
 9427SOL    HW129180   4.229   4.996   3.051
 9427SOL    HW229181   4.279   4.964   3.203
 9428SOL     OW29182   6.832   6.731   5.848
 9428SOL    HW129183   6.830   6.831   5.843
 9428SOL    HW229184   6.918   6.701   5.889
 9429SOL     OW29185   2.529   1.970   3.932
 9429SOL    HW129186   2.523   2.066   3.956
 9429SOL    HW229187   2.485   1.915   4.003
 9430SOL     OW29188   0.090   1.964   4.586
 9430SOL    HW129189   0.023   2.016   4.639
 9430SOL    HW229190   0.075   1.979   4.488
 9431SOL     OW29191   0.234   5.075   5.667
 9431SOL    HW129192   0.154   5.097   5.610
 9431SOL    HW229193   0.298   5.152   5.666
 9432SOL     OW29194   6.634   1.133   4.008
 9432SOL    HW129195   6.541   1.102   4.030
 9432SOL    HW229196   6.696   1.108   4.083
 9433SOL     OW29197   4.587   5.669   2.709
 9433SOL    HW129198   4.581   5.766   2.687
 9433SOL    HW229199   4.495   5.629   2.711
 9434SOL     OW29200   5.219   5.302   4.142
 9434SOL    HW129201   5.182   5.209   4.143
 9434SOL    HW229202   5.164   5.359   4.082
 9435SOL     OW29203   0.161   3.031   2.001
 9435SOL    HW129204   0.234   2.963   2.007
 9435SOL    HW229205   0.199   3.120   1.976
 9436SOL     OW29206   1.870   0.391   3.176
 9436SOL    HW129207   1.957   0.348   3.155
 9436SOL    HW229208   1.880   0.491   3.172
 9437SOL     OW29209   6.202   5.823   4.942
 9437SOL    HW129210   6.217   5.888   5.017
 9437SOL    HW229211   6.289   5.779   4.919
 9438SOL     OW29212   4.143   5.992   2.435
 9438SOL    HW129213   4.079   5.929   2.393
 9438SOL    HW229214   4.227   5.944   2.459
 9439SOL     OW29215   1.334   3.264   1.013
 9439SOL    HW129216   1.326   3.196   1.087
 9439SOL    HW229217   1.419   3.247   0.963
 9440SOL     OW29218   2.151   5.078   3.205
 9440SOL    HW129219   2.107   5.035   3.283
 9440SOL    HW229220   2.109   5.167   3.188
 9441SOL     OW29221   0.205   6.205   4.973
 9441SOL    HW129222   0.272   6.254   4.917
 9441SOL    HW229223   0.112   6.232   4.945
 9442SOL     OW29224   4.417   3.835   0.626
 9442SOL    HW129225   4.334   3.848   0.571
 9442SOL    HW229226   4.466   3.922   0.634
 9443SOL     OW29227   1.794   4.276   3.016
 9443SOL    HW129228   1.779   4.284   3.114
 9443SOL    HW229229   1.884   4.312   2.993
 9444SOL     OW29230   0.937   4.612   6.537
 9444SOL    HW129231   0.876   4.546   6.494
 9444SOL    HW229232   1.024   4.614   6.488
 9445SOL     OW29233   0.058   1.247   4.478
 9445SOL    HW129234   6.984   1.238   4.488
 9445SOL    HW229235   0.103   1.172   4.528
 9446SOL     OW29236   5.980   5.191   3.003
 9446SOL    HW129237   6.067   5.235   3.025
 9446SOL    HW229238   5.995   5.118   2.937
 9447SOL     OW29239   4.926   4.545   2.148
 9447SOL    HW129240   4.907   4.447   2.155
 9447SOL    HW229241   4.928   4.584   2.240
 9448SOL     OW29242   6.091   0.465   5.266
 9448SOL    HW129243   6.059   0.524   5.192
 9448SOL    HW229244   6.189   0.450   5.256
 9449SOL     OW29245   6.050   6.746   1.674
 9449SOL    HW129246   6.008   6.830   1.708
 9449SOL    HW229247   5.979   6.679   1.651
 9450SOL     OW29248   1.830   5.458   3.890
 9450SOL    HW129249   1.768   5.428   3.963
 9450SOL    HW229250   1.922   5.468   3.927
 9451SOL     OW29251   3.329   6.001   6.425
 9451SOL    HW129252   3.229   6.013   6.427
 9451SOL    HW229253   3.368   6.058   6.354
 9452SOL     OW29254   6.964   4.185   0.430
 9452SOL    HW129255   6.955   4.129   0.348
 9452SOL    HW229256   6.891   4.161   0.494
 9453SOL     OW29257   5.088   5.718   2.762
 9453SOL    HW129258   4.999   5.692   2.725
 9453SOL    HW229259   5.156   5.717   2.688
 9454SOL     OW29260   5.236   3.467   0.518
 9454SOL    HW129261   5.248   3.523   0.437
 9454SOL    HW229262   5.201   3.523   0.594
 9455SOL     OW29263   3.254   2.121   2.447
 9455SOL    HW129264   3.328   2.164   2.499
 9455SOL    HW229265   3.168   2.168   2.466
 9456SOL     OW29266   6.773   3.118   1.486
 9456SOL    HW129267   6.801   3.103   1.391
 9456SOL    HW229268   6.853   3.141   1.541
 9457SOL     OW29269   0.326   5.399   3.948
 9457SOL    HW129270   0.390   5.440   3.883
 9457SOL    HW229271   0.377   5.344   4.014
 9458SOL     OW29272   6.049   3.550   0.452
 9458SOL    HW129273   6.099   3.528   0.536
 9458SOL    HW229274   6.101   3.618   0.400
 9459SOL     OW29275   4.421   4.769   5.384
 9459SOL    HW129276   4.518   4.793   5.391
 9459SOL    HW229277   4.366   4.850   5.406
 9460SOL     OW29278   1.487   1.868   3.041
 9460SOL    HW129279   1.559   1.877   3.110
 9460SOL    HW229280   1.527   1.843   2.953
 9461SOL     OW29281   0.939   2.406   2.526
 9461SOL    HW129282   0.842   2.423   2.542
 9461SOL    HW229283   0.968   2.456   2.445
 9462SOL     OW29284   1.530   1.591   4.327
 9462SOL    HW129285   1.583   1.584   4.242
 9462SOL    HW229286   1.464   1.516   4.331
 9463SOL     OW29287   5.502   5.270   1.002
 9463SOL    HW129288   5.457   5.342   0.948
 9463SOL    HW229289   5.601   5.276   0.987
 9464SOL     OW29290   1.046   0.946   1.318
 9464SOL    HW129291   0.972   1.007   1.349
 9464SOL    HW229292   1.026   0.915   1.225
 9465SOL     OW29293   6.545   4.344   0.951
 9465SOL    HW129294   6.542   4.350   0.852
 9465SOL    HW229295   6.639   4.360   0.983
 9466SOL     OW29296   3.585   4.814   5.655
 9466SOL    HW129297   3.684   4.821   5.668
 9466SOL    HW229298   3.566   4.783   5.562
 9467SOL     OW29299   2.227   3.864   0.972
 9467SOL    HW129300   2.161   3.939   0.981
 9467SOL    HW229301   2.203   3.810   0.891
 9468SOL     OW29302   6.425   1.755   0.657
 9468SOL    HW129303   6.464   1.751   0.565
 9468SOL    HW229304   6.459   1.837   0.704
 9469SOL     OW29305   1.350   6.566   1.315
 9469SOL    HW129306   1.295   6.639   1.274
 9469SOL    HW229307   1.292   6.508   1.372
 9470SOL     OW29308   3.695   4.367   0.528
 9470SOL    HW129309   3.673   4.372   0.625
 9470SOL    HW229310   3.772   4.305   0.515
 9471SOL     OW29311   6.249   3.619   4.927
 9471SOL    HW129312   6.292   3.641   5.014
 9471SOL    HW229313   6.215   3.704   4.885
 9472SOL     OW29314   1.572   3.315   6.153
 9472SOL    HW129315   1.497   3.377   6.129
 9472SOL    HW229316   1.653   3.369   6.179
 9473SOL     OW29317   3.208   4.445   0.300
 9473SOL    HW129318   3.150   4.466   0.379
 9473SOL    HW229319   3.256   4.358   0.316
 9474SOL     OW29320   5.828   2.772   1.288
 9474SOL    HW129321   5.913   2.774   1.341
 9474SOL    HW229322   5.795   2.865   1.276
 9475SOL     OW29323   4.795   3.761   6.043
 9475SOL    HW129324   4.869   3.826   6.059
 9475SOL    HW229325   4.757   3.732   6.131
 9476SOL     OW29326   3.970   4.081   6.075
 9476SOL    HW129327   3.994   3.984   6.076
 9476SOL    HW229328   3.890   4.097   6.133
 9477SOL     OW29329   2.234   4.196   0.980
 9477SOL    HW129330   2.135   4.178   0.977
 9477SOL    HW229331   2.249   4.290   1.010
 9478SOL     OW29332   5.516   2.815   0.336
 9478SOL    HW129333   5.501   2.909   0.305
 9478SOL    HW229334   5.428   2.771   0.351
 9479SOL     OW29335   3.776   0.837   1.734
 9479SOL    HW129336   3.724   0.918   1.708
 9479SOL    HW229337   3.806   0.845   1.829
 9480SOL     OW29338   6.425   6.779   0.123
 9480SOL    HW129339   6.400   6.784   0.219
 9480SOL    HW229340   6.483   6.699   0.107
 9481SOL     OW29341   4.289   0.760   3.345
 9481SOL    HW129342   4.288   0.850   3.301
 9481SOL    HW229343   4.199   0.740   3.383
 9482SOL     OW29344   6.255   6.540   0.083
 9482SOL    HW129345   6.346   6.506   0.106
 9482SOL    HW229346   6.222   6.600   0.156
 9483SOL     OW29347   6.672   0.185   1.003
 9483SOL    HW129348   6.738   0.116   1.032
 9483SOL    HW229349   6.718   0.255   0.948
 9484SOL     OW29350   4.050   6.113   5.100
 9484SOL    HW129351   3.993   6.074   5.172
 9484SOL    HW229352   3.996   6.177   5.046
 9485SOL     OW29353   6.614   1.205   0.261
 9485SOL    HW129354   6.555   1.128   0.285
 9485SOL    HW229355   6.572   1.290   0.291
 9486SOL     OW29356   5.164   5.712   0.337
 9486SOL    HW129357   5.229   5.666   0.277
 9486SOL    HW229358   5.071   5.697   0.304
 9487SOL     OW29359   2.940   3.324   3.437
 9487SOL    HW129360   2.998   3.244   3.451
 9487SOL    HW229361   2.970   3.398   3.497
 9488SOL     OW29362   1.577   1.414   0.893
 9488SOL    HW129363   1.556   1.403   0.797
 9488SOL    HW229364   1.546   1.333   0.944
 9489SOL     OW29365   5.081   3.812   0.266
 9489SOL    HW129366   5.066   3.715   0.288
 9489SOL    HW229367   5.115   3.859   0.348
 9490SOL     OW29368   5.735   4.128   4.240
 9490SOL    HW129369   5.654   4.079   4.271
 9490SOL    HW229370   5.754   4.103   4.145
 9491SOL     OW29371   4.963   6.366   3.064
 9491SOL    HW129372   5.012   6.442   3.107
 9491SOL    HW229373   4.922   6.398   2.979
 9492SOL     OW29374   4.798   2.581   4.045
 9492SOL    HW129375   4.859   2.658   4.064
 9492SOL    HW229376   4.842   2.496   4.073
 9493SOL     OW29377   4.081   6.916   2.643
 9493SOL    HW129378   4.053   7.007   2.674
 9493SOL    HW229379   4.091   6.855   2.721
 9494SOL     OW29380   5.292   2.332   1.906
 9494SOL    HW129381   5.365   2.272   1.872
 9494SOL    HW229382   5.318   2.366   1.996
 9495SOL     OW29383   0.803   1.589   2.344
 9495SOL    HW129384   0.746   1.507   2.349
 9495SOL    HW229385   0.751   1.667   2.378
 9496SOL     OW29386   4.971   2.113   1.876
 9496SOL    HW129387   5.019   2.026   1.882
 9496SOL    HW229388   4.951   2.147   1.968
 9497SOL     OW29389   5.173   4.852   4.713
 9497SOL    HW129390   5.202   4.799   4.792
 9497SOL    HW229391   5.202   4.947   4.723
 9498SOL     OW29392   0.336   5.674   4.064
 9498SOL    HW129393   0.366   5.736   4.137
 9498SOL    HW229394   0.312   5.585   4.103
 9499SOL     OW29395   6.300   5.806   5.768
 9499SOL    HW129396   6.354   5.766   5.694
 9499SOL    HW229397   6.218   5.848   5.730
 9500SOL     OW29398   4.050   1.170   0.891
 9500SOL    HW129399   4.146   1.174   0.865
 9500SOL    HW229400   4.037   1.216   0.979
 9501SOL     OW29401   1.339   2.996   5.027
 9501SOL    HW129402   1.416   2.983   4.966
 9501SOL    HW229403   1.324   2.913   5.080
 9502SOL     OW29404   5.910   4.842   5.347
 9502SOL    HW129405   5.880   4.747   5.339
 9502SOL    HW229406   5.848   4.902   5.296
 9503SOL     OW29407   0.755   2.673   6.902
 9503SOL    HW129408   0.714   2.605   6.963
 9503SOL    HW229409   0.853   2.654   6.892
 9504SOL     OW29410   6.519   5.102   2.152
 9504SOL    HW129411   6.587   5.124   2.221
 9504SOL    HW229412   6.460   5.181   2.136
 9505SOL     OW29413   4.183   5.149   5.383
 9505SOL    HW129414   4.108   5.212   5.402
 9505SOL    HW229415   4.161   5.092   5.303
 9506SOL     OW29416   3.057   1.605   1.141
 9506SOL    HW129417   3.004   1.666   1.200
 9506SOL    HW229418   3.016   1.603   1.050
 9507SOL     OW29419   5.353   0.486   1.845
 9507SOL    HW129420   5.332   0.550   1.771
 9507SOL    HW229421   5.271   0.435   1.870
 9508SOL     OW29422   5.262   1.832   2.901
 9508SOL    HW129423   5.333   1.787   2.848
 9508SOL    HW229424   5.232   1.772   2.975
 9509SOL     OW29425   6.489   0.104   3.198
 9509SOL    HW129426   6.569   0.141   3.245
 9509SOL    HW229427   6.435   0.051   3.262
 9510SOL     OW29428   1.294   2.313   3.274
 9510SOL    HW129429   1.386   2.315   3.312
 9510SOL    HW229430   1.298   2.331   3.175
 9511SOL     OW29431   2.010   1.523   0.799
 9511SOL    HW129432   2.071   1.445   0.796
 9511SOL    HW229433   2.048   1.597   0.744
 9512SOL     OW29434   6.557   2.035   1.101
 9512SOL    HW129435   6.588   2.129   1.086
 9512SOL    HW229436   6.487   2.034   1.173
 9513SOL     OW29437   4.206   5.158   6.701
 9513SOL    HW129438   4.141   5.207   6.643
 9513SOL    HW229439   4.229   5.070   6.659
 9514SOL     OW29440   3.376   3.072   0.243
 9514SOL    HW129441   3.337   2.985   0.274
 9514SOL    HW229442   3.365   3.080   0.144
 9515SOL     OW29443   1.459   5.003   4.149
 9515SOL    HW129444   1.467   5.026   4.245
 9515SOL    HW229445   1.534   5.046   4.098
 9516SOL     OW29446   6.677   3.833   0.568
 9516SOL    HW129447   6.744   3.758   0.568
 9516SOL    HW229448   6.621   3.827   0.485
 9517SOL     OW29449   0.964   5.052   0.455
 9517SOL    HW129450   0.887   5.009   0.503
 9517SOL    HW229451   1.042   4.990   0.456
 9518SOL     OW29452   1.245   1.377   0.256
 9518SOL    HW129453   1.204   1.364   0.166
 9518SOL    HW229454   1.180   1.426   0.315
 9519SOL     OW29455   1.204   2.756   4.988
 9519SOL    HW129456   1.300   2.732   4.971
 9519SOL    HW229457   1.156   2.763   4.901
 9520SOL     OW29458   3.596   6.634   1.803
 9520SOL    HW129459   3.651   6.585   1.869
 9520SOL    HW229460   3.540   6.570   1.751
 9521SOL     OW29461   5.346   5.710   4.171
 9521SOL    HW129462   5.373   5.794   4.219
 9521SOL    HW229463   5.330   5.637   4.237
 9522SOL     OW29464   3.533   5.819   0.930
 9522SOL    HW129465   3.575   5.865   0.852
 9522SOL    HW229466   3.604   5.773   0.984
 9523SOL     OW29467   3.758   5.537   4.363
 9523SOL    HW129468   3.714   5.566   4.278
 9523SOL    HW229469   3.724   5.593   4.439
 9524SOL     OW29470   4.154   3.140   1.025
 9524SOL    HW129471   4.197   3.230   1.015
 9524SOL    HW229472   4.170   3.106   1.118
 9525SOL     OW29473   3.336   0.893   6.586
 9525SOL    HW129474   3.381   0.941   6.510
 9525SOL    HW229475   3.405   0.854   6.646
 9526SOL     OW29476   5.679   5.277   2.427
 9526SOL    HW129477   5.667   5.376   2.420
 9526SOL    HW229478   5.687   5.238   2.336
 9527SOL     OW29479   6.861   2.169   1.774
 9527SOL    HW129480   6.872   2.070   1.775
 9527SOL    HW229481   6.773   2.192   1.732
 9528SOL     OW29482   6.922   1.047   2.241
 9528SOL    HW129483   6.971   0.997   2.312
 9528SOL    HW229484   6.954   1.141   2.237
 9529SOL     OW29485   0.913   3.608   5.873
 9529SOL    HW129486   0.993   3.621   5.814
 9529SOL    HW229487   0.909   3.681   5.941
 9530SOL     OW29488   1.269   2.204   3.598
 9530SOL    HW129489   1.342   2.135   3.602
 9530SOL    HW229490   1.299   2.280   3.541
 9531SOL     OW29491   3.598   6.522   2.576
 9531SOL    HW129492   3.532   6.597   2.567
 9531SOL    HW229493   3.690   6.556   2.558
 9532SOL     OW29494   2.050   0.604   2.067
 9532SOL    HW129495   2.068   0.650   2.154
 9532SOL    HW229496   2.007   0.669   2.003
 9533SOL     OW29497   1.898   0.848   5.150
 9533SOL    HW129498   1.859   0.929   5.106
 9533SOL    HW229499   1.902   0.773   5.084
 9534SOL     OW29500   4.904   2.622   4.884
 9534SOL    HW129501   4.815   2.604   4.843
 9534SOL    HW229502   4.942   2.707   4.845
 9535SOL     OW29503   2.235   1.553   5.795
 9535SOL    HW129504   2.151   1.524   5.841
 9535SOL    HW229505   2.256   1.489   5.721
 9536SOL     OW29506   1.892   6.526   5.665
 9536SOL    HW129507   1.924   6.489   5.752
 9536SOL    HW229508   1.905   6.458   5.592
 9537SOL     OW29509   2.909   6.794   0.905
 9537SOL    HW129510   2.915   6.890   0.932
 9537SOL    HW229511   3.000   6.760   0.880
 9538SOL     OW29512   6.592   3.114   3.770
 9538SOL    HW129513   6.618   3.020   3.792
 9538SOL    HW229514   6.511   3.113   3.711
 9539SOL     OW29515   0.848   6.063   1.049
 9539SOL    HW129516   0.781   6.026   0.985
 9539SOL    HW229517   0.906   6.130   1.002
 9540SOL     OW29518   4.937   4.481   4.782
 9540SOL    HW129519   4.888   4.568   4.778
 9540SOL    HW229520   4.872   4.406   4.768
 9541SOL     OW29521   2.167   2.384   3.499
 9541SOL    HW129522   2.215   2.463   3.537
 9541SOL    HW229523   2.068   2.402   3.500
 9542SOL     OW29524   5.020   3.516   4.205
 9542SOL    HW129525   5.082   3.557   4.271
 9542SOL    HW229526   5.036   3.554   4.115
 9543SOL     OW29527   5.308   2.233   2.548
 9543SOL    HW129528   5.210   2.252   2.542
 9543SOL    HW229529   5.359   2.313   2.518
 9544SOL     OW29530   3.627   1.704   1.900
 9544SOL    HW129531   3.641   1.797   1.865
 9544SOL    HW229532   3.713   1.670   1.937
 9545SOL     OW29533   6.951   0.136   4.324
 9545SOL    HW129534   6.884   0.079   4.276
 9545SOL    HW229535   6.908   0.176   4.405
 9546SOL     OW29536   3.150   5.212   0.708
 9546SOL    HW129537   3.207   5.266   0.770
 9546SOL    HW229538   3.077   5.168   0.760
 9547SOL     OW29539   0.033   6.265   3.471
 9547SOL    HW129540   0.104   6.205   3.508
 9547SOL    HW229541   0.065   6.359   3.475
 9548SOL     OW29542   4.623   6.243   2.629
 9548SOL    HW129543   4.585   6.312   2.690
 9548SOL    HW229544   4.559   6.223   2.555
 9549SOL     OW29545   2.588   5.954   0.803
 9549SOL    HW129546   2.629   5.877   0.754
 9549SOL    HW229547   2.545   6.016   0.737
 9550SOL     OW29548   0.979   1.826   0.552
 9550SOL    HW129549   1.051   1.877   0.598
 9550SOL    HW229550   1.016   1.784   0.469
 9551SOL     OW29551   1.828   6.349   4.799
 9551SOL    HW129552   1.741   6.356   4.751
 9551SOL    HW229553   1.819   6.284   4.875
 9552SOL     OW29554   1.163   5.345   3.252
 9552SOL    HW129555   1.251   5.336   3.298
 9552SOL    HW229556   1.115   5.257   3.255
 9553SOL     OW29557   5.851   4.376   4.759
 9553SOL    HW129558   5.862   4.330   4.671
 9553SOL    HW229559   5.850   4.308   4.832
 9554SOL     OW29560   2.182   1.608   2.116
 9554SOL    HW129561   2.157   1.688   2.062
 9554SOL    HW229562   2.257   1.631   2.178
 9555SOL     OW29563   6.849   2.425   0.135
 9555SOL    HW129564   6.886   2.502   0.083
 9555SOL    HW229565   6.852   2.447   0.233
 9556SOL     OW29566   1.864   1.897   1.806
 9556SOL    HW129567   1.816   1.933   1.886
 9556SOL    HW229568   1.916   1.815   1.832
 9557SOL     OW29569   5.635   1.752   1.672
 9557SOL    HW129570   5.556   1.739   1.612
 9557SOL    HW229571   5.700   1.815   1.629
 9558SOL     OW29572   6.515   5.368   2.469
 9558SOL    HW129573   6.486   5.456   2.507
 9558SOL    HW229574   6.436   5.317   2.436
 9559SOL     OW29575   6.742   2.873   2.648
 9559SOL    HW129576   6.746   2.968   2.679
 9559SOL    HW229577   6.654   2.856   2.604
 9560SOL     OW29578   3.298   1.363   4.157
 9560SOL    HW129579   3.315   1.419   4.076
 9560SOL    HW229580   3.204   1.378   4.188
 9561SOL     OW29581   3.997   6.968   1.021
 9561SOL    HW129582   4.067   6.947   1.089
 9561SOL    HW229583   3.908   6.976   1.066
 9562SOL     OW29584   6.047   5.868   3.313
 9562SOL    HW129585   6.130   5.814   3.324
 9562SOL    HW229586   5.967   5.813   3.337
 9563SOL     OW29587   6.509   5.856   6.793
 9563SOL    HW129588   6.428   5.816   6.751
 9563SOL    HW229589   6.547   5.925   6.731
 9564SOL     OW29590   2.432   0.088   6.767
 9564SOL    HW129591   2.429   0.188   6.769
 9564SOL    HW229592   2.493   0.058   6.694
 9565SOL     OW29593   3.929   5.934   4.122
 9565SOL    HW129594   3.912   5.980   4.209
 9565SOL    HW229595   3.923   6.000   4.048
 9566SOL     OW29596   3.051   4.798   5.108
 9566SOL    HW129597   2.977   4.747   5.066
 9566SOL    HW229598   3.060   4.772   5.204
 9567SOL     OW29599   6.156   5.428   5.823
 9567SOL    HW129600   6.156   5.492   5.899
 9567SOL    HW229601   6.080   5.450   5.761
 9568SOL     OW29602   4.846   3.888   6.635
 9568SOL    HW129603   4.854   3.792   6.608
 9568SOL    HW229604   4.824   3.943   6.554
 9569SOL     OW29605   6.280   0.846   0.748
 9569SOL    HW129606   6.344   0.886   0.813
 9569SOL    HW229607   6.299   0.748   0.739
 9570SOL     OW29608   0.330   0.512   0.106
 9570SOL    HW129609   0.370   0.455   0.178
 9570SOL    HW229610   0.401   0.571   0.067
 9571SOL     OW29611   2.333   3.952   0.523
 9571SOL    HW129612   2.322   4.002   0.437
 9571SOL    HW229613   2.378   3.865   0.506
 9572SOL     OW29614   1.505   4.811   1.066
 9572SOL    HW129615   1.416   4.853   1.052
 9572SOL    HW229616   1.511   4.726   1.014
 9573SOL     OW29617   0.555   2.322   1.443
 9573SOL    HW129618   0.581   2.282   1.355
 9573SOL    HW229619   0.470   2.373   1.434
 9574SOL     OW29620   2.281   1.846   5.522
 9574SOL    HW129621   2.306   1.872   5.615
 9574SOL    HW229622   2.210   1.907   5.487
 9575SOL     OW29623   5.124   0.902   1.606
 9575SOL    HW129624   5.051   0.841   1.638
 9575SOL    HW229625   5.182   0.853   1.542
 9576SOL     OW29626   3.612   1.841   5.757
 9576SOL    HW129627   3.596   1.828   5.855
 9576SOL    HW229628   3.527   1.870   5.713
 9577SOL     OW29629   0.651   6.241   3.071
 9577SOL    HW129630   0.561   6.224   3.112
 9577SOL    HW229631   0.711   6.164   3.090
 9578SOL     OW29632   5.600   3.725   1.936
 9578SOL    HW129633   5.521   3.665   1.923
 9578SOL    HW229634   5.594   3.770   2.025
 9579SOL     OW29635   0.899   6.595   2.791
 9579SOL    HW129636   0.916   6.693   2.777
 9579SOL    HW229637   0.986   6.547   2.797
 9580SOL     OW29638   4.212   3.764   6.272
 9580SOL    HW129639   4.271   3.801   6.200
 9580SOL    HW229640   4.239   3.801   6.360
 9581SOL     OW29641   1.522   4.695   6.346
 9581SOL    HW129642   1.580   4.650   6.278
 9581SOL    HW229643   1.434   4.718   6.305
 9582SOL     OW29644   4.188   5.524   4.667
 9582SOL    HW129645   4.146   5.544   4.578
 9582SOL    HW229646   4.164   5.597   4.732
 9583SOL     OW29647   2.428   4.258   1.974
 9583SOL    HW129648   2.335   4.257   1.936
 9583SOL    HW229649   2.455   4.352   1.992
 9584SOL     OW29650   5.911   5.744   6.698
 9584SOL    HW129651   5.857   5.820   6.735
 9584SOL    HW229652   5.996   5.736   6.749
 9585SOL     OW29653   6.479   0.114   4.485
 9585SOL    HW129654   6.476   0.016   4.462
 9585SOL    HW229655   6.407   0.134   4.551
 9586SOL     OW29656   5.676   3.667   3.509
 9586SOL    HW129657   5.619   3.599   3.463
 9586SOL    HW229658   5.622   3.716   3.577
 9587SOL     OW29659   5.153   6.374   2.178
 9587SOL    HW129660   5.096   6.326   2.111
 9587SOL    HW229661   5.249   6.355   2.160
 9588SOL     OW29662   6.753   0.633   2.531
 9588SOL    HW129663   6.698   0.550   2.531
 9588SOL    HW229664   6.840   0.616   2.578
 9589SOL     OW29665   2.330   1.064   6.309
 9589SOL    HW129666   2.329   1.133   6.236
 9589SOL    HW229667   2.380   1.100   6.388
 9590SOL     OW29668   6.988   4.492   4.860
 9590SOL    HW129669   7.013   4.586   4.885
 9590SOL    HW229670   0.010   4.428   4.921
 9591SOL     OW29671   1.700   4.688   2.339
 9591SOL    HW129672   1.690   4.600   2.385
 9591SOL    HW229673   1.721   4.673   2.243
 9592SOL     OW29674   5.225   5.298   2.123
 9592SOL    HW129675   5.129   5.279   2.142
 9592SOL    HW229676   5.279   5.281   2.206
 9593SOL     OW29677   1.335   2.654   4.380
 9593SOL    HW129678   1.324   2.569   4.432
 9593SOL    HW229679   1.323   2.636   4.282
 9594SOL     OW29680   6.142   6.807   2.187
 9594SOL    HW129681   6.209   6.736   2.209
 9594SOL    HW229682   6.058   6.765   2.153
 9595SOL     OW29683   0.812   4.289   4.488
 9595SOL    HW129684   0.795   4.249   4.397
 9595SOL    HW229685   0.733   4.270   4.547
 9596SOL     OW29686   4.641   5.575   3.564
 9596SOL    HW129687   4.564   5.521   3.596
 9596SOL    HW229688   4.654   5.560   3.466
 9597SOL     OW29689   2.099   4.186   1.290
 9597SOL    HW129690   2.134   4.167   1.198
 9597SOL    HW229691   2.158   4.253   1.336
 9598SOL     OW29692   7.007   5.233   6.020
 9598SOL    HW129693   6.987   5.328   6.042
 9598SOL    HW229694   0.080   5.222   6.002
 9599SOL     OW29695   5.321   2.069   4.667
 9599SOL    HW129696   5.408   2.064   4.618
 9599SOL    HW229697   5.247   2.041   4.606
 9600SOL     OW29698   1.674   6.318   6.807
 9600SOL    HW129699   1.665   6.330   6.906
 9600SOL    HW229700   1.588   6.340   6.763
 9601SOL     OW29701   0.996   5.548   5.831
 9601SOL    HW129702   1.076   5.489   5.837
 9601SOL    HW229703   1.015   5.624   5.769
 9602SOL     OW29704   1.578   5.655   0.593
 9602SOL    HW129705   1.482   5.680   0.600
 9602SOL    HW229706   1.610   5.621   0.682
 9603SOL     OW29707   1.427   5.003   4.628
 9603SOL    HW129708   1.473   4.932   4.682
 9603SOL    HW229709   1.427   5.089   4.679
 9604SOL     OW29710   6.764   0.272   0.654
 9604SOL    HW129711   6.816   0.238   0.733
 9604SOL    HW229712   6.824   0.329   0.597
 9605SOL     OW29713   2.015   5.742   6.558
 9605SOL    HW129714   2.110   5.725   6.532
 9605SOL    HW229715   2.008   5.831   6.604
 9606SOL     OW29716   6.533   6.866   4.299
 9606SOL    HW129717   6.566   6.874   4.394
 9606SOL    HW229718   6.438   6.836   4.299
 9607SOL     OW29719   0.399   2.933   1.654
 9607SOL    HW129720   0.351   2.846   1.643
 9607SOL    HW229721   0.495   2.916   1.677
 9608SOL     OW29722   0.349   6.199   3.094
 9608SOL    HW129723   0.355   6.209   2.995
 9608SOL    HW229724   0.270   6.249   3.128
 9609SOL     OW29725   1.897   2.443   3.436
 9609SOL    HW129726   1.883   2.426   3.338
 9609SOL    HW229727   1.843   2.377   3.489
 9610SOL     OW29728   2.962   1.899   6.271
 9610SOL    HW129729   2.931   1.994   6.278
 9610SOL    HW229730   3.035   1.893   6.202
 9611SOL     OW29731   6.232   6.281   1.038
 9611SOL    HW129732   6.228   6.183   1.019
 9611SOL    HW229733   6.257   6.296   1.134
 9612SOL     OW29734   5.589   3.292   2.555
 9612SOL    HW129735   5.572   3.207   2.605
 9612SOL    HW229736   5.513   3.356   2.570
 9613SOL     OW29737   5.393   6.489   5.987
 9613SOL    HW129738   5.470   6.548   5.962
 9613SOL    HW229739   5.391   6.410   5.926
 9614SOL     OW29740   2.876   3.457   2.289
 9614SOL    HW129741   2.821   3.536   2.317
 9614SOL    HW229742   2.903   3.467   2.193
 9615SOL     OW29743   1.011   6.175   4.159
 9615SOL    HW129744   0.999   6.239   4.235
 9615SOL    HW229745   0.988   6.221   4.073
 9616SOL     OW29746   2.663   3.480   1.551
 9616SOL    HW129747   2.691   3.565   1.595
 9616SOL    HW229748   2.742   3.440   1.505
 9617SOL     OW29749   0.937   3.506   3.084
 9617SOL    HW129750   0.990   3.515   3.000
 9617SOL    HW229751   0.941   3.411   3.116
 9618SOL     OW29752   3.796   5.576   0.247
 9618SOL    HW129753   3.801   5.630   0.331
 9618SOL    HW229754   3.784   5.637   0.169
 9619SOL     OW29755   1.589   6.900   1.088
 9619SOL    HW129756   1.547   6.810   1.104
 9619SOL    HW229757   1.659   6.892   1.018
 9620SOL     OW29758   3.905   1.745   0.079
 9620SOL    HW129759   3.926   1.673   0.013
 9620SOL    HW229760   3.848   1.708   0.152
 9621SOL     OW29761   0.849   2.055   1.970
 9621SOL    HW129762   0.845   1.956   1.984
 9621SOL    HW229763   0.918   2.095   2.031
 9622SOL     OW29764   6.676   6.778   6.166
 9622SOL    HW129765   6.711   6.692   6.130
 9622SOL    HW229766   6.685   6.850   6.097
 9623SOL     OW29767   4.559   6.545   6.365
 9623SOL    HW129768   4.547   6.599   6.282
 9623SOL    HW229769   4.546   6.604   6.445
 9624SOL     OW29770   4.682   5.117   5.104
 9624SOL    HW129771   4.687   5.212   5.074
 9624SOL    HW229772   4.687   5.113   5.203
 9625SOL     OW29773   4.943   3.544   5.682
 9625SOL    HW129774   4.897   3.530   5.769
 9625SOL    HW229775   5.023   3.484   5.676
 9626SOL     OW29776   2.443   2.381   5.823
 9626SOL    HW129777   2.539   2.353   5.824
 9626SOL    HW229778   2.431   2.460   5.882
 9627SOL     OW29779   0.650   5.274   6.557
 9627SOL    HW129780   0.722   5.205   6.567
 9627SOL    HW229781   0.596   5.255   6.475
 9628SOL     OW29782   6.089   1.652   6.466
 9628SOL    HW129783   6.137   1.576   6.422
 9628SOL    HW229784   5.995   1.655   6.434
 9629SOL     OW29785   0.408   6.074   4.571
 9629SOL    HW129786   0.394   6.048   4.667
 9629SOL    HW229787   0.499   6.044   4.542
 9630SOL     OW29788   5.850   6.857   6.307
 9630SOL    HW129789   5.860   6.920   6.384
 9630SOL    HW229790   5.885   6.901   6.224
 9631SOL     OW29791   3.393   0.715   0.633
 9631SOL    HW129792   3.392   0.615   0.621
 9631SOL    HW229793   3.484   0.744   0.660
 9632SOL     OW29794   3.050   5.604   2.326
 9632SOL    HW129795   3.043   5.623   2.424
 9632SOL    HW229796   3.146   5.605   2.298
 9633SOL     OW29797   3.270   3.097   3.083
 9633SOL    HW129798   3.220   3.117   2.998
 9633SOL    HW229799   3.368   3.096   3.063
 9634SOL     OW29800   5.688   5.286   3.258
 9634SOL    HW129801   5.785   5.274   3.275
 9634SOL    HW229802   5.639   5.200   3.278
 9635SOL     OW29803   0.616   5.310   4.539
 9635SOL    HW129804   0.566   5.297   4.624
 9635SOL    HW229805   0.644   5.406   4.530
 9636SOL     OW29806   5.004   3.345   3.853
 9636SOL    HW129807   4.929   3.349   3.919
 9636SOL    HW229808   4.969   3.312   3.765
 9637SOL     OW29809   2.325   3.006   0.268
 9637SOL    HW129810   2.267   3.087   0.261
 9637SOL    HW229811   2.267   2.924   0.259
 9638SOL     OW29812   6.346   5.256   5.013
 9638SOL    HW129813   6.276   5.188   5.037
 9638SOL    HW229814   6.376   5.304   5.095
 9639SOL     OW29815   3.969   1.653   2.241
 9639SOL    HW129816   3.894   1.718   2.248
 9639SOL    HW229817   3.947   1.570   2.292
 9640SOL     OW29818   4.821   6.887   3.067
 9640SOL    HW129819   4.805   6.912   3.163
 9640SOL    HW229820   4.826   6.971   3.012
 9641SOL     OW29821   6.517   4.016   2.751
 9641SOL    HW129822   6.475   4.009   2.842
 9641SOL    HW229823   6.485   3.940   2.694
 9642SOL     OW29824   1.090   0.766   4.345
 9642SOL    HW129825   1.069   0.744   4.440
 9642SOL    HW229826   1.128   0.859   4.339
 9643SOL     OW29827   4.759   4.886   4.575
 9643SOL    HW129828   4.815   4.834   4.511
 9643SOL    HW229829   4.817   4.950   4.626
 9644SOL     OW29830   1.441   5.330   4.373
 9644SOL    HW129831   1.528   5.289   4.400
 9644SOL    HW229832   1.436   5.424   4.407
 9645SOL     OW29833   0.289   5.025   6.056
 9645SOL    HW129834   0.246   4.998   6.143
 9645SOL    HW229835   0.291   5.124   6.048
 9646SOL     OW29836   3.239   5.435   6.048
 9646SOL    HW129837   3.192   5.473   5.968
 9646SOL    HW229838   3.325   5.393   6.020
 9647SOL     OW29839   6.447   6.968   3.454
 9647SOL    HW129840   6.540   6.932   3.442
 9647SOL    HW229841   6.382   6.892   3.461
 9648SOL     OW29842   3.799   1.982   1.075
 9648SOL    HW129843   3.879   2.041   1.066
 9648SOL    HW229844   3.754   1.972   0.986
 9649SOL     OW29845   0.944   5.872   6.837
 9649SOL    HW129846   0.909   5.872   6.744
 9649SOL    HW229847   0.986   5.960   6.858
 9650SOL     OW29848   6.616   4.621   4.208
 9650SOL    HW129849   6.647   4.547   4.269
 9650SOL    HW229850   6.689   4.689   4.199
 9651SOL     OW29851   4.374   1.680   0.399
 9651SOL    HW129852   4.374   1.778   0.416
 9651SOL    HW229853   4.354   1.631   0.484
 9652SOL     OW29854   0.106   3.443   0.369
 9652SOL    HW129855   0.116   3.541   0.387
 9652SOL    HW229856   0.022   3.427   0.317
 9653SOL     OW29857   4.001   4.788   6.406
 9653SOL    HW129858   3.981   4.707   6.350
 9653SOL    HW229859   4.086   4.830   6.375
 9654SOL     OW29860   3.695   3.480   2.974
 9654SOL    HW129861   3.761   3.536   3.024
 9654SOL    HW229862   3.745   3.412   2.919
 9655SOL     OW29863   4.199   1.276   1.321
 9655SOL    HW129864   4.171   1.328   1.401
 9655SOL    HW229865   4.295   1.249   1.330
 9656SOL     OW29866   5.937   3.865   0.460
 9656SOL    HW129867   5.930   3.948   0.404
 9656SOL    HW229868   5.892   3.789   0.413
 9657SOL     OW29869   6.007   4.289   3.730
 9657SOL    HW129870   5.940   4.356   3.762
 9657SOL    HW229871   5.981   4.258   3.639
 9658SOL     OW29872   4.852   2.247   3.207
 9658SOL    HW129873   4.830   2.295   3.292
 9658SOL    HW229874   4.922   2.177   3.226
 9659SOL     OW29875   2.464   3.469   0.675
 9659SOL    HW129876   2.514   3.515   0.602
 9659SOL    HW229877   2.486   3.371   0.674
 9660SOL     OW29878   1.299   6.112   1.722
 9660SOL    HW129879   1.279   6.026   1.769
 9660SOL    HW229880   1.368   6.163   1.774
 9661SOL     OW29881   5.152   4.875   0.908
 9661SOL    HW129882   5.138   4.902   1.003
 9661SOL    HW229883   5.241   4.908   0.877
 9662SOL     OW29884   5.649   5.397   6.020
 9662SOL    HW129885   5.716   5.341   6.068
 9662SOL    HW229886   5.695   5.473   5.974
 9663SOL     OW29887   0.746   5.227   3.243
 9663SOL    HW129888   0.736   5.258   3.337
 9663SOL    HW229889   0.829   5.267   3.203
 9664SOL     OW29890   4.797   4.003   2.880
 9664SOL    HW129891   4.711   3.964   2.848
 9664SOL    HW229892   4.779   4.068   2.955
 9665SOL     OW29893   6.123   5.981   6.830
 9665SOL    HW129894   6.164   5.943   6.747
 9665SOL    HW229895   6.025   5.998   6.815
 9666SOL     OW29896   5.912   3.356   0.782
 9666SOL    HW129897   5.961   3.280   0.739
 9666SOL    HW229898   5.899   3.337   0.879
 9667SOL     OW29899   5.947   5.866   6.395
 9667SOL    HW129900   5.915   5.783   6.441
 9667SOL    HW229901   5.898   5.946   6.432
 9668SOL     OW29902   0.201   0.376   6.037
 9668SOL    HW129903   0.171   0.330   6.121
 9668SOL    HW229904   0.181   0.474   6.044
 9669SOL     OW29905   3.855   0.585   0.227
 9669SOL    HW129906   3.793   0.516   0.189
 9669SOL    HW229907   3.824   0.610   0.318
 9670SOL     OW29908   0.021   6.868   6.874
 9670SOL    HW129909   0.019   6.912   6.964
 9670SOL    HW229910   0.096   6.801   6.872
 9671SOL     OW29911   0.994   5.609   6.551
 9671SOL    HW129912   0.912   5.573   6.596
 9671SOL    HW229913   1.054   5.533   6.525
 9672SOL     OW29914   1.142   3.325   4.013
 9672SOL    HW129915   1.177   3.284   4.098
 9672SOL    HW229916   1.044   3.308   4.006
 9673SOL     OW29917   1.995   4.025   0.472
 9673SOL    HW129918   2.035   3.954   0.413
 9673SOL    HW229919   2.036   4.113   0.450
 9674SOL     OW29920   2.335   5.957   3.994
 9674SOL    HW129921   2.300   5.880   4.047
 9674SOL    HW229922   2.430   5.939   3.968
 9675SOL     OW29923   5.064   3.236   0.768
 9675SOL    HW129924   4.973   3.245   0.728
 9675SOL    HW229925   5.074   3.302   0.842
 9676SOL     OW29926   0.348   3.027   6.991
 9676SOL    HW129927   0.375   3.113   6.947
 9676SOL    HW229928   0.399   2.951   6.949
 9677SOL     OW29929   0.084   5.284   1.002
 9677SOL    HW129930   0.048   5.289   1.095
 9677SOL    HW229931   0.032   5.217   0.949
 9678SOL     OW29932   3.576   3.694   5.157
 9678SOL    HW129933   3.577   3.594   5.162
 9678SOL    HW229934   3.523   3.723   5.077
 9679SOL     OW29935   2.088   1.716   4.563
 9679SOL    HW129936   2.185   1.698   4.581
 9679SOL    HW229937   2.078   1.811   4.532
 9680SOL     OW29938   5.004   5.983   1.790
 9680SOL    HW129939   4.976   5.942   1.876
 9680SOL    HW229940   4.960   6.073   1.780
 9681SOL     OW29941   1.473   1.498   2.176
 9681SOL    HW129942   1.473   1.405   2.212
 9681SOL    HW229943   1.508   1.498   2.083
 9682SOL     OW29944   4.613   5.661   5.623
 9682SOL    HW129945   4.626   5.616   5.711
 9682SOL    HW229946   4.540   5.614   5.573
 9683SOL     OW29947   3.532   6.293   2.275
 9683SOL    HW129948   3.632   6.299   2.284
 9683SOL    HW229949   3.492   6.284   2.366
 9684SOL     OW29950   0.225   3.195   5.808
 9684SOL    HW129951   0.287   3.264   5.844
 9684SOL    HW229952   0.214   3.208   5.710
 9685SOL     OW29953   3.904   4.221   1.756
 9685SOL    HW129954   3.825   4.268   1.795
 9685SOL    HW229955   3.895   4.216   1.657
 9686SOL     OW29956   6.614   2.338   5.644
 9686SOL    HW129957   6.578   2.430   5.661
 9686SOL    HW229958   6.607   2.283   5.727
 9687SOL     OW29959   5.694   1.227   2.646
 9687SOL    HW129960   5.717   1.140   2.690
 9687SOL    HW229961   5.616   1.268   2.693
 9688SOL     OW29962   0.287   5.061   1.323
 9688SOL    HW129963   0.196   5.104   1.320
 9688SOL    HW229964   0.303   5.024   1.415
 9689SOL     OW29965   1.913   5.924   1.049
 9689SOL    HW129966   1.837   5.898   1.108
 9689SOL    HW229967   1.957   6.006   1.084
 9690SOL     OW29968   6.407   5.191   4.523
 9690SOL    HW129969   6.421   5.183   4.425
 9690SOL    HW229970   6.495   5.198   4.569
 9691SOL     OW29971   3.126   3.960   1.874
 9691SOL    HW129972   3.210   4.007   1.900
 9691SOL    HW229973   3.074   4.016   1.809
 9692SOL     OW29974   5.566   4.985   1.438
 9692SOL    HW129975   5.649   4.983   1.495
 9692SOL    HW229976   5.577   5.055   1.368
 9693SOL     OW29977   5.440   3.751   4.897
 9693SOL    HW129978   5.520   3.738   4.838
 9693SOL    HW229979   5.360   3.772   4.840
 9694SOL     OW29980   3.377   6.673   2.559
 9694SOL    HW129981   3.381   6.652   2.656
 9694SOL    HW229982   3.311   6.612   2.514
 9695SOL     OW29983   1.204   2.020   3.338
 9695SOL    HW129984   1.118   1.985   3.374
 9695SOL    HW229985   1.201   2.120   3.338
 9696SOL     OW29986   5.636   2.227   2.509
 9696SOL    HW129987   5.607   2.256   2.418
 9696SOL    HW229988   5.678   2.137   2.504
 9697SOL     OW29989   1.546   6.746   0.816
 9697SOL    HW129990   1.574   6.724   0.910
 9697SOL    HW229991   1.551   6.663   0.760
 9698SOL     OW29992   5.958   3.013   1.422
 9698SOL    HW129993   5.950   2.943   1.494
 9698SOL    HW229994   5.874   3.068   1.420
 9699SOL     OW29995   1.263   5.411   0.625
 9699SOL    HW129996   1.251   5.360   0.711
 9699SOL    HW229997   1.342   5.375   0.576
 9700SOL     OW29998   5.344   0.542   5.288
 9700SOL    HW129999   5.290   0.458   5.280
 9700SOL    HW230000   5.434   0.520   5.327
 9701SOL     OW30001   4.471   3.474   6.368
 9701SOL    HW130002   4.531   3.404   6.408
 9701SOL    HW230003   4.432   3.440   6.283
 9702SOL     OW30004   3.532   3.564   1.422
 9702SOL    HW130005   3.505   3.548   1.517
 9702SOL    HW230006   3.462   3.527   1.361
 9703SOL     OW30007   0.030   4.146   4.227
 9703SOL    HW130008   0.038   4.226   4.286
 9703SOL    HW230009   0.112   4.138   4.170
 9704SOL     OW30010   2.046   3.992   2.705
 9704SOL    HW130011   2.076   3.912   2.654
 9704SOL    HW230012   2.042   3.971   2.802
 9705SOL     OW30013   6.367   3.280   5.573
 9705SOL    HW130014   6.343   3.359   5.516
 9705SOL    HW230015   6.336   3.296   5.667
 9706SOL     OW30016   0.874   1.253   1.732
 9706SOL    HW130017   0.896   1.351   1.732
 9706SOL    HW230018   0.883   1.217   1.640
 9707SOL     OW30019   0.738   4.967   2.295
 9707SOL    HW130020   0.782   4.969   2.385
 9707SOL    HW230021   0.802   5.002   2.226
 9708SOL     OW30022   2.725   0.357   2.289
 9708SOL    HW130023   2.651   0.290   2.298
 9708SOL    HW230024   2.689   0.440   2.245
 9709SOL     OW30025   4.802   2.259   1.359
 9709SOL    HW130026   4.852   2.340   1.387
 9709SOL    HW230027   4.741   2.230   1.432
 9710SOL     OW30028   6.764   5.147   3.660
 9710SOL    HW130029   6.851   5.132   3.613
 9710SOL    HW230030   6.690   5.144   3.593
 9711SOL     OW30031   3.862   0.138   0.061
 9711SOL    HW130032   3.913   0.078   0.123
 9711SOL    HW230033   3.834   0.085   7.006
 9712SOL     OW30034   5.520   1.660   6.629
 9712SOL    HW130035   5.423   1.685   6.628
 9712SOL    HW230036   5.530   1.569   6.589
 9713SOL     OW30037   1.188   0.122   3.385
 9713SOL    HW130038   1.175   0.099   3.289
 9713SOL    HW230039   1.242   0.051   3.430
 9714SOL     OW30040   2.253   4.785   4.737
 9714SOL    HW130041   2.233   4.789   4.639
 9714SOL    HW230042   2.339   4.736   4.751
 9715SOL     OW30043   6.331   3.443   0.069
 9715SOL    HW130044   6.242   3.410   0.100
 9715SOL    HW230045   6.322   3.486   7.005
 9716SOL     OW30046   2.611   5.142   6.656
 9716SOL    HW130047   2.671   5.214   6.621
 9716SOL    HW230048   2.658   5.093   6.729
 9717SOL     OW30049   3.978   1.417   5.333
 9717SOL    HW130050   3.925   1.335   5.314
 9717SOL    HW230051   4.071   1.392   5.358
 9718SOL     OW30052   3.973   3.320   7.019
 9718SOL    HW130053   3.887   3.367   0.015
 9718SOL    HW230054   3.998   3.337   6.924
 9719SOL     OW30055   4.512   6.744   5.446
 9719SOL    HW130056   4.579   6.738   5.520
 9719SOL    HW230057   4.487   6.839   5.431
 9720SOL     OW30058   2.148   3.424   3.381
 9720SOL    HW130059   2.071   3.487   3.369
 9720SOL    HW230060   2.177   3.425   3.477
 9721SOL     OW30061   1.155   1.396   0.682
 9721SOL    HW130062   1.141   1.435   0.772
 9721SOL    HW230063   1.254   1.387   0.665
 9722SOL     OW30064   4.205   3.096   5.397
 9722SOL    HW130065   4.136   3.160   5.431
 9722SOL    HW230066   4.160   3.021   5.349
 9723SOL     OW30067   6.864   6.202   4.623
 9723SOL    HW130068   6.900   6.194   4.530
 9723SOL    HW230069   6.772   6.241   4.620
 9724SOL     OW30070   1.395   5.454   6.972
 9724SOL    HW130071   1.452   5.535   6.984
 9724SOL    HW230072   1.299   5.479   6.973
 9725SOL     OW30073   3.732   5.079   5.619
 9725SOL    HW130074   3.662   5.103   5.686
 9725SOL    HW230075   3.689   5.039   5.538
 9726SOL     OW30076   6.469   1.705   4.311
 9726SOL    HW130077   6.520   1.681   4.393
 9726SOL    HW230078   6.532   1.725   4.236
 9727SOL     OW30079   0.534   1.055   0.307
 9727SOL    HW130080   0.527   1.130   0.241
 9727SOL    HW230081   0.630   1.030   0.320
 9728SOL     OW30082   4.508   1.043   5.311
 9728SOL    HW130083   4.557   1.118   5.266
 9728SOL    HW230084   4.425   1.078   5.354
 9729SOL     OW30085   0.549   4.976   3.535
 9729SOL    HW130086   0.557   5.075   3.523
 9729SOL    HW230087   0.466   4.956   3.588
 9730SOL     OW30088   0.296   4.064   2.887
 9730SOL    HW130089   0.252   4.150   2.865
 9730SOL    HW230090   0.228   3.991   2.891
 9731SOL     OW30091   4.919   3.408   2.098
 9731SOL    HW130092   4.884   3.500   2.079
 9731SOL    HW230093   4.896   3.382   2.192
 9732SOL     OW30094   1.694   2.874   3.054
 9732SOL    HW130095   1.781   2.892   3.007
 9732SOL    HW230096   1.642   2.959   3.059
 9733SOL     OW30097   6.739   4.610   2.218
 9733SOL    HW130098   6.670   4.681   2.206
 9733SOL    HW230099   6.824   4.640   2.174
 9734SOL     OW30100   6.055   5.906   6.132
 9734SOL    HW130101   5.983   5.872   6.192
 9734SOL    HW230102   6.058   6.006   6.137
 9735SOL     OW30103   1.105   2.886   1.293
 9735SOL    HW130104   1.054   2.965   1.329
 9735SOL    HW230105   1.043   2.808   1.282
 9736SOL     OW30106   5.275   2.196   4.901
 9736SOL    HW130107   5.339   2.273   4.895
 9736SOL    HW230108   5.285   2.138   4.820
 9737SOL     OW30109   5.867   2.423   2.681
 9737SOL    HW130110   5.807   2.429   2.761
 9737SOL    HW230111   5.867   2.510   2.632
 9738SOL     OW30112   2.077   6.130   1.840
 9738SOL    HW130113   2.126   6.165   1.919
 9738SOL    HW230114   2.102   6.035   1.825
 9739SOL     OW30115   6.008   6.915   0.054
 9739SOL    HW130116   6.108   6.916   0.058
 9739SOL    HW230117   5.976   6.986   7.017
 9740SOL     OW30118   6.307   0.728   2.445
 9740SOL    HW130119   6.361   0.811   2.429
 9740SOL    HW230120   6.350   0.673   2.517
 9741SOL     OW30121   2.801   1.516   4.315
 9741SOL    HW130122   2.704   1.533   4.332
 9741SOL    HW230123   2.817   1.513   4.217
 9742SOL     OW30124   3.777   2.048   5.882
 9742SOL    HW130125   3.753   2.004   5.968
 9742SOL    HW230126   3.730   2.002   5.806
 9743SOL     OW30127   5.681   3.298   3.867
 9743SOL    HW130128   5.593   3.313   3.910
 9743SOL    HW230129   5.707   3.379   3.815
 9744SOL     OW30130   1.902   0.429   3.969
 9744SOL    HW130131   1.854   0.459   4.052
 9744SOL    HW230132   1.837   0.382   3.909
 9745SOL     OW30133   6.998   0.546   5.601
 9745SOL    HW130134   0.022   0.511   5.522
 9745SOL    HW230135   6.914   0.493   5.615
 9746SOL     OW30136   4.237   5.884   6.444
 9746SOL    HW130137   4.321   5.895   6.498
 9746SOL    HW230138   4.160   5.867   6.505
 9747SOL     OW30139   2.412   2.099   2.591
 9747SOL    HW130140   2.427   2.109   2.689
 9747SOL    HW230141   2.476   2.033   2.553
 9748SOL     OW30142   1.543   0.968   3.683
 9748SOL    HW130143   1.531   1.043   3.618
 9748SOL    HW230144   1.493   0.887   3.651
 9749SOL     OW30145   0.286   1.226   2.159
 9749SOL    HW130146   0.291   1.168   2.077
 9749SOL    HW230147   0.326   1.316   2.138
 9750SOL     OW30148   0.208   4.104   3.620
 9750SOL    HW130149   0.306   4.096   3.637
 9750SOL    HW230150   0.158   4.078   3.702
 9751SOL     OW30151   2.908   0.656   1.364
 9751SOL    HW130152   3.000   0.697   1.365
 9751SOL    HW230153   2.887   0.623   1.273
 9752SOL     OW30154   3.050   3.307   6.950
 9752SOL    HW130155   3.049   3.402   6.917
 9752SOL    HW230156   2.956   3.276   6.961
 9753SOL     OW30157   0.021   5.831   4.688
 9753SOL    HW130158   0.111   5.876   4.683
 9753SOL    HW230159   6.988   5.881   4.751
 9754SOL     OW30160   3.215   1.058   1.615
 9754SOL    HW130161   3.235   0.962   1.592
 9754SOL    HW230162   3.201   1.110   1.531
 9755SOL     OW30163   2.965   4.406   6.444
 9755SOL    HW130164   3.049   4.455   6.470
 9755SOL    HW230165   2.898   4.414   6.517
 9756SOL     OW30166   5.854   0.110   5.963
 9756SOL    HW130167   5.871   0.160   5.878
 9756SOL    HW230168   5.757   0.118   5.987
 9757SOL     OW30169   5.395   4.042   3.804
 9757SOL    HW130170   5.368   4.124   3.754
 9757SOL    HW230171   5.489   4.017   3.778
 9758SOL     OW30172   1.981   0.415   1.854
 9758SOL    HW130173   2.011   0.460   1.938
 9758SOL    HW230174   2.047   0.432   1.781
 9759SOL     OW30175   0.069   1.210   0.967
 9759SOL    HW130176   0.079   1.168   0.877
 9759SOL    HW230177   0.007   1.155   1.023
 9760SOL     OW30178   4.616   1.413   0.016
 9760SOL    HW130179   4.585   1.319   7.023
 9760SOL    HW230180   4.581   1.443   0.104
 9761SOL     OW30181   1.292   2.359   1.250
 9761SOL    HW130182   1.198   2.332   1.268
 9761SOL    HW230183   1.353   2.313   1.314
 9762SOL     OW30184   2.566   1.722   5.737
 9762SOL    HW130185   2.552   1.793   5.668
 9762SOL    HW230186   2.483   1.710   5.790
 9763SOL     OW30187   5.872   0.852   0.840
 9763SOL    HW130188   5.789   0.908   0.844
 9763SOL    HW230189   5.944   0.895   0.895
 9764SOL     OW30190   6.199   2.511   2.451
 9764SOL    HW130191   6.261   2.499   2.373
 9764SOL    HW230192   6.202   2.429   2.508
 9765SOL     OW30193   6.592   0.545   1.491
 9765SOL    HW130194   6.523   0.610   1.457
 9765SOL    HW230195   6.615   0.568   1.585
 9766SOL     OW30196   2.530   1.611   4.455
 9766SOL    HW130197   2.537   1.664   4.539
 9766SOL    HW230198   2.446   1.557   4.456
 9767SOL     OW30199   2.286   3.360   6.062
 9767SOL    HW130200   2.380   3.385   6.041
 9767SOL    HW230201   2.224   3.429   6.025
 9768SOL     OW30202   6.166   3.014   1.213
 9768SOL    HW130203   6.087   3.019   1.275
 9768SOL    HW230204   6.250   3.003   1.266
 9769SOL     OW30205   3.117   1.812   5.327
 9769SOL    HW130206   3.183   1.741   5.302
 9769SOL    HW230207   3.126   1.890   5.265
 9770SOL     OW30208   2.953   2.354   6.126
 9770SOL    HW130209   2.922   2.317   6.213
 9770SOL    HW230210   3.006   2.284   6.077
 9771SOL     OW30211   3.161   6.118   3.022
 9771SOL    HW130212   3.214   6.077   3.096
 9771SOL    HW230213   3.166   6.059   2.941
 9772SOL     OW30214   1.057   0.212   1.270
 9772SOL    HW130215   1.060   0.171   1.178
 9772SOL    HW230216   1.143   0.259   1.288
 9773SOL     OW30217   4.966   4.862   1.918
 9773SOL    HW130218   4.935   4.767   1.913
 9773SOL    HW230219   4.886   4.923   1.924
 9774SOL     OW30220   0.927   5.507   4.985
 9774SOL    HW130221   0.922   5.605   4.967
 9774SOL    HW230222   0.910   5.457   4.900
 9775SOL     OW30223   2.105   1.460   3.203
 9775SOL    HW130224   2.021   1.430   3.248
 9775SOL    HW230225   2.160   1.515   3.266
 9776SOL     OW30226   1.473   5.969   6.818
 9776SOL    HW130227   1.536   5.927   6.752
 9776SOL    HW230228   1.379   5.953   6.788
 9777SOL     OW30229   4.317   0.687   5.262
 9777SOL    HW130230   4.300   0.594   5.229
 9777SOL    HW230231   4.292   0.693   5.358
 9778SOL     OW30232   0.143   3.111   4.124
 9778SOL    HW130233   0.059   3.058   4.112
 9778SOL    HW230234   0.140   3.193   4.066
 9779SOL     OW30235   1.871   1.149   3.804
 9779SOL    HW130236   1.835   1.084   3.871
 9779SOL    HW230237   1.912   1.227   3.851
 9780SOL     OW30238   1.625   2.738   1.888
 9780SOL    HW130239   1.660   2.743   1.794
 9780SOL    HW230240   1.569   2.818   1.907
 9781SOL     OW30241   1.834   2.424   3.166
 9781SOL    HW130242   1.775   2.502   3.143
 9781SOL    HW230243   1.797   2.341   3.124
 9782SOL     OW30244   0.244   2.365   1.252
 9782SOL    HW130245   0.221   2.269   1.241
 9782SOL    HW230246   0.308   2.393   1.180
 9783SOL     OW30247   3.626   1.474   3.072
 9783SOL    HW130248   3.695   1.418   3.027
 9783SOL    HW230249   3.557   1.415   3.114
 9784SOL     OW30250   1.493   1.294   6.367
 9784SOL    HW130251   1.523   1.332   6.280
 9784SOL    HW230252   1.393   1.284   6.366
 9785SOL     OW30253   0.633   2.675   4.335
 9785SOL    HW130254   0.557   2.738   4.317
 9785SOL    HW230255   0.718   2.727   4.346
 9786SOL     OW30256   2.315   4.664   1.228
 9786SOL    HW130257   2.410   4.667   1.259
 9786SOL    HW230258   2.255   4.692   1.302
 9787SOL     OW30259   3.444   3.426   3.052
 9787SOL    HW130260   3.444   3.370   3.135
 9787SOL    HW230261   3.538   3.444   3.024
 9788SOL     OW30262   5.533   6.838   1.504
 9788SOL    HW130263   5.620   6.869   1.467
 9788SOL    HW230264   5.517   6.743   1.478
 9789SOL     OW30265   3.662   0.826   6.475
 9789SOL    HW130266   3.747   0.777   6.495
 9789SOL    HW230267   3.586   0.760   6.472
 9790SOL     OW30268   0.545   4.515   4.340
 9790SOL    HW130269   0.524   4.590   4.402
 9790SOL    HW230270   0.520   4.428   4.382
 9791SOL     OW30271   1.738   6.522   1.010
 9791SOL    HW130272   1.827   6.521   0.963
 9791SOL    HW230273   1.677   6.456   0.967
 9792SOL     OW30274   4.043   6.503   0.517
 9792SOL    HW130275   4.100   6.453   0.583
 9792SOL    HW230276   4.023   6.443   0.439
 9793SOL     OW30277   5.081   1.297   3.447
 9793SOL    HW130278   5.105   1.281   3.351
 9793SOL    HW230279   5.155   1.346   3.492
 9794SOL     OW30280   4.771   4.681   4.757
 9794SOL    HW130281   4.780   4.736   4.673
 9794SOL    HW230282   4.678   4.647   4.764
 9795SOL     OW30283   1.709   3.586   3.247
 9795SOL    HW130284   1.636   3.629   3.195
 9795SOL    HW230285   1.707   3.487   3.232
 9796SOL     OW30286   3.257   3.692   3.789
 9796SOL    HW130287   3.174   3.746   3.777
 9796SOL    HW230288   3.243   3.624   3.861
 9797SOL     OW30289   3.109   6.083   6.848
 9797SOL    HW130290   3.146   6.111   6.936
 9797SOL    HW230291   3.184   6.065   6.784
 9798SOL     OW30292   1.184   3.643   0.223
 9798SOL    HW130293   1.115   3.712   0.204
 9798SOL    HW230294   1.146   3.552   0.205
 9799SOL     OW30295   2.934   0.093   6.891
 9799SOL    HW130296   2.905   0.024   6.958
 9799SOL    HW230297   3.007   0.055   6.834
 9800SOL     OW30298   6.450   3.804   4.690
 9800SOL    HW130299   6.495   3.727   4.736
 9800SOL    HW230300   6.352   3.801   4.709
 9801SOL     OW30301   6.133   5.993   0.088
 9801SOL    HW130302   6.197   6.066   0.111
 9801SOL    HW230303   6.121   5.988   7.015
 9802SOL     OW30304   4.266   4.733   0.182
 9802SOL    HW130305   4.336   4.687   0.127
 9802SOL    HW230306   4.307   4.812   0.228
 9803SOL     OW30307   0.885   3.814   6.602
 9803SOL    HW130308   0.917   3.755   6.677
 9803SOL    HW230309   0.827   3.886   6.639
 9804SOL     OW30310   0.244   5.458   2.505
 9804SOL    HW130311   0.231   5.363   2.476
 9804SOL    HW230312   0.182   5.517   2.454
 9805SOL     OW30313   1.068   6.312   3.703
 9805SOL    HW130314   1.104   6.321   3.796
 9805SOL    HW230315   1.140   6.283   3.641
 9806SOL     OW30316   3.307   2.484   6.353
 9806SOL    HW130317   3.305   2.466   6.254
 9806SOL    HW230318   3.380   2.429   6.394
 9807SOL     OW30319   3.271   4.114   2.099
 9807SOL    HW130320   3.287   4.023   2.138
 9807SOL    HW230321   3.250   4.179   2.172
 9808SOL     OW30322   4.354   5.969   3.447
 9808SOL    HW130323   4.339   5.870   3.446
 9808SOL    HW230324   4.382   5.998   3.538
 9809SOL     OW30325   0.271   3.257   0.890
 9809SOL    HW130326   0.246   3.277   0.795
 9809SOL    HW230327   0.361   3.295   0.910
 9810SOL     OW30328   1.922   1.621   6.295
 9810SOL    HW130329   1.885   1.529   6.311
 9810SOL    HW230330   2.018   1.623   6.322
 9811SOL     OW30331   6.402   3.913   3.702
 9811SOL    HW130332   6.502   3.908   3.702
 9811SOL    HW230333   6.371   3.962   3.620
 9812SOL     OW30334   3.304   5.920   4.951
 9812SOL    HW130335   3.347   5.958   4.869
 9812SOL    HW230336   3.205   5.925   4.942
 9813SOL     OW30337   4.577   2.286   1.198
 9813SOL    HW130338   4.579   2.386   1.193
 9813SOL    HW230339   4.654   2.254   1.253
 9814SOL     OW30340   5.988   0.959   0.042
 9814SOL    HW130341   5.968   1.041   7.014
 9814SOL    HW230342   6.048   0.899   7.014
 9815SOL     OW30343   4.258   2.286   4.835
 9815SOL    HW130344   4.223   2.380   4.838
 9815SOL    HW230345   4.288   2.265   4.743
 9816SOL     OW30346   1.552   0.270   0.176
 9816SOL    HW130347   1.644   0.304   0.199
 9816SOL    HW230348   1.535   0.185   0.226
 9817SOL     OW30349   0.058   6.653   3.482
 9817SOL    HW130350   7.006   6.646   3.545
 9817SOL    HW230351   0.072   6.750   3.458
 9818SOL     OW30352   6.830   2.848   4.796
 9818SOL    HW130353   6.800   2.863   4.702
 9818SOL    HW230354   6.803   2.926   4.852
 9819SOL     OW30355   4.011   1.661   3.099
 9819SOL    HW130356   4.047   1.739   3.047
 9819SOL    HW230357   3.951   1.695   3.172
 9820SOL     OW30358   4.187   4.246   6.099
 9820SOL    HW130359   4.102   4.194   6.106
 9820SOL    HW230360   4.230   4.228   6.011
 9821SOL     OW30361   5.839   6.194   0.008
 9821SOL    HW130362   5.794   6.172   0.095
 9821SOL    HW230363   5.917   6.254   0.025
 9822SOL     OW30364   0.562   0.188   3.080
 9822SOL    HW130365   0.501   0.138   3.142
 9822SOL    HW230366   0.568   0.138   2.993
 9823SOL     OW30367   3.049   1.123   1.816
 9823SOL    HW130368   3.114   1.137   1.741
 9823SOL    HW230369   3.032   1.211   1.862
 9824SOL     OW30370   1.655   4.310   5.013
 9824SOL    HW130371   1.560   4.338   5.005
 9824SOL    HW230372   1.697   4.307   4.922
 9825SOL     OW30373   3.802   4.570   5.315
 9825SOL    HW130374   3.754   4.492   5.276
 9825SOL    HW230375   3.873   4.539   5.378
 9826SOL     OW30376   4.304   6.996   5.898
 9826SOL    HW130377   4.223   6.962   5.947
 9826SOL    HW230378   4.320   6.939   5.818
 9827SOL     OW30379   0.931   3.589   4.747
 9827SOL    HW130380   0.933   3.685   4.722
 9827SOL    HW230381   0.938   3.532   4.665
 9828SOL     OW30382   4.245   2.415   0.293
 9828SOL    HW130383   4.228   2.437   0.197
 9828SOL    HW230384   4.318   2.347   0.299
 9829SOL     OW30385   2.025   5.752   0.260
 9829SOL    HW130386   1.960   5.782   0.190
 9829SOL    HW230387   1.975   5.714   0.337
 9830SOL     OW30388   6.207   1.083   1.691
 9830SOL    HW130389   6.143   1.058   1.763
 9830SOL    HW230390   6.288   1.125   1.732
 9831SOL     OW30391   0.446   6.567   1.872
 9831SOL    HW130392   0.536   6.524   1.865
 9831SOL    HW230393   0.426   6.588   1.967
 9832SOL     OW30394   4.799   5.385   1.877
 9832SOL    HW130395   4.798   5.452   1.803
 9832SOL    HW230396   4.776   5.431   1.963
 9833SOL     OW30397   3.637   3.975   5.116
 9833SOL    HW130398   3.635   3.883   5.156
 9833SOL    HW230399   3.652   3.968   5.017
 9834SOL     OW30400   1.252   3.830   5.168
 9834SOL    HW130401   1.352   3.836   5.171
 9834SOL    HW230402   1.224   3.737   5.193
 9835SOL     OW30403   5.299   1.433   4.481
 9835SOL    HW130404   5.333   1.417   4.573
 9835SOL    HW230405   5.204   1.465   4.485
 9836SOL     OW30406   5.321   4.453   3.285
 9836SOL    HW130407   5.372   4.485   3.205
 9836SOL    HW230408   5.294   4.358   3.271
 9837SOL     OW30409   2.411   6.595   4.295
 9837SOL    HW130410   2.401   6.496   4.309
 9837SOL    HW230411   2.448   6.636   4.378
 9838SOL     OW30412   0.810   6.893   6.274
 9838SOL    HW130413   0.724   6.909   6.322
 9838SOL    HW230414   0.811   6.799   6.238
 9839SOL     OW30415   6.521   1.340   1.578
 9839SOL    HW130416   6.616   1.327   1.548
 9839SOL    HW230417   6.505   1.286   1.661
 9840SOL     OW30418   0.180   0.373   0.929
 9840SOL    HW130419   0.248   0.441   0.900
 9840SOL    HW230420   0.133   0.407   1.011
 9841SOL     OW30421   1.399   4.006   4.909
 9841SOL    HW130422   1.362   3.982   4.820
 9841SOL    HW230423   1.487   4.051   4.898
 9842SOL     OW30424   3.021   3.320   2.940
 9842SOL    HW130425   3.079   3.400   2.950
 9842SOL    HW230426   2.952   3.319   3.012
 9843SOL     OW30427   7.004   1.813   1.130
 9843SOL    HW130428   7.014   1.789   1.227
 9843SOL    HW230429   6.964   1.904   1.122
 9844SOL     OW30430   5.109   0.130   2.310
 9844SOL    HW130431   5.016   0.156   2.337
 9844SOL    HW230432   5.107   0.043   2.261
 9845SOL     OW30433   2.257   1.953   4.071
 9845SOL    HW130434   2.221   2.020   4.135
 9845SOL    HW230435   2.240   1.984   3.977
 9846SOL     OW30436   3.083   3.996   3.236
 9846SOL    HW130437   3.024   4.057   3.182
 9846SOL    HW230438   3.037   3.907   3.247
 9847SOL     OW30439   1.836   3.170   6.618
 9847SOL    HW130440   1.760   3.236   6.620
 9847SOL    HW230441   1.922   3.217   6.637
 9848SOL     OW30442   4.570   3.037   6.896
 9848SOL    HW130443   4.576   3.006   6.991
 9848SOL    HW230444   4.598   3.133   6.891
 9849SOL     OW30445   6.573   6.836   6.409
 9849SOL    HW130446   6.573   6.820   6.310
 9849SOL    HW230447   6.489   6.800   6.448
 9850SOL     OW30448   4.096   6.753   2.865
 9850SOL    HW130449   4.068   6.814   2.939
 9850SOL    HW230450   4.042   6.669   2.869
 9851SOL     OW30451   4.601   2.003   5.191
 9851SOL    HW130452   4.530   1.974   5.127
 9851SOL    HW230453   4.645   2.087   5.156
 9852SOL     OW30454   4.942   1.916   3.885
 9852SOL    HW130455   4.942   1.819   3.910
 9852SOL    HW230456   4.854   1.956   3.909
 9853SOL     OW30457   5.582   4.537   2.448
 9853SOL    HW130458   5.654   4.594   2.407
 9853SOL    HW230459   5.562   4.570   2.540
 9854SOL     OW30460   5.482   5.518   4.538
 9854SOL    HW130461   5.497   5.421   4.558
 9854SOL    HW230462   5.411   5.527   4.468
 9855SOL     OW30463   0.853   4.367   1.199
 9855SOL    HW130464   0.835   4.381   1.296
 9855SOL    HW230465   0.879   4.272   1.183
 9856SOL     OW30466   4.082   3.729   0.832
 9856SOL    HW130467   4.096   3.653   0.770
 9856SOL    HW230468   3.986   3.733   0.860
 9857SOL     OW30469   5.352   2.425   3.158
 9857SOL    HW130470   5.401   2.492   3.102
 9857SOL    HW230471   5.305   2.360   3.098
 9858SOL     OW30472   5.152   1.075   2.203
 9858SOL    HW130473   5.198   1.079   2.292
 9858SOL    HW230474   5.204   1.127   2.135
 9859SOL     OW30475   5.835   0.384   1.204
 9859SOL    HW130476   5.914   0.399   1.263
 9859SOL    HW230477   5.857   0.414   1.111
 9860SOL     OW30478   0.073   0.440   2.289
 9860SOL    HW130479   0.094   0.513   2.223
 9860SOL    HW230480   0.154   0.418   2.342
 9861SOL     OW30481   3.929   6.047   4.377
 9861SOL    HW130482   3.909   6.145   4.375
 9861SOL    HW230483   4.028   6.034   4.376
 9862SOL     OW30484   2.279   3.295   0.348
 9862SOL    HW130485   2.377   3.282   0.361
 9862SOL    HW230486   2.231   3.272   0.433
 9863SOL     OW30487   3.553   0.144   3.035
 9863SOL    HW130488   3.575   0.047   3.035
 9863SOL    HW230489   3.504   0.168   2.951
 9864SOL     OW30490   4.324   5.376   3.992
 9864SOL    HW130491   4.238   5.376   3.941
 9864SOL    HW230492   4.399   5.356   3.929
 9865SOL     OW30493   0.519   0.114   3.598
 9865SOL    HW130494   0.619   0.112   3.585
 9865SOL    HW230495   0.493   0.039   3.659
 9866SOL     OW30496   4.927   4.050   4.720
 9866SOL    HW130497   4.854   4.090   4.774
 9866SOL    HW230498   4.973   3.979   4.773
 9867SOL     OW30499   4.291   1.476   0.623
 9867SOL    HW130500   4.313   1.427   0.708
 9867SOL    HW230501   4.200   1.516   0.631
 9868SOL     OW30502   0.164   4.395   0.168
 9868SOL    HW130503   0.108   4.410   0.250
 9868SOL    HW230504   0.260   4.410   0.191
 9869SOL     OW30505   2.055   3.691   3.119
 9869SOL    HW130506   2.042   3.676   3.217
 9869SOL    HW230507   2.133   3.752   3.104
 9870SOL     OW30508   4.915   5.383   2.956
 9870SOL    HW130509   4.852   5.460   2.945
 9870SOL    HW230510   5.009   5.416   2.944
 9871SOL     OW30511   1.854   0.494   6.140
 9871SOL    HW130512   1.948   0.525   6.123
 9871SOL    HW230513   1.833   0.417   6.080
 9872SOL     OW30514   2.855   4.956   3.188
 9872SOL    HW130515   2.826   4.985   3.097
 9872SOL    HW230516   2.945   4.995   3.208
 9873SOL     OW30517   2.139   3.397   0.122
 9873SOL    HW130518   2.171   3.374   0.030
 9873SOL    HW230519   2.192   3.347   0.190
 9874SOL     OW30520   0.683   2.045   3.405
 9874SOL    HW130521   0.644   2.059   3.497
 9874SOL    HW230522   0.611   2.014   3.343
 9875SOL     OW30523   7.003   0.586   2.654
 9875SOL    HW130524   6.985   0.488   2.656
 9875SOL    HW230525   0.035   0.608   2.575
 9876SOL     OW30526   6.197   0.343   2.641
 9876SOL    HW130527   6.119   0.340   2.704
 9876SOL    HW230528   6.251   0.259   2.652
 9877SOL     OW30529   3.087   6.713   2.220
 9877SOL    HW130530   3.135   6.733   2.134
 9877SOL    HW230531   3.072   6.799   2.269
 9878SOL     OW30532   1.721   5.537   5.913
 9878SOL    HW130533   1.642   5.578   5.959
 9878SOL    HW230534   1.690   5.483   5.835
 9879SOL     OW30535   5.092   5.339   4.688
 9879SOL    HW130536   5.030   5.277   4.735
 9879SOL    HW230537   5.044   5.426   4.670
 9880SOL     OW30538   1.518   2.361   5.349
 9880SOL    HW130539   1.453   2.413   5.404
 9880SOL    HW230540   1.483   2.268   5.335
 9881SOL     OW30541   1.158   2.506   5.070
 9881SOL    HW130542   1.244   2.460   5.050
 9881SOL    HW230543   1.167   2.604   5.050
 9882SOL     OW30544   1.062   2.402   4.010
 9882SOL    HW130545   1.057   2.305   4.033
 9882SOL    HW230546   1.070   2.411   3.910
 9883SOL     OW30547   1.575   0.486   1.748
 9883SOL    HW130548   1.645   0.476   1.677
 9883SOL    HW230549   1.614   0.534   1.826
 9884SOL     OW30550   4.276   1.021   3.678
 9884SOL    HW130551   4.310   0.928   3.691
 9884SOL    HW230552   4.353   1.084   3.676
 9885SOL     OW30553   6.562   4.284   4.900
 9885SOL    HW130554   6.463   4.296   4.907
 9885SOL    HW230555   6.591   4.206   4.956
 9886SOL     OW30556   0.878   4.722   2.698
 9886SOL    HW130557   0.878   4.624   2.681
 9886SOL    HW230558   0.972   4.753   2.711
 9887SOL     OW30559   3.818   0.912   0.205
 9887SOL    HW130560   3.870   0.900   0.121
 9887SOL    HW230561   3.761   0.831   0.221
 9888SOL     OW30562   0.016   3.722   0.454
 9888SOL    HW130563   0.046   3.767   0.538
 9888SOL    HW230564   0.017   3.787   0.379
 9889SOL     OW30565   6.708   5.243   1.181
 9889SOL    HW130566   6.651   5.233   1.099
 9889SOL    HW230567   6.778   5.313   1.165
 9890SOL     OW30568   1.490   2.143   0.869
 9890SOL    HW130569   1.590   2.150   0.866
 9890SOL    HW230570   1.455   2.131   0.777
 9891SOL     OW30571   6.129   2.657   0.546
 9891SOL    HW130572   6.068   2.657   0.467
 9891SOL    HW230573   6.137   2.564   0.582
 9892SOL     OW30574   6.902   5.395   0.500
 9892SOL    HW130575   6.983   5.418   0.555
 9892SOL    HW230576   6.930   5.380   0.405
 9893SOL     OW30577   2.068   0.768   0.838
 9893SOL    HW130578   2.158   0.793   0.803
 9893SOL    HW230579   2.023   0.848   0.876
 9894SOL     OW30580   1.600   1.828   1.171
 9894SOL    HW130581   1.507   1.853   1.144
 9894SOL    HW230582   1.597   1.749   1.231
 9895SOL     OW30583   5.627   3.198   5.188
 9895SOL    HW130584   5.633   3.178   5.286
 9895SOL    HW230585   5.685   3.276   5.166
 9896SOL     OW30586   6.326   6.614   6.835
 9896SOL    HW130587   6.296   6.608   6.930
 9896SOL    HW230588   6.334   6.522   6.797
 9897SOL     OW30589   5.870   6.138   3.290
 9897SOL    HW130590   5.774   6.137   3.319
 9897SOL    HW230591   5.916   6.056   3.325
 9898SOL     OW30592   2.307   6.468   6.265
 9898SOL    HW130593   2.344   6.393   6.320
 9898SOL    HW230594   2.248   6.525   6.323
 9899SOL     OW30595   0.420   5.917   0.635
 9899SOL    HW130596   0.482   5.993   0.615
 9899SOL    HW230597   0.450   5.870   0.718
 9900SOL     OW30598   1.566   3.715   3.057
 9900SOL    HW130599   1.496   3.713   2.985
 9900SOL    HW230600   1.654   3.742   3.017
 9901SOL     OW30601   2.769   2.090   5.656
 9901SOL    HW130602   2.842   2.109   5.591
 9901SOL    HW230603   2.739   2.175   5.699
 9902SOL     OW30604   2.373   4.867   6.590
 9902SOL    HW130605   2.354   4.965   6.589
 9902SOL    HW230606   2.340   4.828   6.676
 9903SOL     OW30607   4.626   1.473   3.038
 9903SOL    HW130608   4.693   1.512   3.100
 9903SOL    HW230609   4.581   1.547   2.987
 9904SOL     OW30610   1.249   3.126   6.619
 9904SOL    HW130611   1.244   3.029   6.643
 9904SOL    HW230612   1.250   3.136   6.519
 9905SOL     OW30613   3.238   1.050   0.787
 9905SOL    HW130614   3.294   1.046   0.704
 9905SOL    HW230615   3.259   1.134   0.838
 9906SOL     OW30616   3.018   3.035   2.525
 9906SOL    HW130617   2.943   2.972   2.544
 9906SOL    HW230618   2.988   3.104   2.460
 9907SOL     OW30619   6.570   0.760   1.254
 9907SOL    HW130620   6.537   0.812   1.176
 9907SOL    HW230621   6.498   0.698   1.286
 9908SOL     OW30622   5.415   2.321   3.393
 9908SOL    HW130623   5.343   2.255   3.413
 9908SOL    HW230624   5.405   2.355   3.300
 9909SOL     OW30625   3.862   6.729   3.979
 9909SOL    HW130626   3.913   6.712   3.894
 9909SOL    HW230627   3.849   6.644   4.028
 9910SOL     OW30628   1.229   3.883   2.506
 9910SOL    HW130629   1.155   3.866   2.441
 9910SOL    HW230630   1.257   3.979   2.500
 9911SOL     OW30631   3.735   0.006   1.763
 9911SOL    HW130632   3.777   0.089   1.799
 9911SOL    HW230633   3.682   6.987   1.835
 9912SOL     OW30634   4.268   2.140   1.056
 9912SOL    HW130635   4.333   2.201   1.011
 9912SOL    HW230636   4.283   2.142   1.154
 9913SOL     OW30637   5.911   3.807   0.121
 9913SOL    HW130638   5.816   3.816   0.090
 9913SOL    HW230639   5.953   3.728   0.075
 9914SOL     OW30640   0.171   3.257   4.727
 9914SOL    HW130641   0.242   3.250   4.657
 9914SOL    HW230642   0.085   3.287   4.685
 9915SOL     OW30643   4.638   0.832   2.891
 9915SOL    HW130644   4.616   0.739   2.921
 9915SOL    HW230645   4.554   0.886   2.886
 9916SOL     OW30646   2.206   2.198   3.137
 9916SOL    HW130647   2.260   2.239   3.211
 9916SOL    HW230648   2.135   2.140   3.176
 9917SOL     OW30649   6.006   3.569   0.064
 9917SOL    HW130650   6.038   3.516   0.142
 9917SOL    HW230651   5.953   3.510   0.003
 9918SOL     OW30652   3.897   1.831   2.662
 9918SOL    HW130653   3.872   1.748   2.611
 9918SOL    HW230654   3.874   1.912   2.608
 9919SOL     OW30655   6.222   5.594   2.087
 9919SOL    HW130656   6.274   5.638   2.160
 9919SOL    HW230657   6.231   5.647   2.003
 9920SOL     OW30658   4.893   1.324   1.919
 9920SOL    HW130659   4.863   1.229   1.905
 9920SOL    HW230660   4.970   1.343   1.858
 9921SOL     OW30661   4.410   6.177   5.984
 9921SOL    HW130662   4.383   6.207   5.892
 9921SOL    HW230663   4.340   6.204   6.049
 9922SOL     OW30664   1.139   5.347   0.216
 9922SOL    HW130665   1.214   5.410   0.237
 9922SOL    HW230666   1.082   5.336   0.298
 9923SOL     OW30667   4.786   5.033   6.361
 9923SOL    HW130668   4.861   4.970   6.341
 9923SOL    HW230669   4.811   5.125   6.329
 9924SOL     OW30670   0.263   2.186   4.890
 9924SOL    HW130671   0.216   2.234   4.816
 9924SOL    HW230672   0.254   2.087   4.876
 9925SOL     OW30673   6.627   3.771   3.724
 9925SOL    HW130674   6.723   3.760   3.748
 9925SOL    HW230675   6.573   3.782   3.807
 9926SOL     OW30676   2.595   3.882   0.158
 9926SOL    HW130677   2.690   3.860   0.180
 9926SOL    HW230678   2.559   3.947   0.226
 9927SOL     OW30679   5.999   6.917   2.440
 9927SOL    HW130680   6.040   6.872   2.361
 9927SOL    HW230681   5.946   6.850   2.492
 9928SOL     OW30682   5.094   5.081   1.617
 9928SOL    HW130683   5.192   5.084   1.595
 9928SOL    HW230684   5.076   5.140   1.696
 9929SOL     OW30685   1.976   5.694   5.441
 9929SOL    HW130686   2.034   5.612   5.444
 9929SOL    HW230687   1.926   5.703   5.526
 9930SOL     OW30688   6.315   0.353   4.595
 9930SOL    HW130689   6.395   0.359   4.654
 9930SOL    HW230690   6.344   0.358   4.499
 9931SOL     OW30691   0.943   4.545   5.339
 9931SOL    HW130692   0.854   4.549   5.386
 9931SOL    HW230693   0.978   4.638   5.327
 9932SOL     OW30694   1.811   6.128   6.412
 9932SOL    HW130695   1.725   6.150   6.459
 9932SOL    HW230696   1.874   6.085   6.476
 9933SOL     OW30697   1.845   4.700   2.638
 9933SOL    HW130698   1.776   4.733   2.574
 9933SOL    HW230699   1.824   4.605   2.663
 9934SOL     OW30700   6.068   1.987   5.769
 9934SOL    HW130701   6.158   2.030   5.783
 9934SOL    HW230702   6.048   1.926   5.846
 9935SOL     OW30703   2.889   1.003   0.594
 9935SOL    HW130704   2.943   1.018   0.677
 9935SOL    HW230705   2.855   0.908   0.594
 9936SOL     OW30706   6.932   4.908   4.753
 9936SOL    HW130707   6.846   4.920   4.802
 9936SOL    HW230708   6.983   4.995   4.754
 9937SOL     OW30709   6.136   2.402   5.365
 9937SOL    HW130710   6.209   2.383   5.431
 9937SOL    HW230711   6.167   2.473   5.301
 9938SOL     OW30712   6.909   5.869   3.145
 9938SOL    HW130713   6.940   5.934   3.215
 9938SOL    HW230714   6.913   5.913   3.055
 9939SOL     OW30715   3.342   2.976   0.616
 9939SOL    HW130716   3.348   2.904   0.685
 9939SOL    HW230717   3.376   2.942   0.529
 9940SOL     OW30718   0.348   0.637   1.466
 9940SOL    HW130719   0.307   0.563   1.519
 9940SOL    HW230720   0.319   0.630   1.370
 9941SOL     OW30721   3.176   4.076   5.251
 9941SOL    HW130722   3.104   4.145   5.250
 9941SOL    HW230723   3.188   4.039   5.158
 9942SOL     OW30724   1.969   6.121   2.981
 9942SOL    HW130725   1.915   6.107   2.898
 9942SOL    HW230726   2.062   6.149   2.957
 9943SOL     OW30727   0.299   5.967   6.231
 9943SOL    HW130728   0.397   5.947   6.239
 9943SOL    HW230729   0.254   5.950   6.319
 9944SOL     OW30730   1.932   4.315   6.483
 9944SOL    HW130731   1.883   4.387   6.532
 9944SOL    HW230732   1.898   4.309   6.389
 9945SOL     OW30733   6.682   5.303   0.195
 9945SOL    HW130734   6.652   5.246   0.119
 9945SOL    HW230735   6.619   5.289   0.273
 9946SOL     OW30736   5.588   1.137   5.179
 9946SOL    HW130737   5.660   1.162   5.245
 9946SOL    HW230738   5.532   1.064   5.217
 9947SOL     OW30739   6.970   4.001   6.077
 9947SOL    HW130740   7.012   4.072   6.134
 9947SOL    HW230741   6.914   3.941   6.135
 9948SOL     OW30742   4.960   5.013   4.723
 9948SOL    HW130743   4.982   5.068   4.803
 9948SOL    HW230744   5.020   4.934   4.719
 9949SOL     OW30745   5.393   5.009   3.682
 9949SOL    HW130746   5.397   5.042   3.776
 9949SOL    HW230747   5.348   4.920   3.680
 9950SOL     OW30748   5.939   6.298   5.602
 9950SOL    HW130749   5.948   6.264   5.696
 9950SOL    HW230750   5.908   6.393   5.603
 9951SOL     OW30751   6.737   2.102   3.928
 9951SOL    HW130752   6.791   2.023   3.956
 9951SOL    HW230753   6.735   2.169   4.002
 9952SOL     OW30754   6.492   3.592   0.910
 9952SOL    HW130755   6.399   3.555   0.917
 9952SOL    HW230756   6.531   3.566   0.821
 9953SOL     OW30757   6.298   2.433   4.505
 9953SOL    HW130758   6.281   2.512   4.563
 9953SOL    HW230759   6.219   2.416   4.447
 9954SOL     OW30760   5.747   6.053   6.224
 9954SOL    HW130761   5.762   5.957   6.249
 9954SOL    HW230762   5.823   6.084   6.167
 9955SOL     OW30763   6.579   4.643   4.889
 9955SOL    HW130764   6.608   4.579   4.960
 9955SOL    HW230765   6.485   4.623   4.862
 9956SOL     OW30766   1.896   0.176   1.960
 9956SOL    HW130767   1.987   0.136   1.954
 9956SOL    HW230768   1.894   0.263   1.913
 9957SOL     OW30769   6.339   5.714   3.148
 9957SOL    HW130770   6.349   5.811   3.170
 9957SOL    HW230771   6.328   5.662   3.233
 9958SOL     OW30772   3.902   5.156   0.079
 9958SOL    HW130773   3.939   5.239   0.121
 9958SOL    HW230774   3.892   5.085   0.150
 9959SOL     OW30775   4.088   3.637   5.850
 9959SOL    HW130776   4.133   3.588   5.924
 9959SOL    HW230777   4.150   3.706   5.813
 9960SOL     OW30778   6.664   0.263   2.731
 9960SOL    HW130779   6.567   0.283   2.738
 9960SOL    HW230780   6.701   0.245   2.822
 9961SOL     OW30781   2.054   5.595   4.069
 9961SOL    HW130782   2.139   5.559   4.030
 9961SOL    HW230783   2.076   5.671   4.130
 9962SOL     OW30784   6.049   6.834   3.970
 9962SOL    HW130785   5.959   6.824   3.926
 9962SOL    HW230786   6.087   6.924   3.947
 9963SOL     OW30787   3.162   2.492   0.549
 9963SOL    HW130788   3.078   2.440   0.562
 9963SOL    HW230789   3.233   2.432   0.513
 9964SOL     OW30790   4.968   5.693   4.459
 9964SOL    HW130791   4.882   5.708   4.508
 9964SOL    HW230792   5.042   5.677   4.526
 9965SOL     OW30793   4.184   6.481   0.078
 9965SOL    HW130794   4.230   6.391   0.081
 9965SOL    HW230795   4.247   6.548   0.038
 9966SOL     OW30796   1.319   5.000   1.948
 9966SOL    HW130797   1.382   5.068   1.985
 9966SOL    HW230798   1.370   4.935   1.892
 9967SOL     OW30799   1.021   5.537   1.990
 9967SOL    HW130800   0.996   5.463   2.053
 9967SOL    HW230801   0.960   5.535   1.911
 9968SOL     OW30802   3.587   4.069   2.334
 9968SOL    HW130803   3.488   4.081   2.343
 9968SOL    HW230804   3.619   4.117   2.252
 9969SOL     OW30805   1.427   3.698   2.599
 9969SOL    HW130806   1.358   3.757   2.558
 9969SOL    HW230807   1.518   3.723   2.564
 9970SOL     OW30808   4.992   4.247   1.649
 9970SOL    HW130809   4.996   4.342   1.679
 9970SOL    HW230810   5.032   4.240   1.557
 9971SOL     OW30811   1.223   4.731   0.934
 9971SOL    HW130812   1.190   4.680   1.013
 9971SOL    HW230813   1.145   4.758   0.877
 9972SOL     OW30814   5.613   4.456   2.018
 9972SOL    HW130815   5.536   4.518   2.002
 9972SOL    HW230816   5.603   4.412   2.106
 9973SOL     OW30817   5.397   1.408   3.386
 9973SOL    HW130818   5.378   1.321   3.340
 9973SOL    HW230819   5.474   1.453   3.342
 9974SOL     OW30820   1.196   1.066   3.300
 9974SOL    HW130821   1.183   1.143   3.237
 9974SOL    HW230822   1.154   1.087   3.388
 9975SOL     OW30823   6.864   2.784   0.429
 9975SOL    HW130824   6.886   2.746   0.519
 9975SOL    HW230825   6.776   2.747   0.399
 9976SOL     OW30826   0.822   0.038   5.314
 9976SOL    HW130827   0.731   0.064   5.283
 9976SOL    HW230828   0.884   0.116   5.305
 9977SOL     OW30829   6.160   5.028   5.515
 9977SOL    HW130830   6.205   4.943   5.490
 9977SOL    HW230831   6.085   5.046   5.450
 9978SOL     OW30832   0.764   2.073   4.647
 9978SOL    HW130833   0.678   2.122   4.660
 9978SOL    HW230834   0.832   2.108   4.711
 9979SOL     OW30835   6.225   4.459   4.456
 9979SOL    HW130836   6.290   4.511   4.401
 9979SOL    HW230837   6.131   4.483   4.429
 9980SOL     OW30838   3.491   0.227   6.558
 9980SOL    HW130839   3.443   0.291   6.617
 9980SOL    HW230840   3.553   0.277   6.497
 9981SOL     OW30841   3.412   1.571   3.651
 9981SOL    HW130842   3.441   1.633   3.578
 9981SOL    HW230843   3.401   1.479   3.614
 9982SOL     OW30844   6.989   5.763   3.686
 9982SOL    HW130845   6.955   5.852   3.718
 9982SOL    HW230846   6.957   5.691   3.747
 9983SOL     OW30847   6.657   1.182   2.569
 9983SOL    HW130848   6.751   1.212   2.583
 9983SOL    HW230849   6.655   1.084   2.549
 9984SOL     OW30850   2.368   1.833   6.632
 9984SOL    HW130851   2.292   1.898   6.631
 9984SOL    HW230852   2.366   1.779   6.548
 9985SOL     OW30853   1.976   0.883   1.604
 9985SOL    HW130854   2.038   0.907   1.679
 9985SOL    HW230855   1.881   0.893   1.635
 9986SOL     OW30856   5.928   3.983   4.941
 9986SOL    HW130857   5.844   3.967   4.889
 9986SOL    HW230858   5.920   3.942   5.032
 9987SOL     OW30859   5.664   3.655   6.018
 9987SOL    HW130860   5.685   3.747   6.051
 9987SOL    HW230861   5.579   3.624   6.061
 9988SOL     OW30862   6.619   6.714   5.159
 9988SOL    HW130863   6.655   6.795   5.206
 9988SOL    HW230864   6.597   6.644   5.226
 9989SOL     OW30865   0.172   3.129   4.408
 9989SOL    HW130866   0.227   3.193   4.462
 9989SOL    HW230867   0.185   3.147   4.311
 9990SOL     OW30868   1.051   5.087   3.252
 9990SOL    HW130869   1.043   5.002   3.200
 9990SOL    HW230870   1.009   5.076   3.341
 9991SOL     OW30871   3.063   2.198   4.123
 9991SOL    HW130872   3.112   2.145   4.193
 9991SOL    HW230873   3.044   2.289   4.158
 9992SOL     OW30874   5.955   5.074   6.286
 9992SOL    HW130875   5.905   5.030   6.361
 9992SOL    HW230876   6.009   5.005   6.238
 9993SOL     OW30877   2.085   1.832   1.287
 9993SOL    HW130878   2.057   1.818   1.381
 9993SOL    HW230879   2.011   1.807   1.225
 9994SOL     OW30880   5.915   4.505   3.503
 9994SOL    HW130881   5.945   4.553   3.585
 9994SOL    HW230882   5.930   4.563   3.423
 9995SOL     OW30883   5.060   1.400   4.213
 9995SOL    HW130884   5.051   1.304   4.238
 9995SOL    HW230885   5.128   1.409   4.140
 9996SOL     OW30886   3.588   4.428   0.111
 9996SOL    HW130887   3.676   4.381   0.105
 9996SOL    HW230888   3.603   4.525   0.134
 9997SOL     OW30889   2.864   1.017   5.661
 9997SOL    HW130890   2.830   1.087   5.598
 9997SOL    HW230891   2.954   0.985   5.629
 9998SOL     OW30892   6.129   5.026   4.979
 9998SOL    HW130893   6.089   5.105   5.025
 9998SOL    HW230894   6.076   5.003   4.898
 9999SOL     OW30895   6.061   2.712   5.657
 9999SOL    HW130896   6.022   2.794   5.616
 9999SOL    HW230897   6.148   2.735   5.701
10000SOL     OW30898   0.180   2.336   0.330
10000SOL    HW130899   0.193   2.242   0.362
10000SOL    HW230900   0.091   2.369   0.360
10001SOL     OW30901   5.041   0.997   1.917
10001SOL    HW130902   5.065   1.072   1.979
10001SOL    HW230903   4.960   1.022   1.865
10002SOL     OW30904   0.960   0.027   1.901
10002SOL    HW130905   0.880   0.087   1.894
10002SOL    HW230906   1.039   0.072   1.859
10003SOL     OW30907   3.757   2.075   3.530
10003SOL    HW130908   3.803   2.165   3.534
10003SOL    HW230909   3.808   2.010   3.587
10004SOL     OW30910   0.115   2.372   3.263
10004SOL    HW130911   0.088   2.462   3.229
10004SOL    HW230912   0.106   2.369   3.362
10005SOL     OW30913   5.107   0.547   2.976
10005SOL    HW130914   5.116   0.588   3.067
10005SOL    HW230915   5.010   0.541   2.952
10006SOL     OW30916   3.518   0.163   4.533
10006SOL    HW130917   3.582   0.126   4.466
10006SOL    HW230918   3.447   0.096   4.553
10007SOL     OW30919   0.546   2.986   4.545
10007SOL    HW130920   0.596   3.045   4.480
10007SOL    HW230921   0.464   2.950   4.501
10008SOL     OW30922   3.100   0.792   4.487
10008SOL    HW130923   3.164   0.725   4.450
10008SOL    HW230924   3.149   0.876   4.511
10009SOL     OW30925   2.242   3.809   1.883
10009SOL    HW130926   2.222   3.729   1.939
10009SOL    HW230927   2.327   3.794   1.833
10010SOL     OW30928   1.998   1.499   0.177
10010SOL    HW130929   1.995   1.455   0.087
10010SOL    HW230930   2.030   1.593   0.166
10011SOL     OW30931   6.717   6.787   5.418
10011SOL    HW130932   6.654   6.721   5.459
10011SOL    HW230933   6.689   6.880   5.442
10012SOL     OW30934   5.874   1.408   4.168
10012SOL    HW130935   5.806   1.464   4.120
10012SOL    HW230936   5.965   1.447   4.154
10013SOL     OW30937   7.024   0.323   3.035
10013SOL    HW130938   6.963   0.392   3.072
10013SOL    HW230939   0.049   0.361   2.957
10014SOL     OW30940   0.480   4.473   6.281
10014SOL    HW130941   0.485   4.453   6.183
10014SOL    HW230942   0.484   4.388   6.333
10015SOL     OW30943   2.256   4.732   6.775
10015SOL    HW130944   2.261   4.714   6.873
10015SOL    HW230945   2.187   4.673   6.734
10016SOL     OW30946   2.536   1.220   6.552
10016SOL    HW130947   2.596   1.190   6.626
10016SOL    HW230948   2.551   1.318   6.535
10017SOL     OW30949   2.407   1.911   4.684
10017SOL    HW130950   2.395   1.825   4.734
10017SOL    HW230951   2.403   1.987   4.749
10018SOL     OW30952   5.096   0.830   5.760
10018SOL    HW130953   5.031   0.816   5.685
10018SOL    HW230954   5.101   0.747   5.816
10019SOL     OW30955   1.616   0.693   3.202
10019SOL    HW130956   1.535   0.658   3.248
10019SOL    HW230957   1.617   0.793   3.208
10020SOL     OW30958   1.217   2.885   1.027
10020SOL    HW130959   1.147   2.884   1.099
10020SOL    HW230960   1.294   2.942   1.056
10021SOL     OW30961   0.252   3.663   1.198
10021SOL    HW130962   0.189   3.734   1.168
10021SOL    HW230963   0.199   3.586   1.236
10022SOL     OW30964   1.443   2.421   6.666
10022SOL    HW130965   1.439   2.340   6.725
10022SOL    HW230966   1.371   2.415   6.597
10023SOL     OW30967   6.263   3.445   0.607
10023SOL    HW130968   6.334   3.396   0.556
10023SOL    HW230969   6.304   3.493   0.684
10024SOL     OW30970   1.534   4.340   4.086
10024SOL    HW130971   1.524   4.440   4.083
10024SOL    HW230972   1.541   4.305   3.992
10025SOL     OW30973   1.913   1.339   1.567
10025SOL    HW130974   1.882   1.422   1.521
10025SOL    HW230975   1.923   1.356   1.665
10026SOL     OW30976   6.376   0.604   3.177
10026SOL    HW130977   6.370   0.504   3.180
10026SOL    HW230978   6.286   0.644   3.195
10027SOL     OW30979   5.567   3.464   5.011
10027SOL    HW130980   5.532   3.556   5.026
10027SOL    HW230981   5.543   3.406   5.089
10028SOL     OW30982   2.010   1.073   0.257
10028SOL    HW130983   1.957   0.989   0.269
10028SOL    HW230984   1.999   1.107   0.164
10029SOL     OW30985   5.492   1.670   3.739
10029SOL    HW130986   5.545   1.723   3.806
10029SOL    HW230987   5.547   1.653   3.658
10030SOL     OW30988   1.351   0.519   4.189
10030SOL    HW130989   1.362   0.572   4.105
10030SOL    HW230990   1.254   0.499   4.203
10031SOL     OW30991   6.530   4.224   3.469
10031SOL    HW130992   6.587   4.150   3.504
10031SOL    HW230993   6.470   4.258   3.542
10032SOL     OW30994   2.816   1.437   5.268
10032SOL    HW130995   2.916   1.432   5.273
10032SOL    HW230996   2.783   1.513   5.325
10033SOL     OW30997   5.917   3.105   4.573
10033SOL    HW130998   5.896   3.032   4.508
10033SOL    HW230999   5.850   3.178   4.563
10034SOL     OW31000   5.245   0.298   5.280
10034SOL    HW131001   5.263   0.281   5.184
10034SOL    HW231002   5.299   0.235   5.336
10035SOL     OW31003   0.370   5.431   1.256
10035SOL    HW131004   0.464   5.464   1.247
10035SOL    HW231005   0.341   5.390   1.169
10036SOL     OW31006   6.672   1.827   0.014
10036SOL    HW131007   6.718   1.856   6.955
10036SOL    HW231008   6.687   1.729   0.028
10037SOL     OW31009   0.705   0.353   0.009
10037SOL    HW131010   0.637   0.401   6.980
10037SOL    HW231011   0.751   0.284   6.977
10038SOL     OW31012   6.558   6.720   1.116
10038SOL    HW131013   6.535   6.794   1.179
10038SOL    HW231014   6.497   6.725   1.037
10039SOL     OW31015   3.472   0.284   3.853
10039SOL    HW131016   3.568   0.270   3.831
10039SOL    HW231017   3.446   0.222   3.927
10040SOL     OW31018   0.062   3.273   1.074
10040SOL    HW131019   7.012   3.335   1.051
10040SOL    HW231020   0.127   3.270   0.998
10041SOL     OW31021   2.086   6.553   0.248
10041SOL    HW131022   2.106   6.458   0.273
10041SOL    HW231023   2.157   6.613   0.284
10042SOL     OW31024   6.443   2.058   2.869
10042SOL    HW131025   6.445   1.966   2.828
10042SOL    HW231026   6.396   2.054   2.957
10043SOL     OW31027   0.399   1.984   5.801
10043SOL    HW131028   0.347   1.974   5.716
10043SOL    HW231029   0.419   1.894   5.839
10044SOL     OW31030   3.332   2.374   5.580
10044SOL    HW131031   3.343   2.321   5.496
10044SOL    HW231032   3.246   2.426   5.576
10045SOL     OW31033   3.631   1.105   0.628
10045SOL    HW131034   3.722   1.118   0.667
10045SOL    HW231035   3.583   1.033   0.677
10046SOL     OW31036   1.984   5.224   1.466
10046SOL    HW131037   2.052   5.184   1.528
10046SOL    HW231038   1.913   5.270   1.520
10047SOL     OW31039   0.658   3.477   0.053
10047SOL    HW131040   0.599   3.497   7.000
10047SOL    HW231041   0.673   3.378   0.058
10048SOL     OW31042   5.912   6.340   3.069
10048SOL    HW131043   5.849   6.288   3.126
10048SOL    HW231044   5.877   6.343   2.975
10049SOL     OW31045   6.899   0.785   5.645
10049SOL    HW131046   6.928   0.695   5.614
10049SOL    HW231047   6.890   0.846   5.566
10050SOL     OW31048   6.252   3.151   6.216
10050SOL    HW131049   6.323   3.159   6.286
10050SOL    HW231050   6.176   3.212   6.239
10051SOL     OW31051   1.470   3.430   3.673
10051SOL    HW131052   1.478   3.402   3.769
10051SOL    HW231053   1.543   3.386   3.620
10052SOL     OW31054   1.248   0.386   3.059
10052SOL    HW131055   1.155   0.352   3.051
10052SOL    HW231056   1.246   0.485   3.073
10053SOL     OW31057   5.585   5.360   4.852
10053SOL    HW131058   5.492   5.393   4.841
10053SOL    HW231059   5.599   5.280   4.795
10054SOL     OW31060   6.298   4.150   4.874
10054SOL    HW131061   6.258   4.230   4.830
10054SOL    HW231062   6.278   4.152   4.972
10055SOL     OW31063   0.445   2.136   6.328
10055SOL    HW131064   0.397   2.052   6.354
10055SOL    HW231065   0.462   2.134   6.229
10056SOL     OW31066   6.475   2.930   4.199
10056SOL    HW131067   6.556   2.981   4.171
10056SOL    HW231068   6.500   2.860   4.265
10057SOL     OW31069   6.019   5.007   5.757
10057SOL    HW131070   6.076   5.034   5.679
10057SOL    HW231071   6.034   5.071   5.832
10058SOL     OW31072   0.070   4.089   5.092
10058SOL    HW131073   0.117   4.048   5.170
10058SOL    HW231074   7.017   4.031   5.066
10059SOL     OW31075   6.642   0.600   6.904
10059SOL    HW131076   6.549   0.597   6.940
10059SOL    HW231077   6.663   0.513   6.858
10060SOL     OW31078   2.428   2.269   2.078
10060SOL    HW131079   2.513   2.275   2.131
10060SOL    HW231080   2.363   2.212   2.127
10061SOL     OW31081   3.865   0.145   2.484
10061SOL    HW131082   3.790   0.193   2.440
10061SOL    HW231083   3.950   0.163   2.434
10062SOL     OW31084   5.971   0.504   4.434
10062SOL    HW131085   6.039   0.513   4.360
10062SOL    HW231086   5.920   0.589   4.442
10063SOL     OW31087   1.433   2.906   5.324
10063SOL    HW131088   1.333   2.909   5.325
10063SOL    HW231089   1.467   2.903   5.417
10064SOL     OW31090   2.830   6.817   0.621
10064SOL    HW131091   2.855   6.721   0.610
10064SOL    HW231092   2.881   6.856   0.698
10065SOL     OW31093   0.832   1.786   1.894
10065SOL    HW131094   0.778   1.834   1.826
10065SOL    HW231095   0.828   1.687   1.877
10066SOL     OW31096   6.361   3.374   3.546
10066SOL    HW131097   6.340   3.333   3.635
10066SOL    HW231098   6.422   3.452   3.559
10067SOL     OW31099   6.569   2.629   5.264
10067SOL    HW131100   6.604   2.614   5.356
10067SOL    HW231101   6.592   2.721   5.234
10068SOL     OW31102   1.920   2.918   2.879
10068SOL    HW131103   1.849   2.881   2.818
10068SOL    HW231104   2.004   2.934   2.828
10069SOL     OW31105   2.996   5.027   0.902
10069SOL    HW131106   2.901   5.053   0.886
10069SOL    HW231107   3.018   4.946   0.849
10070SOL     OW31108   3.617   6.797   5.879
10070SOL    HW131109   3.618   6.797   5.979
10070SOL    HW231110   3.527   6.825   5.846
10071SOL     OW31111   6.399   0.093   3.751
10071SOL    HW131112   6.496   0.086   3.773
10071SOL    HW231113   6.369   0.009   3.704
10072SOL     OW31114   6.131   3.093   1.686
10072SOL    HW131115   6.189   3.094   1.604
10072SOL    HW231116   6.126   3.000   1.722
10073SOL     OW31117   0.120   4.447   4.118
10073SOL    HW131118   0.206   4.430   4.070
10073SOL    HW231119   0.123   4.402   4.208
10074SOL     OW31120   1.149   5.105   6.915
10074SOL    HW131121   1.150   5.205   6.908
10074SOL    HW231122   1.074   5.077   6.974
10075SOL     OW31123   1.443   3.522   1.900
10075SOL    HW131124   1.420   3.427   1.920
10075SOL    HW231125   1.502   3.525   1.819
10076SOL     OW31126   4.987   5.573   4.216
10076SOL    HW131127   4.968   5.636   4.291
10076SOL    HW231128   4.928   5.492   4.225
10077SOL     OW31129   4.969   3.388   6.398
10077SOL    HW131130   5.055   3.356   6.359
10077SOL    HW231131   4.893   3.343   6.353
10078SOL     OW31132   6.483   5.954   5.090
10078SOL    HW131133   6.563   6.010   5.109
10078SOL    HW231134   6.403   6.013   5.079
10079SOL     OW31135   4.783   2.753   3.636
10079SOL    HW131136   4.803   2.729   3.541
10079SOL    HW231137   4.812   2.678   3.695
10080SOL     OW31138   4.728   1.185   5.697
10080SOL    HW131139   4.734   1.283   5.677
10080SOL    HW231140   4.719   1.134   5.611
10081SOL     OW31141   1.850   4.022   0.720
10081SOL    HW131142   1.906   4.048   0.641
10081SOL    HW231143   1.761   3.989   0.687
10082SOL     OW31144   1.401   4.797   0.691
10082SOL    HW131145   1.391   4.702   0.659
10082SOL    HW231146   1.334   4.814   0.763
10083SOL     OW31147   3.526   4.889   3.332
10083SOL    HW131148   3.614   4.851   3.304
10083SOL    HW231149   3.514   4.979   3.290
10084SOL     OW31150   0.924   1.385   4.836
10084SOL    HW131151   0.915   1.420   4.930
10084SOL    HW231152   0.982   1.447   4.783
10085SOL     OW31153   4.848   6.992   0.388
10085SOL    HW131154   4.883   6.900   0.408
10085SOL    HW231155   4.774   7.013   0.452
10086SOL     OW31156   6.528   6.706   3.626
10086SOL    HW131157   6.540   6.709   3.725
10086SOL    HW231158   6.576   6.628   3.588
10087SOL     OW31159   1.009   6.990   5.773
10087SOL    HW131160   1.104   7.017   5.791
10087SOL    HW231161   1.008   6.918   5.704
10088SOL     OW31162   0.600   2.620   0.523
10088SOL    HW131163   0.527   2.560   0.491
10088SOL    HW231164   0.572   2.715   0.513
10089SOL     OW31165   3.601   1.664   1.614
10089SOL    HW131166   3.649   1.687   1.698
10089SOL    HW231167   3.598   1.565   1.604
10090SOL     OW31168   2.410   5.700   3.108
10090SOL    HW131169   2.349   5.761   3.157
10090SOL    HW231170   2.369   5.609   3.100
10091SOL     OW31171   6.730   4.463   5.056
10091SOL    HW131172   6.699   4.389   4.996
10091SOL    HW231173   6.829   4.455   5.068
10092SOL     OW31174   0.931   1.948   3.450
10092SOL    HW131175   0.945   1.968   3.547
10092SOL    HW231176   0.850   1.997   3.417
10093SOL     OW31177   4.654   4.355   5.697
10093SOL    HW131178   4.629   4.332   5.791
10093SOL    HW231179   4.653   4.454   5.685
10094SOL     OW31180   3.191   1.855   0.654
10094SOL    HW131181   3.116   1.921   0.642
10094SOL    HW231182   3.251   1.887   0.727
10095SOL     OW31183   4.482   2.733   5.375
10095SOL    HW131184   4.530   2.758   5.291
10095SOL    HW231185   4.428   2.811   5.407
10096SOL     OW31186   5.789   2.655   2.506
10096SOL    HW131187   5.696   2.619   2.519
10096SOL    HW231188   5.801   2.683   2.411
10097SOL     OW31189   0.519   1.026   6.521
10097SOL    HW131190   0.566   0.974   6.593
10097SOL    HW231191   0.483   1.110   6.559
10098SOL     OW31192   2.695   5.481   3.834
10098SOL    HW131193   2.661   5.415   3.901
10098SOL    HW231194   2.693   5.441   3.743
10099SOL     OW31195   0.716   5.228   1.422
10099SOL    HW131196   0.639   5.260   1.478
10099SOL    HW231197   0.724   5.129   1.432
10100SOL     OW31198   5.111   5.495   3.966
10100SOL    HW131199   5.067   5.445   3.891
10100SOL    HW231200   5.040   5.531   4.028
10101SOL     OW31201   0.240   2.697   1.557
10101SOL    HW131202   0.285   2.608   1.558
10101SOL    HW231203   0.215   2.721   1.463
10102SOL     OW31204   6.817   5.241   3.315
10102SOL    HW131205   6.816   5.302   3.236
10102SOL    HW231206   6.902   5.188   3.315
10103SOL     OW31207   6.582   5.907   6.245
10103SOL    HW131208   6.502   5.854   6.218
10103SOL    HW231209   6.665   5.858   6.217
10104SOL     OW31210   2.030   0.466   4.303
10104SOL    HW131211   2.053   0.546   4.247
10104SOL    HW231212   2.004   0.496   4.395
10105SOL     OW31213   3.149   0.683   5.807
10105SOL    HW131214   3.244   0.698   5.778
10105SOL    HW231215   3.124   0.748   5.878
10106SOL     OW31216   5.786   4.890   1.577
10106SOL    HW131217   5.743   4.839   1.652
10106SOL    HW231218   5.849   4.958   1.615
10107SOL     OW31219   5.223   4.452   0.054
10107SOL    HW131220   5.278   4.486   7.002
10107SOL    HW231221   5.126   4.461   0.033
10108SOL     OW31222   1.907   2.424   0.555
10108SOL    HW131223   1.966   2.425   0.636
10108SOL    HW231224   1.954   2.375   0.481
10109SOL     OW31225   1.167   2.246   1.616
10109SOL    HW131226   1.074   2.216   1.593
10109SOL    HW231227   1.176   2.251   1.716
10110SOL     OW31228   5.399   5.922   2.764
10110SOL    HW131229   5.468   5.988   2.793
10110SOL    HW231230   5.308   5.954   2.791
10111SOL     OW31231   1.217   3.029   1.900
10111SOL    HW131232   1.273   3.047   1.819
10111SOL    HW231233   1.135   2.978   1.873
10112SOL     OW31234   0.006   2.141   2.791
10112SOL    HW131235   0.098   2.136   2.831
10112SOL    HW231236   0.000   2.222   2.732
10113SOL     OW31237   7.023   0.877   5.877
10113SOL    HW131238   6.993   0.851   5.786
10113SOL    HW231239   0.007   0.976   5.883
10114SOL     OW31240   5.392   1.769   1.439
10114SOL    HW131241   5.306   1.749   1.486
10114SOL    HW231242   5.393   1.724   1.350
10115SOL     OW31243   3.244   2.797   6.363
10115SOL    HW131244   3.282   2.856   6.292
10115SOL    HW231245   3.301   2.715   6.373
10116SOL     OW31246   6.711   0.389   5.141
10116SOL    HW131247   6.678   0.463   5.082
10116SOL    HW231248   6.807   0.404   5.162
10117SOL     OW31249   5.952   5.180   3.273
10117SOL    HW131250   5.961   5.193   3.175
10117SOL    HW231251   6.016   5.240   3.321
10118SOL     OW31252   4.194   5.257   3.332
10118SOL    HW131253   4.288   5.260   3.297
10118SOL    HW231254   4.153   5.348   3.322
10119SOL     OW31255   0.123   5.699   4.951
10119SOL    HW131256   0.209   5.739   4.982
10119SOL    HW231257   0.062   5.772   4.920
10120SOL     OW31258   1.851   3.116   3.094
10120SOL    HW131259   1.762   3.127   3.049
10120SOL    HW231260   1.915   3.071   3.032
10121SOL     OW31261   6.522   4.987   0.994
10121SOL    HW131262   6.440   4.930   0.989
10121SOL    HW231263   6.510   5.069   0.939
10122SOL     OW31264   1.769   0.244   3.800
10122SOL    HW131265   1.735   0.285   3.715
10122SOL    HW231266   1.790   0.148   3.785
10123SOL     OW31267   6.531   5.424   6.835
10123SOL    HW131268   6.588   5.506   6.833
10123SOL    HW231269   6.564   5.362   6.906
10124SOL     OW31270   1.962   5.136   2.632
10124SOL    HW131271   1.951   5.104   2.538
10124SOL    HW231272   1.981   5.058   2.692
10125SOL     OW31273   2.015   1.114   4.802
10125SOL    HW131274   1.974   1.168   4.875
10125SOL    HW231275   1.962   1.030   4.789
10126SOL     OW31276   6.277   6.180   6.368
10126SOL    HW131277   6.262   6.213   6.275
10126SOL    HW231278   6.370   6.202   6.396
10127SOL     OW31279   2.601   0.066   5.970
10127SOL    HW131280   2.507   0.100   5.963
10127SOL    HW231281   2.626   0.017   5.887
10128SOL     OW31282   3.297   2.786   6.937
10128SOL    HW131283   3.294   2.871   6.885
10128SOL    HW231284   3.278   2.709   6.877
10129SOL     OW31285   6.131   1.778   4.811
10129SOL    HW131286   6.145   1.682   4.834
10129SOL    HW231287   6.212   1.813   4.764
10130SOL     OW31288   1.407   0.759   3.609
10130SOL    HW131289   1.420   0.725   3.516
10130SOL    HW231290   1.310   0.781   3.623
10131SOL     OW31291   1.617   6.303   3.854
10131SOL    HW131292   1.622   6.394   3.897
10131SOL    HW231293   1.638   6.233   3.922
10132SOL     OW31294   6.293   0.060   1.574
10132SOL    HW131295   6.205   0.057   1.621
10132SOL    HW231296   6.366   0.030   1.636
10133SOL     OW31297   5.484   6.301   0.160
10133SOL    HW131298   5.473   6.379   0.100
10133SOL    HW231299   5.568   6.311   0.214
10134SOL     OW31300   6.860   6.691   2.296
10134SOL    HW131301   6.900   6.651   2.214
10134SOL    HW231302   6.797   6.765   2.271
10135SOL     OW31303   6.269   0.065   2.634
10135SOL    HW131304   6.207   7.013   2.643
10135SOL    HW231305   6.363   0.031   2.628
10136SOL     OW31306   4.947   2.233   3.593
10136SOL    HW131307   4.932   2.135   3.584
10136SOL    HW231308   4.879   2.283   3.539
10137SOL     OW31309   6.429   5.156   5.542
10137SOL    HW131310   6.339   5.113   5.547
10137SOL    HW231311   6.495   5.100   5.592
10138SOL     OW31312   0.433   2.536   1.096
10138SOL    HW131313   0.347   2.553   1.049
10138SOL    HW231314   0.488   2.472   1.042
10139SOL     OW31315   2.611   3.244   6.593
10139SOL    HW131316   2.537   3.238   6.659
10139SOL    HW231317   2.675   3.168   6.607
10140SOL     OW31318   0.649   6.633   5.761
10140SOL    HW131319   0.583   6.676   5.700
10140SOL    HW231320   0.715   6.701   5.793
10141SOL     OW31321   2.310   2.527   4.257
10141SOL    HW131322   2.310   2.461   4.332
10141SOL    HW231323   2.222   2.522   4.209
10142SOL     OW31324   4.214   6.611   3.571
10142SOL    HW131325   4.177   6.688   3.623
10142SOL    HW231326   4.149   6.535   3.571
10143SOL     OW31327   5.297   2.715   6.486
10143SOL    HW131328   5.253   2.639   6.437
10143SOL    HW231329   5.363   2.679   6.551
10144SOL     OW31330   3.707   6.432   6.875
10144SOL    HW131331   3.803   6.411   6.891
10144SOL    HW231332   3.682   6.516   6.923
10145SOL     OW31333   5.321   6.701   6.378
10145SOL    HW131334   5.357   6.737   6.464
10145SOL    HW231335   5.241   6.753   6.350
10146SOL     OW31336   0.288   2.856   5.024
10146SOL    HW131337   0.232   2.929   4.985
10146SOL    HW231338   0.233   2.772   5.031
10147SOL     OW31339   3.947   5.815   5.759
10147SOL    HW131340   4.032   5.774   5.793
10147SOL    HW231341   3.878   5.744   5.748
10148SOL     OW31342   0.480   4.243   0.604
10148SOL    HW131343   0.524   4.311   0.545
10148SOL    HW231344   0.532   4.235   0.689
10149SOL     OW31345   3.672   3.826   0.977
10149SOL    HW131346   3.698   3.822   1.073
10149SOL    HW231347   3.575   3.801   0.968
10150SOL     OW31348   4.226   4.468   0.646
10150SOL    HW131349   4.308   4.515   0.614
10150SOL    HW231350   4.237   4.370   0.637
10151SOL     OW31351   5.967   6.909   6.069
10151SOL    HW131352   5.978   6.847   5.992
10151SOL    HW231353   5.931   6.997   6.036
10152SOL     OW31354   4.291   0.306   2.328
10152SOL    HW131355   4.361   0.320   2.398
10152SOL    HW231356   4.314   0.361   2.247
10153SOL     OW31357   4.752   4.464   2.403
10153SOL    HW131358   4.705   4.472   2.491
10153SOL    HW231359   4.801   4.548   2.384
10154SOL     OW31360   4.658   5.886   5.969
10154SOL    HW131361   4.655   5.853   6.063
10154SOL    HW231362   4.623   5.980   5.965
10155SOL     OW31363   4.760   1.645   4.745
10155SOL    HW131364   4.791   1.560   4.789
10155SOL    HW231365   4.733   1.626   4.651
10156SOL     OW31366   4.406   2.194   0.236
10156SOL    HW131367   4.446   2.122   0.293
10156SOL    HW231368   4.467   2.214   0.160
10157SOL     OW31369   0.395   4.140   1.463
10157SOL    HW131370   0.482   4.151   1.415
10157SOL    HW231371   0.358   4.049   1.445
10158SOL     OW31372   6.269   4.822   0.474
10158SOL    HW131373   6.193   4.757   0.482
10158SOL    HW231374   6.350   4.774   0.441
10159SOL     OW31375   3.350   2.888   2.225
10159SOL    HW131376   3.434   2.942   2.232
10159SOL    HW231377   3.288   2.932   2.160
10160SOL     OW31378   0.581   5.184   2.545
10160SOL    HW131379   0.576   5.253   2.617
10160SOL    HW231380   0.673   5.145   2.542
10161SOL     OW31381   5.488   3.200   4.817
10161SOL    HW131382   5.570   3.165   4.772
10161SOL    HW231383   5.502   3.295   4.844
10162SOL     OW31384   1.758   2.692   2.153
10162SOL    HW131385   1.709   2.640   2.223
10162SOL    HW231386   1.697   2.712   2.077
10163SOL     OW31387   2.807   5.906   5.018
10163SOL    HW131388   2.724   5.861   4.986
10163SOL    HW231389   2.783   5.991   5.065
10164SOL     OW31390   0.966   1.364   3.743
10164SOL    HW131391   1.019   1.432   3.692
10164SOL    HW231392   0.958   1.394   3.838
10165SOL     OW31393   0.695   3.418   4.099
10165SOL    HW131394   0.717   3.509   4.063
10165SOL    HW231395   0.710   3.417   4.198
10166SOL     OW31396   2.282   0.032   1.488
10166SOL    HW131397   2.252   0.115   1.536
10166SOL    HW231398   2.284   0.049   1.390
10167SOL     OW31399   2.187   1.542   6.525
10167SOL    HW131400   2.194   1.534   6.425
10167SOL    HW231401   2.278   1.560   6.563
10168SOL     OW31402   6.736   0.160   6.665
10168SOL    HW131403   6.676   0.215   6.608
10168SOL    HW231404   6.764   0.078   6.614
10169SOL     OW31405   4.836   3.810   4.043
10169SOL    HW131406   4.752   3.770   4.006
10169SOL    HW231407   4.910   3.744   4.035
10170SOL     OW31408   5.114   5.252   6.673
10170SOL    HW131409   5.065   5.166   6.664
10170SOL    HW231410   5.064   5.312   6.736
10171SOL     OW31411   1.839   4.829   5.143
10171SOL    HW131412   1.874   4.813   5.051
10171SOL    HW231413   1.915   4.831   5.208
10172SOL     OW31414   6.096   0.408   3.040
10172SOL    HW131415   6.169   0.385   3.104
10172SOL    HW231416   6.088   0.337   2.971
10173SOL     OW31417   3.816   4.149   4.868
10173SOL    HW131418   3.829   4.244   4.838
10173SOL    HW231419   3.736   4.111   4.821
10174SOL     OW31420   5.023   5.217   1.834
10174SOL    HW131421   5.053   5.160   1.911
10174SOL    HW231422   4.941   5.266   1.860
10175SOL     OW31423   0.136   0.195   4.162
10175SOL    HW131424   0.168   0.288   4.183
10175SOL    HW231425   0.055   0.175   4.215
10176SOL     OW31426   6.619   1.477   5.390
10176SOL    HW131427   6.718   1.478   5.406
10176SOL    HW231428   6.600   1.514   5.299
10177SOL     OW31429   2.478   1.173   3.425
10177SOL    HW131430   2.430   1.127   3.500
10177SOL    HW231431   2.567   1.206   3.458
10178SOL     OW31432   0.627   1.699   1.232
10178SOL    HW131433   0.664   1.678   1.141
10178SOL    HW231434   0.534   1.733   1.223
10179SOL     OW31435   1.019   3.791   0.800
10179SOL    HW131436   1.002   3.840   0.715
10179SOL    HW231437   1.071   3.708   0.781
10180SOL     OW31438   4.210   6.623   5.854
10180SOL    HW131439   4.270   6.620   5.773
10180SOL    HW231440   4.257   6.580   5.931
10181SOL     OW31441   5.953   3.186   2.292
10181SOL    HW131442   5.857   3.160   2.301
10181SOL    HW231443   5.963   3.284   2.309
10182SOL     OW31444   4.876   1.540   1.320
10182SOL    HW131445   4.891   1.502   1.229
10182SOL    HW231446   4.837   1.631   1.313
10183SOL     OW31447   6.423   1.280   6.165
10183SOL    HW131448   6.514   1.310   6.195
10183SOL    HW231449   6.431   1.194   6.115
10184SOL     OW31450   5.744   1.696   5.904
10184SOL    HW131451   5.737   1.640   5.822
10184SOL    HW231452   5.670   1.764   5.905
10185SOL     OW31453   4.046   5.596   1.684
10185SOL    HW131454   4.032   5.618   1.780
10185SOL    HW231455   4.109   5.518   1.676
10186SOL     OW31456   3.476   3.431   6.465
10186SOL    HW131457   3.451   3.424   6.561
10186SOL    HW231458   3.557   3.489   6.455
10187SOL     OW31459   2.104   4.721   5.688
10187SOL    HW131460   2.073   4.694   5.597
10187SOL    HW231461   2.204   4.731   5.688
10188SOL     OW31462   3.120   0.024   6.217
10188SOL    HW131463   3.130   6.970   6.277
10188SOL    HW231464   3.023   0.037   6.196
10189SOL     OW31465   1.387   1.693   5.683
10189SOL    HW131466   1.486   1.708   5.685
10189SOL    HW231467   1.348   1.718   5.772
10190SOL     OW31468   4.339   4.958   1.397
10190SOL    HW131469   4.313   4.864   1.373
10190SOL    HW231470   4.397   4.956   1.479
10191SOL     OW31471   5.054   6.986   6.571
10191SOL    HW131472   4.958   7.006   6.589
10191SOL    HW231473   5.083   6.909   6.629
10192SOL     OW31474   1.829   1.534   3.829
10192SOL    HW131475   1.857   1.549   3.734
10192SOL    HW231476   1.900   1.481   3.876
10193SOL     OW31477   3.941   3.276   3.673
10193SOL    HW131478   3.912   3.182   3.693
10193SOL    HW231479   4.015   3.302   3.734
10194SOL     OW31480   3.047   0.397   2.970
10194SOL    HW131481   3.063   0.300   2.957
10194SOL    HW231482   3.057   0.444   2.882
10195SOL     OW31483   4.656   6.513   2.769
10195SOL    HW131484   4.709   6.563   2.837
10195SOL    HW231485   4.693   6.533   2.678
10196SOL     OW31486   6.400   2.572   4.266
10196SOL    HW131487   6.399   2.498   4.332
10196SOL    HW231488   6.320   2.564   4.205
10197SOL     OW31489   5.178   0.467   2.165
10197SOL    HW131490   5.234   0.410   2.225
10197SOL    HW231491   5.190   0.439   2.070
10198SOL     OW31492   2.120   0.058   0.738
10198SOL    HW131493   2.124   0.153   0.707
10198SOL    HW231494   2.195   0.041   0.803
10199SOL     OW31495   1.330   1.481   0.951
10199SOL    HW131496   1.315   1.512   1.045
10199SOL    HW231497   1.428   1.481   0.931
10200SOL     OW31498   5.693   3.950   5.451
10200SOL    HW131499   5.715   3.875   5.513
10200SOL    HW231500   5.673   3.914   5.360
10201SOL     OW31501   1.382   5.040   2.814
10201SOL    HW131502   1.429   4.960   2.853
10201SOL    HW231503   1.426   5.066   2.728
10202SOL     OW31504   0.475   3.023   2.427
10202SOL    HW131505   0.390   3.073   2.441
10202SOL    HW231506   0.475   2.940   2.482
10203SOL     OW31507   0.957   3.330   1.899
10203SOL    HW131508   0.955   3.297   1.805
10203SOL    HW231509   1.051   3.334   1.931
10204SOL     OW31510   3.121   4.922   4.415
10204SOL    HW131511   3.209   4.890   4.380
10204SOL    HW231512   3.135   4.970   4.501
10205SOL     OW31513   4.723   1.171   2.658
10205SOL    HW131514   4.684   1.091   2.703
10205SOL    HW231515   4.756   1.235   2.728
10206SOL     OW31516   4.560   7.006   6.049
10206SOL    HW131517   4.471   0.009   6.012
10206SOL    HW231518   4.584   0.039   6.127
10207SOL     OW31519   4.552   0.576   2.874
10207SOL    HW131520   4.496   0.609   2.950
10207SOL    HW231521   4.503   0.592   2.788
10208SOL     OW31522   5.977   4.035   5.410
10208SOL    HW131523   6.043   3.986   5.466
10208SOL    HW231524   5.884   4.008   5.436
10209SOL     OW31525   5.405   0.012   6.458
10209SOL    HW131526   5.310   7.005   6.464
10209SOL    HW231527   5.462   6.982   6.518
10210SOL     OW31528   5.101   5.632   1.665
10210SOL    HW131529   5.163   5.710   1.673
10210SOL    HW231530   5.146   5.550   1.700
10211SOL     OW31531   3.764   5.372   5.132
10211SOL    HW131532   3.786   5.469   5.124
10211SOL    HW231533   3.781   5.326   5.045
10212SOL     OW31534   6.147   6.788   5.173
10212SOL    HW131535   6.236   6.822   5.142
10212SOL    HW231536   6.078   6.809   5.104
10213SOL     OW31537   5.798   0.565   3.463
10213SOL    HW131538   5.755   0.648   3.428
10213SOL    HW231539   5.868   0.534   3.398
10214SOL     OW31540   6.972   0.051   2.111
10214SOL    HW131541   0.040   0.060   2.145
10214SOL    HW231542   6.931   0.142   2.100
10215SOL     OW31543   3.958   2.956   0.178
10215SOL    HW131544   3.955   2.858   0.162
10215SOL    HW231545   3.865   2.993   0.177
10216SOL     OW31546   4.720   0.272   1.544
10216SOL    HW131547   4.630   0.237   1.570
10216SOL    HW231548   4.788   0.199   1.554
10217SOL     OW31549   3.098   1.437   5.240
10217SOL    HW131550   3.140   1.521   5.206
10217SOL    HW231551   3.099   1.437   5.340
10218SOL     OW31552   1.819   2.393   1.054
10218SOL    HW131553   1.851   2.305   1.088
10218SOL    HW231554   1.812   2.457   1.130
10219SOL     OW31555   0.990   3.798   0.095
10219SOL    HW131556   0.925   3.858   0.049
10219SOL    HW231557   0.999   3.713   0.043
10220SOL     OW31558   4.151   2.023   0.777
10220SOL    HW131559   4.185   2.042   0.870
10220SOL    HW231560   4.185   1.933   0.748
10221SOL     OW31561   3.060   0.470   5.042
10221SOL    HW131562   3.110   0.539   4.989
10221SOL    HW231563   3.094   0.469   5.136
10222SOL     OW31564   1.628   5.751   5.684
10222SOL    HW131565   1.642   5.812   5.606
10222SOL    HW231566   1.615   5.805   5.767
10223SOL     OW31567   6.874   4.633   0.337
10223SOL    HW131568   6.815   4.626   0.257
10223SOL    HW231569   6.947   4.700   0.320
10224SOL     OW31570   1.819   6.830   4.069
10224SOL    HW131571   1.730   6.861   4.102
10224SOL    HW231572   1.835   6.736   4.101
10225SOL     OW31573   6.108   6.264   4.674
10225SOL    HW131574   6.123   6.212   4.590
10225SOL    HW231575   6.016   6.244   4.709
10226SOL     OW31576   0.753   1.984   1.088
10226SOL    HW131577   0.740   1.888   1.066
10226SOL    HW231578   0.827   2.021   1.031
10227SOL     OW31579   5.587   5.377   6.422
10227SOL    HW131580   5.533   5.301   6.386
10227SOL    HW231581   5.646   5.413   6.349
10228SOL     OW31582   0.635   4.576   3.018
10228SOL    HW131583   0.651   4.663   2.972
10228SOL    HW231584   0.578   4.518   2.961
10229SOL     OW31585   1.579   0.330   2.331
10229SOL    HW131586   1.583   0.426   2.303
10229SOL    HW231587   1.513   0.319   2.405
10230SOL     OW31588   6.645   0.042   3.887
10230SOL    HW131589   6.721   0.056   3.824
10230SOL    HW231590   6.681   0.030   3.980
10231SOL     OW31591   5.244   6.846   4.102
10231SOL    HW131592   5.299   6.914   4.053
10231SOL    HW231593   5.238   6.871   4.199
10232SOL     OW31594   3.598   1.995   4.609
10232SOL    HW131595   3.565   1.904   4.634
10232SOL    HW231596   3.689   2.009   4.648
10233SOL     OW31597   4.582   0.928   6.002
10233SOL    HW131598   4.584   0.987   6.082
10233SOL    HW231599   4.670   0.934   5.954
10234SOL     OW31600   5.555   6.401   1.631
10234SOL    HW131601   5.618   6.329   1.658
10234SOL    HW231602   5.521   6.383   1.539
10235SOL     OW31603   5.303   1.295   6.272
10235SOL    HW131604   5.342   1.375   6.225
10235SOL    HW231605   5.313   1.215   6.213
10236SOL     OW31606   2.201   5.682   2.469
10236SOL    HW131607   2.209   5.614   2.396
10236SOL    HW231608   2.243   5.768   2.440
10237SOL     OW31609   6.691   2.611   2.801
10237SOL    HW131610   6.746   2.539   2.843
10237SOL    HW231611   6.679   2.591   2.704
10238SOL     OW31612   5.094   4.897   4.303
10238SOL    HW131613   5.024   4.964   4.277
10238SOL    HW231614   5.051   4.817   4.344
10239SOL     OW31615   0.142   4.042   3.358
10239SOL    HW131616   0.223   3.992   3.327
10239SOL    HW231617   0.163   4.092   3.442
10240SOL     OW31618   6.982   3.843   3.498
10240SOL    HW131619   6.900   3.846   3.441
10240SOL    HW231620   0.024   3.908   3.462
10241SOL     OW31621   2.418   0.974   2.780
10241SOL    HW131622   2.433   1.063   2.739
10241SOL    HW231623   2.433   0.980   2.879
10242SOL     OW31624   0.556   6.155   6.233
10242SOL    HW131625   0.526   6.132   6.141
10242SOL    HW231626   0.642   6.205   6.229
10243SOL     OW31627   1.585   5.657   2.391
10243SOL    HW131628   1.679   5.646   2.424
10243SOL    HW231629   1.521   5.633   2.464
10244SOL     OW31630   2.299   6.582   6.614
10244SOL    HW131631   2.269   6.612   6.705
10244SOL    HW231632   2.248   6.633   6.544
10245SOL     OW31633   2.037   2.224   6.904
10245SOL    HW131634   1.964   2.165   6.869
10245SOL    HW231635   2.117   2.167   6.925
10246SOL     OW31636   3.949   3.599   4.241
10246SOL    HW131637   4.034   3.557   4.270
10246SOL    HW231638   3.882   3.527   4.221
10247SOL     OW31639   1.269   5.607   5.497
10247SOL    HW131640   1.334   5.534   5.474
10247SOL    HW231641   1.275   5.627   5.594
10248SOL     OW31642   4.417   0.235   1.526
10248SOL    HW131643   4.406   0.322   1.479
10248SOL    HW231644   4.373   0.239   1.616
10249SOL     OW31645   4.102   1.208   0.156
10249SOL    HW131646   4.179   1.152   0.127
10249SOL    HW231647   4.053   1.242   0.076
10250SOL     OW31648   6.638   0.829   0.056
10250SOL    HW131649   6.572   0.850   7.009
10250SOL    HW231650   6.672   0.736   0.045
10251SOL     OW31651   3.530   4.460   6.836
10251SOL    HW131652   3.558   4.536   6.778
10251SOL    HW231653   3.581   4.462   6.922
10252SOL     OW31654   6.847   5.214   2.032
10252SOL    HW131655   6.833   5.308   2.000
10252SOL    HW231656   6.896   5.162   1.962
10253SOL     OW31657   3.778   5.467   6.466
10253SOL    HW131658   3.731   5.449   6.553
10253SOL    HW231659   3.852   5.402   6.454
10254SOL     OW31660   2.560   2.099   4.910
10254SOL    HW131661   2.617   2.153   4.848
10254SOL    HW231662   2.559   2.143   5.000
10255SOL     OW31663   2.921   5.566   2.954
10255SOL    HW131664   2.890   5.471   2.958
10255SOL    HW231665   2.856   5.625   3.002
10256SOL     OW31666   5.791   6.494   0.090
10256SOL    HW131667   5.778   6.414   0.033
10256SOL    HW231668   5.863   6.552   0.051
10257SOL     OW31669   1.650   6.049   6.211
10257SOL    HW131670   1.552   6.049   6.234
10257SOL    HW231671   1.702   6.091   6.286
10258SOL     OW31672   4.391   0.934   3.143
10258SOL    HW131673   4.393   0.986   3.057
10258SOL    HW231674   4.403   0.997   3.220
10259SOL     OW31675   0.807   4.241   2.787
10259SOL    HW131676   0.740   4.189   2.839
10259SOL    HW231677   0.849   4.182   2.718
10260SOL     OW31678   0.657   6.899   1.366
10260SOL    HW131679   0.564   6.919   1.337
10260SOL    HW231680   0.675   6.941   1.455
10261SOL     OW31681   1.411   6.628   1.779
10261SOL    HW131682   1.369   6.718   1.793
10261SOL    HW231683   1.445   6.622   1.685
10262SOL     OW31684   1.597   5.482   5.350
10262SOL    HW131685   1.674   5.431   5.313
10262SOL    HW231686   1.515   5.465   5.294
10263SOL     OW31687   6.176   2.219   6.531
10263SOL    HW131688   6.133   2.130   6.544
10263SOL    HW231689   6.197   2.233   6.434
10264SOL     OW31690   0.241   6.885   6.508
10264SOL    HW131691   0.333   6.864   6.540
10264SOL    HW231692   0.189   6.927   6.581
10265SOL     OW31693   4.110   1.782   1.848
10265SOL    HW131694   4.031   1.833   1.814
10265SOL    HW231695   4.178   1.774   1.774
10266SOL     OW31696   3.521   4.104   6.249
10266SOL    HW131697   3.495   4.115   6.345
10266SOL    HW231698   3.618   4.123   6.238
10267SOL     OW31699   6.616   1.933   6.598
10267SOL    HW131700   6.560   1.988   6.659
10267SOL    HW231701   6.624   1.840   6.635
10268SOL     OW31702   6.781   4.973   1.782
10268SOL    HW131703   6.754   4.993   1.876
10268SOL    HW231704   6.781   4.874   1.767
10269SOL     OW31705   2.895   2.859   5.790
10269SOL    HW131706   2.971   2.861   5.725
10269SOL    HW231707   2.929   2.830   5.880
10270SOL     OW31708   2.084   5.838   0.679
10270SOL    HW131709   2.170   5.820   0.630
10270SOL    HW231710   2.102   5.896   0.758
10271SOL     OW31711   4.381   4.941   0.850
10271SOL    HW131712   4.343   4.967   0.939
10271SOL    HW231713   4.461   4.882   0.863
10272SOL     OW31714   0.671   1.072   6.166
10272SOL    HW131715   0.634   0.980   6.154
10272SOL    HW231716   0.681   1.115   6.076
10273SOL     OW31717   4.736   6.152   4.780
10273SOL    HW131718   4.758   6.126   4.686
10273SOL    HW231719   4.668   6.226   4.779
10274SOL     OW31720   1.430   6.383   5.720
10274SOL    HW131721   1.399   6.389   5.815
10274SOL    HW231722   1.496   6.308   5.712
10275SOL     OW31723   1.174   6.519   1.965
10275SOL    HW131724   1.097   6.538   1.904
10275SOL    HW231725   1.180   6.421   1.981
10276SOL     OW31726   6.196   5.474   6.649
10276SOL    HW131727   6.260   5.422   6.592
10276SOL    HW231728   6.212   5.453   6.745
10277SOL     OW31729   1.796   5.553   3.421
10277SOL    HW131730   1.822   5.628   3.360
10277SOL    HW231731   1.877   5.497   3.441
10278SOL     OW31732   5.926   0.250   5.739
10278SOL    HW131733   5.934   0.349   5.721
10278SOL    HW231734   5.993   0.201   5.683
10279SOL     OW31735   3.874   0.115   3.689
10279SOL    HW131736   3.924   0.055   3.626
10279SOL    HW231737   3.785   0.074   3.710
10280SOL     OW31738   2.746   3.852   6.454
10280SOL    HW131739   2.746   3.903   6.367
10280SOL    HW231740   2.791   3.764   6.440
10281SOL     OW31741   4.229   0.139   4.094
10281SOL    HW131742   4.283   0.177   4.169
10281SOL    HW231743   4.189   0.213   4.040
10282SOL     OW31744   0.757   1.631   4.812
10282SOL    HW131745   0.757   1.538   4.775
10282SOL    HW231746   0.677   1.643   4.872
10283SOL     OW31747   0.691   3.823   6.378
10283SOL    HW131748   0.713   3.844   6.473
10283SOL    HW231749   0.759   3.760   6.341
10284SOL     OW31750   5.426   2.951   5.834
10284SOL    HW131751   5.447   2.888   5.908
10284SOL    HW231752   5.433   2.904   5.746
10285SOL     OW31753   5.946   6.503   0.830
10285SOL    HW131754   5.975   6.588   0.786
10285SOL    HW231755   5.982   6.500   0.923
10286SOL     OW31756   4.241   1.008   3.959
10286SOL    HW131757   4.259   1.043   3.867
10286SOL    HW231758   4.202   1.082   4.015
10287SOL     OW31759   2.941   5.838   1.653
10287SOL    HW131760   2.899   5.747   1.659
10287SOL    HW231761   2.957   5.873   1.745
10288SOL     OW31762   5.394   6.505   4.213
10288SOL    HW131763   5.316   6.461   4.168
10288SOL    HW231764   5.399   6.472   4.308
10289SOL     OW31765   2.981   0.867   1.836
10289SOL    HW131766   2.955   0.837   1.744
10289SOL    HW231767   3.023   0.957   1.831
10290SOL     OW31768   3.380   3.653   1.899
10290SOL    HW131769   3.350   3.748   1.883
10290SOL    HW231770   3.480   3.650   1.902
10291SOL     OW31771   3.827   7.023   5.520
10291SOL    HW131772   3.731   0.025   5.523
10291SOL    HW231773   3.840   6.954   5.449
10292SOL     OW31774   0.417   0.998   4.567
10292SOL    HW131775   0.476   0.918   4.575
10292SOL    HW231776   0.468   1.073   4.525
10293SOL     OW31777   2.273   6.185   3.386
10293SOL    HW131778   2.353   6.140   3.427
10293SOL    HW231779   2.214   6.220   3.459
10294SOL     OW31780   5.878   1.562   3.283
10294SOL    HW131781   5.854   1.658   3.266
10294SOL    HW231782   5.940   1.556   3.362
10295SOL     OW31783   0.725   5.460   5.862
10295SOL    HW131784   0.692   5.554   5.870
10295SOL    HW231785   0.821   5.460   5.835
10296SOL     OW31786   6.291   2.127   0.670
10296SOL    HW131787   6.303   2.086   0.579
10296SOL    HW231788   6.193   2.138   0.689
10297SOL     OW31789   1.912   5.404   4.663
10297SOL    HW131790   1.902   5.316   4.616
10297SOL    HW231791   1.939   5.388   4.758
10298SOL     OW31792   4.870   3.265   3.622
10298SOL    HW131793   4.893   3.193   3.557
10298SOL    HW231794   4.873   3.354   3.577
10299SOL     OW31795   4.883   4.814   2.661
10299SOL    HW131796   4.843   4.747   2.724
10299SOL    HW231797   4.934   4.882   2.714
10300SOL     OW31798   1.425   4.590   2.774
10300SOL    HW131799   1.341   4.560   2.819
10300SOL    HW231800   1.483   4.511   2.756
10301SOL     OW31801   5.642   1.239   1.368
10301SOL    HW131802   5.707   1.290   1.311
10301SOL    HW231803   5.680   1.229   1.460
10302SOL     OW31804   1.727   5.236   3.237
10302SOL    HW131805   1.729   5.213   3.140
10302SOL    HW231806   1.818   5.263   3.268
10303SOL     OW31807   3.227   2.896   1.095
10303SOL    HW131808   3.257   2.965   1.161
10303SOL    HW231809   3.260   2.806   1.125
10304SOL     OW31810   6.154   6.589   3.980
10304SOL    HW131811   6.117   6.683   3.979
10304SOL    HW231812   6.251   6.592   4.002
10305SOL     OW31813   1.709   5.620   0.875
10305SOL    HW131814   1.724   5.716   0.851
10305SOL    HW231815   1.636   5.614   0.944
10306SOL     OW31816   4.569   5.713   6.870
10306SOL    HW131817   4.653   5.709   6.816
10306SOL    HW231818   4.572   5.644   6.942
10307SOL     OW31819   2.399   1.431   5.475
10307SOL    HW131820   2.460   1.434   5.554
10307SOL    HW231821   2.312   1.389   5.501
10308SOL     OW31822   3.365   5.886   4.032
10308SOL    HW131823   3.387   5.793   4.001
10308SOL    HW231824   3.307   5.881   4.114
10309SOL     OW31825   0.289   6.523   3.565
10309SOL    HW131826   0.223   6.596   3.548
10309SOL    HW231827   0.288   6.498   3.662
10310SOL     OW31828   4.112   3.356   3.865
10310SOL    HW131829   4.055   3.436   3.882
10310SOL    HW231830   4.160   3.329   3.949
10311SOL     OW31831   6.968   6.164   0.555
10311SOL    HW131832   7.020   6.205   0.480
10311SOL    HW231833   7.021   6.090   0.596
10312SOL     OW31834   2.006   4.644   1.158
10312SOL    HW131835   1.971   4.613   1.070
10312SOL    HW231836   1.961   4.592   1.231
10313SOL     OW31837   5.091   6.447   3.383
10313SOL    HW131838   5.010   6.431   3.439
10313SOL    HW231839   5.066   6.497   3.300
10314SOL     OW31840   6.495   5.944   0.064
10314SOL    HW131841   6.502   5.878   0.140
10314SOL    HW231842   6.483   5.894   7.004
10315SOL     OW31843   6.223   5.710   4.623
10315SOL    HW131844   6.241   5.613   4.610
10315SOL    HW231845   6.189   5.726   4.715
10316SOL     OW31846   6.864   3.924   2.268
10316SOL    HW131847   6.798   3.868   2.216
10316SOL    HW231848   6.815   3.992   2.322
10317SOL     OW31849   3.566   4.635   0.892
10317SOL    HW131850   3.535   4.719   0.849
10317SOL    HW231851   3.512   4.558   0.857
10318SOL     OW31852   6.583   6.053   2.073
10318SOL    HW131853   6.555   6.007   2.157
10318SOL    HW231854   6.676   6.086   2.082
10319SOL     OW31855   5.667   6.950   3.896
10319SOL    HW131856   5.587   7.010   3.896
10319SOL    HW231857   5.709   6.950   3.805
10320SOL     OW31858   5.232   6.751   1.324
10320SOL    HW131859   5.320   6.704   1.327
10320SOL    HW231860   5.242   6.836   1.272
10321SOL     OW31861   3.735   5.845   4.408
10321SOL    HW131862   3.801   5.921   4.402
10321SOL    HW231863   3.718   5.809   4.316
10322SOL     OW31864   6.302   2.620   0.267
10322SOL    HW131865   6.235   2.562   0.221
10322SOL    HW231866   6.381   2.565   0.292
10323SOL     OW31867   6.104   2.773   5.015
10323SOL    HW131868   6.020   2.768   5.069
10323SOL    HW231869   6.086   2.821   4.929
10324SOL     OW31870   2.889   3.541   3.810
10324SOL    HW131871   2.839   3.547   3.724
10324SOL    HW231872   2.876   3.625   3.862
10325SOL     OW31873   0.768   3.888   2.630
10325SOL    HW131874   0.707   3.824   2.583
10325SOL    HW231875   0.807   3.952   2.563
10326SOL     OW31876   5.487   1.665   1.144
10326SOL    HW131877   5.480   1.567   1.164
10326SOL    HW231878   5.520   1.676   1.050
10327SOL     OW31879   0.239   0.623   4.029
10327SOL    HW131880   0.247   0.722   4.040
10327SOL    HW231881   0.164   0.602   3.966
10328SOL     OW31882   6.062   2.561   2.070
10328SOL    HW131883   6.035   2.466   2.053
10328SOL    HW231884   6.009   2.622   2.012
10329SOL     OW31885   3.815   6.672   2.234
10329SOL    HW131886   3.822   6.651   2.136
10329SOL    HW231887   3.830   6.769   2.249
10330SOL     OW31888   3.780   5.115   1.528
10330SOL    HW131889   3.857   5.081   1.582
10330SOL    HW231890   3.694   5.086   1.571
10331SOL     OW31891   5.886   0.540   3.733
10331SOL    HW131892   5.885   0.553   3.634
10331SOL    HW231893   5.909   0.445   3.754
10332SOL     OW31894   0.311   2.364   6.367
10332SOL    HW131895   0.348   2.277   6.334
10332SOL    HW231896   0.336   2.377   6.462
10333SOL     OW31897   4.684   4.312   4.750
10333SOL    HW131898   4.631   4.274   4.825
10333SOL    HW231899   4.656   4.406   4.733
10334SOL     OW31900   1.163   4.568   5.566
10334SOL    HW131901   1.116   4.533   5.484
10334SOL    HW231902   1.240   4.625   5.538
10335SOL     OW31903   2.059   5.524   1.970
10335SOL    HW131904   2.029   5.429   1.967
10335SOL    HW231905   1.984   5.582   2.001
10336SOL     OW31906   4.388   6.792   2.903
10336SOL    HW131907   4.298   6.762   2.936
10336SOL    HW231908   4.395   6.773   2.806
10337SOL     OW31909   0.353   5.433   5.034
10337SOL    HW131910   0.332   5.528   5.012
10337SOL    HW231911   0.389   5.428   5.128
10338SOL     OW31912   3.735   5.565   3.380
10338SOL    HW131913   3.641   5.595   3.391
10338SOL    HW231914   3.797   5.633   3.422
10339SOL     OW31915   3.247   5.555   0.645
10339SOL    HW131916   3.225   5.511   0.558
10339SOL    HW231917   3.208   5.502   0.720
10340SOL     OW31918   1.980   6.962   6.993
10340SOL    HW131919   2.068   7.010   6.998
10340SOL    HW231920   1.981   6.883   0.028
10341SOL     OW31921   1.935   1.372   2.480
10341SOL    HW131922   1.836   1.371   2.493
10341SOL    HW231923   1.973   1.458   2.515
10342SOL     OW31924   2.582   6.344   4.453
10342SOL    HW131925   2.644   6.325   4.377
10342SOL    HW231926   2.488   6.325   4.425
10343SOL     OW31927   2.177   3.150   4.916
10343SOL    HW131928   2.079   3.137   4.927
10343SOL    HW231929   2.226   3.090   4.980
10344SOL     OW31930   3.927   4.469   5.982
10344SOL    HW131931   3.840   4.518   5.975
10344SOL    HW231932   3.910   4.371   5.977
10345SOL     OW31933   1.636   1.984   6.525
10345SOL    HW131934   1.654   2.082   6.531
10345SOL    HW231935   1.592   1.964   6.438
10346SOL     OW31936   5.242   5.459   7.025
10346SOL    HW131937   5.289   5.412   6.950
10346SOL    HW231938   5.152   5.489   6.995
10347SOL     OW31939   5.068   2.376   1.788
10347SOL    HW131940   5.161   2.364   1.822
10347SOL    HW231941   5.017   2.291   1.799
10348SOL     OW31942   0.033   5.375   5.752
10348SOL    HW131943   6.981   5.322   5.788
10348SOL    HW231944   0.110   5.368   5.814
10349SOL     OW31945   0.069   1.367   0.631
10349SOL    HW131946   0.044   1.306   0.556
10349SOL    HW231947   7.016   1.380   0.692
10350SOL     OW31948   2.180   4.076   4.662
10350SOL    HW131949   2.140   4.045   4.748
10350SOL    HW231950   2.258   4.136   4.681
10351SOL     OW31951   4.575   4.632   5.146
10351SOL    HW131952   4.516   4.585   5.080
10351SOL    HW231953   4.632   4.698   5.097
10352SOL     OW31954   5.457   1.588   7.018
10352SOL    HW131955   5.506   1.503   7.002
10352SOL    HW231956   5.455   1.608   0.090
10353SOL     OW31957   6.805   2.378   3.488
10353SOL    HW131958   6.810   2.323   3.404
10353SOL    HW231959   6.749   2.330   3.556
10354SOL     OW31960   6.904   3.073   1.244
10354SOL    HW131961   6.884   2.987   1.197
10354SOL    HW231962   6.984   3.115   1.203
10355SOL     OW31963   0.409   1.724   0.958
10355SOL    HW131964   0.480   1.671   0.911
10355SOL    HW231965   0.366   1.667   1.028
10356SOL     OW31966   6.122   3.359   5.987
10356SOL    HW131967   6.110   3.341   6.085
10356SOL    HW231968   6.052   3.424   5.956
10357SOL     OW31969   0.789   1.966   6.036
10357SOL    HW131970   0.816   1.961   6.132
10357SOL    HW231971   0.823   2.051   5.996
10358SOL     OW31972   0.800   1.924   3.128
10358SOL    HW131973   0.815   1.916   3.226
10358SOL    HW231974   0.804   2.020   3.101
10359SOL     OW31975   6.578   2.428   1.844
10359SOL    HW131976   6.551   2.523   1.827
10359SOL    HW231977   6.518   2.389   1.914
10360SOL     OW31978   6.101   4.621   2.033
10360SOL    HW131979   6.124   4.644   1.938
10360SOL    HW231980   6.100   4.704   2.088
10361SOL     OW31981   0.534   1.326   1.693
10361SOL    HW131982   0.553   1.269   1.613
10361SOL    HW231983   0.463   1.282   1.749
10362SOL     OW31984   1.257   5.652   1.502
10362SOL    HW131985   1.265   5.751   1.494
10362SOL    HW231986   1.328   5.618   1.565
10363SOL     OW31987   5.566   4.114   6.454
10363SOL    HW131988   5.477   4.135   6.493
10363SOL    HW231989   5.574   4.157   6.364
10364SOL     OW31990   5.975   4.540   2.461
10364SOL    HW131991   5.924   4.464   2.420
10364SOL    HW231992   5.984   4.614   2.394
10365SOL     OW31993   5.374   5.646   0.169
10365SOL    HW131994   5.461   5.674   0.129
10365SOL    HW231995   5.333   5.573   0.114
10366SOL     OW31996   2.703   5.680   3.533
10366SOL    HW131997   2.772   5.752   3.535
10366SOL    HW231998   2.619   5.713   3.576
10367SOL     OW31999   5.900   0.260   1.721
10367SOL    HW132000   5.815   0.305   1.747
10367SOL    HW232001   5.891   0.224   1.628
10368SOL     OW32002   2.230   6.185   2.382
10368SOL    HW132003   2.317   6.228   2.408
10368SOL    HW232004   2.155   6.233   2.428
10369SOL     OW32005   3.035   0.299   6.153
10369SOL    HW132006   3.005   0.327   6.244
10369SOL    HW232007   3.075   0.208   6.157
10370SOL     OW32008   0.969   0.666   6.100
10370SOL    HW132009   0.870   0.659   6.109
10370SOL    HW232010   1.001   0.752   6.141
10371SOL     OW32011   4.195   5.277   3.046
10371SOL    HW132012   4.193   5.186   3.088
10371SOL    HW232013   4.119   5.285   2.982
10372SOL     OW32014   2.855   6.442   2.012
10372SOL    HW132015   2.854   6.350   2.050
10372SOL    HW232016   2.949   6.465   1.984
10373SOL     OW32017   0.275   1.241   5.814
10373SOL    HW132018   0.282   1.181   5.734
10373SOL    HW232019   0.190   1.222   5.862
10374SOL     OW32020   3.986   5.417   3.596
10374SOL    HW132021   3.946   5.505   3.622
10374SOL    HW232022   4.058   5.433   3.528
10375SOL     OW32023   2.368   4.115   0.294
10375SOL    HW132024   2.323   4.145   0.210
10375SOL    HW232025   2.455   4.162   0.305
10376SOL     OW32026   1.646   4.453   3.330
10376SOL    HW132027   1.622   4.482   3.238
10376SOL    HW232028   1.581   4.384   3.362
10377SOL     OW32029   1.608   0.614   2.309
10377SOL    HW132030   1.564   0.687   2.361
10377SOL    HW232031   1.669   0.655   2.241
10378SOL     OW32032   0.117   4.681   4.002
10378SOL    HW132033   0.195   4.666   3.942
10378SOL    HW232034   0.119   4.613   4.076
10379SOL     OW32035   1.482   6.549   4.383
10379SOL    HW132036   1.542   6.609   4.437
10379SOL    HW232037   1.490   6.455   4.418
10380SOL     OW32038   2.404   2.301   4.678
10380SOL    HW132039   2.450   2.241   4.613
10380SOL    HW232040   2.468   2.370   4.712
10381SOL     OW32041   4.211   5.406   2.235
10381SOL    HW132042   4.132   5.402   2.296
10381SOL    HW232043   4.228   5.316   2.195
10382SOL     OW32044   4.019   5.860   2.209
10382SOL    HW132045   4.080   5.784   2.188
10382SOL    HW232046   4.001   5.913   2.125
10383SOL     OW32047   1.769   3.754   0.439
10383SOL    HW132048   1.738   3.849   0.447
10383SOL    HW232049   1.864   3.753   0.408
10384SOL     OW32050   5.779   6.584   1.612
10384SOL    HW132051   5.694   6.535   1.634
10384SOL    HW232052   5.818   6.545   1.529
10385SOL     OW32053   4.589   4.951   6.544
10385SOL    HW132054   4.646   4.988   6.470
10385SOL    HW232055   4.627   4.864   6.574
10386SOL     OW32056   6.833   1.118   0.367
10386SOL    HW132057   6.757   1.161   0.319
10386SOL    HW232058   6.833   1.020   0.348
10387SOL     OW32059   5.139   2.945   2.149
10387SOL    HW132060   5.083   2.953   2.066
10387SOL    HW232061   5.228   2.905   2.125
10388SOL     OW32062   2.856   0.785   6.040
10388SOL    HW132063   2.911   0.863   6.071
10388SOL    HW232064   2.808   0.809   5.956
10389SOL     OW32065   0.747   3.664   0.487
10389SOL    HW132066   0.687   3.617   0.423
10389SOL    HW232067   0.695   3.692   0.568
10390SOL     OW32068   2.088   2.300   1.955
10390SOL    HW132069   2.164   2.252   1.911
10390SOL    HW232070   2.042   2.358   1.887
10391SOL     OW32071   5.610   6.733   4.571
10391SOL    HW132072   5.636   6.647   4.613
10391SOL    HW232073   5.674   6.805   4.599
10392SOL     OW32074   6.873   4.449   3.993
10392SOL    HW132075   6.845   4.434   3.898
10392SOL    HW232076   6.968   4.419   4.005
10393SOL     OW32077   1.444   3.989   3.247
10393SOL    HW132078   1.404   4.070   3.291
10393SOL    HW232079   1.372   3.922   3.230
10394SOL     OW32080   3.249   6.487   4.437
10394SOL    HW132081   3.180   6.466   4.507
10394SOL    HW232082   3.256   6.586   4.427
10395SOL     OW32083   0.234   0.309   0.647
10395SOL    HW132084   0.319   0.255   0.654
10395SOL    HW232085   0.195   0.319   0.739
10396SOL     OW32086   3.025   1.760   4.639
10396SOL    HW132087   2.998   1.826   4.709
10396SOL    HW232088   3.096   1.699   4.677
10397SOL     OW32089   3.067   2.219   2.628
10397SOL    HW132090   3.086   2.129   2.667
10397SOL    HW232091   3.096   2.289   2.693
10398SOL     OW32092   0.008   2.515   1.142
10398SOL    HW132093   6.965   2.446   1.119
10398SOL    HW232094   0.080   2.473   1.198
10399SOL     OW32095   6.434   3.610   1.574
10399SOL    HW132096   6.357   3.564   1.619
10399SOL    HW232097   6.410   3.705   1.555
10400SOL     OW32098   4.018   0.101   0.759
10400SOL    HW132099   4.042   0.036   0.832
10400SOL    HW232100   3.921   0.127   0.768
10401SOL     OW32101   7.009   0.440   5.122
10401SOL    HW132102   0.025   0.511   5.065
10401SOL    HW232103   6.990   0.477   5.213
10402SOL     OW32104   6.822   2.821   4.496
10402SOL    HW132105   6.732   2.797   4.460
10402SOL    HW232106   6.878   2.739   4.504
10403SOL     OW32107   2.816   0.486   3.085
10403SOL    HW132108   2.887   0.457   3.021
10403SOL    HW232109   2.727   0.484   3.040
10404SOL     OW32110   0.292   6.255   6.189
10404SOL    HW132111   0.279   6.163   6.152
10404SOL    HW232112   0.380   6.259   6.237
10405SOL     OW32113   0.056   1.143   5.920
10405SOL    HW132114   7.014   1.189   5.862
10405SOL    HW232115   0.043   1.171   6.015
10406SOL     OW32116   3.188   4.830   1.676
10406SOL    HW132117   3.170   4.921   1.639
10406SOL    HW232118   3.116   4.805   1.740
10407SOL     OW32119   2.943   6.475   0.271
10407SOL    HW132120   2.919   6.572   0.265
10407SOL    HW232121   3.035   6.466   0.308
10408SOL     OW32122   4.289   0.284   0.281
10408SOL    HW132123   4.381   0.307   0.312
10408SOL    HW232124   4.221   0.325   0.343
10409SOL     OW32125   6.157   4.766   0.798
10409SOL    HW132126   6.067   4.804   0.774
10409SOL    HW232127   6.173   4.684   0.744
10410SOL     OW32128   5.776   0.970   0.206
10410SOL    HW132129   5.780   0.893   0.270
10410SOL    HW232130   5.857   0.968   0.147
10411SOL     OW32131   2.682   5.046   3.411
10411SOL    HW132132   2.727   4.991   3.341
10411SOL    HW232133   2.728   5.034   3.499
10412SOL     OW32134   5.918   0.610   0.992
10412SOL    HW132135   5.983   0.624   1.067
10412SOL    HW232136   5.911   0.694   0.939
10413SOL     OW32137   6.284   2.031   1.189
10413SOL    HW132138   6.264   1.982   1.104
10413SOL    HW232139   6.229   2.114   1.193
10414SOL     OW32140   5.004   2.519   5.130
10414SOL    HW132141   4.991   2.553   5.037
10414SOL    HW232142   5.016   2.420   5.128
10415SOL     OW32143   0.742   5.950   6.021
10415SOL    HW132144   0.649   5.988   6.014
10415SOL    HW232145   0.746   5.886   6.097
10416SOL     OW32146   6.011   2.932   4.782
10416SOL    HW132147   5.980   3.000   4.716
10416SOL    HW232148   5.970   2.843   4.760
10417SOL     OW32149   2.538   4.582   3.927
10417SOL    HW132150   2.504   4.584   3.833
10417SOL    HW232151   2.626   4.630   3.931
10418SOL     OW32152   0.889   4.249   5.085
10418SOL    HW132153   0.896   4.200   4.998
10418SOL    HW232154   0.844   4.191   5.152
10419SOL     OW32155   0.936   1.066   0.800
10419SOL    HW132156   1.009   1.103   0.858
10419SOL    HW232157   0.940   1.109   0.710
10420SOL     OW32158   6.979   2.832   2.787
10420SOL    HW132159   6.894   2.827   2.735
10420SOL    HW232160   6.962   2.876   2.875
10421SOL     OW32161   1.358   0.626   3.929
10421SOL    HW132162   1.285   0.591   3.870
10421SOL    HW232163   1.444   0.628   3.877
10422SOL     OW32164   6.478   2.599   5.662
10422SOL    HW132165   6.564   2.614   5.614
10422SOL    HW232166   6.481   2.643   5.751
10423SOL     OW32167   4.799   4.503   4.289
10423SOL    HW132168   4.803   4.409   4.255
10423SOL    HW232169   4.775   4.564   4.213
10424SOL     OW32170   5.239   1.494   6.827
10424SOL    HW132171   5.315   1.557   6.809
10424SOL    HW232172   5.205   1.509   6.920
10425SOL     OW32173   1.338   5.626   2.565
10425SOL    HW132174   1.383   5.616   2.654
10425SOL    HW232175   1.321   5.536   2.526
10426SOL     OW32176   6.581   4.164   0.411
10426SOL    HW132177   6.482   4.150   0.403
10426SOL    HW232178   6.614   4.121   0.495
10427SOL     OW32179   5.148   2.360   0.681
10427SOL    HW132180   5.085   2.417   0.628
10427SOL    HW232181   5.161   2.400   0.771
10428SOL     OW32182   4.002   0.473   4.737
10428SOL    HW132183   4.037   0.526   4.815
10428SOL    HW232184   4.034   0.514   4.652
10429SOL     OW32185   6.744   5.983   1.551
10429SOL    HW132186   6.649   5.981   1.584
10429SOL    HW232187   6.763   5.900   1.500
10430SOL     OW32188   4.310   6.149   3.174
10430SOL    HW132189   4.340   6.244   3.166
10430SOL    HW232190   4.339   6.112   3.262
10431SOL     OW32191   2.781   0.283   5.241
10431SOL    HW132192   2.693   0.252   5.278
10431SOL    HW232193   2.768   0.368   5.190
10432SOL     OW32194   5.898   0.725   4.136
10432SOL    HW132195   5.977   0.772   4.097
10432SOL    HW232196   5.838   0.695   4.062
10433SOL     OW32197   2.013   6.512   0.962
10433SOL    HW132198   2.055   6.582   0.905
10433SOL    HW232199   2.028   6.534   1.059
10434SOL     OW32200   3.225   0.176   3.467
10434SOL    HW132201   3.201   0.080   3.453
10434SOL    HW232202   3.200   0.229   3.385
10435SOL     OW32203   5.751   6.402   6.032
10435SOL    HW132204   5.834   6.457   6.028
10435SOL    HW232205   5.676   6.458   6.069
10436SOL     OW32206   0.997   5.444   4.163
10436SOL    HW132207   0.986   5.429   4.064
10436SOL    HW232208   1.036   5.362   4.205
10437SOL     OW32209   6.806   5.163   5.727
10437SOL    HW132210   6.800   5.184   5.824
10437SOL    HW232211   6.733   5.100   5.702
10438SOL     OW32212   5.224   6.536   0.491
10438SOL    HW132213   5.181   6.625   0.477
10438SOL    HW232214   5.278   6.538   0.575
10439SOL     OW32215   3.806   0.304   5.552
10439SOL    HW132216   3.729   0.315   5.490
10439SOL    HW232217   3.817   0.208   5.576
10440SOL     OW32218   0.945   6.465   0.945
10440SOL    HW132219   0.935   6.450   1.043
10440SOL    HW232220   1.007   6.542   0.928
10441SOL     OW32221   5.228   1.742   6.695
10441SOL    HW132222   5.197   1.814   6.633
10441SOL    HW232223   5.153   1.680   6.716
10442SOL     OW32224   3.522   5.427   5.641
10442SOL    HW132225   3.456   5.355   5.664
10442SOL    HW232226   3.557   5.411   5.548
10443SOL     OW32227   6.189   3.884   4.841
10443SOL    HW132228   6.108   3.895   4.898
10443SOL    HW232229   6.237   3.971   4.833
10444SOL     OW32230   3.821   5.244   4.865
10444SOL    HW132231   3.808   5.148   4.839
10444SOL    HW232232   3.818   5.301   4.783
10445SOL     OW32233   6.841   5.571   4.132
10445SOL    HW132234   6.816   5.644   4.068
10445SOL    HW232235   6.770   5.501   4.132
10446SOL     OW32236   0.973   4.876   6.296
10446SOL    HW132237   1.003   4.809   6.364
10446SOL    HW232238   0.941   4.829   6.214
10447SOL     OW32239   6.814   2.101   1.424
10447SOL    HW132240   6.884   2.135   1.487
10447SOL    HW232241   6.738   2.064   1.477
10448SOL     OW32242   3.876   4.010   2.023
10448SOL    HW132243   3.950   4.053   1.971
10448SOL    HW232244   3.796   4.069   2.022
10449SOL     OW32245   2.405   5.542   4.042
10449SOL    HW132246   2.372   5.469   3.982
10449SOL    HW232247   2.423   5.504   4.133
10450SOL     OW32248   0.091   1.717   0.365
10450SOL    HW132249   0.130   1.625   0.368
10450SOL    HW232250   0.015   1.719   0.300
10451SOL     OW32251   2.438   4.464   3.052
10451SOL    HW132252   2.455   4.452   3.150
10451SOL    HW232253   2.521   4.501   3.009
10452SOL     OW32254   0.445   3.212   3.787
10452SOL    HW132255   0.479   3.118   3.797
10452SOL    HW232256   0.501   3.261   3.721
10453SOL     OW32257   5.638   5.887   1.277
10453SOL    HW132258   5.564   5.952   1.293
10453SOL    HW232259   5.664   5.889   1.181
10454SOL     OW32260   5.196   3.114   2.341
10454SOL    HW132261   5.202   3.203   2.296
10454SOL    HW232262   5.172   3.044   2.274
10455SOL     OW32263   0.508   4.889   4.097
10455SOL    HW132264   0.455   4.831   4.034
10455SOL    HW232265   0.595   4.912   4.055
10456SOL     OW32266   3.543   6.101   1.119
10456SOL    HW132267   3.515   6.192   1.151
10456SOL    HW232268   3.560   6.104   1.020
10457SOL     OW32269   4.090   3.599   3.250
10457SOL    HW132270   4.081   3.516   3.305
10457SOL    HW232271   4.098   3.678   3.311
10458SOL     OW32272   1.342   6.450   0.941
10458SOL    HW132273   1.290   6.401   1.011
10458SOL    HW232274   1.423   6.396   0.917
10459SOL     OW32275   6.275   5.267   2.370
10459SOL    HW132276   6.189   5.309   2.399
10459SOL    HW232277   6.301   5.303   2.281
10460SOL     OW32278   2.471   5.196   2.001
10460SOL    HW132279   2.567   5.168   2.002
10460SOL    HW232280   2.437   5.204   2.095
10461SOL     OW32281   3.226   0.120   6.519
10461SOL    HW132282   3.321   0.150   6.523
10461SOL    HW232283   3.173   0.183   6.462
10462SOL     OW32284   6.157   0.670   1.129
10462SOL    HW132285   6.206   0.592   1.089
10462SOL    HW232286   6.184   0.682   1.224
10463SOL     OW32287   2.924   4.408   0.424
10463SOL    HW132288   2.925   4.363   0.335
10463SOL    HW232289   2.831   4.410   0.460
10464SOL     OW32290   5.180   0.528   0.717
10464SOL    HW132291   5.124   0.594   0.668
10464SOL    HW232292   5.211   0.568   0.804
10465SOL     OW32293   6.714   5.265   6.363
10465SOL    HW132294   6.767   5.302   6.286
10465SOL    HW232295   6.746   5.173   6.385
10466SOL     OW32296   4.843   6.143   5.273
10466SOL    HW132297   4.911   6.101   5.333
10466SOL    HW232298   4.886   6.216   5.220
10467SOL     OW32299   2.858   1.847   5.383
10467SOL    HW132300   2.957   1.862   5.378
10467SOL    HW232301   2.810   1.931   5.359
10468SOL     OW32302   3.213   6.894   3.927
10468SOL    HW132303   3.263   6.837   3.992
10468SOL    HW232304   3.239   6.868   3.833
10469SOL     OW32305   1.690   4.434   0.649
10469SOL    HW132306   1.734   4.418   0.738
10469SOL    HW232307   1.756   4.478   0.587
10470SOL     OW32308   3.040   1.506   4.169
10470SOL    HW132309   2.994   1.506   4.258
10470SOL    HW232310   3.086   1.594   4.156
10471SOL     OW32311   3.137   3.640   1.244
10471SOL    HW132312   3.148   3.706   1.170
10471SOL    HW232313   3.054   3.586   1.229
10472SOL     OW32314   3.402   1.037   1.807
10472SOL    HW132315   3.338   1.092   1.754
10472SOL    HW232316   3.448   0.972   1.747
10473SOL     OW32317   5.600   5.916   0.214
10473SOL    HW132318   5.605   5.839   0.151
10473SOL    HW232319   5.516   5.908   0.269
10474SOL     OW32320   3.675   0.542   4.514
10474SOL    HW132321   3.690   0.627   4.463
10474SOL    HW232322   3.703   0.556   4.609
10475SOL     OW32323   4.130   0.207   1.052
10475SOL    HW132324   4.118   0.108   1.049
10475SOL    HW232325   4.146   0.241   0.960
10476SOL     OW32326   0.176   5.409   6.776
10476SOL    HW132327   0.161   5.448   6.867
10476SOL    HW232328   0.125   5.323   6.768
10477SOL     OW32329   5.859   4.231   5.001
10477SOL    HW132330   5.894   4.140   4.981
10477SOL    HW232331   5.883   4.256   5.095
10478SOL     OW32332   0.052   6.287   1.336
10478SOL    HW132333   0.138   6.338   1.328
10478SOL    HW232334   0.006   6.285   1.247
10479SOL     OW32335   1.598   3.419   2.892
10479SOL    HW132336   1.664   3.491   2.871
10479SOL    HW232337   1.565   3.431   2.986
10480SOL     OW32338   5.433   6.908   2.080
10480SOL    HW132339   5.430   6.971   2.157
10480SOL    HW232340   5.360   6.840   2.089
10481SOL     OW32341   1.828   0.607   5.006
10481SOL    HW132342   1.740   0.593   5.051
10481SOL    HW232343   1.818   0.595   4.907
10482SOL     OW32344   1.105   6.063   5.039
10482SOL    HW132345   1.090   6.137   4.973
10482SOL    HW232346   1.024   6.052   5.095
10483SOL     OW32347   0.134   5.450   0.083
10483SOL    HW132348   0.156   5.484   0.175
10483SOL    HW232349   0.217   5.446   0.028
10484SOL     OW32350   7.013   0.937   1.822
10484SOL    HW132351   6.934   0.950   1.881
10484SOL    HW232352   6.998   0.859   1.762
10485SOL     OW32353   3.374   3.918   3.229
10485SOL    HW132354   3.420   3.841   3.185
10485SOL    HW232355   3.275   3.907   3.221
10486SOL     OW32356   6.143   6.295   5.419
10486SOL    HW132357   6.129   6.364   5.348
10486SOL    HW232358   6.062   6.289   5.477
10487SOL     OW32359   4.168   2.090   1.547
10487SOL    HW132360   4.143   2.169   1.602
10487SOL    HW232361   4.102   2.078   1.473
10488SOL     OW32362   6.845   2.058   5.352
10488SOL    HW132363   6.874   2.153   5.339
10488SOL    HW232364   6.751   2.057   5.386
10489SOL     OW32365   5.951   4.520   4.343
10489SOL    HW132366   5.953   4.620   4.335
10489SOL    HW232367   5.986   4.479   4.259
10490SOL     OW32368   5.858   6.136   6.478
10490SOL    HW132369   5.798   6.157   6.400
10490SOL    HW232370   5.803   6.135   6.562
10491SOL     OW32371   1.503   3.047   6.148
10491SOL    HW132372   1.527   3.144   6.140
10491SOL    HW232373   1.405   3.036   6.134
10492SOL     OW32374   4.119   0.497   0.360
10492SOL    HW132375   4.077   0.495   0.451
10492SOL    HW232376   4.056   0.541   0.295
10493SOL     OW32377   4.066   5.643   0.612
10493SOL    HW132378   4.096   5.697   0.533
10493SOL    HW232379   4.094   5.548   0.599
10494SOL     OW32380   0.584   4.342   5.391
10494SOL    HW132381   0.637   4.403   5.450
10494SOL    HW232382   0.573   4.384   5.301
10495SOL     OW32383   0.700   6.487   6.886
10495SOL    HW132384   0.728   6.419   6.818
10495SOL    HW232385   0.687   6.442   6.974
10496SOL     OW32386   0.041   4.025   5.558
10496SOL    HW132387   0.115   4.017   5.625
10496SOL    HW232388   6.988   4.072   5.599
10497SOL     OW32389   2.318   6.518   0.974
10497SOL    HW132390   2.310   6.605   0.925
10497SOL    HW232391   2.279   6.444   0.920
10498SOL     OW32392   4.612   5.360   0.334
10498SOL    HW132393   4.531   5.329   0.385
10498SOL    HW232394   4.670   5.282   0.312
10499SOL     OW32395   5.829   5.027   2.467
10499SOL    HW132396   5.813   5.078   2.552
10499SOL    HW232397   5.804   4.931   2.480
10500SOL     OW32398   6.636   3.803   4.935
10500SOL    HW132399   6.712   3.829   4.875
10500SOL    HW232400   6.610   3.709   4.916
10501SOL     OW32401   2.840   5.266   3.076
10501SOL    HW132402   2.757   5.322   3.069
10501SOL    HW232403   2.862   5.251   3.173
10502SOL     OW32404   3.328   4.150   2.384
10502SOL    HW132405   3.274   4.070   2.411
10502SOL    HW232406   3.370   4.190   2.465
10503SOL     OW32407   5.610   2.372   6.678
10503SOL    HW132408   5.621   2.307   6.603
10503SOL    HW232409   5.611   2.323   6.765
10504SOL     OW32410   1.746   2.954   6.254
10504SOL    HW132411   1.663   2.967   6.200
10504SOL    HW232412   1.793   3.042   6.264
10505SOL     OW32413   5.792   6.773   1.324
10505SOL    HW132414   5.762   6.711   1.251
10505SOL    HW232415   5.788   6.726   1.411
10506SOL     OW32416   0.993   2.595   0.416
10506SOL    HW132417   0.969   2.647   0.498
10506SOL    HW232418   1.021   2.657   0.343
10507SOL     OW32419   1.213   5.383   5.946
10507SOL    HW132420   1.291   5.344   5.994
10507SOL    HW232421   1.242   5.464   5.895
10508SOL     OW32422   0.924   5.411   5.320
10508SOL    HW132423   0.856   5.397   5.249
10508SOL    HW232424   0.971   5.325   5.340
10509SOL     OW32425   4.571   2.538   3.659
10509SOL    HW132426   4.571   2.550   3.758
10509SOL    HW232427   4.588   2.627   3.615
10510SOL     OW32428   5.544   5.505   3.749
10510SOL    HW132429   5.504   5.484   3.660
10510SOL    HW232430   5.475   5.548   3.807
10511SOL     OW32431   3.739   1.790   2.256
10511SOL    HW132432   3.728   1.888   2.238
10511SOL    HW232433   3.695   1.768   2.343
10512SOL     OW32434   4.186   1.246   4.928
10512SOL    HW132435   4.157   1.284   4.840
10512SOL    HW232436   4.283   1.225   4.925
10513SOL     OW32437   5.321   3.074   1.334
10513SOL    HW132438   5.395   3.013   1.306
10513SOL    HW232439   5.297   3.057   1.430
10514SOL     OW32440   0.653   3.349   1.596
10514SOL    HW132441   0.656   3.266   1.653
10514SOL    HW232442   0.608   3.422   1.647
10515SOL     OW32443   1.889   2.579   5.034
10515SOL    HW132444   1.929   2.530   4.956
10515SOL    HW232445   1.926   2.672   5.037
10516SOL     OW32446   4.141   2.368   1.305
10516SOL    HW132447   4.141   2.384   1.206
10516SOL    HW232448   4.202   2.291   1.325
10517SOL     OW32449   0.616   2.602   2.988
10517SOL    HW132450   0.657   2.693   2.995
10517SOL    HW232451   0.612   2.560   3.079
10518SOL     OW32452   0.844   4.973   2.558
10518SOL    HW132453   0.841   4.882   2.598
10518SOL    HW232454   0.907   5.030   2.612
10519SOL     OW32455   3.282   6.133   0.819
10519SOL    HW132456   3.213   6.122   0.890
10519SOL    HW232457   3.275   6.057   0.754
10520SOL     OW32458   6.923   2.052   4.738
10520SOL    HW132459   6.920   2.093   4.830
10520SOL    HW232460   6.832   2.058   4.696
10521SOL     OW32461   6.615   2.714   1.668
10521SOL    HW132462   6.594   2.762   1.582
10521SOL    HW232463   6.538   2.725   1.731
10522SOL     OW32464   5.109   2.408   3.821
10522SOL    HW132465   5.090   2.326   3.767
10522SOL    HW232466   5.177   2.386   3.891
10523SOL     OW32467   6.992   4.714   3.034
10523SOL    HW132468   6.979   4.809   3.062
10523SOL    HW232469   0.019   4.711   2.949
10524SOL     OW32470   6.451   6.463   5.240
10524SOL    HW132471   6.535   6.449   5.291
10524SOL    HW232472   6.463   6.429   5.147
10525SOL     OW32473   5.110   1.963   4.526
10525SOL    HW132474   5.132   1.873   4.565
10525SOL    HW232475   5.011   1.973   4.518
10526SOL     OW32476   1.755   5.053   7.002
10526SOL    HW132477   1.786   5.004   0.058
10526SOL    HW232478   1.683   5.118   0.002
10527SOL     OW32479   0.632   0.224   4.442
10527SOL    HW132480   0.690   0.302   4.423
10527SOL    HW232481   0.674   0.141   4.405
10528SOL     OW32482   1.041   3.916   5.746
10528SOL    HW132483   0.956   3.950   5.785
10528SOL    HW232484   1.117   3.975   5.774
10529SOL     OW32485   1.250   6.066   0.829
10529SOL    HW132486   1.192   6.146   0.816
10529SOL    HW232487   1.244   6.036   0.924
10530SOL     OW32488   0.130   5.991   0.650
10530SOL    HW132489   0.088   5.908   0.615
10530SOL    HW232490   0.225   5.997   0.617
10531SOL     OW32491   3.008   3.104   5.231
10531SOL    HW132492   2.979   3.112   5.136
10531SOL    HW232493   2.932   3.128   5.292
10532SOL     OW32494   5.449   6.290   6.703
10532SOL    HW132495   5.401   6.255   6.783
10532SOL    HW232496   5.526   6.229   6.682
10533SOL     OW32497   2.805   5.441   3.508
10533SOL    HW132498   2.774   5.384   3.584
10533SOL    HW232499   2.750   5.525   3.505
10534SOL     OW32500   1.442   6.391   3.684
10534SOL    HW132501   1.497   6.354   3.758
10534SOL    HW232502   1.377   6.322   3.653
10535SOL     OW32503   3.413   2.098   2.729
10535SOL    HW132504   3.443   2.057   2.815
10535SOL    HW232505   3.480   2.078   2.658
10536SOL     OW32506   5.699   1.588   4.102
10536SOL    HW132507   5.601   1.586   4.122
10536SOL    HW232508   5.714   1.615   4.007
10537SOL     OW32509   4.251   0.047   3.823
10537SOL    HW132510   4.273   0.081   3.915
10537SOL    HW232511   4.200   0.116   3.773
10538SOL     OW32512   6.247   3.176   2.978
10538SOL    HW132513   6.233   3.083   3.013
10538SOL    HW232514   6.321   3.175   2.911
10539SOL     OW32515   6.627   0.674   3.177
10539SOL    HW132516   6.642   0.666   3.276
10539SOL    HW232517   6.533   0.647   3.155
10540SOL     OW32518   2.503   3.556   6.013
10540SOL    HW132519   2.571   3.560   5.940
10540SOL    HW232520   2.550   3.535   6.100
10541SOL     OW32521   3.247   3.060   5.385
10541SOL    HW132522   3.336   3.076   5.343
10541SOL    HW232523   3.177   3.106   5.331
10542SOL     OW32524   4.978   6.977   4.054
10542SOL    HW132525   5.063   6.961   4.003
10542SOL    HW232526   4.944   6.891   4.090
10543SOL     OW32527   0.297   3.676   5.084
10543SOL    HW132528   0.299   3.614   5.005
10543SOL    HW232529   0.202   3.700   5.106
10544SOL     OW32530   1.853   1.173   3.094
10544SOL    HW132531   1.809   1.241   3.037
10544SOL    HW232532   1.942   1.149   3.054
10545SOL     OW32533   1.883   2.014   2.797
10545SOL    HW132534   1.939   1.948   2.748
10545SOL    HW232535   1.940   2.091   2.827
10546SOL     OW32536   3.049   6.937   0.272
10546SOL    HW132537   2.983   7.008   0.245
10546SOL    HW232538   3.006   6.875   0.337
10547SOL     OW32539   4.373   0.249   4.880
10547SOL    HW132540   4.389   0.169   4.938
10547SOL    HW232541   4.385   0.333   4.934
10548SOL     OW32542   0.283   4.987   4.269
10548SOL    HW132543   0.264   4.930   4.348
10548SOL    HW232544   0.356   4.946   4.214
10549SOL     OW32545   6.974   0.801   1.034
10549SOL    HW132546   0.044   0.776   1.016
10549SOL    HW232547   6.936   0.739   1.103
10550SOL     OW32548   4.824   5.578   3.770
10550SOL    HW132549   4.750   5.583   3.702
10550SOL    HW232550   4.890   5.651   3.753
10551SOL     OW32551   2.736   1.752   6.184
10551SOL    HW132552   2.741   1.760   6.085
10551SOL    HW232553   2.815   1.799   6.225
10552SOL     OW32554   3.009   1.129   4.689
10552SOL    HW132555   3.025   1.100   4.595
10552SOL    HW232556   3.090   1.177   4.724
10553SOL     OW32557   0.367   4.792   0.543
10553SOL    HW132558   0.404   4.746   0.624
10553SOL    HW232559   0.442   4.833   0.491
10554SOL     OW32560   6.585   5.492   2.212
10554SOL    HW132561   6.521   5.568   2.217
10554SOL    HW232562   6.538   5.407   2.237
10555SOL     OW32563   3.845   2.768   0.810
10555SOL    HW132564   3.831   2.855   0.762
10555SOL    HW232565   3.939   2.736   0.793
10556SOL     OW32566   2.667   1.407   2.788
10556SOL    HW132567   2.630   1.441   2.875
10556SOL    HW232568   2.607   1.336   2.751
10557SOL     OW32569   2.076   4.207   4.452
10557SOL    HW132570   2.103   4.151   4.531
10557SOL    HW232571   1.986   4.178   4.420
10558SOL     OW32572   2.954   5.323   4.773
10558SOL    HW132573   2.925   5.230   4.797
10558SOL    HW232574   2.908   5.388   4.833
10559SOL     OW32575   4.392   6.625   7.004
10559SOL    HW132576   4.426   6.612   6.911
10559SOL    HW232577   4.436   6.706   0.019
10560SOL     OW32578   5.893   6.695   2.101
10560SOL    HW132579   5.817   6.743   2.057
10560SOL    HW232580   5.856   6.633   2.171
10561SOL     OW32581   5.647   4.231   0.120
10561SOL    HW132582   5.561   4.281   0.114
10561SOL    HW232583   5.629   4.133   0.118
10562SOL     OW32584   4.139   6.418   2.263
10562SOL    HW132585   4.129   6.465   2.175
10562SOL    HW232586   4.052   6.377   2.289
10563SOL     OW32587   0.504   0.169   1.157
10563SOL    HW132588   0.486   0.109   1.235
10563SOL    HW232589   0.579   0.131   1.102
10564SOL     OW32590   5.705   5.269   3.805
10564SOL    HW132591   5.649   5.343   3.769
10564SOL    HW232592   5.715   5.280   3.904
10565SOL     OW32593   0.543   6.746   5.521
10565SOL    HW132594   0.464   6.797   5.555
10565SOL    HW232595   0.512   6.661   5.478
10566SOL     OW32596   2.533   3.383   6.953
10566SOL    HW132597   2.531   3.427   0.018
10566SOL    HW232598   2.555   3.451   6.884
10567SOL     OW32599   0.910   2.305   6.473
10567SOL    HW132600   0.821   2.270   6.500
10567SOL    HW232601   0.950   2.356   6.549
10568SOL     OW32602   5.334   2.477   5.646
10568SOL    HW132603   5.388   2.407   5.600
10568SOL    HW232604   5.237   2.453   5.641
10569SOL     OW32605   5.480   6.540   0.623
10569SOL    HW132606   5.539   6.494   0.689
10569SOL    HW232607   5.534   6.601   0.566
10570SOL     OW32608   1.294   4.735   3.555
10570SOL    HW132609   1.195   4.722   3.559
10570SOL    HW232610   1.314   4.830   3.531
10571SOL     OW32611   6.500   4.536   5.963
10571SOL    HW132612   6.451   4.527   5.877
10571SOL    HW232613   6.548   4.451   5.984
10572SOL     OW32614   6.099   4.143   0.800
10572SOL    HW132615   6.143   4.205   0.864
10572SOL    HW232616   6.094   4.051   0.840
10573SOL     OW32617   5.483   1.066   3.867
10573SOL    HW132618   5.422   1.085   3.790
10573SOL    HW232619   5.494   0.967   3.876
10574SOL     OW32620   6.505   2.536   3.779
10574SOL    HW132621   6.431   2.603   3.769
10574SOL    HW232622   6.573   2.572   3.843
10575SOL     OW32623   6.325   0.118   1.319
10575SOL    HW132624   6.316   0.118   1.418
10575SOL    HW232625   6.234   0.116   1.277
10576SOL     OW32626   1.756   4.670   4.201
10576SOL    HW132627   1.805   4.592   4.238
10576SOL    HW232628   1.800   4.700   4.116
10577SOL     OW32629   3.821   5.666   0.508
10577SOL    HW132630   3.753   5.727   0.548
10577SOL    HW232631   3.908   5.677   0.555
10578SOL     OW32632   0.156   3.526   4.234
10578SOL    HW132633   0.096   3.572   4.300
10578SOL    HW232634   0.177   3.588   4.159
10579SOL     OW32635   1.448   3.589   0.086
10579SOL    HW132636   1.517   3.603   0.157
10579SOL    HW232637   1.357   3.609   0.123
10580SOL     OW32638   6.671   6.511   6.960
10580SOL    HW132639   6.688   6.594   6.906
10580SOL    HW232640   6.745   6.446   6.943
10581SOL     OW32641   5.325   6.859   2.704
10581SOL    HW132642   5.240   6.828   2.746
10581SOL    HW232643   5.397   6.792   2.721
10582SOL     OW32644   5.797   4.784   6.264
10582SOL    HW132645   5.715   4.838   6.283
10582SOL    HW232646   5.852   4.830   6.195
10583SOL     OW32647   3.107   0.988   5.505
10583SOL    HW132648   3.200   0.958   5.485
10583SOL    HW232649   3.052   0.984   5.421
10584SOL     OW32650   0.996   0.081   4.945
10584SOL    HW132651   1.053   0.043   4.872
10584SOL    HW232652   1.038   0.165   4.980
10585SOL     OW32653   0.727   6.942   4.814
10585SOL    HW132654   0.752   0.005   4.774
10585SOL    HW232655   0.650   6.954   4.876
10586SOL     OW32656   4.049   4.225   5.277
10586SOL    HW132657   3.955   4.239   5.248
10586SOL    HW232658   4.105   4.302   5.246
10587SOL     OW32659   2.462   6.045   5.242
10587SOL    HW132660   2.467   5.952   5.206
10587SOL    HW232661   2.423   6.106   5.173
10588SOL     OW32662   0.985   3.730   3.914
10588SOL    HW132663   0.934   3.651   3.880
10588SOL    HW232664   0.940   3.767   3.995
10589SOL     OW32665   5.367   5.855   3.759
10589SOL    HW132666   5.359   5.918   3.837
10589SOL    HW232667   5.400   5.767   3.792
10590SOL     OW32668   0.696   5.489   2.446
10590SOL    HW132669   0.772   5.543   2.481
10590SOL    HW232670   0.696   5.493   2.346
10591SOL     OW32671   0.288   2.411   1.594
10591SOL    HW132672   0.257   2.340   1.531
10591SOL    HW232673   0.231   2.411   1.676
10592SOL     OW32674   6.294   2.149   4.883
10592SOL    HW132675   6.294   2.248   4.897
10592SOL    HW232676   6.263   2.128   4.791
10593SOL     OW32677   3.500   5.824   2.867
10593SOL    HW132678   3.537   5.867   2.950
10593SOL    HW232679   3.531   5.729   2.862
10594SOL     OW32680   2.933   6.913   3.889
10594SOL    HW132681   3.026   6.876   3.895
10594SOL    HW232682   2.896   6.896   3.798
10595SOL     OW32683   6.192   6.720   0.298
10595SOL    HW132684   6.116   6.751   0.354
10595SOL    HW232685   6.272   6.704   0.356
10596SOL     OW32686   5.171   2.919   6.745
10596SOL    HW132687   5.264   2.935   6.710
10596SOL    HW232688   5.167   2.830   6.790
10597SOL     OW32689   2.168   0.860   6.205
10597SOL    HW132690   2.229   0.908   6.268
10597SOL    HW232691   2.073   0.882   6.225
10598SOL     OW32692   2.339   2.094   6.321
10598SOL    HW132693   2.390   2.013   6.292
10598SOL    HW232694   2.354   2.168   6.256
10599SOL     OW32695   6.678   2.645   6.296
10599SOL    HW132696   6.691   2.584   6.218
10599SOL    HW232697   6.626   2.598   6.367
10600SOL     OW32698   2.924   1.884   0.955
10600SOL    HW132699   2.826   1.894   0.936
10600SOL    HW232700   2.940   1.899   1.053
10601SOL     OW32701   0.834   6.772   5.904
10601SOL    HW132702   0.894   6.852   5.900
10601SOL    HW232703   0.856   6.718   5.985
10602SOL     OW32704   6.908   0.100   1.160
10602SOL    HW132705   6.979   0.131   1.223
10602SOL    HW232706   6.950   0.067   1.076
10603SOL     OW32707   5.078   7.010   2.584
10603SOL    HW132708   5.172   7.021   2.616
10603SOL    HW232709   5.035   0.074   2.574
10604SOL     OW32710   5.719   6.451   4.677
10604SOL    HW132711   5.755   6.362   4.701
10604SOL    HW232712   5.794   6.515   4.661
10605SOL     OW32713   2.340   2.119   1.359
10605SOL    HW132714   2.269   2.185   1.334
10605SOL    HW232715   2.320   2.031   1.317
10606SOL     OW32716   6.196   0.381   0.668
10606SOL    HW132717   6.252   0.459   0.694
10606SOL    HW232718   6.207   0.362   0.571
10607SOL     OW32719   3.647   4.353   6.528
10607SOL    HW132720   3.675   4.448   6.538
10607SOL    HW232721   3.643   4.309   6.618
10608SOL     OW32722   5.641   3.843   2.942
10608SOL    HW132723   5.668   3.767   2.883
10608SOL    HW232724   5.582   3.906   2.891
10609SOL     OW32725   4.173   1.818   6.669
10609SOL    HW132726   4.115   1.776   6.599
10609SOL    HW232727   4.215   1.746   6.724
10610SOL     OW32728   0.305   0.386   3.809
10610SOL    HW132729   0.290   0.468   3.864
10610SOL    HW232730   0.356   0.410   3.726
10611SOL     OW32731   3.806   5.252   4.308
10611SOL    HW132732   3.781   5.341   4.347
10611SOL    HW232733   3.778   5.179   4.370
10612SOL     OW32734   5.636   1.407   3.688
10612SOL    HW132735   5.710   1.456   3.734
10612SOL    HW232736   5.666   1.314   3.666
10613SOL     OW32737   5.513   0.030   4.344
10613SOL    HW132738   5.552   6.987   4.281
10613SOL    HW232739   5.498   7.013   4.433
10614SOL     OW32740   4.368   0.651   5.912
10614SOL    HW132741   4.381   0.731   5.970
10614SOL    HW232742   4.412   0.666   5.823
10615SOL     OW32743   1.467   1.983   6.285
10615SOL    HW132744   1.376   2.019   6.304
10615SOL    HW232745   1.486   1.989   6.187
10616SOL     OW32746   2.465   6.777   6.994
10616SOL    HW132747   2.479   6.713   0.045
10616SOL    HW232748   2.504   6.865   7.018
10617SOL     OW32749   2.510   3.305   1.730
10617SOL    HW132750   2.448   3.361   1.786
10617SOL    HW232751   2.537   3.357   1.649
10618SOL     OW32752   1.104   5.152   4.891
10618SOL    HW132753   1.094   5.160   4.990
10618SOL    HW232754   1.111   5.244   4.851
10619SOL     OW32755   1.257   2.394   3.013
10619SOL    HW132756   1.252   2.339   2.930
10619SOL    HW232757   1.276   2.489   2.989
10620SOL     OW32758   3.055   0.967   6.480
10620SOL    HW132759   3.145   0.928   6.459
10620SOL    HW232760   2.992   0.893   6.506
10621SOL     OW32761   0.287   3.550   3.112
10621SOL    HW132762   0.241   3.568   3.024
10621SOL    HW232763   0.229   3.583   3.186
10622SOL     OW32764   4.374   2.874   0.422
10622SOL    HW132765   4.309   2.868   0.346
10622SOL    HW232766   4.382   2.969   0.452
10623SOL     OW32767   5.381   6.018   5.949
10623SOL    HW132768   5.415   5.954   5.879
10623SOL    HW232769   5.459   6.057   5.998
10624SOL     OW32770   0.237   2.640   5.368
10624SOL    HW132771   0.233   2.659   5.466
10624SOL    HW232772   0.300   2.564   5.351
10625SOL     OW32773   6.096   4.627   6.898
10625SOL    HW132774   6.103   4.530   6.876
10625SOL    HW232775   6.102   4.640   6.997
10626SOL     OW32776   4.944   3.280   1.281
10626SOL    HW132777   4.933   3.242   1.373
10626SOL    HW232778   4.883   3.234   1.218
10627SOL     OW32779   5.901   5.778   5.641
10627SOL    HW132780   5.841   5.841   5.592
10627SOL    HW232781   5.883   5.784   5.739
10628SOL     OW32782   3.699   6.735   1.549
10628SOL    HW132783   3.684   6.688   1.636
10628SOL    HW232784   3.768   6.806   1.560
10629SOL     OW32785   2.201   5.261   4.349
10629SOL    HW132786   2.243   5.213   4.426
10629SOL    HW232787   2.106   5.231   4.339
10630SOL     OW32788   3.695   0.639   2.424
10630SOL    HW132789   3.752   0.560   2.404
10630SOL    HW232790   3.614   0.637   2.366
10631SOL     OW32791   4.312   6.309   6.618
10631SOL    HW132792   4.403   6.284   6.651
10631SOL    HW232793   4.315   6.399   6.576
10632SOL     OW32794   3.988   5.692   3.195
10632SOL    HW132795   3.920   5.737   3.136
10632SOL    HW232796   4.032   5.761   3.253
10633SOL     OW32797   1.555   2.996   1.754
10633SOL    HW132798   1.570   3.048   1.837
10633SOL    HW232799   1.483   3.039   1.699
10634SOL     OW32800   0.099   3.672   6.589
10634SOL    HW132801   0.066   3.586   6.550
10634SOL    HW232802   0.088   3.746   6.522
10635SOL     OW32803   2.197   4.296   5.937
10635SOL    HW132804   2.192   4.273   5.840
10635SOL    HW232805   2.148   4.382   5.953
10636SOL     OW32806   6.760   1.999   6.034
10636SOL    HW132807   6.728   2.014   6.128
10636SOL    HW232808   6.856   2.025   6.027
10637SOL     OW32809   3.021   0.872   7.018
10637SOL    HW132810   3.078   0.918   6.949
10637SOL    HW232811   2.933   0.919   0.000
10638SOL     OW32812   0.160   5.399   1.731
10638SOL    HW132813   0.259   5.390   1.740
10638SOL    HW232814   0.133   5.494   1.745
10639SOL     OW32815   1.766   4.544   1.011
10639SOL    HW132816   1.670   4.562   0.990
10639SOL    HW232817   1.794   4.457   0.971
10640SOL     OW32818   4.408   6.882   3.732
10640SOL    HW132819   4.472   6.845   3.799
10640SOL    HW232820   4.345   6.945   3.778
10641SOL     OW32821   1.835   0.919   3.389
10641SOL    HW132822   1.831   1.003   3.444
10641SOL    HW232823   1.796   0.936   3.299
10642SOL     OW32824   5.763   1.980   6.569
10642SOL    HW132825   5.722   2.024   6.489
10642SOL    HW232826   5.703   1.991   6.648
10643SOL     OW32827   1.569   4.998   5.568
10643SOL    HW132828   1.477   5.014   5.533
10643SOL    HW232829   1.595   4.903   5.551
10644SOL     OW32830   6.764   2.221   3.272
10644SOL    HW132831   6.665   2.207   3.261
10644SOL    HW232832   6.812   2.171   3.201
10645SOL     OW32833   2.639   2.304   3.550
10645SOL    HW132834   2.593   2.375   3.603
10645SOL    HW232835   2.620   2.214   3.590
10646SOL     OW32836   4.899   0.795   3.955
10646SOL    HW132837   4.875   0.728   3.885
10646SOL    HW232838   4.981   0.846   3.926
10647SOL     OW32839   4.032   4.837   4.602
10647SOL    HW132840   4.083   4.918   4.630
10647SOL    HW232841   4.088   4.755   4.618
10648SOL     OW32842   5.080   5.472   5.065
10648SOL    HW132843   5.063   5.441   5.159
10648SOL    HW232844   5.045   5.565   5.054
10649SOL     OW32845   6.553   3.382   2.666
10649SOL    HW132846   6.544   3.449   2.739
10649SOL    HW232847   6.478   3.394   2.600
10650SOL     OW32848   0.186   0.448   4.253
10650SOL    HW132849   0.230   0.496   4.178
10650SOL    HW232850   0.255   0.421   4.321
10651SOL     OW32851   3.653   6.428   5.760
10651SOL    HW132852   3.623   6.445   5.854
10651SOL    HW232853   3.642   6.331   5.739
10652SOL     OW32854   1.755   6.689   6.890
10652SOL    HW132855   1.745   6.641   6.977
10652SOL    HW232856   1.849   6.722   6.880
10653SOL     OW32857   4.545   6.386   4.756
10653SOL    HW132858   4.509   6.320   4.691
10653SOL    HW232859   4.561   6.473   4.710
10654SOL     OW32860   6.125   1.827   4.510
10654SOL    HW132861   6.030   1.798   4.498
10654SOL    HW232862   6.128   1.925   4.530
10655SOL     OW32863   0.839   4.896   1.185
10655SOL    HW132864   0.847   4.797   1.193
10655SOL    HW232865   0.773   4.930   1.252
10656SOL     OW32866   5.995   1.060   2.309
10656SOL    HW132867   6.077   1.089   2.359
10656SOL    HW232868   5.934   1.011   2.371
10657SOL     OW32869   5.845   0.204   3.400
10657SOL    HW132870   5.779   0.254   3.456
10657SOL    HW232871   5.810   0.113   3.381
10658SOL     OW32872   0.169   3.495   5.318
10658SOL    HW132873   0.226   3.443   5.255
10658SOL    HW232874   0.162   3.589   5.287
10659SOL     OW32875   1.167   5.015   0.720
10659SOL    HW132876   1.068   5.001   0.717
10659SOL    HW232877   1.208   4.987   0.633
10660SOL     OW32878   6.283   3.522   5.319
10660SOL    HW132879   6.275   3.602   5.261
10660SOL    HW232880   6.378   3.491   5.322
10661SOL     OW32881   1.962   3.902   6.211
10661SOL    HW132882   1.965   3.951   6.124
10661SOL    HW232883   2.031   3.939   6.273
10662SOL     OW32884   3.015   1.586   2.975
10662SOL    HW132885   3.113   1.602   2.959
10662SOL    HW232886   2.970   1.674   2.995
10663SOL     OW32887   1.884   2.019   4.232
10663SOL    HW132888   1.973   2.021   4.277
10663SOL    HW232889   1.897   2.019   4.133
10664SOL     OW32890   1.503   5.318   4.967
10664SOL    HW132891   1.428   5.352   4.911
10664SOL    HW232892   1.494   5.355   5.060
10665SOL     OW32893   2.170   2.450   5.707
10665SOL    HW132894   2.238   2.425   5.777
10665SOL    HW232895   2.084   2.403   5.726
10666SOL     OW32896   3.807   3.509   2.179
10666SOL    HW132897   3.777   3.598   2.146
10666SOL    HW232898   3.834   3.516   2.275
10667SOL     OW32899   5.903   2.531   3.464
10667SOL    HW132900   5.820   2.568   3.506
10667SOL    HW232901   5.888   2.520   3.366
10668SOL     OW32902   3.465   2.299   5.329
10668SOL    HW132903   3.479   2.200   5.330
10668SOL    HW232904   3.386   2.322   5.271
10669SOL     OW32905   5.862   1.491   0.923
10669SOL    HW132906   5.839   1.528   0.833
10669SOL    HW232907   5.839   1.557   0.994
10670SOL     OW32908   5.265   3.575   4.335
10670SOL    HW132909   5.301   3.586   4.242
10670SOL    HW232910   5.341   3.575   4.400
10671SOL     OW32911   1.339   2.104   4.318
10671SOL    HW132912   1.417   2.046   4.296
10671SOL    HW232913   1.297   2.072   4.403
10672SOL     OW32914   5.450   3.508   1.313
10672SOL    HW132915   5.362   3.464   1.295
10672SOL    HW232916   5.454   3.535   1.410
10673SOL     OW32917   1.941   1.214   1.100
10673SOL    HW132918   2.039   1.228   1.083
10673SOL    HW232919   1.893   1.301   1.092
10674SOL     OW32920   3.674   3.994   4.476
10674SOL    HW132921   3.669   4.053   4.556
10674SOL    HW232922   3.614   3.915   4.489
10675SOL     OW32923   3.825   6.820   5.330
10675SOL    HW132924   3.817   6.856   5.237
10675SOL    HW232925   3.822   6.720   5.328
10676SOL     OW32926   1.386   6.497   5.266
10676SOL    HW132927   1.430   6.445   5.193
10676SOL    HW232928   1.447   6.503   5.345
10677SOL     OW32929   0.560   1.527   0.800
10677SOL    HW132930   0.634   1.473   0.761
10677SOL    HW232931   0.473   1.479   0.786
10678SOL     OW32932   4.246   5.633   3.764
10678SOL    HW132933   4.271   5.667   3.854
10678SOL    HW232934   4.250   5.533   3.763
10679SOL     OW32935   3.947   3.792   6.896
10679SOL    HW132936   3.901   3.875   6.866
10679SOL    HW232937   3.978   3.740   6.816
10680SOL     OW32938   3.957   1.563   3.975
10680SOL    HW132939   3.965   1.465   3.960
10680SOL    HW232940   3.865   1.593   3.948
10681SOL     OW32941   0.144   3.036   6.415
10681SOL    HW132942   0.200   3.019   6.496
10681SOL    HW232943   0.125   2.949   6.369
10682SOL     OW32944   6.061   3.219   5.715
10682SOL    HW132945   5.971   3.179   5.731
10682SOL    HW232946   6.115   3.214   5.799
10683SOL     OW32947   3.945   0.458   3.578
10683SOL    HW132948   3.949   0.398   3.498
10683SOL    HW232949   3.851   0.463   3.612
10684SOL     OW32950   4.525   4.301   1.402
10684SOL    HW132951   4.488   4.351   1.481
10684SOL    HW232952   4.596   4.355   1.358
10685SOL     OW32953   1.262   5.860   1.888
10685SOL    HW132954   1.175   5.873   1.934
10685SOL    HW232955   1.310   5.782   1.929
10686SOL     OW32956   2.332   3.751   0.091
10686SOL    HW132957   2.417   3.803   0.092
10686SOL    HW232958   2.307   3.725   0.185
10687SOL     OW32959   0.081   4.832   2.777
10687SOL    HW132960   0.050   4.923   2.804
10687SOL    HW232961   0.181   4.831   2.771
10688SOL     OW32962   5.228   1.805   2.514
10688SOL    HW132963   5.289   1.874   2.475
10688SOL    HW232964   5.176   1.761   2.440
10689SOL     OW32965   0.468   0.021   2.430
10689SOL    HW132966   0.387   0.080   2.431
10689SOL    HW232967   0.536   0.059   2.367
10690SOL     OW32968   6.646   5.860   3.596
10690SOL    HW132969   6.633   5.761   3.590
10690SOL    HW232970   6.615   5.902   3.511
10691SOL     OW32971   3.208   1.676   2.710
10691SOL    HW132972   3.116   1.682   2.671
10691SOL    HW232973   3.275   1.663   2.637
10692SOL     OW32974   2.780   1.036   5.224
10692SOL    HW132975   2.721   1.071   5.152
10692SOL    HW232976   2.743   0.948   5.257
10693SOL     OW32977   1.783   6.212   0.726
10693SOL    HW132978   1.767   6.132   0.668
10693SOL    HW232979   1.881   6.224   0.741
10694SOL     OW32980   4.795   6.159   5.808
10694SOL    HW132981   4.744   6.180   5.891
10694SOL    HW232982   4.762   6.218   5.734
10695SOL     OW32983   0.338   3.079   1.422
10695SOL    HW132984   0.325   3.019   1.500
10695SOL    HW232985   0.256   3.135   1.409
10696SOL     OW32986   6.756   4.405   4.695
10696SOL    HW132987   6.682   4.396   4.761
10696SOL    HW232988   6.833   4.453   4.737
10697SOL     OW32989   0.703   5.460   5.120
10697SOL    HW132990   0.785   5.458   5.064
10697SOL    HW232991   0.647   5.379   5.099
10698SOL     OW32992   4.462   4.017   0.110
10698SOL    HW132993   4.469   3.921   0.085
10698SOL    HW232994   4.553   4.052   0.132
10699SOL     OW32995   3.468   4.390   0.833
10699SOL    HW132996   3.560   4.354   0.822
10699SOL    HW232997   3.417   4.334   0.899
10700SOL     OW32998   5.363   6.659   0.230
10700SOL    HW132999   5.383   6.613   0.316
10700SOL    HW233000   5.391   6.601   0.153
10701SOL     OW33001   2.842   0.207   6.378
10701SOL    HW133002   2.836   0.223   6.477
10701SOL    HW233003   2.758   0.239   6.334
10702SOL     OW33004   5.016   3.305   2.648
10702SOL    HW133005   5.034   3.289   2.745
10702SOL    HW233006   4.949   3.238   2.615
10703SOL     OW33007   2.427   2.204   5.584
10703SOL    HW133008   2.416   2.269   5.659
10703SOL    HW233009   2.490   2.242   5.516
10704SOL     OW33010   0.321   5.740   2.639
10704SOL    HW133011   0.240   5.687   2.612
10704SOL    HW233012   0.399   5.713   2.581
10705SOL     OW33013   5.696   5.144   0.872
10705SOL    HW133014   5.705   5.045   0.883
10705SOL    HW233015   5.684   5.166   0.775
10706SOL     OW33016   4.894   0.305   2.150
10706SOL    HW133017   4.841   0.276   2.069
10706SOL    HW233018   4.973   0.358   2.120
10707SOL     OW33019   6.201   6.970   4.729
10707SOL    HW133020   6.264   6.923   4.668
10707SOL    HW233021   6.132   6.905   4.762
10708SOL     OW33022   4.700   2.533   2.884
10708SOL    HW133023   4.799   2.547   2.876
10708SOL    HW233024   4.682   2.453   2.940
10709SOL     OW33025   5.940   5.880   3.777
10709SOL    HW133026   6.035   5.894   3.805
10709SOL    HW233027   5.889   5.965   3.789
10710SOL     OW33028   5.366   0.722   3.093
10710SOL    HW133029   5.300   0.793   3.066
10710SOL    HW233030   5.437   0.715   3.024
10711SOL     OW33031   3.325   6.402   3.546
10711SOL    HW133032   3.404   6.410   3.485
10711SOL    HW233033   3.296   6.306   3.551
10712SOL     OW33034   3.969   0.614   2.597
10712SOL    HW133035   3.896   0.563   2.551
10712SOL    HW233036   3.956   0.712   2.583
10713SOL     OW33037   1.326   3.201   0.504
10713SOL    HW133038   1.317   3.107   0.539
10713SOL    HW233039   1.238   3.248   0.514
10714SOL     OW33040   4.146   3.306   4.985
10714SOL    HW133041   4.080   3.374   4.953
10714SOL    HW233042   4.238   3.336   4.963
10715SOL     OW33043   5.300   0.310   2.354
10715SOL    HW133044   5.311   0.310   2.454
10715SOL    HW233045   5.227   0.247   2.329
10716SOL     OW33046   6.301   2.712   3.695
10716SOL    HW133047   6.268   2.756   3.779
10716SOL    HW233048   6.264   2.619   3.690
10717SOL     OW33049   1.706   3.052   0.596
10717SOL    HW133050   1.737   3.145   0.617
10717SOL    HW233051   1.644   3.054   0.517
10718SOL     OW33052   0.728   4.504   6.401
10718SOL    HW133053   0.640   4.490   6.355
10718SOL    HW233054   0.744   4.429   6.465
10719SOL     OW33055   6.401   6.262   3.313
10719SOL    HW133056   6.357   6.227   3.396
10719SOL    HW233057   6.332   6.289   3.247
10720SOL     OW33058   5.678   5.300   4.081
10720SOL    HW133059   5.623   5.375   4.118
10720SOL    HW233060   5.684   5.227   4.149
10721SOL     OW33061   5.135   3.788   5.196
10721SOL    HW133062   5.194   3.825   5.268
10721SOL    HW233063   5.055   3.847   5.185
10722SOL     OW33064   6.295   3.510   6.791
10722SOL    HW133065   6.293   3.609   6.777
10722SOL    HW233066   6.210   3.470   6.755
10723SOL     OW33067   0.077   1.635   6.801
10723SOL    HW133068   0.109   1.590   6.884
10723SOL    HW233069   7.013   1.599   6.775
10724SOL     OW33070   0.394   6.790   6.855
10724SOL    HW133071   0.420   6.815   6.762
10724SOL    HW233072   0.314   6.729   6.852
10725SOL     OW33073   2.194   5.785   5.081
10725SOL    HW133074   2.199   5.826   4.989
10725SOL    HW233075   2.285   5.752   5.107
10726SOL     OW33076   4.690   0.758   4.128
10726SOL    HW133077   4.725   0.759   4.222
10726SOL    HW233078   4.758   0.799   4.067
10727SOL     OW33079   0.868   4.728   6.072
10727SOL    HW133080   0.873   4.810   6.015
10727SOL    HW233081   0.773   4.697   6.078
10728SOL     OW33082   0.386   5.292   0.247
10728SOL    HW133083   0.339   5.377   0.272
10728SOL    HW233084   0.428   5.253   0.329
10729SOL     OW33085   5.992   2.040   1.859
10729SOL    HW133086   5.974   2.090   1.774
10729SOL    HW233087   6.061   1.970   1.843
10730SOL     OW33088   3.391   0.189   0.996
10730SOL    HW133089   3.363   0.235   0.912
10730SOL    HW233090   3.354   0.096   0.997
10731SOL     OW33091   3.907   0.886   1.131
10731SOL    HW133092   3.997   0.916   1.163
10731SOL    HW233093   3.840   0.896   1.204
10732SOL     OW33094   0.280   4.517   5.371
10732SOL    HW133095   0.302   4.592   5.309
10732SOL    HW233096   0.309   4.540   5.464
10733SOL     OW33097   5.945   1.208   6.531
10733SOL    HW133098   6.027   1.265   6.531
10733SOL    HW233099   5.880   1.244   6.599
10734SOL     OW33100   1.048   2.006   1.231
10734SOL    HW133101   1.037   1.990   1.133
10734SOL    HW233102   0.997   1.937   1.282
10735SOL     OW33103   0.425   2.942   2.132
10735SOL    HW133104   0.398   2.995   2.212
10735SOL    HW233105   0.464   2.854   2.161
10736SOL     OW33106   1.994   0.170   3.567
10736SOL    HW133107   1.949   0.259   3.551
10736SOL    HW233108   2.063   0.180   3.638
10737SOL     OW33109   0.733   2.036   1.416
10737SOL    HW133110   0.717   2.013   1.320
10737SOL    HW233111   0.652   2.080   1.454
10738SOL     OW33112   3.366   5.998   2.714
10738SOL    HW133113   3.268   5.999   2.734
10738SOL    HW233114   3.412   5.936   2.777
10739SOL     OW33115   1.700   2.825   1.601
10739SOL    HW133116   1.795   2.856   1.615
10739SOL    HW233117   1.638   2.891   1.643
10740SOL     OW33118   6.271   4.761   5.478
10740SOL    HW133119   6.368   4.779   5.498
10740SOL    HW233120   6.224   4.739   5.563
10741SOL     OW33121   4.117   1.521   1.887
10741SOL    HW133122   4.129   1.621   1.890
10741SOL    HW233123   4.180   1.478   1.951
10742SOL     OW33124   6.205   5.544   1.733
10742SOL    HW133125   6.223   5.447   1.750
10742SOL    HW233126   6.236   5.569   1.642
10743SOL     OW33127   1.833   1.840   4.447
10743SOL    HW133128   1.782   1.874   4.526
10743SOL    HW233129   1.801   1.885   4.364
10744SOL     OW33130   3.324   1.906   0.888
10744SOL    HW133131   3.305   1.839   0.959
10744SOL    HW233132   3.313   1.999   0.925
10745SOL     OW33133   0.328   5.306   5.423
10745SOL    HW133134   0.236   5.292   5.386
10745SOL    HW233135   0.387   5.229   5.398
10746SOL     OW33136   1.058   3.498   6.323
10746SOL    HW133137   1.094   3.407   6.302
10746SOL    HW233138   1.134   3.560   6.341
10747SOL     OW33139   3.039   0.988   5.207
10747SOL    HW133140   3.093   1.062   5.166
10747SOL    HW233141   2.944   1.017   5.217
10748SOL     OW33142   5.638   1.212   2.388
10748SOL    HW133143   5.662   1.223   2.485
10748SOL    HW233144   5.603   1.298   2.352
10749SOL     OW33145   0.890   6.492   5.313
10749SOL    HW133146   0.844   6.414   5.269
10749SOL    HW233147   0.905   6.470   5.410
10750SOL     OW33148   4.086   0.280   5.114
10750SOL    HW133149   4.060   0.274   5.018
10750SOL    HW233150   4.011   0.247   5.171
10751SOL     OW33151   2.101   4.467   4.550
10751SOL    HW133152   2.194   4.454   4.584
10751SOL    HW233153   2.066   4.380   4.514
10752SOL     OW33154   5.902   4.322   5.345
10752SOL    HW133155   5.972   4.251   5.342
10752SOL    HW233156   5.815   4.281   5.373
10753SOL     OW33157   0.270   4.135   4.078
10753SOL    HW133158   0.279   4.195   3.998
10753SOL    HW233159   0.344   4.068   4.077
10754SOL     OW33160   1.438   0.246   2.850
10754SOL    HW133161   1.510   0.299   2.894
10754SOL    HW233162   1.349   0.274   2.885
10755SOL     OW33163   6.661   6.944   1.619
10755SOL    HW133164   6.656   6.967   1.521
10755SOL    HW233165   6.755   6.959   1.651
10756SOL     OW33166   6.743   5.035   5.122
10756SOL    HW133167   6.710   5.024   5.029
10756SOL    HW233168   6.736   4.947   5.170
10757SOL     OW33169   2.426   2.702   6.809
10757SOL    HW133170   2.520   2.669   6.794
10757SOL    HW233171   2.408   2.779   6.749
10758SOL     OW33172   0.807   6.314   3.610
10758SOL    HW133173   0.733   6.260   3.649
10758SOL    HW233174   0.895   6.282   3.645
10759SOL     OW33175   1.426   3.471   0.607
10759SOL    HW133176   1.522   3.469   0.637
10759SOL    HW233177   1.400   3.381   0.574
10760SOL     OW33178   5.933   0.895   3.153
10760SOL    HW133179   5.876   0.976   3.141
10760SOL    HW233180   5.974   0.870   3.066
10761SOL     OW33181   1.382   5.307   5.498
10761SOL    HW133182   1.470   5.354   5.501
10761SOL    HW233183   1.389   5.227   5.438
10762SOL     OW33184   2.723   0.308   4.756
10762SOL    HW133185   2.789   0.366   4.804
10762SOL    HW233186   2.695   0.352   4.671
10763SOL     OW33187   4.271   0.281   3.112
10763SOL    HW133188   4.327   0.227   3.175
10763SOL    HW233189   4.250   0.370   3.152
10764SOL     OW33190   5.029   2.192   4.708
10764SOL    HW133191   5.037   2.288   4.734
10764SOL    HW233192   5.117   2.159   4.675
10765SOL     OW33193   5.400   2.987   0.901
10765SOL    HW133194   5.415   2.907   0.959
10765SOL    HW233195   5.343   3.054   0.949
10766SOL     OW33196   4.081   4.887   0.448
10766SOL    HW133197   4.168   4.914   0.409
10766SOL    HW233198   4.007   4.908   0.383
10767SOL     OW33199   2.530   0.524   1.334
10767SOL    HW133200   2.582   0.489   1.257
10767SOL    HW233201   2.585   0.517   1.418
10768SOL     OW33202   6.352   4.998   1.434
10768SOL    HW133203   6.357   4.898   1.441
10768SOL    HW233204   6.407   5.039   1.507
10769SOL     OW33205   1.929   3.312   5.769
10769SOL    HW133206   1.935   3.403   5.728
10769SOL    HW233207   1.837   3.276   5.756
10770SOL     OW33208   5.297   5.864   3.268
10770SOL    HW133209   5.274   5.804   3.191
10770SOL    HW233210   5.348   5.943   3.235
10771SOL     OW33211   4.267   6.913   4.144
10771SOL    HW133212   4.281   6.901   4.242
10771SOL    HW233213   4.257   7.010   4.123
10772SOL     OW33214   6.415   6.032   3.837
10772SOL    HW133215   6.480   5.967   3.798
10772SOL    HW233216   6.412   6.114   3.780
10773SOL     OW33217   5.949   4.574   6.030
10773SOL    HW133218   6.027   4.630   6.056
10773SOL    HW233219   5.918   4.600   5.938
10774SOL     OW33220   1.973   1.389   4.268
10774SOL    HW133221   2.038   1.316   4.244
10774SOL    HW233222   1.892   1.349   4.310
10775SOL     OW33223   0.657   4.265   2.128
10775SOL    HW133224   0.690   4.355   2.157
10775SOL    HW233225   0.570   4.246   2.174
10776SOL     OW33226   1.079   0.326   6.218
10776SOL    HW133227   1.003   0.391   6.208
10776SOL    HW233228   1.048   0.248   6.273
10777SOL     OW33229   4.010   5.220   1.146
10777SOL    HW133230   4.028   5.270   1.061
10777SOL    HW233231   4.096   5.206   1.195
10778SOL     OW33232   4.941   0.124   3.529
10778SOL    HW133233   4.917   0.059   3.601
10778SOL    HW233234   5.040   0.125   3.517
10779SOL     OW33235   5.974   2.948   2.787
10779SOL    HW133236   5.878   2.919   2.792
10779SOL    HW233237   6.023   2.888   2.723
10780SOL     OW33238   1.106   1.129   4.083
10780SOL    HW133239   1.149   1.053   4.034
10780SOL    HW233240   1.009   1.134   4.060
10781SOL     OW33241   3.781   0.725   3.876
10781SOL    HW133242   3.844   0.756   3.804
10781SOL    HW233243   3.692   0.769   3.863
10782SOL     OW33244   0.097   6.827   3.963
10782SOL    HW133245   0.095   6.860   3.869
10782SOL    HW233246   0.064   6.732   3.966
10783SOL     OW33247   0.147   2.829   2.585
10783SOL    HW133248   0.098   2.768   2.522
10783SOL    HW233249   0.092   2.844   2.667
10784SOL     OW33250   2.924   0.847   3.651
10784SOL    HW133251   2.975   0.865   3.567
10784SOL    HW233252   2.918   0.749   3.666
10785SOL     OW33253   1.630   3.914   0.168
10785SOL    HW133254   1.623   4.014   0.172
10785SOL    HW233255   1.574   3.874   0.241
10786SOL     OW33256   6.244   6.043   2.988
10786SOL    HW133257   6.266   6.122   3.045
10786SOL    HW233258   6.249   6.069   2.891
10787SOL     OW33259   0.596   0.608   5.291
10787SOL    HW133260   0.572   0.578   5.198
10787SOL    HW233261   0.578   0.534   5.356
10788SOL     OW33262   0.980   3.574   0.561
10788SOL    HW133263   0.987   3.474   0.551
10788SOL    HW233264   0.890   3.604   0.530
10789SOL     OW33265   6.646   3.085   6.848
10789SOL    HW133266   6.618   3.014   6.784
10789SOL    HW233267   6.567   3.119   6.899
10790SOL     OW33268   0.912   6.437   1.525
10790SOL    HW133269   0.888   6.474   1.615
10790SOL    HW233270   0.851   6.361   1.504
10791SOL     OW33271   6.845   6.108   2.053
10791SOL    HW133272   6.918   6.111   1.984
10791SOL    HW233273   6.866   6.172   2.126
10792SOL     OW33274   3.667   3.252   5.242
10792SOL    HW133275   3.617   3.172   5.277
10792SOL    HW233276   3.755   3.223   5.205
10793SOL     OW33277   5.805   3.466   5.714
10793SOL    HW133278   5.886   3.458   5.656
10793SOL    HW233279   5.789   3.379   5.762
10794SOL     OW33280   3.715   3.767   4.147
10794SOL    HW133281   3.619   3.745   4.162
10794SOL    HW233282   3.772   3.703   4.198
10795SOL     OW33283   0.460   4.948   3.127
10795SOL    HW133284   0.443   4.850   3.129
10795SOL    HW233285   0.558   4.965   3.122
10796SOL     OW33286   6.654   6.304   6.082
10796SOL    HW133287   6.696   6.394   6.097
10796SOL    HW233288   6.582   6.313   6.014
10797SOL     OW33289   3.778   3.042   0.803
10797SOL    HW133290   3.684   3.076   0.799
10797SOL    HW233291   3.814   3.057   0.895
10798SOL     OW33292   2.141   1.644   0.563
10798SOL    HW133293   2.234   1.642   0.601
10798SOL    HW233294   2.138   1.589   0.480
10799SOL     OW33295   4.306   0.210   2.836
10799SOL    HW133296   4.298   0.251   2.927
10799SOL    HW233297   4.220   0.166   2.812
10800SOL     OW33298   0.588   6.072   0.133
10800SOL    HW133299   0.652   5.995   0.133
10800SOL    HW233300   0.503   6.045   0.178
10801SOL     OW33301   1.281   0.413   0.588
10801SOL    HW133302   1.326   0.363   0.662
10801SOL    HW233303   1.306   0.371   0.500
10802SOL     OW33304   0.012   6.396   3.152
10802SOL    HW133305   0.100   6.397   3.199
10802SOL    HW233306   7.021   6.486   3.110
10803SOL     OW33307   1.709   5.767   6.336
10803SOL    HW133308   1.692   5.816   6.422
10803SOL    HW233309   1.703   5.832   6.260
10804SOL     OW33310   0.130   2.886   3.201
10804SOL    HW133311   0.177   2.858   3.285
10804SOL    HW233312   0.190   2.872   3.122
10805SOL     OW33313   5.932   1.309   4.765
10805SOL    HW133314   5.835   1.309   4.785
10805SOL    HW233315   5.976   1.231   4.811
10806SOL     OW33316   2.914   5.217   6.894
10806SOL    HW133317   2.842   5.147   6.888
10806SOL    HW233318   2.961   5.224   6.806
10807SOL     OW33319   1.634   5.823   4.080
10807SOL    HW133320   1.686   5.777   4.152
10807SOL    HW233321   1.540   5.836   4.110
10808SOL     OW33322   0.153   2.817   5.867
10808SOL    HW133323   0.190   2.773   5.785
10808SOL    HW233324   0.218   2.809   5.942
10809SOL     OW33325   1.797   4.198   4.405
10809SOL    HW133326   1.802   4.270   4.335
10809SOL    HW233327   1.708   4.203   4.451
10810SOL     OW33328   6.894   0.288   3.934
10810SOL    HW133329   6.920   0.198   3.968
10810SOL    HW233330   6.843   0.337   4.004
10811SOL     OW33331   4.964   5.167   4.461
10811SOL    HW133332   4.972   5.266   4.474
10811SOL    HW233333   4.956   5.122   4.550
10812SOL     OW33334   6.897   2.970   6.747
10812SOL    HW133335   6.985   2.966   6.792
10812SOL    HW233336   6.841   3.042   6.788
10813SOL     OW33337   0.554   3.600   6.080
10813SOL    HW133338   0.473   3.557   6.040
10813SOL    HW233339   0.634   3.543   6.062
10814SOL     OW33340   2.430   0.055   0.803
10814SOL    HW133341   2.447   0.111   0.721
10814SOL    HW233342   2.506   0.067   0.867
10815SOL     OW33343   5.109   1.837   3.479
10815SOL    HW133344   5.197   1.795   3.501
10815SOL    HW233345   5.064   1.784   3.407
10816SOL     OW33346   3.538   2.840   3.167
10816SOL    HW133347   3.565   2.839   3.264
10816SOL    HW233348   3.535   2.747   3.132
10817SOL     OW33349   3.334   7.006   3.166
10817SOL    HW133350   3.392   0.048   3.213
10817SOL    HW233351   3.341   6.918   3.212
10818SOL     OW33352   4.838   5.045   5.882
10818SOL    HW133353   4.861   4.952   5.853
10818SOL    HW233354   4.887   5.111   5.826
10819SOL     OW33355   6.486   5.581   6.461
10819SOL    HW133356   6.586   5.586   6.457
10819SOL    HW233357   6.458   5.490   6.491
10820SOL     OW33358   0.538   5.573   5.330
10820SOL    HW133359   0.589   5.578   5.416
10820SOL    HW233360   0.598   5.536   5.258
10821SOL     OW33361   4.157   5.388   2.647
10821SOL    HW133362   4.062   5.380   2.619
10821SOL    HW233363   4.179   5.484   2.662
10822SOL     OW33364   5.251   2.805   1.161
10822SOL    HW133365   5.195   2.885   1.140
10822SOL    HW233366   5.317   2.828   1.233
10823SOL     OW33367   0.248   6.908   2.910
10823SOL    HW133368   0.341   6.925   2.943
10823SOL    HW233369   0.187   6.898   2.988
10824SOL     OW33370   1.211   0.886   4.008
10824SOL    HW133371   1.310   0.901   4.005
10824SOL    HW233372   1.188   0.805   3.954
10825SOL     OW33373   1.302   2.288   0.952
10825SOL    HW133374   1.283   2.280   1.050
10825SOL    HW233375   1.384   2.236   0.929
10826SOL     OW33376   0.908   2.159   2.844
10826SOL    HW133377   1.006   2.177   2.834
10826SOL    HW233378   0.861   2.243   2.868
10827SOL     OW33379   6.300   3.748   5.174
10827SOL    HW133380   6.211   3.794   5.166
10827SOL    HW233381   6.353   3.789   5.248
10828SOL     OW33382   6.122   3.366   0.241
10828SOL    HW133383   6.161   3.280   0.272
10828SOL    HW233384   6.099   3.423   0.319
10829SOL     OW33385   4.428   3.805   6.943
10829SOL    HW133386   4.340   3.852   6.938
10829SOL    HW233387   4.500   3.865   6.909
10830SOL     OW33388   4.684   1.582   3.874
10830SOL    HW133389   4.698   1.507   3.938
10830SOL    HW233390   4.736   1.662   3.904
10831SOL     OW33391   3.792   0.894   2.004
10831SOL    HW133392   3.698   0.921   2.027
10831SOL    HW233393   3.834   0.849   2.082
10832SOL     OW33394   0.095   3.084   6.918
10832SOL    HW133395   0.182   3.045   6.949
10832SOL    HW233396   0.109   3.134   6.833
10833SOL     OW33397   0.483   2.082   0.967
10833SOL    HW133398   0.410   2.059   0.903
10833SOL    HW233399   0.498   2.006   1.030
10834SOL     OW33400   6.780   0.067   0.408
10834SOL    HW133401   6.871   0.025   0.410
10834SOL    HW233402   6.788   0.165   0.426
10835SOL     OW33403   5.557   3.107   0.209
10835SOL    HW133404   5.627   3.088   0.140
10835SOL    HW233405   5.572   3.197   0.249
10836SOL     OW33406   1.168   1.072   2.713
10836SOL    HW133407   1.185   0.973   2.706
10836SOL    HW233408   1.153   1.109   2.621
10837SOL     OW33409   6.326   4.709   2.253
10837SOL    HW133410   6.387   4.632   2.233
10837SOL    HW233411   6.343   4.783   2.188
10838SOL     OW33412   5.588   5.921   3.506
10838SOL    HW133413   5.571   6.017   3.483
10838SOL    HW233414   5.563   5.904   3.601
10839SOL     OW33415   4.638   3.700   0.260
10839SOL    HW133416   4.676   3.791   0.273
10839SOL    HW233417   4.582   3.676   0.340
10840SOL     OW33418   3.016   0.206   1.860
10840SOL    HW133419   2.961   0.279   1.900
10840SOL    HW233420   3.015   0.127   1.920
10841SOL     OW33421   0.495   5.258   4.847
10841SOL    HW133422   0.476   5.294   4.938
10841SOL    HW233423   0.424   5.289   4.783
10842SOL     OW33424   4.071   3.449   1.574
10842SOL    HW133425   4.137   3.520   1.601
10842SOL    HW233426   3.981   3.473   1.610
10843SOL     OW33427   2.361   1.531   1.404
10843SOL    HW133428   2.393   1.441   1.374
10843SOL    HW233429   2.282   1.558   1.349
10844SOL     OW33430   1.164   5.858   4.859
10844SOL    HW133431   1.178   5.940   4.916
10844SOL    HW233432   1.072   5.822   4.875
10845SOL     OW33433   4.979   6.353   5.143
10845SOL    HW133434   4.982   6.318   5.049
10845SOL    HW233435   4.988   6.452   5.142
10846SOL     OW33436   5.631   6.793   0.067
10846SOL    HW133437   5.694   6.715   0.075
10846SOL    HW233438   5.537   6.759   0.064
10847SOL     OW33439   2.195   1.609   6.941
10847SOL    HW133440   2.287   1.611   6.902
10847SOL    HW233441   2.129   1.636   6.871
10848SOL     OW33442   1.333   3.985   1.074
10848SOL    HW133443   1.273   3.905   1.072
10848SOL    HW233444   1.316   4.037   1.158
10849SOL     OW33445   2.773   4.781   3.879
10849SOL    HW133446   2.698   4.815   3.822
10849SOL    HW233447   2.767   4.822   3.970
10850SOL     OW33448   4.834   6.216   0.362
10850SOL    HW133449   4.905   6.198   0.430
10850SOL    HW233450   4.875   6.228   0.272
10851SOL     OW33451   3.009   4.371   1.670
10851SOL    HW133452   2.984   4.424   1.751
10851SOL    HW233453   2.968   4.279   1.677
10852SOL     OW33454   1.651   1.409   0.272
10852SOL    HW133455   1.746   1.407   0.242
10852SOL    HW233456   1.619   1.316   0.291
10853SOL     OW33457   2.056   2.965   6.118
10853SOL    HW133458   1.979   2.980   6.055
10853SOL    HW233459   2.126   2.910   6.073
10854SOL     OW33460   4.174   6.172   4.617
10854SOL    HW133461   4.085   6.210   4.643
10854SOL    HW233462   4.204   6.212   4.531
10855SOL     OW33463   3.437   1.457   0.549
10855SOL    HW133464   3.483   1.537   0.510
10855SOL    HW233465   3.484   1.374   0.520
10856SOL     OW33466   6.899   0.578   6.762
10856SOL    HW133467   6.879   0.487   6.797
10856SOL    HW233468   6.926   0.638   6.838
10857SOL     OW33469   0.072   1.585   2.219
10857SOL    HW133470   7.021   1.641   2.253
10857SOL    HW233471   0.078   1.593   2.120
10858SOL     OW33472   2.605   5.801   1.617
10858SOL    HW133473   2.650   5.866   1.678
10858SOL    HW233474   2.615   5.832   1.522
10859SOL     OW33475   0.245   4.809   4.481
10859SOL    HW133476   0.181   4.736   4.505
10859SOL    HW233477   0.338   4.780   4.502
10860SOL     OW33478   6.782   3.383   2.532
10860SOL    HW133479   6.701   3.352   2.582
10860SOL    HW233480   6.764   3.472   2.491
10861SOL     OW33481   3.164   3.256   3.663
10861SOL    HW133482   3.128   3.176   3.614
10861SOL    HW233483   3.257   3.275   3.633
10862SOL     OW33484   2.398   0.623   5.326
10862SOL    HW133485   2.461   0.566   5.378
10862SOL    HW233486   2.327   0.658   5.386
10863SOL     OW33487   2.506   6.489   4.776
10863SOL    HW133488   2.604   6.480   4.757
10863SOL    HW233489   2.466   6.399   4.792
10864SOL     OW33490   3.562   0.029   1.984
10864SOL    HW133491   3.497   6.981   1.999
10864SOL    HW233492   3.527   0.114   2.024
10865SOL     OW33493   6.076   0.997   6.734
10865SOL    HW133494   6.131   1.000   6.650
10865SOL    HW233495   5.996   1.056   6.723
10866SOL     OW33496   5.186   4.203   0.437
10866SOL    HW133497   5.113   4.191   0.505
10866SOL    HW233498   5.189   4.299   0.409
10867SOL     OW33499   3.135   4.431   0.765
10867SOL    HW133500   3.175   4.340   0.756
10867SOL    HW233501   3.163   4.487   0.687
10868SOL     OW33502   4.433   1.703   3.543
10868SOL    HW133503   4.443   1.789   3.593
10868SOL    HW233504   4.474   1.712   3.453
10869NA      NA33505   5.972   2.194   5.671
10870NA      NA33506   4.302   4.650   5.211
10871NA      NA33507   2.045   3.662   1.567
10872NA      NA33508   4.839   3.669   5.498
10873NA      NA33509   4.318   2.232   5.051
10874NA      NA33510   3.785   4.674   1.675
10875NA      NA33511   6.752   5.246   5.240
10876NA      NA33512   3.579   3.462   4.855
10877NA      NA33513   5.060   6.378   6.468
10878NA      NA33514   3.299   6.503   5.388
10879NA      NA33515   6.910   5.199   2.277
10880NA      NA33516   2.319   0.466   3.744
10881NA      NA33517   3.820   5.131   1.297
10882NA      NA33518   3.371   3.473   2.286
   7.02532   7.02532   7.02532
