Generated by trjconv : CNT in water t= 166.00000
33518
    1C        C    1   2.845   2.774   4.747
    1C        C    2   2.896   2.718   4.866
    1C        C    3   2.842   2.772   4.983
    1C        C    4   2.847   2.773   4.262
    1C        C    5   2.899   2.725   4.384
    1C        C    6   2.841   2.772   4.504
    1C        C    7   3.014   2.647   4.624
    1C        C    8   2.896   2.725   4.625
    1C        C    9   3.079   2.605   4.743
    1C        C   10   3.007   2.631   4.862
    1C        C   11   3.181   2.498   4.976
    1C        C   12   3.060   2.568   4.975
    1C        C   13   2.848   2.770   3.772
    1C        C   14   2.898   2.724   3.896
    1C        C   15   2.844   2.773   4.017
    1C        C   16   3.021   2.655   4.137
    1C        C   17   2.901   2.729   4.139
    1C        C   18   3.084   2.625   4.260
    1C        C   19   3.021   2.654   4.383
    1C        C   20   3.214   2.566   4.503
    1C        C   21   3.081   2.614   4.504
    1C        C   22   3.279   2.537   4.625
    1C        C   23   3.211   2.551   4.748
    1C        C   24   3.415   2.484   4.866
    1C        C   25   3.274   2.508   4.868
    1C        C   26   3.494   2.477   4.982
    1C        C   27   2.842   2.765   3.280
    1C        C   28   2.894   2.720   3.403
    1C        C   29   2.848   2.768   3.528
    1C        C   30   3.022   2.648   3.648
    1C        C   31   2.902   2.724   3.650
    1C        C   32   3.081   2.615   3.772
    1C        C   33   3.017   2.648   3.893
    1C        C   34   3.207   2.553   4.016
    1C        C   35   3.081   2.616   4.015
    1C        C   36   3.277   2.535   4.138
    1C        C   37   3.212   2.565   4.259
    1C        C   38   3.420   2.521   4.381
    1C        C   39   3.280   2.543   4.381
    1C        C   40   3.490   2.509   4.503
    1C        C   41   3.418   2.510   4.624
    1C        C   42   3.631   2.492   4.744
    1C        C   43   3.489   2.490   4.745
    1C        C   44   3.706   2.491   4.863
    1C        C   45   3.633   2.478   4.982
    1C        C   46   2.834   2.750   2.793
    1C        C   47   2.886   2.706   2.917
    1C        C   48   2.837   2.758   3.038
    1C        C   49   3.017   2.641   3.158
    1C        C   50   2.896   2.716   3.159
    1C        C   51   3.078   2.610   3.281
    1C        C   52   3.013   2.643   3.402
    1C        C   53   3.206   2.552   3.526
    1C        C   54   3.077   2.609   3.524
    1C        C   55   3.274   2.531   3.648
    1C        C   56   3.209   2.554   3.771
    1C        C   57   3.415   2.515   3.895
    1C        C   58   3.275   2.533   3.894
    1C        C   59   3.488   2.510   4.016
    1C        C   60   3.416   2.512   4.138
    1C        C   61   3.629   2.498   4.259
    1C        C   62   3.488   2.504   4.259
    1C        C   63   3.704   2.505   4.379
    1C        C   64   3.632   2.503   4.501
    1C        C   65   3.839   2.540   4.621
    1C        C   66   3.703   2.503   4.623
    1C        C   67   3.907   2.559   4.743
    1C        C   68   3.843   2.525   4.864
    1C        C   69   4.053   2.586   4.980
    1C        C   70   3.928   2.524   4.976
    1C        C   71   2.823   2.735   2.307
    1C        C   72   2.883   2.692   2.428
    1C        C   73   2.831   2.745   2.548
    1C        C   74   3.006   2.626   2.671
    1C        C   75   2.886   2.700   2.671
    1C        C   76   3.071   2.599   2.793
    1C        C   77   3.006   2.631   2.915
    1C        C   78   3.208   2.556   3.037
    1C        C   79   3.075   2.604   3.035
    1C        C   80   3.273   2.533   3.160
    1C        C   81   3.206   2.550   3.283
    1C        C   82   3.414   2.506   3.403
    1C        C   83   3.275   2.528   3.405
    1C        C   84   3.484   2.503   3.526
    1C        C   85   3.414   2.513   3.648
    1C        C   86   3.625   2.508   3.769
    1C        C   87   3.483   2.506   3.771
    1C        C   88   3.696   2.513   3.891
    1C        C   89   3.630   2.508   4.016
    1C        C   90   3.838   2.543   4.136
    1C        C   91   3.700   2.513   4.138
    1C        C   92   3.907   2.567   4.257
    1C        C   93   3.840   2.541   4.379
    1C        C   94   4.036   2.627   4.500
    1C        C   95   3.909   2.565   4.500
    1C        C   96   4.097   2.664   4.622
    1C        C   97   4.035   2.620   4.742
    1C        C   98   4.195   2.761   4.861
    1C        C   99   4.102   2.652   4.863
    1C        C  100   4.217   2.842   4.974
    1C        C  101   2.818   2.728   2.072
    1C        C  102   2.989   2.589   2.190
    1C        C  103   2.875   2.676   2.189
    1C        C  104   3.062   2.570   2.310
    1C        C  105   3.003   2.618   2.429
    1C        C  106   3.202   2.541   2.550
    1C        C  107   3.069   2.587   2.550
    1C        C  108   3.272   2.529   2.673
    1C        C  109   3.202   2.548   2.794
    1C        C  110   3.414   2.508   2.915
    1C        C  111   3.275   2.533   2.915
    1C        C  112   3.484   2.500   3.037
    1C        C  113   3.413   2.509   3.159
    1C        C  114   3.626   2.507   3.277
    1C        C  115   3.485   2.504   3.280
    1C        C  116   3.693   2.517   3.401
    1C        C  117   3.625   2.506   3.524
    1C        C  118   3.832   2.551   3.645
    1C        C  119   3.695   2.515   3.647
    1C        C  120   3.897   2.568   3.769
    1C        C  121   3.834   2.544   3.893
    1C        C  122   4.029   2.632   4.013
    1C        C  123   3.904   2.568   4.013
    1C        C  124   4.093   2.669   4.134
    1C        C  125   4.031   2.634   4.256
    1C        C  126   4.200   2.762   4.376
    1C        C  127   4.093   2.669   4.378
    1C        C  128   4.244   2.819   4.497
    1C        C  129   4.199   2.762   4.618
    1C        C  130   4.330   2.930   4.740
    1C        C  131   4.246   2.815   4.740
    1C        C  132   4.358   3.002   4.858
    1C        C  133   4.288   2.961   4.972
    1C        C  134   3.170   2.465   2.082
    1C        C  135   3.038   2.510   2.081
    1C        C  136   3.259   2.480   2.190
    1C        C  137   3.194   2.517   2.310
    1C        C  138   3.407   2.486   2.427
    1C        C  139   3.267   2.506   2.430
    1C        C  140   3.481   2.487   2.547
    1C        C  141   3.411   2.504   2.669
    1C        C  142   3.623   2.497   2.790
    1C        C  143   3.481   2.500   2.791
    1C        C  144   3.695   2.507   2.911
    1C        C  145   3.625   2.504   3.034
    1C        C  146   3.835   2.541   3.156
    1C        C  147   3.698   2.506   3.155
    1C        C  148   3.901   2.563   3.279
    1C        C  149   3.832   2.544   3.401
    1C        C  150   4.030   2.624   3.524
    1C        C  151   3.899   2.569   3.523
    1C        C  152   4.090   2.661   3.647
    1C        C  153   4.024   2.632   3.768
    1C        C  154   4.196   2.759   3.888
    1C        C  155   4.084   2.673   3.889
    1C        C  156   4.253   2.804   4.009
    1C        C  157   4.205   2.754   4.132
    1C        C  158   4.338   2.921   4.254
    1C        C  159   4.253   2.808   4.253
    1C        C  160   4.376   2.984   4.375
    1C        C  161   4.327   2.933   4.498
    1C        C  162   4.444   3.112   4.613
    1C        C  163   4.371   2.991   4.619
    1C        C  164   4.470   3.183   4.732
    1C        C  165   4.429   3.124   4.854
    1C        C  166   4.514   3.318   4.970
    1C        C  167   4.481   3.183   4.970
    1C        C  168   3.476   2.427   2.075
    1C        C  169   3.398   2.457   2.187
    1C        C  170   3.618   2.469   2.304
    1C        C  171   3.475   2.466   2.305
    1C        C  172   3.693   2.485   2.423
    1C        C  173   3.622   2.493   2.545
    1C        C  174   3.829   2.541   2.667
    1C        C  175   3.692   2.507   2.667
    1C        C  176   3.897   2.563   2.789
    1C        C  177   3.833   2.537   2.912
    1C        C  178   4.029   2.624   3.032
    1C        C  179   3.899   2.568   3.033
    1C        C  180   4.087   2.660   3.155
    1C        C  181   4.028   2.623   3.278
    1C        C  182   4.196   2.751   3.397
    1C        C  183   4.090   2.657   3.401
    1C        C  184   4.248   2.800   3.519
    1C        C  185   4.200   2.750   3.642
    1C        C  186   4.334   2.916   3.764
    1C        C  187   4.245   2.806   3.764
    1C        C  188   4.368   2.979   3.886
    1C        C  189   4.337   2.918   4.010
    1C        C  190   4.445   3.102   4.130
    1C        C  191   4.379   2.977   4.131
    1C        C  192   4.473   3.171   4.250
    1C        C  193   4.443   3.108   4.373
    1C        C  194   4.511   3.314   4.489
    1C        C  195   4.470   3.179   4.492
    1C        C  196   4.529   3.385   4.609
    1C        C  197   4.513   3.319   4.733
    1C        C  198   4.552   3.533   4.848
    1C        C  199   4.537   3.391   4.853
    1C        C  200   4.587   3.619   4.957
    1C        C  201   3.616   2.418   2.071
    1C        C  202   3.826   2.516   2.183
    1C        C  203   3.692   2.466   2.183
    1C        C  204   3.899   2.539   2.303
    1C        C  205   3.830   2.519   2.425
    1C        C  206   4.022   2.618   2.543
    1C        C  207   3.899   2.550   2.544
    1C        C  208   4.085   2.659   2.663
    1C        C  209   4.025   2.623   2.786
    1C        C  210   4.198   2.747   2.906
    1C        C  211   4.087   2.660   2.908
    1C        C  212   4.251   2.791   3.029
    1C        C  213   4.201   2.744   3.152
    1C        C  214   4.339   2.905   3.272
    1C        C  215   4.249   2.796   3.274
    1C        C  216   4.374   2.966   3.395
    1C        C  217   4.335   2.911   3.518
    1C        C  218   4.425   3.103   3.640
    1C        C  219   4.373   2.971   3.640
    1C        C  220   4.450   3.171   3.761
    1C        C  221   4.428   3.107   3.885
    1C        C  222   4.505   3.304   4.005
    1C        C  223   4.467   3.168   4.007
    1C        C  224   4.517   3.380   4.124
    1C        C  225   4.509   3.308   4.245
    1C        C  226   4.521   3.523   4.365
    1C        C  227   4.520   3.381   4.365
    1C        C  228   4.519   3.597   4.485
    1C        C  229   4.533   3.527   4.607
    1C        C  230   4.507   3.743   4.726
    1C        C  231   4.535   3.603   4.726
    1C        C  232   4.501   3.819   4.845
    1C        C  233   4.549   3.754   4.959
    1C        C  234   4.016   2.615   2.061
    1C        C  235   3.892   2.553   2.065
    1C        C  236   4.085   2.647   2.179
    1C        C  237   4.025   2.605   2.300
    1C        C  238   4.202   2.728   2.420
    1C        C  239   4.088   2.643   2.421
    1C        C  240   4.256   2.782   2.539
    1C        C  241   4.198   2.743   2.662
    1C        C  242   4.340   2.902   2.784
    1C        C  243   4.248   2.795   2.783
    1C        C  244   4.381   2.958   2.907
    1C        C  245   4.341   2.901   3.029
    1C        C  246   4.438   3.092   3.148
    1C        C  247   4.379   2.963   3.150
    1C        C  248   4.460   3.158   3.271
    1C        C  249   4.435   3.094   3.395
    1C        C  250   4.491   3.300   3.514
    1C        C  251   4.458   3.163   3.516
    1C        C  252   4.506   3.372   3.636
    1C        C  253   4.493   3.305   3.760
    1C        C  254   4.522   3.514   3.876
    1C        C  255   4.511   3.374   3.882
    1C        C  256   4.520   3.587   3.997
    1C        C  257   4.521   3.521   4.122
    1C        C  258   4.488   3.732   4.240
    1C        C  259   4.517   3.593   4.243
    1C        C  260   4.470   3.802   4.362
    1C        C  261   4.482   3.734   4.485
    1C        C  262   4.421   3.939   4.604
    1C        C  263   4.472   3.807   4.605
    1C        C  264   4.395   4.008   4.725
    1C        C  265   4.437   3.945   4.844
    1C        C  266   4.320   4.130   4.957
    1C        C  267   4.397   4.014   4.959
    1C        C  268   4.259   2.775   2.059
    1C        C  269   4.196   2.734   2.177
    1C        C  270   4.347   2.885   2.296
    1C        C  271   4.253   2.778   2.298
    1C        C  272   4.387   2.948   2.416
    1C        C  273   4.344   2.892   2.538
    1C        C  274   4.446   3.081   2.660
    1C        C  275   4.378   2.957   2.659
    1C        C  276   4.474   3.148   2.781
    1C        C  277   4.444   3.085   2.904
    1C        C  278   4.503   3.290   3.023
    1C        C  279   4.470   3.153   3.025
    1C        C  280   4.508   3.361   3.145
    1C        C  281   4.494   3.295   3.269
    1C        C  282   4.518   3.507   3.387
    1C        C  283   4.506   3.366   3.390
    1C        C  284   4.519   3.581   3.507
    1C        C  285   4.513   3.513   3.631
    1C        C  286   4.492   3.724   3.751
    1C        C  287   4.513   3.584   3.753
    1C        C  288   4.469   3.790   3.874
    1C        C  289   4.488   3.725   3.998
    1C        C  290   4.426   3.932   4.115
    1C        C  291   4.473   3.799   4.117
    1C        C  292   4.398   3.999   4.237
    1C        C  293   4.428   3.937   4.360
    1C        C  294   4.327   4.126   4.480
    1C        C  295   4.397   4.003   4.481
    1C        C  296   4.284   4.188   4.599
    1C        C  297   4.323   4.130   4.721
    1C        C  298   4.200   4.315   4.838
    1C        C  299   4.281   4.196   4.840
    1C        C  300   4.168   4.398   4.950
    1C        C  301   4.356   2.874   2.060
    1C        C  302   4.467   3.066   2.175
    1C        C  303   4.400   2.939   2.176
    1C        C  304   4.482   3.140   2.295
    1C        C  305   4.451   3.074   2.416
    1C        C  306   4.500   3.282   2.535
    1C        C  307   4.477   3.143   2.537
    1C        C  308   4.514   3.357   2.655
    1C        C  309   4.505   3.286   2.777
    1C        C  310   4.520   3.498   2.897
    1C        C  311   4.517   3.356   2.899
    1C        C  312   4.510   3.570   3.018
    1C        C  313   4.511   3.502   3.143
    1C        C  314   4.484   3.714   3.262
    1C        C  315   4.510   3.575   3.264
    1C        C  316   4.468   3.785   3.383
    1C        C  317   4.495   3.720   3.506
    1C        C  318   4.424   3.920   3.627
    1C        C  319   4.480   3.791   3.627
    1C        C  320   4.391   3.985   3.748
    1C        C  321   4.424   3.924   3.871
    1C        C  322   4.318   4.110   3.988
    1C        C  323   4.396   3.992   3.991
    1C        C  324   4.280   4.171   4.110
    1C        C  325   4.322   4.117   4.233
    1C        C  326   4.187   4.280   4.352
    1C        C  327   4.283   4.177   4.355
    1C        C  328   4.139   4.341   4.471
    1C        C  329   4.190   4.294   4.594
    1C        C  330   4.028   4.437   4.711
    1C        C  331   4.142   4.352   4.713
    1C        C  332   3.974   4.493   4.828
    1C        C  333   4.054   4.479   4.942
    1C        C  334   4.551   3.266   2.058
    1C        C  335   4.534   3.127   2.064
    1C        C  336   4.537   3.347   2.172
    1C        C  337   4.511   3.279   2.293
    1C        C  338   4.517   3.494   2.412
    1C        C  339   4.510   3.353   2.413
    1C        C  340   4.512   3.567   2.532
    1C        C  341   4.515   3.498   2.656
    1C        C  342   4.488   3.710   2.775
    1C        C  343   4.508   3.571   2.777
    1C        C  344   4.473   3.782   2.896
    1C        C  345   4.489   3.709   3.016
    1C        C  346   4.423   3.913   3.138
    1C        C  347   4.466   3.778   3.137
    1C        C  348   4.393   3.981   3.258
    1C        C  349   4.421   3.918   3.382
    1C        C  350   4.324   4.107   3.501
    1C        C  351   4.391   3.982   3.504
    1C        C  352   4.277   4.164   3.621
    1C        C  353   4.316   4.105   3.743
    1C        C  354   4.180   4.268   3.864
    1C        C  355   4.273   4.162   3.865
    1C        C  356   4.126   4.317   3.985
    1C        C  357   4.180   4.272   4.107
    1C        C  358   4.012   4.399   4.229
    1C        C  359   4.131   4.322   4.230
    1C        C  360   3.953   4.448   4.348
    1C        C  361   4.021   4.419   4.468
    1C        C  362   3.832   4.518   4.591
    1C        C  363   3.961   4.460   4.589
    1C        C  364   3.765   4.549   4.712
    1C        C  365   3.841   4.542   4.830
    1C        C  366   3.633   4.597   4.945
    1C        C  367   3.770   4.570   4.947
    1C        C  368   4.509   3.563   2.053
    1C        C  369   4.522   3.487   2.171
    1C        C  370   4.505   3.704   2.287
    1C        C  371   4.513   3.563   2.289
    1C        C  372   4.485   3.776   2.407
    1C        C  373   4.494   3.707   2.530
    1C        C  374   4.422   3.908   2.648
    1C        C  375   4.478   3.778   2.652
    1C        C  376   4.391   3.973   2.770
    1C        C  377   4.425   3.915   2.894
    1C        C  378   4.319   4.098   3.011
    1C        C  379   4.392   3.978   3.016
    1C        C  380   4.273   4.154   3.133
    1C        C  381   4.315   4.099   3.256
    1C        C  382   4.177   4.259   3.375
    1C        C  383   4.277   4.159   3.378
    1C        C  384   4.119   4.305   3.495
    1C        C  385   4.177   4.263   3.617
    1C        C  386   4.009   4.389   3.742
    1C        C  387   4.127   4.312   3.740
    1C        C  388   3.948   4.431   3.862
    1C        C  389   4.010   4.399   3.985
    1C        C  390   3.818   4.487   4.107
    1C        C  391   3.947   4.430   4.108
    1C        C  392   3.749   4.509   4.229
    1C        C  393   3.824   4.505   4.349
    1C        C  394   3.619   4.550   4.473
    1C        C  395   3.759   4.531   4.471
    1C        C  396   3.547   4.563   4.594
    1C        C  397   3.625   4.565   4.711
    1C        C  398   3.414   4.547   4.834
    1C        C  399   3.552   4.576   4.832
    1C        C  400   3.344   4.511   4.950
    1C        C  401   4.503   3.701   2.053
    1C        C  402   4.453   3.915   2.166
    1C        C  403   4.493   3.780   2.169
    1C        C  404   4.411   3.978   2.285
    1C        C  405   4.436   3.909   2.405
    1C        C  406   4.322   4.093   2.523
    1C        C  407   4.394   3.971   2.525
    1C        C  408   4.280   4.152   2.644
    1C        C  409   4.319   4.094   2.767
    1C        C  410   4.178   4.255   2.889
    1C        C  411   4.274   4.151   2.888
    1C        C  412   4.125   4.303   3.010
    1C        C  413   4.178   4.258   3.133
    1C        C  414   3.999   4.376   3.252
    1C        C  415   4.121   4.306   3.254
    1C        C  416   3.939   4.414   3.374
    1C        C  417   3.999   4.381   3.498
    1C        C  418   3.813   4.475   3.621
    1C        C  419   3.943   4.421   3.621
    1C        C  420   3.750   4.510   3.743
    1C        C  421   3.819   4.487   3.864
    1C        C  422   3.612   4.538   3.986
    1C        C  423   3.751   4.511   3.985
    1C        C  424   3.542   4.543   4.108
    1C        C  425   3.612   4.540   4.231
    1C        C  426   3.402   4.551   4.353
    1C        C  427   3.543   4.555   4.354
    1C        C  428   3.333   4.544   4.476
    1C        C  429   3.405   4.557   4.597
    1C        C  430   3.194   4.515   4.719
    1C        C  431   3.333   4.546   4.718
    1C        C  432   3.125   4.493   4.841
    1C        C  433   3.206   4.499   4.955
    1C        C  434   4.385   4.121   2.049
    1C        C  435   4.443   3.994   2.050
    1C        C  436   4.302   4.163   2.158
    1C        C  437   4.335   4.099   2.280
    1C        C  438   4.176   4.244   2.400
    1C        C  439   4.281   4.150   2.401
    1C        C  440   4.124   4.296   2.521
    1C        C  441   4.177   4.249   2.643
    1C        C  442   4.003   4.372   2.766
    1C        C  443   4.123   4.296   2.765
    1C        C  444   3.942   4.413   2.887
    1C        C  445   4.008   4.382   3.008
    1C        C  446   3.813   4.472   3.128
    1C        C  447   3.941   4.414   3.129
    1C        C  448   3.746   4.493   3.251
    1C        C  449   3.811   4.474   3.375
    1C        C  450   3.609   4.529   3.496
    1C        C  451   3.747   4.498   3.498
    1C        C  452   3.541   4.541   3.619
    1C        C  453   3.611   4.538   3.741
    1C        C  454   3.400   4.548   3.863
    1C        C  455   3.541   4.547   3.864
    1C        C  456   3.331   4.538   3.986
    1C        C  457   3.400   4.541   4.109
    1C        C  458   3.194   4.500   4.235
    1C        C  459   3.332   4.533   4.232
    1C        C  460   3.127   4.484   4.358
    1C        C  461   3.195   4.516   4.478
    1C        C  462   2.995   4.435   4.601
    1C        C  463   3.124   4.492   4.598
    1C        C  464   2.930   4.402   4.723
    1C        C  465   2.992   4.441   4.845
    1C        C  466   2.799   4.339   4.960
    1C        C  467   2.905   4.430   4.958
    1C        C  468   4.128   4.296   2.040
    1C        C  469   4.187   4.248   2.158
    1C        C  470   4.004   4.368   2.277
    1C        C  471   4.124   4.292   2.278
    1C        C  472   3.942   4.400   2.399
    1C        C  473   4.009   4.378   2.522
    1C        C  474   3.817   4.469   2.643
    1C        C  475   3.946   4.411   2.644
    1C        C  476   3.747   4.494   2.763
    1C        C  477   3.814   4.473   2.886
    1C        C  478   3.606   4.520   3.009
    1C        C  479   3.745   4.496   3.007
    1C        C  480   3.534   4.528   3.131
    1C        C  481   3.607   4.516   3.252
    1C        C  482   3.396   4.536   3.376
    1C        C  483   3.537   4.529   3.374
    1C        C  484   3.326   4.532   3.499
    1C        C  485   3.399   4.542   3.620
    1C        C  486   3.192   4.503   3.745
    1C        C  487   3.329   4.539   3.742
    1C        C  488   3.128   4.478   3.868
    1C        C  489   3.194   4.502   3.990
    1C        C  490   3.000   4.419   4.113
    1C        C  491   3.127   4.482   4.113
    1C        C  492   2.939   4.387   4.236
    1C        C  493   2.998   4.427   4.358
    1C        C  494   2.826   4.304   4.484
    1C        C  495   2.936   4.392   4.480
    1C        C  496   2.772   4.256   4.605
    1C        C  497   2.819   4.314   4.725
    1C        C  498   2.663   4.167   4.843
    1C        C  499   2.756   4.273   4.844
    1C        C  500   2.596   4.120   4.957
    1C        C  501   4.002   4.354   2.037
    1C        C  502   3.812   4.459   2.156
    1C        C  503   3.939   4.396   2.155
    1C        C  504   3.745   4.478   2.279
    1C        C  505   3.811   4.452   2.401
    1C        C  506   3.606   4.505   2.521
    1C        C  507   3.745   4.481   2.522
    1C        C  508   3.535   4.514   2.643
    1C        C  509   3.607   4.514   2.765
    1C        C  510   3.395   4.524   2.887
    1C        C  511   3.536   4.521   2.886
    1C        C  512   3.323   4.525   3.008
    1C        C  513   3.393   4.531   3.131
    1C        C  514   3.186   4.496   3.253
    1C        C  515   3.324   4.527   3.254
    1C        C  516   3.123   4.471   3.377
    1C        C  517   3.190   4.496   3.499
    1C        C  518   2.999   4.413   3.624
    1C        C  519   3.125   4.477   3.623
    1C        C  520   2.938   4.376   3.746
    1C        C  521   3.003   4.411   3.867
    1C        C  522   2.838   4.284   3.996
    1C        C  523   2.945   4.375   3.990
    1C        C  524   2.791   4.234   4.119
    1C        C  525   2.838   4.288   4.240
    1C        C  526   2.693   4.136   4.363
    1C        C  527   2.782   4.246   4.363
    1C        C  528   2.651   4.080   4.485
    1C        C  529   2.686   4.143   4.607
    1C        C  530   2.591   3.954   4.730
    1C        C  531   2.638   4.089   4.728
    1C        C  532   2.544   3.903   4.854
    1C        C  533   2.528   3.998   4.960
    1C        C  534   3.617   4.556   2.041
    1C        C  535   3.749   4.511   2.042
    1C        C  536   3.537   4.533   2.157
    1C        C  537   3.606   4.507   2.279
    1C        C  538   3.393   4.524   2.400
    1C        C  539   3.534   4.520   2.400
    1C        C  540   3.322   4.512   2.522
    1C        C  541   3.394   4.515   2.643
    1C        C  542   3.184   4.484   2.766
    1C        C  543   3.323   4.511   2.765
    1C        C  544   3.118   4.461   2.889
    1C        C  545   3.186   4.490   3.009
    1C        C  546   2.993   4.405   3.136
    1C        C  547   3.118   4.470   3.132
    1C        C  548   2.938   4.366   3.260
    1C        C  549   3.000   4.402   3.381
    1C        C  550   2.827   4.282   3.506
    1C        C  551   2.938   4.370   3.504
    1C        C  552   2.778   4.233   3.629
    1C        C  553   2.829   4.286   3.749
    1C        C  554   2.704   4.120   3.874
    1C        C  555   2.786   4.235   3.874
    1C        C  556   2.669   4.061   3.997
    1C        C  557   2.705   4.122   4.120
    1C        C  558   2.598   3.942   4.247
    1C        C  559   2.662   4.067   4.243
    1C        C  560   2.570   3.878   4.369
    1C        C  561   2.590   3.953   4.487
    1C        C  562   2.533   3.749   4.616
    1C        C  563   2.568   3.885   4.610
    1C        C  564   2.517   3.682   4.739
    1C        C  565   2.521   3.761   4.857
    1C        C  566   2.529   3.549   4.977
    1C        C  567   2.527   3.688   4.977
    1C        C  568   3.326   4.483   2.043
    1C        C  569   3.397   4.511   2.161
    1C        C  570   3.182   4.475   2.281
    1C        C  571   3.319   4.513   2.280
    1C        C  572   3.113   4.462   2.404
    1C        C  573   3.184   4.485   2.524
    1C        C  574   2.987   4.402   2.650
    1C        C  575   3.116   4.460   2.645
    1C        C  576   2.929   4.360   2.771
    1C        C  577   2.992   4.398   2.891
    1C        C  578   2.824   4.274   3.018
    1C        C  579   2.932   4.365   3.015
    1C        C  580   2.774   4.225   3.141
    1C        C  581   2.827   4.277   3.261
    1C        C  582   2.693   4.117   3.386
    1C        C  583   2.779   4.229   3.384
    1C        C  584   2.654   4.061   3.510
    1C        C  585   2.691   4.121   3.632
    1C        C  586   2.597   3.932   3.758
    1C        C  587   2.659   4.058   3.754
    1C        C  588   2.570   3.870   3.882
    1C        C  589   2.607   3.934   4.003
    1C        C  590   2.536   3.736   4.129
    1C        C  591   2.573   3.873   4.126
    1C        C  592   2.527   3.667   4.252
    1C        C  593   2.535   3.741   4.372
    1C        C  594   2.512   3.535   4.500
    1C        C  595   2.517   3.676   4.496
    1C        C  596   2.521   3.463   4.622
    1C        C  597   2.517   3.540   4.741
    1C        C  598   2.531   3.328   4.867
    1C        C  599   2.525   3.469   4.863
    1C        C  600   2.529   3.248   4.982
    1C        C  601   3.193   4.447   2.045
    1C        C  602   2.982   4.387   2.161
    1C        C  603   3.115   4.438   2.161
    1C        C  604   2.920   4.362   2.287
    1C        C  605   2.987   4.398   2.406
    1C        C  606   2.815   4.276   2.531
    1C        C  607   2.927   4.360   2.529
    1C        C  608   2.768   4.220   2.652
    1C        C  609   2.821   4.269   2.774
    1C        C  610   2.688   4.106   2.898
    1C        C  611   2.775   4.218   2.898
    1C        C  612   2.655   4.048   3.023
    1C        C  613   2.690   4.112   3.144
    1C        C  614   2.597   3.922   3.267
    1C        C  615   2.653   4.052   3.267
    1C        C  616   2.575   3.861   3.392
    1C        C  617   2.600   3.930   3.513
    1C        C  618   2.537   3.729   3.641
    1C        C  619   2.573   3.865   3.635
    1C        C  620   2.527   3.659   3.763
    1C        C  621   2.534   3.734   3.883
    1C        C  622   2.512   3.526   4.011
    1C        C  623   2.523   3.667   4.007
    1C        C  624   2.516   3.454   4.133
    1C        C  625   2.519   3.526   4.255
    1C        C  626   2.536   3.322   4.379
    1C        C  627   2.511   3.461   4.380
    1C        C  628   2.557   3.255   4.501
    1C        C  629   2.535   3.323   4.624
    1C        C  630   2.594   3.121   4.743
    1C        C  631   2.551   3.256   4.747
    1C        C  632   2.617   3.051   4.865
    1C        C  633   2.559   3.111   4.982
    1C        C  634   2.778   4.304   2.059
    1C        C  635   2.890   4.387   2.052
    1C        C  636   2.748   4.228   2.173
    1C        C  637   2.809   4.274   2.291
    1C        C  638   2.677   4.107   2.412
    1C        C  639   2.759   4.221   2.413
    1C        C  640   2.638   4.048   2.535
    1C        C  641   2.683   4.107   2.655
    1C        C  642   2.588   3.919   2.778
    1C        C  643   2.644   4.049   2.777
    1C        C  644   2.563   3.854   2.901
    1C        C  645   2.595   3.921   3.021
    1C        C  646   2.533   3.720   3.151
    1C        C  647   2.570   3.856   3.145
    1C        C  648   2.516   3.653   3.274
    1C        C  649   2.534   3.726   3.394
    1C        C  650   2.508   3.520   3.520
    1C        C  651   2.521   3.660   3.518
    1C        C  652   2.514   3.450   3.643
    1C        C  653   2.511   3.519   3.767
    1C        C  654   2.528   3.312   3.889
    1C        C  655   2.506   3.452   3.891
    1C        C  656   2.544   3.243   4.011
    1C        C  657   2.530   3.313   4.132
    1C        C  658   2.604   3.121   4.259
    1C        C  659   2.548   3.251   4.258
    1C        C  660   2.631   3.055   4.381
    1C        C  661   2.600   3.121   4.502
    1C        C  662   2.710   2.939   4.628
    1C        C  663   2.628   3.054   4.623
    1C        C  664   2.745   2.875   4.749
    1C        C  665   2.694   2.931   4.870
    1C        C  666   2.748   2.874   4.986
    1C        C  667   2.672   4.027   2.055
    1C        C  668   2.680   4.104   2.172
    1C        C  669   2.586   3.910   2.291
    1C        C  670   2.641   4.041   2.292
    1C        C  671   2.558   3.845   2.414
    1C        C  672   2.580   3.919   2.532
    1C        C  673   2.522   3.718   2.659
    1C        C  674   2.560   3.854   2.656
    1C        C  675   2.514   3.647   2.782
    1C        C  676   2.531   3.717   2.904
    1C        C  677   2.512   3.510   3.028
    1C        C  678   2.527   3.650   3.028
    1C        C  679   2.512   3.443   3.153
    1C        C  680   2.504   3.512   3.276
    1C        C  681   2.530   3.306   3.400
    1C        C  682   2.504   3.445   3.400
    1C        C  683   2.546   3.239   3.523
    1C        C  684   2.530   3.310   3.644
    1C        C  685   2.599   3.112   3.770
    1C        C  686   2.547   3.243   3.768
    1C        C  687   2.628   3.049   3.893
    1C        C  688   2.594   3.111   4.015
    1C        C  689   2.704   2.932   4.141
    1C        C  690   2.628   3.051   4.139
    1C        C  691   2.751   2.876   4.262
    1C        C  692   2.712   2.938   4.383
    1C        C  693   2.750   2.880   4.506
    1C        C  694   2.617   3.898   2.053
    1C        C  695   2.530   3.702   2.175
    1C        C  696   2.577   3.835   2.172
    1C        C  697   2.509   3.635   2.297
    1C        C  698   2.523   3.709   2.417
    1C        C  699   2.496   3.501   2.543
    1C        C  700   2.511   3.642   2.541
    1C        C  701   2.507   3.432   2.666
    1C        C  702   2.506   3.507   2.786
    1C        C  703   2.520   3.295   2.911
    1C        C  704   2.507   3.436   2.908
    1C        C  705   2.542   3.230   3.034
    1C        C  706   2.535   3.304   3.155
    1C        C  707   2.593   3.103   3.280
    1C        C  708   2.549   3.237   3.278
    1C        C  709   2.625   3.041   3.403
    1C        C  710   2.600   3.108   3.525
    1C        C  711   2.709   2.929   3.651
    1C        C  712   2.633   3.048   3.648
    1C        C  713   2.757   2.878   3.773
    1C        C  714   2.709   2.932   3.895
    1C        C  715   2.751   2.880   4.019
    1C        C  716   2.451   3.497   2.063
    1C        C  717   2.493   3.631   2.060
    1C        C  718   2.461   3.419   2.183
    1C        C  719   2.484   3.495   2.301
    1C        C  720   2.518   3.287   2.425
    1C        C  721   2.490   3.426   2.423
    1C        C  722   2.539   3.219   2.547
    1C        C  723   2.524   3.292   2.667
    1C        C  724   2.588   3.092   2.789
    1C        C  725   2.537   3.223   2.790
    1C        C  726   2.618   3.030   2.912
    1C        C  727   2.591   3.098   3.033
    1C        C  728   2.699   2.920   3.161
    1C        C  729   2.622   3.039   3.158
    1C        C  730   2.747   2.869   3.284
    1C        C  731   2.702   2.922   3.407
    1C        C  732   2.749   2.869   3.529
    1C        C  733   2.475   3.191   2.076
    1C        C  734   2.479   3.277   2.186
    1C        C  735   2.576   3.080   2.305
    1C        C  736   2.523   3.212   2.305
    1C        C  737   2.612   3.018   2.426
    1C        C  738   2.587   3.086   2.547
    1C        C  739   2.695   2.904   2.670
    1C        C  740   2.616   3.022   2.669
    1C        C  741   2.736   2.852   2.795
    1C        C  742   2.694   2.911   2.916
    1C        C  743   2.740   2.861   3.040
    1C        C  744   2.538   3.067   2.072
    1C        C  745   2.681   2.895   2.184
    1C        C  746   2.594   3.007   2.186
    1C        C  747   2.721   2.835   2.305
    1C        C  748   2.680   2.894   2.426
    1C        C  749   2.731   2.844   2.548
    1C        C  750   2.731   2.836   2.067
    1C        C  751   3.653   2.297   1.994
    1C        O  752   3.652   2.187   2.054
    1C        O  753   3.701   2.289   1.863
    1C        C  754   4.634   3.049   1.988
    1C        O  755   4.623   3.046   1.862
    1C        O  756   4.764   3.031   2.038
    1C        C  757   4.468   4.216   1.972
    1C        O  758   4.593   4.227   1.991
    1C        O  759   4.427   4.278   1.853
    1C        C  760   3.609   4.670   1.947
    1C        O  761   3.519   4.757   1.964
    1C        O  762   3.637   4.648   1.812
    1C        C  763   2.882   4.489   1.944
    1C        O  764   2.897   4.458   1.823
    1C        O  765   2.860   4.625   1.968
    1C        C  766   2.356   3.463   1.955
    1C        O  767   2.402   3.428   1.843
    1C        O  768   2.223   3.506   1.952
    1C        C  769   4.692   3.595   5.058
    1C        O  770   4.654   3.563   5.174
    1C        O  771   4.813   3.527   5.038
    1C        C  772   4.269   4.438   5.051
    1C        O  773   4.269   4.386   5.166
    1C        O  774   4.354   4.549   5.045
    1C        C  775   4.143   2.517   5.076
    1C        O  776   4.243   2.453   5.033
    1C        O  777   4.161   2.559   5.208
    1C        C  778   2.865   4.554   5.028
    1C        O  779   2.781   4.638   4.985
    1C        O  780   2.925   4.609   5.143
    1C        C  781   2.500   3.036   5.095
    1C        O  782   2.381   2.994   5.095
    1C        O  783   2.547   3.059   5.224
    1C        C  784   2.392   3.993   5.018
    1C        O  785   2.299   4.040   4.947
    1C        O  786   2.364   4.003   5.155
    1C        C  787   2.939   2.424   2.012
    1C        O  788   2.885   2.463   1.905
    1C        O  789   2.896   2.296   2.046
    1C        C  790   3.185   2.386   5.073
    1C        O  791   3.108   2.286   5.065
    1C        O  792   3.203   2.406   5.210
    1C        H  793   4.319   2.987   5.071
    1C        H  794   4.187   2.808   5.071
    1C        H  795   4.523   3.114   5.040
    1C        H  796   4.548   3.366   5.060
    1C        H  797   4.562   3.809   5.050
    1C        H  798   4.378   3.950   5.043
    1C        H  799   4.259   4.146   5.043
    1C        H  800   4.028   4.535   5.030
    1C        H  801   3.815   4.567   5.044
    1C        H  802   3.591   4.644   5.031
    1C        H  803   3.396   4.505   5.043
    1C        H  804   3.168   4.449   5.042
    1C        H  805   3.888   2.484   5.067
    1C        H  806   3.682   2.413   5.052
    1C        H  807   2.994   2.560   5.059
    1C        H  808   3.453   2.520   5.071
    1C        H  809   2.846   2.713   5.073
    1C        H  810   2.750   2.927   5.079
    1C        H  811   2.459   3.277   5.058
    1C        H  812   2.461   3.514   5.052
    1C        H  813   2.577   3.733   5.059
    1C        H  814   2.567   4.195   5.029
    1C        H  815   2.735   4.336   5.046
    1C        H  816   2.670   2.841   1.980
    1C        H  817   2.861   2.691   1.981
    1C        H  818   3.186   2.379   2.020
    1C        H  819   3.429   2.394   1.985
    1C        H  820   3.860   2.505   1.975
    1C        H  821   4.042   2.664   1.969
    1C        H  822   4.245   2.723   1.966
    1C        H  823   4.417   2.883   1.972
    1C        H  824   4.545   3.318   1.965
    1C        H  825   4.533   3.516   1.960
    1C        H  826   4.554   3.747   1.970
    1C        H  827   3.812   4.537   1.960
    1C        H  828   3.945   4.338   1.948
    1C        H  829   4.163   4.258   1.946
    1C        H  830   4.486   3.954   1.961
    1C        H  831   2.632   3.841   1.964
    1C        H  832   2.735   4.051   1.972
    1C        H  833   2.696   4.329   1.994
    1C        H  834   3.382   4.432   1.968
    1C        H  835   3.167   4.386   1.961
    1C        H  836   2.552   3.027   1.974
    1C        H  837   2.384   3.198   2.021
    1C        H  838   2.476   3.680   1.966
    2V3OU   H29  839   2.801   3.549   1.728
    2V3OU   C27  840   2.786   3.504   1.829
    2V3OU   H27  841   2.723   3.569   1.895
    2V3OU   H28  842   2.734   3.405   1.820
    2V3OU   O11  843   2.906   3.487   1.905
    2V3OU   C15  844   2.920   3.396   2.008
    2V3OU   C13  845   3.050   3.377   2.060
    2V3OU   C14  846   3.075   3.272   2.149
    2V3OU   C16  847   2.972   3.189   2.192
    2V3OU    H6  848   2.992   3.109   2.264
    2V3OU   C12  849   3.209   3.229   2.195
    2V3OU    O2  850   3.235   3.127   2.264
    2V3OU   C10  851   3.321   3.306   2.139
    2V3OU    C8  852   3.452   3.270   2.165
    2V3OU   O10  853   3.487   3.158   2.236
    2V3OU   H26  854   3.405   3.112   2.262
    2V3OU    C6  855   3.564   3.354   2.134
    2V3OU    C5  856   3.534   3.471   2.066
    2V3OU    C4  857   3.699   3.293   2.127
    2V3OU    H4  858   3.722   3.231   2.218
    2V3OU    H5  859   3.712   3.230   2.034
    2V3OU    C2  860   3.812   3.397   2.131
    2V3OU    O6  861   3.807   3.467   2.256
    2V3OU   H21  862   3.771   3.552   2.229
    2V3OU    C3  863   3.782   3.496   2.018
    2V3OU    H2  864   3.866   3.571   2.014
    2V3OU    H3  865   3.774   3.438   1.922
    2V3OU   C25  866   3.948   3.329   2.118
    2V3OU    O7  867   4.001   3.304   2.010
    2V3OU   C26  868   4.023   3.293   2.245
    2V3OU   H22  869   4.062   3.378   2.306
    2V3OU   H23  870   4.113   3.231   2.221
    2V3OU    O8  871   3.955   3.207   2.334
    2V3OU   H24  872   3.927   3.260   2.410
    2V3OU    C1  873   3.648   3.564   2.037
    2V3OU    H1  874   3.621   3.619   1.942
    2V3OU    O3  875   3.658   3.660   2.143
    2V3OU   C19  876   3.621   3.798   2.133
    2V3OU    H9  877   3.524   3.805   2.076
    2V3OU    O4  878   3.712   3.854   2.041
    2V3OU   C20  879   3.844   3.874   2.093
    2V3OU   H10  880   3.890   3.772   2.109
    2V3OU   C24  881   3.614   3.859   2.273
    2V3OU   H16  882   3.543   3.796   2.332
    2V3OU   H17  883   3.567   3.961   2.263
    2V3OU   C23  884   3.754   3.875   2.332
    2V3OU   H15  885   3.796   3.771   2.350
    2V3OU    N1  886   3.740   3.955   2.452
    2V3OU   H19  887   3.812   3.916   2.510
    2V3OU   H20  888   3.655   3.933   2.498
    2V3OU   C21  889   3.847   3.946   2.228
    2V3OU   H11  890   3.950   3.928   2.270
    2V3OU    O5  891   3.821   4.086   2.230
    2V3OU   H18  892   3.783   4.101   2.318
    2V3OU   C22  893   3.914   3.952   1.984
    2V3OU   H12  894   3.865   4.053   1.976
    2V3OU   H13  895   3.907   3.896   1.887
    2V3OU   H14  896   4.022   3.960   2.012
    2V3OU   C11  897   3.159   3.473   2.034
    2V3OU    O1  898   3.131   3.586   1.991
    2V3OU    C9  899   3.295   3.424   2.065
    2V3OU    C7  900   3.402   3.502   2.020
    2V3OU    O9  901   3.380   3.621   1.954
    2V3OU   H25  902   3.284   3.632   1.953
    2V3OU   C17  903   2.813   3.314   2.049
    2V3OU    H7  904   2.711   3.347   2.031
    2V3OU   C18  905   2.846   3.214   2.140
    2V3OU    H8  906   2.766   3.160   2.193
    3SOL     OW  907   2.628   4.133   0.873
    3SOL    HW1  908   2.596   4.187   0.795
    3SOL    HW2  909   2.685   4.057   0.839
    4SOL     OW  910   6.340   5.565   2.059
    4SOL    HW1  911   6.282   5.552   1.979
    4SOL    HW2  912   6.293   5.529   2.140
    5SOL     OW  913   3.526   1.171   3.078
    5SOL    HW1  914   3.516   1.075   3.104
    5SOL    HW2  915   3.477   1.229   3.144
    6SOL     OW  916   4.131   1.511   1.822
    6SOL    HW1  917   4.101   1.572   1.896
    6SOL    HW2  918   4.231   1.515   1.814
    7SOL     OW  919   6.254   3.287   2.247
    7SOL    HW1  920   6.287   3.283   2.341
    7SOL    HW2  921   6.187   3.361   2.238
    8SOL     OW  922   2.706   6.800   5.202
    8SOL    HW1  923   2.670   6.859   5.130
    8SOL    HW2  924   2.783   6.845   5.247
    9SOL     OW  925   0.893   5.181   5.849
    9SOL    HW1  926   0.828   5.244   5.892
    9SOL    HW2  927   0.858   5.088   5.854
   10SOL     OW  928   1.314   4.646   5.637
   10SOL    HW1  929   1.222   4.618   5.608
   10SOL    HW2  930   1.334   4.607   5.727
   11SOL     OW  931   2.840   0.234   6.938
   11SOL    HW1  932   2.835   0.181   6.853
   11SOL    HW2  933   2.748   0.264   6.964
   12SOL     OW  934   4.189   6.173   4.119
   12SOL    HW1  935   4.286   6.193   4.105
   12SOL    HW2  936   4.169   6.172   4.217
   13SOL     OW  937   3.201   5.758   3.935
   13SOL    HW1  938   3.259   5.710   3.870
   13SOL    HW2  939   3.116   5.706   3.948
   14SOL     OW  940   4.819   5.436   6.697
   14SOL    HW1  941   4.737   5.398   6.741
   14SOL    HW2  942   4.841   5.524   6.738
   15SOL     OW  943   1.264   4.898   0.714
   15SOL    HW1  944   1.344   4.918   0.771
   15SOL    HW2  945   1.187   4.874   0.774
   16SOL     OW  946   5.580   2.444   5.706
   16SOL    HW1  947   5.656   2.419   5.766
   16SOL    HW2  948   5.612   2.451   5.612
   17SOL     OW  949   5.872   6.187   4.992
   17SOL    HW1  950   5.966   6.182   4.960
   17SOL    HW2  951   5.830   6.272   4.960
   18SOL     OW  952   3.045   1.272   6.693
   18SOL    HW1  953   2.979   1.338   6.659
   18SOL    HW2  954   3.001   1.183   6.704
   19SOL     OW  955   0.490   0.309   3.395
   19SOL    HW1  956   0.581   0.319   3.354
   19SOL    HW2  957   0.470   0.390   3.451
   20SOL     OW  958   4.243   1.680   4.184
   20SOL    HW1  959   4.269   1.775   4.167
   20SOL    HW2  960   4.194   1.674   4.271
   21SOL     OW  961   3.274   2.033   2.189
   21SOL    HW1  962   3.370   2.050   2.213
   21SOL    HW2  963   3.247   2.094   2.115
   22SOL     OW  964   2.565   0.118   0.738
   22SOL    HW1  965   2.637   0.062   0.698
   22SOL    HW2  966   2.541   0.082   0.829
   23SOL     OW  967   4.223   6.721   3.491
   23SOL    HW1  968   4.305   6.728   3.434
   23SOL    HW2  969   4.172   6.639   3.467
   24SOL     OW  970   4.943   1.359   3.560
   24SOL    HW1  971   4.846   1.356   3.586
   24SOL    HW2  972   4.951   1.346   3.461
   25SOL     OW  973   3.521   6.459   5.773
   25SOL    HW1  974   3.533   6.401   5.692
   25SOL    HW2  975   3.529   6.402   5.855
   26SOL     OW  976   6.541   1.313   0.632
   26SOL    HW1  977   6.582   1.391   0.585
   26SOL    HW2  978   6.604   1.277   0.700
   27SOL     OW  979   0.425   1.558   1.734
   27SOL    HW1  980   0.360   1.634   1.732
   27SOL    HW2  981   0.392   1.487   1.796
   28SOL     OW  982   3.903   1.151   7.002
   28SOL    HW1  983   3.817   1.170   6.954
   28SOL    HW2  984   3.883   1.132   0.075
   29SOL     OW  985   5.892   2.688   1.912
   29SOL    HW1  986   5.955   2.627   1.960
   29SOL    HW2  987   5.937   2.775   1.893
   30SOL     OW  988   4.262   0.299   5.290
   30SOL    HW1  989   4.310   0.246   5.219
   30SOL    HW2  990   4.305   0.389   5.298
   31SOL     OW  991   0.529   2.115   5.985
   31SOL    HW1  992   0.562   2.184   6.049
   31SOL    HW2  993   0.604   2.087   5.925
   32SOL     OW  994   6.857   1.109   3.051
   32SOL    HW1  995   6.823   1.187   3.103
   32SOL    HW2  996   6.925   1.060   3.105
   33SOL     OW  997   2.507   3.561   0.200
   33SOL    HW1  998   2.535   3.500   0.274
   33SOL    HW2  999   2.513   3.512   0.113
   34SOL     OW 1000   1.668   1.318   3.881
   34SOL    HW1 1001   1.648   1.398   3.824
   34SOL    HW2 1002   1.653   1.341   3.977
   35SOL     OW 1003   3.728   1.799   0.078
   35SOL    HW1 1004   3.691   1.724   0.134
   35SOL    HW2 1005   3.708   1.782   7.005
   36SOL     OW 1006   0.682   0.812   6.707
   36SOL    HW1 1007   0.775   0.780   6.686
   36SOL    HW2 1008   0.635   0.833   6.621
   37SOL     OW 1009   1.702   0.958   6.903
   37SOL    HW1 1010   1.771   0.952   6.976
   37SOL    HW2 1011   1.665   0.868   6.885
   38SOL     OW 1012   0.459   5.065   2.518
   38SOL    HW1 1013   0.365   5.068   2.484
   38SOL    HW2 1014   0.507   4.986   2.478
   39SOL     OW 1015   6.554   4.752   6.777
   39SOL    HW1 1016   6.521   4.782   6.687
   39SOL    HW2 1017   6.599   4.663   6.767
   40SOL     OW 1018   5.835   2.584   1.225
   40SOL    HW1 1019   5.833   2.517   1.299
   40SOL    HW2 1020   5.741   2.606   1.198
   41SOL     OW 1021   0.661   6.377   4.264
   41SOL    HW1 1022   0.593   6.315   4.302
   41SOL    HW2 1023   0.615   6.446   4.207
   42SOL     OW 1024   2.755   6.067   6.359
   42SOL    HW1 1025   2.720   6.003   6.290
   42SOL    HW2 1026   2.695   6.069   6.438
   43SOL     OW 1027   5.802   6.340   5.962
   43SOL    HW1 1028   5.791   6.437   5.938
   43SOL    HW2 1029   5.719   6.307   6.007
   44SOL     OW 1030   5.902   2.513   6.115
   44SOL    HW1 1031   5.946   2.508   6.205
   44SOL    HW2 1032   5.833   2.586   6.116
   45SOL     OW 1033   3.406   0.016   3.530
   45SOL    HW1 1034   3.445   0.000   3.621
   45SOL    HW2 1035   3.322   6.985   3.520
   46SOL     OW 1036   1.279   3.469   4.392
   46SOL    HW1 1037   1.326   3.526   4.325
   46SOL    HW2 1038   1.244   3.527   4.466
   47SOL     OW 1039   5.280   4.231   2.698
   47SOL    HW1 1040   5.314   4.324   2.689
   47SOL    HW2 1041   5.309   4.176   2.620
   48SOL     OW 1042   0.002   2.972   5.385
   48SOL    HW1 1043   6.976   3.012   5.463
   48SOL    HW2 1044   0.030   2.879   5.409
   49SOL     OW 1045   4.308   4.108   1.686
   49SOL    HW1 1046   4.273   4.164   1.611
   49SOL    HW2 1047   4.349   4.168   1.755
   50SOL     OW 1048   6.479   2.802   5.567
   50SOL    HW1 1049   6.567   2.820   5.525
   50SOL    HW2 1050   6.406   2.838   5.509
   51SOL     OW 1051   3.199   6.348   3.017
   51SOL    HW1 1052   3.109   6.321   2.981
   51SOL    HW2 1053   3.192   6.360   3.116
   52SOL     OW 1054   4.951   2.646   3.572
   52SOL    HW1 1055   4.957   2.623   3.475
   52SOL    HW2 1056   4.916   2.567   3.623
   53SOL     OW 1057   4.418   0.322   4.797
   53SOL    HW1 1058   4.445   0.395   4.859
   53SOL    HW2 1059   4.408   0.358   4.705
   54SOL     OW 1060   3.964   4.827   0.631
   54SOL    HW1 1061   3.969   4.786   0.540
   54SOL    HW2 1062   3.916   4.915   0.626
   55SOL     OW 1063   3.583   1.230   6.205
   55SOL    HW1 1064   3.641   1.309   6.223
   55SOL    HW2 1065   3.587   1.209   6.107
   56SOL     OW 1066   1.072   0.464   1.516
   56SOL    HW1 1067   1.022   0.379   1.534
   56SOL    HW2 1068   1.007   0.539   1.506
   57SOL     OW 1069   5.454   0.563   0.574
   57SOL    HW1 1070   5.491   0.472   0.592
   57SOL    HW2 1071   5.355   0.562   0.582
   58SOL     OW 1072   6.537   6.559   5.359
   58SOL    HW1 1073   6.584   6.646   5.345
   58SOL    HW2 1074   6.603   6.489   5.387
   59SOL     OW 1075   2.000   1.612   5.934
   59SOL    HW1 1076   2.052   1.698   5.936
   59SOL    HW2 1077   1.920   1.621   5.993
   60SOL     OW 1078   5.939   1.103   5.977
   60SOL    HW1 1079   5.897   1.016   6.001
   60SOL    HW2 1080   5.989   1.093   5.891
   61SOL     OW 1081   5.203   1.800   4.296
   61SOL    HW1 1082   5.134   1.863   4.331
   61SOL    HW2 1083   5.235   1.741   4.370
   62SOL     OW 1084   0.230   0.556   3.392
   62SOL    HW1 1085   0.242   0.464   3.355
   62SOL    HW2 1086   0.300   0.573   3.461
   63SOL     OW 1087   6.524   1.249   4.007
   63SOL    HW1 1088   6.474   1.271   4.091
   63SOL    HW2 1089   6.519   1.328   3.945
   64SOL     OW 1090   0.195   3.870   6.539
   64SOL    HW1 1091   0.182   3.947   6.602
   64SOL    HW2 1092   0.260   3.805   6.578
   65SOL     OW 1093   6.908   4.693   5.291
   65SOL    HW1 1094   6.958   4.750   5.226
   65SOL    HW2 1095   6.924   4.597   5.269
   66SOL     OW 1096   3.765   0.599   6.795
   66SOL    HW1 1097   3.683   0.551   6.762
   66SOL    HW2 1098   3.806   0.651   6.720
   67SOL     OW 1099   5.310   4.472   5.413
   67SOL    HW1 1100   5.263   4.549   5.456
   67SOL    HW2 1101   5.326   4.491   5.317
   68SOL     OW 1102   5.768   0.569   6.680
   68SOL    HW1 1103   5.821   0.490   6.647
   68SOL    HW2 1104   5.812   0.654   6.649
   69SOL     OW 1105   1.311   3.369   6.554
   69SOL    HW1 1106   1.358   3.455   6.574
   69SOL    HW2 1107   1.376   3.293   6.561
   70SOL     OW 1108   6.241   4.767   3.582
   70SOL    HW1 1109   6.162   4.781   3.641
   70SOL    HW2 1110   6.325   4.768   3.637
   71SOL     OW 1111   4.210   1.885   2.846
   71SOL    HW1 1112   4.277   1.813   2.868
   71SOL    HW2 1113   4.126   1.843   2.813
   72SOL     OW 1114   3.114   5.986   4.892
   72SOL    HW1 1115   3.048   5.946   4.955
   72SOL    HW2 1116   3.192   5.924   4.881
   73SOL     OW 1117   3.399   1.784   0.883
   73SOL    HW1 1118   3.456   1.705   0.860
   73SOL    HW2 1119   3.304   1.755   0.893
   74SOL     OW 1120   5.140   6.198   6.254
   74SOL    HW1 1121   5.237   6.185   6.237
   74SOL    HW2 1122   5.087   6.162   6.177
   75SOL     OW 1123   4.067   6.930   6.725
   75SOL    HW1 1124   4.051   6.858   6.792
   75SOL    HW2 1125   4.165   6.947   6.717
   76SOL     OW 1126   2.196   2.704   1.441
   76SOL    HW1 1127   2.278   2.755   1.467
   76SOL    HW2 1128   2.122   2.725   1.506
   77SOL     OW 1129   5.400   6.579   4.321
   77SOL    HW1 1130   5.319   6.614   4.274
   77SOL    HW2 1131   5.372   6.504   4.382
   78SOL     OW 1132   6.024   0.712   5.733
   78SOL    HW1 1133   6.051   0.647   5.662
   78SOL    HW2 1134   6.049   0.805   5.705
   79SOL     OW 1135   3.186   0.065   0.733
   79SOL    HW1 1136   3.239   7.013   0.772
   79SOL    HW2 1137   3.210   0.151   0.778
   80SOL     OW 1138   5.491   1.558   4.815
   80SOL    HW1 1139   5.505   1.648   4.773
   80SOL    HW2 1140   5.394   1.546   4.835
   81SOL     OW 1141   2.250   6.993   2.852
   81SOL    HW1 1142   2.209   0.057   2.880
   81SOL    HW2 1143   2.334   7.011   2.800
   82SOL     OW 1144   6.549   5.579   0.471
   82SOL    HW1 1145   6.571   5.590   0.568
   82SOL    HW2 1146   6.609   5.636   0.416
   83SOL     OW 1147   6.707   0.743   0.709
   83SOL    HW1 1148   6.807   0.734   0.718
   83SOL    HW2 1149   6.685   0.821   0.652
   84SOL     OW 1150   5.027   3.383   3.552
   84SOL    HW1 1151   5.001   3.431   3.636
   84SOL    HW2 1152   5.043   3.286   3.572
   85SOL     OW 1153   1.753   2.204   5.247
   85SOL    HW1 1154   1.797   2.291   5.222
   85SOL    HW2 1155   1.675   2.223   5.307
   86SOL     OW 1156   0.700   0.654   5.853
   86SOL    HW1 1157   0.739   0.747   5.854
   86SOL    HW2 1158   0.763   0.591   5.898
   87SOL     OW 1159   4.996   3.496   0.578
   87SOL    HW1 1160   4.908   3.468   0.617
   87SOL    HW2 1161   4.994   3.484   0.479
   88SOL     OW 1162   4.151   1.731   6.282
   88SOL    HW1 1163   4.159   1.786   6.365
   88SOL    HW2 1164   4.165   1.789   6.202
   89SOL     OW 1165   1.312   2.876   5.961
   89SOL    HW1 1166   1.240   2.925   6.009
   89SOL    HW2 1167   1.272   2.817   5.891
   90SOL     OW 1168   4.148   6.393   3.695
   90SOL    HW1 1169   4.053   6.376   3.669
   90SOL    HW2 1170   4.207   6.380   3.615
   91SOL     OW 1171   4.922   4.305   4.236
   91SOL    HW1 1172   4.944   4.223   4.183
   91SOL    HW2 1173   4.995   4.322   4.303
   92SOL     OW 1174   2.971   4.012   0.798
   92SOL    HW1 1175   2.893   3.988   0.740
   92SOL    HW2 1176   3.009   3.929   0.840
   93SOL     OW 1177   2.351   4.367   6.644
   93SOL    HW1 1178   2.339   4.359   6.743
   93SOL    HW2 1179   2.284   4.431   6.608
   94SOL     OW 1180   2.604   5.967   6.109
   94SOL    HW1 1181   2.523   5.980   6.166
   94SOL    HW2 1182   2.591   6.015   6.022
   95SOL     OW 1183   0.757   0.913   2.964
   95SOL    HW1 1184   0.686   0.983   2.973
   95SOL    HW2 1185   0.847   0.955   2.978
   96SOL     OW 1186   3.528   0.106   5.470
   96SOL    HW1 1187   3.520   0.008   5.449
   96SOL    HW2 1188   3.529   0.158   5.384
   97SOL     OW 1189   1.346   3.437   5.983
   97SOL    HW1 1190   1.408   3.374   5.935
   97SOL    HW2 1191   1.394   3.522   6.003
   98SOL     OW 1192   6.442   4.034   0.306
   98SOL    HW1 1193   6.358   4.061   0.258
   98SOL    HW2 1194   6.419   3.974   0.383
   99SOL     OW 1195   4.608   4.111   0.955
   99SOL    HW1 1196   4.613   4.071   1.046
   99SOL    HW2 1197   4.693   4.159   0.934
  100SOL     OW 1198   0.258   0.162   5.984
  100SOL    HW1 1199   0.220   0.108   5.909
  100SOL    HW2 1200   0.332   0.111   6.028
  101SOL     OW 1201   1.265   5.895   2.784
  101SOL    HW1 1202   1.310   5.875   2.871
  101SOL    HW2 1203   1.327   5.875   2.708
  102SOL     OW 1204   4.183   0.482   2.196
  102SOL    HW1 1205   4.177   0.569   2.146
  102SOL    HW2 1206   4.279   0.458   2.207
  103SOL     OW 1207   3.435   1.000   2.273
  103SOL    HW1 1208   3.419   0.914   2.225
  103SOL    HW2 1209   3.372   1.007   2.350
  104SOL     OW 1210   6.944   5.404   2.659
  104SOL    HW1 1211   6.917   5.317   2.618
  104SOL    HW2 1212   6.896   5.479   2.611
  105SOL     OW 1213   6.582   2.581   6.464
  105SOL    HW1 1214   6.669   2.630   6.469
  105SOL    HW2 1215   6.598   2.490   6.427
  106SOL     OW 1216   3.524   6.398   4.516
  106SOL    HW1 1217   3.616   6.360   4.502
  106SOL    HW2 1218   3.457   6.338   4.472
  107SOL     OW 1219   1.476   1.806   1.717
  107SOL    HW1 1220   1.466   1.902   1.744
  107SOL    HW2 1221   1.479   1.800   1.617
  108SOL     OW 1222   3.854   5.302   5.824
  108SOL    HW1 1223   3.897   5.338   5.742
  108SOL    HW2 1224   3.870   5.203   5.829
  109SOL     OW 1225   0.804   1.071   1.639
  109SOL    HW1 1226   0.796   1.066   1.539
  109SOL    HW2 1227   0.721   1.034   1.681
  110SOL     OW 1228   3.967   6.372   5.228
  110SOL    HW1 1229   3.986   6.372   5.326
  110SOL    HW2 1230   4.053   6.359   5.178
  111SOL     OW 1231   3.329   0.986   4.953
  111SOL    HW1 1232   3.308   0.927   5.031
  111SOL    HW2 1233   3.304   1.081   4.975
  112SOL     OW 1234   5.781   6.289   6.524
  112SOL    HW1 1235   5.764   6.387   6.529
  112SOL    HW2 1236   5.879   6.273   6.512
  113SOL     OW 1237   6.301   4.813   3.313
  113SOL    HW1 1238   6.290   4.774   3.405
  113SOL    HW2 1239   6.387   4.864   3.309
  114SOL     OW 1240   1.204   0.158   1.742
  114SOL    HW1 1241   1.175   0.165   1.838
  114SOL    HW2 1242   1.130   0.190   1.683
  115SOL     OW 1243   3.594   1.372   3.518
  115SOL    HW1 1244   3.638   1.454   3.482
  115SOL    HW2 1245   3.661   1.320   3.571
  116SOL     OW 1246   6.080   5.348   2.073
  116SOL    HW1 1247   6.074   5.366   2.172
  116SOL    HW2 1248   6.173   5.317   2.051
  117SOL     OW 1249   1.437   1.169   6.473
  117SOL    HW1 1250   1.426   1.229   6.394
  117SOL    HW2 1251   1.351   1.164   6.524
  118SOL     OW 1252   1.659   1.475   2.703
  118SOL    HW1 1253   1.644   1.492   2.605
  118SOL    HW2 1254   1.603   1.398   2.732
  119SOL     OW 1255   1.062   1.760   6.323
  119SOL    HW1 1256   1.091   1.677   6.371
  119SOL    HW2 1257   1.095   1.840   6.372
  120SOL     OW 1258   6.161   6.841   0.488
  120SOL    HW1 1259   6.062   6.848   0.476
  120SOL    HW2 1260   6.199   6.783   0.416
  121SOL     OW 1261   2.285   4.106   6.646
  121SOL    HW1 1262   2.357   4.037   6.639
  121SOL    HW2 1263   2.326   4.197   6.648
  122SOL     OW 1264   1.529   4.553   6.951
  122SOL    HW1 1265   1.547   4.503   6.866
  122SOL    HW2 1266   1.556   4.649   6.938
  123SOL     OW 1267   0.202   1.724   1.688
  123SOL    HW1 1268   0.252   1.795   1.640
  123SOL    HW2 1269   0.140   1.766   1.754
  124SOL     OW 1270   5.153   3.481   0.782
  124SOL    HW1 1271   5.107   3.492   0.694
  124SOL    HW2 1272   5.100   3.420   0.841
  125SOL     OW 1273   2.568   1.694   2.030
  125SOL    HW1 1274   2.493   1.640   2.070
  125SOL    HW2 1275   2.627   1.728   2.104
  126SOL     OW 1276   2.945   3.859   1.360
  126SOL    HW1 1277   3.016   3.790   1.346
  126SOL    HW2 1278   2.895   3.838   1.445
  127SOL     OW 1279   0.352   5.806   5.783
  127SOL    HW1 1280   0.317   5.720   5.820
  127SOL    HW2 1281   0.278   5.855   5.736
  128SOL     OW 1282   4.426   2.393   1.509
  128SOL    HW1 1283   4.458   2.445   1.430
  128SOL    HW2 1284   4.503   2.375   1.570
  129SOL     OW 1285   3.613   3.134   6.014
  129SOL    HW1 1286   3.537   3.151   5.952
  129SOL    HW2 1287   3.580   3.135   6.108
  130SOL     OW 1288   0.530   1.457   4.247
  130SOL    HW1 1289   0.562   1.550   4.266
  130SOL    HW2 1290   0.585   1.392   4.299
  131SOL     OW 1291   5.147   1.461   2.643
  131SOL    HW1 1292   5.080   1.461   2.717
  131SOL    HW2 1293   5.226   1.407   2.670
  132SOL     OW 1294   2.478   3.043   0.481
  132SOL    HW1 1295   2.397   3.072   0.431
  132SOL    HW2 1296   2.546   3.007   0.417
  133SOL     OW 1297   4.856   6.726   4.036
  133SOL    HW1 1298   4.814   6.708   4.125
  133SOL    HW2 1299   4.822   6.813   4.000
  134SOL     OW 1300   5.980   1.503   2.562
  134SOL    HW1 1301   5.891   1.488   2.605
  134SOL    HW2 1302   6.001   1.428   2.500
  135SOL     OW 1303   5.688   3.156   2.451
  135SOL    HW1 1304   5.694   3.206   2.365
  135SOL    HW2 1305   5.669   3.221   2.525
  136SOL     OW 1306   3.270   3.788   6.523
  136SOL    HW1 1307   3.301   3.764   6.431
  136SOL    HW2 1308   3.320   3.868   6.555
  137SOL     OW 1309   5.381   1.201   4.986
  137SOL    HW1 1310   5.412   1.291   5.014
  137SOL    HW2 1311   5.392   1.137   5.062
  138SOL     OW 1312   0.514   4.404   3.262
  138SOL    HW1 1313   0.449   4.403   3.187
  138SOL    HW2 1314   0.546   4.498   3.278
  139SOL     OW 1315   3.078   6.633   4.875
  139SOL    HW1 1316   3.168   6.599   4.903
  139SOL    HW2 1317   3.056   6.716   4.926
  140SOL     OW 1318   0.631   5.486   3.274
  140SOL    HW1 1319   0.666   5.559   3.216
  140SOL    HW2 1320   0.697   5.466   3.346
  141SOL     OW 1321   6.151   3.330   5.081
  141SOL    HW1 1322   6.249   3.334   5.062
  141SOL    HW2 1323   6.119   3.420   5.110
  142SOL     OW 1324   1.983   4.379   0.231
  142SOL    HW1 1325   1.964   4.308   0.299
  142SOL    HW2 1326   1.898   4.407   0.188
  143SOL     OW 1327   5.665   4.281   1.710
  143SOL    HW1 1328   5.625   4.203   1.758
  143SOL    HW2 1329   5.761   4.291   1.737
  144SOL     OW 1330   1.556   6.457   6.862
  144SOL    HW1 1331   1.460   6.482   6.879
  144SOL    HW2 1332   1.603   6.534   6.818
  145SOL     OW 1333   0.403   4.901   0.417
  145SOL    HW1 1334   0.461   4.918   0.497
  145SOL    HW2 1335   0.415   4.975   0.351
  146SOL     OW 1336   5.017   0.388   6.602
  146SOL    HW1 1337   5.023   0.428   6.694
  146SOL    HW2 1338   4.977   0.455   6.540
  147SOL     OW 1339   5.843   3.578   6.956
  147SOL    HW1 1340   5.877   3.670   6.975
  147SOL    HW2 1341   5.750   3.584   6.918
  148SOL     OW 1342   0.209   4.881   6.525
  148SOL    HW1 1343   0.289   4.832   6.488
  148SOL    HW2 1344   0.153   4.914   6.450
  149SOL     OW 1345   3.124   2.073   4.662
  149SOL    HW1 1346   3.103   1.987   4.709
  149SOL    HW2 1347   3.063   2.144   4.696
  150SOL     OW 1348   5.798   5.802   6.237
  150SOL    HW1 1349   5.893   5.787   6.210
  150SOL    HW2 1350   5.775   5.899   6.229
  151SOL     OW 1351   3.403   2.459   1.111
  151SOL    HW1 1352   3.338   2.425   1.043
  151SOL    HW2 1353   3.362   2.535   1.162
  152SOL     OW 1354   1.391   1.544   3.433
  152SOL    HW1 1355   1.387   1.589   3.522
  152SOL    HW2 1356   1.486   1.534   3.403
  153SOL     OW 1357   2.863   0.368   1.472
  153SOL    HW1 1358   2.858   0.397   1.568
  153SOL    HW2 1359   2.797   0.294   1.457
  154SOL     OW 1360   0.483   2.142   3.021
  154SOL    HW1 1361   0.543   2.181   2.951
  154SOL    HW2 1362   0.445   2.215   3.077
  155SOL     OW 1363   6.681   1.388   3.427
  155SOL    HW1 1364   6.671   1.487   3.438
  155SOL    HW2 1365   6.613   1.341   3.482
  156SOL     OW 1366   0.102   2.136   0.719
  156SOL    HW1 1367   0.115   2.221   0.668
  156SOL    HW2 1368   0.066   2.157   0.810
  157SOL     OW 1369   6.506   3.313   2.056
  157SOL    HW1 1370   6.488   3.302   2.154
  157SOL    HW2 1371   6.530   3.225   2.016
  158SOL     OW 1372   2.750   5.884   2.091
  158SOL    HW1 1373   2.790   5.972   2.065
  158SOL    HW2 1374   2.651   5.888   2.081
  159SOL     OW 1375   4.769   4.359   1.818
  159SOL    HW1 1376   4.680   4.344   1.859
  159SOL    HW2 1377   4.791   4.282   1.757
  160SOL     OW 1378   6.363   5.650   0.277
  160SOL    HW1 1379   6.414   5.637   0.362
  160SOL    HW2 1380   6.401   5.728   0.227
  161SOL     OW 1381   2.112   5.431   4.836
  161SOL    HW1 1382   2.202   5.392   4.856
  161SOL    HW2 1383   2.097   5.430   4.737
  162SOL     OW 1384   3.735   6.707   0.153
  162SOL    HW1 1385   3.706   6.611   0.158
  162SOL    HW2 1386   3.689   6.752   0.077
  163SOL     OW 1387   5.238   5.603   1.303
  163SOL    HW1 1388   5.327   5.578   1.264
  163SOL    HW2 1389   5.224   5.553   1.388
  164SOL     OW 1390   6.699   4.917   0.594
  164SOL    HW1 1391   6.631   4.896   0.663
  164SOL    HW2 1392   6.783   4.949   0.637
  165SOL     OW 1393   5.470   3.032   1.454
  165SOL    HW1 1394   5.465   3.131   1.438
  165SOL    HW2 1395   5.447   3.013   1.550
  166SOL     OW 1396   0.047   5.156   3.670
  166SOL    HW1 1397   0.110   5.229   3.643
  166SOL    HW2 1398   0.087   5.067   3.650
  167SOL     OW 1399   5.993   2.781   0.030
  167SOL    HW1 1400   6.032   2.810   6.965
  167SOL    HW2 1401   5.918   2.842   0.054
  168SOL     OW 1402   2.433   3.608   1.355
  168SOL    HW1 1403   2.439   3.514   1.322
  168SOL    HW2 1404   2.416   3.607   1.454
  169SOL     OW 1405   4.045   0.569   1.891
  169SOL    HW1 1406   4.002   0.629   1.959
  169SOL    HW2 1407   4.017   0.598   1.799
  170SOL     OW 1408   0.345   0.845   3.390
  170SOL    HW1 1409   0.443   0.825   3.379
  170SOL    HW2 1410   0.334   0.926   3.448
  171SOL     OW 1411   4.038   4.636   0.415
  171SOL    HW1 1412   4.108   4.568   0.434
  171SOL    HW2 1413   3.980   4.604   0.340
  172SOL     OW 1414   6.458   2.058   4.287
  172SOL    HW1 1415   6.380   1.996   4.299
  172SOL    HW2 1416   6.529   2.036   4.353
  173SOL     OW 1417   6.832   1.998   4.083
  173SOL    HW1 1418   6.745   1.950   4.087
  173SOL    HW2 1419   6.824   2.088   4.124
  174SOL     OW 1420   3.520   5.434   4.082
  174SOL    HW1 1421   3.444   5.497   4.100
  174SOL    HW2 1422   3.521   5.410   3.985
  175SOL     OW 1423   2.359   6.734   2.287
  175SOL    HW1 1424   2.365   6.680   2.203
  175SOL    HW2 1425   2.386   6.828   2.267
  176SOL     OW 1426   0.857   4.378   1.264
  176SOL    HW1 1427   0.809   4.465   1.250
  176SOL    HW2 1428   0.956   4.394   1.266
  177SOL     OW 1429   5.624   2.722   2.696
  177SOL    HW1 1430   5.577   2.650   2.646
  177SOL    HW2 1431   5.611   2.810   2.649
  178SOL     OW 1432   3.410   2.506   6.300
  178SOL    HW1 1433   3.510   2.511   6.295
  178SOL    HW2 1434   3.382   2.414   6.327
  179SOL     OW 1435   2.370   1.743   5.982
  179SOL    HW1 1436   2.275   1.767   5.999
  179SOL    HW2 1437   2.406   1.689   6.058
  180SOL     OW 1438   1.719   0.365   6.547
  180SOL    HW1 1439   1.632   0.327   6.518
  180SOL    HW2 1440   1.789   0.293   6.547
  181SOL     OW 1441   3.475   1.739   6.115
  181SOL    HW1 1442   3.520   1.676   6.052
  181SOL    HW2 1443   3.463   1.694   6.204
  182SOL     OW 1444   3.514   1.994   3.904
  182SOL    HW1 1445   3.457   1.944   3.968
  182SOL    HW2 1446   3.483   2.089   3.899
  183SOL     OW 1447   3.547   2.148   3.618
  183SOL    HW1 1448   3.553   2.166   3.519
  183SOL    HW2 1449   3.628   2.097   3.648
  184SOL     OW 1450   1.766   6.370   4.320
  184SOL    HW1 1451   1.774   6.428   4.401
  184SOL    HW2 1452   1.703   6.413   4.254
  185SOL     OW 1453   0.773   2.065   6.380
  185SOL    HW1 1454   0.687   2.114   6.387
  185SOL    HW2 1455   0.839   2.105   6.444
  186SOL     OW 1456   5.964   1.331   3.817
  186SOL    HW1 1457   6.058   1.311   3.843
  186SOL    HW2 1458   5.902   1.293   3.886
  187SOL     OW 1459   4.704   0.741   2.844
  187SOL    HW1 1460   4.635   0.675   2.875
  187SOL    HW2 1461   4.750   0.705   2.763
  188SOL     OW 1462   6.492   1.912   2.128
  188SOL    HW1 1463   6.416   1.848   2.145
  188SOL    HW2 1464   6.530   1.943   2.215
  189SOL     OW 1465   2.252   5.197   1.850
  189SOL    HW1 1466   2.192   5.117   1.841
  189SOL    HW2 1467   2.348   5.166   1.849
  190SOL     OW 1468   4.146   1.268   4.425
  190SOL    HW1 1469   4.227   1.322   4.444
  190SOL    HW2 1470   4.138   1.253   4.327
  191SOL     OW 1471   5.462   5.744   6.039
  191SOL    HW1 1472   5.427   5.831   6.005
  191SOL    HW2 1473   5.455   5.741   6.138
  192SOL     OW 1474   0.095   6.003   1.770
  192SOL    HW1 1475   0.121   5.969   1.860
  192SOL    HW2 1476   0.143   5.950   1.700
  193SOL     OW 1477   4.974   2.428   5.534
  193SOL    HW1 1478   5.038   2.493   5.576
  193SOL    HW2 1479   4.939   2.367   5.604
  194SOL     OW 1480   3.687   0.471   2.673
  194SOL    HW1 1481   3.619   0.470   2.746
  194SOL    HW2 1482   3.685   0.383   2.625
  195SOL     OW 1483   1.769   6.679   4.327
  195SOL    HW1 1484   1.789   6.673   4.425
  195SOL    HW2 1485   1.846   6.642   4.275
  196SOL     OW 1486   2.527   1.403   6.569
  196SOL    HW1 1487   2.503   1.482   6.625
  196SOL    HW2 1488   2.543   1.324   6.628
  197SOL     OW 1489   2.163   0.850   0.603
  197SOL    HW1 1490   2.184   0.803   0.688
  197SOL    HW2 1491   2.209   0.804   0.527
  198SOL     OW 1492   4.892   1.312   2.803
  198SOL    HW1 1493   4.870   1.214   2.802
  198SOL    HW2 1494   4.818   1.362   2.848
  199SOL     OW 1495   1.042   1.998   4.256
  199SOL    HW1 1496   1.052   1.992   4.356
  199SOL    HW2 1497   1.110   1.939   4.212
  200SOL     OW 1498   1.183   3.595   0.777
  200SOL    HW1 1499   1.181   3.509   0.830
  200SOL    HW2 1500   1.125   3.662   0.822
  201SOL     OW 1501   0.605   6.269   5.526
  201SOL    HW1 1502   0.698   6.245   5.555
  201SOL    HW2 1503   0.592   6.368   5.538
  202SOL     OW 1504   3.673   1.907   6.286
  202SOL    HW1 1505   3.731   1.852   6.226
  202SOL    HW2 1506   3.580   1.869   6.286
  203SOL     OW 1507   6.423   1.873   5.007
  203SOL    HW1 1508   6.337   1.855   4.960
  203SOL    HW2 1509   6.407   1.877   5.106
  204SOL     OW 1510   1.066   6.824   4.301
  204SOL    HW1 1511   1.117   6.891   4.246
  204SOL    HW2 1512   1.096   6.732   4.277
  205SOL     OW 1513   1.225   2.499   2.707
  205SOL    HW1 1514   1.223   2.466   2.801
  205SOL    HW2 1515   1.135   2.488   2.665
  206SOL     OW 1516   0.610   3.615   1.280
  206SOL    HW1 1517   0.567   3.526   1.267
  206SOL    HW2 1518   0.607   3.639   1.377
  207SOL     OW 1519   5.744   1.237   4.003
  207SOL    HW1 1520   5.673   1.208   3.938
  207SOL    HW2 1521   5.708   1.231   4.096
  208SOL     OW 1522   0.289   3.742   5.736
  208SOL    HW1 1523   0.207   3.696   5.770
  208SOL    HW2 1524   0.282   3.753   5.636
  209SOL     OW 1525   6.952   4.706   3.349
  209SOL    HW1 1526   0.024   4.686   3.324
  209SOL    HW2 1527   6.891   4.650   3.292
  210SOL     OW 1528   4.478   2.169   0.400
  210SOL    HW1 1529   4.557   2.214   0.357
  210SOL    HW2 1530   4.394   2.204   0.359
  211SOL     OW 1531   0.895   6.462   2.329
  211SOL    HW1 1532   0.833   6.448   2.406
  211SOL    HW2 1533   0.909   6.560   2.313
  212SOL     OW 1534   1.371   3.342   2.544
  212SOL    HW1 1535   1.341   3.253   2.579
  212SOL    HW2 1536   1.466   3.357   2.571
  213SOL     OW 1537   2.114   6.291   0.973
  213SOL    HW1 1538   2.024   6.258   1.002
  213SOL    HW2 1539   2.108   6.325   0.880
  214SOL     OW 1540   3.339   5.531   2.952
  214SOL    HW1 1541   3.299   5.598   3.014
  214SOL    HW2 1542   3.326   5.562   2.857
  215SOL     OW 1543   3.053   3.798   0.929
  215SOL    HW1 1544   3.133   3.768   0.878
  215SOL    HW2 1545   3.050   3.751   1.017
  216SOL     OW 1546   0.819   6.061   3.290
  216SOL    HW1 1547   0.725   6.093   3.276
  216SOL    HW2 1548   0.871   6.132   3.337
  217SOL     OW 1549   1.435   2.473   4.762
  217SOL    HW1 1550   1.394   2.551   4.715
  217SOL    HW2 1551   1.401   2.388   4.721
  218SOL     OW 1552   0.877   2.535   4.272
  218SOL    HW1 1553   0.939   2.459   4.288
  218SOL    HW2 1554   0.899   2.610   4.334
  219SOL     OW 1555   3.960   7.019   0.433
  219SOL    HW1 1556   3.957   0.092   0.462
  219SOL    HW2 1557   4.036   7.006   0.370
  220SOL     OW 1558   2.238   0.239   1.521
  220SOL    HW1 1559   2.159   0.210   1.575
  220SOL    HW2 1560   2.272   0.161   1.468
  221SOL     OW 1561   5.898   4.024   1.318
  221SOL    HW1 1562   5.974   4.079   1.283
  221SOL    HW2 1563   5.933   3.942   1.362
  222SOL     OW 1564   1.407   4.472   5.427
  222SOL    HW1 1565   1.502   4.460   5.454
  222SOL    HW2 1566   1.363   4.538   5.488
  223SOL     OW 1567   0.001   3.449   5.995
  223SOL    HW1 1568   0.088   3.399   5.989
  223SOL    HW2 1569   6.956   3.404   5.937
  224SOL     OW 1570   3.181   1.267   5.995
  224SOL    HW1 1571   3.214   1.189   6.049
  224SOL    HW2 1572   3.207   1.352   6.040
  225SOL     OW 1573   4.414   4.223   6.252
  225SOL    HW1 1574   4.447   4.135   6.217
  225SOL    HW2 1575   4.491   4.286   6.263
  226SOL     OW 1576   0.376   1.693   5.907
  226SOL    HW1 1577   0.350   1.629   5.834
  226SOL    HW2 1578   0.295   1.719   5.959
  227SOL     OW 1579   1.611   4.245   2.320
  227SOL    HW1 1580   1.533   4.243   2.383
  227SOL    HW2 1581   1.684   4.185   2.354
  228SOL     OW 1582   2.077   0.099   2.465
  228SOL    HW1 1583   2.011   0.044   2.515
  228SOL    HW2 1584   2.118   0.044   2.392
  229SOL     OW 1585   5.424   5.503   5.901
  229SOL    HW1 1586   5.376   5.436   5.958
  229SOL    HW2 1587   5.457   5.577   5.959
  230SOL     OW 1588   4.628   5.773   4.185
  230SOL    HW1 1589   4.530   5.784   4.204
  230SOL    HW2 1590   4.640   5.705   4.112
  231SOL     OW 1591   5.890   1.300   6.478
  231SOL    HW1 1592   5.861   1.294   6.574
  231SOL    HW2 1593   5.989   1.292   6.472
  232SOL     OW 1594   0.084   3.480   6.774
  232SOL    HW1 1595   0.017   3.425   6.825
  232SOL    HW2 1596   0.152   3.419   6.733
  233SOL     OW 1597   4.018   0.983   2.791
  233SOL    HW1 1598   4.044   1.059   2.731
  233SOL    HW2 1599   3.989   0.905   2.736
  234SOL     OW 1600   4.949   0.824   6.684
  234SOL    HW1 1601   5.006   0.743   6.677
  234SOL    HW2 1602   4.878   0.809   6.753
  235SOL     OW 1603   4.777   2.831   2.229
  235SOL    HW1 1604   4.836   2.765   2.183
  235SOL    HW2 1605   4.764   2.911   2.170
  236SOL     OW 1606   5.140   3.043   6.988
  236SOL    HW1 1607   5.101   3.019   6.899
  236SOL    HW2 1608   5.238   3.022   6.988
  237SOL     OW 1609   0.181   4.323   2.362
  237SOL    HW1 1610   0.153   4.385   2.289
  237SOL    HW2 1611   0.269   4.352   2.399
  238SOL     OW 1612   5.772   1.724   0.346
  238SOL    HW1 1613   5.815   1.738   0.435
  238SOL    HW2 1614   5.830   1.666   0.289
  239SOL     OW 1615   0.884   4.534   0.141
  239SOL    HW1 1616   0.808   4.598   0.142
  239SOL    HW2 1617   0.945   4.554   0.218
  240SOL     OW 1618   1.030   3.142   3.585
  240SOL    HW1 1619   1.031   3.189   3.496
  240SOL    HW2 1620   1.119   3.154   3.629
  241SOL     OW 1621   2.949   2.229   4.792
  241SOL    HW1 1622   2.868   2.286   4.778
  241SOL    HW2 1623   3.012   2.275   4.854
  242SOL     OW 1624   3.152   3.552   3.931
  242SOL    HW1 1625   3.060   3.516   3.913
  242SOL    HW2 1626   3.150   3.652   3.923
  243SOL     OW 1627   4.806   1.252   0.423
  243SOL    HW1 1628   4.715   1.233   0.462
  243SOL    HW2 1629   4.812   1.348   0.397
  244SOL     OW 1630   6.190   3.906   5.323
  244SOL    HW1 1631   6.115   3.948   5.273
  244SOL    HW2 1632   6.153   3.839   5.388
  245SOL     OW 1633   4.564   1.911   4.061
  245SOL    HW1 1634   4.566   1.926   3.962
  245SOL    HW2 1635   4.477   1.944   4.098
  246SOL     OW 1636   4.439   1.922   3.045
  246SOL    HW1 1637   4.351   1.956   3.011
  246SOL    HW2 1638   4.435   1.915   3.145
  247SOL     OW 1639   2.798   2.140   0.858
  247SOL    HW1 1640   2.738   2.109   0.785
  247SOL    HW2 1641   2.743   2.173   0.935
  248SOL     OW 1642   3.151   1.371   3.107
  248SOL    HW1 1643   3.188   1.279   3.124
  248SOL    HW2 1644   3.201   1.413   3.031
  249SOL     OW 1645   5.563   6.639   5.176
  249SOL    HW1 1646   5.638   6.657   5.239
  249SOL    HW2 1647   5.536   6.543   5.184
  250SOL     OW 1648   4.378   3.140   0.294
  250SOL    HW1 1649   4.373   3.235   0.324
  250SOL    HW2 1650   4.289   3.112   0.258
  251SOL     OW 1651   4.393   3.527   5.283
  251SOL    HW1 1652   4.337   3.607   5.261
  251SOL    HW2 1653   4.489   3.549   5.268
  252SOL     OW 1654   0.131   6.343   4.914
  252SOL    HW1 1655   0.138   6.345   5.014
  252SOL    HW2 1656   0.037   6.365   4.887
  253SOL     OW 1657   3.520   5.374   6.394
  253SOL    HW1 1658   3.533   5.362   6.296
  253SOL    HW2 1659   3.543   5.468   6.419
  254SOL     OW 1660   6.491   2.515   3.983
  254SOL    HW1 1661   6.520   2.534   3.889
  254SOL    HW2 1662   6.427   2.438   3.983
  255SOL     OW 1663   2.501   4.790   5.157
  255SOL    HW1 1664   2.440   4.764   5.232
  255SOL    HW2 1665   2.493   4.724   5.082
  256SOL     OW 1666   5.793   3.969   6.152
  256SOL    HW1 1667   5.887   4.001   6.143
  256SOL    HW2 1668   5.730   4.043   6.128
  257SOL     OW 1669   5.110   0.301   3.327
  257SOL    HW1 1670   5.043   0.270   3.394
  257SOL    HW2 1671   5.078   0.279   3.235
  258SOL     OW 1672   2.124   4.397   5.362
  258SOL    HW1 1673   2.209   4.350   5.338
  258SOL    HW2 1674   2.046   4.341   5.332
  259SOL     OW 1675   6.282   0.847   2.768
  259SOL    HW1 1676   6.356   0.909   2.795
  259SOL    HW2 1677   6.301   0.810   2.677
  260SOL     OW 1678   4.418   6.288   2.934
  260SOL    HW1 1679   4.448   6.264   3.026
  260SOL    HW2 1680   4.358   6.368   2.939
  261SOL     OW 1681   5.953   3.441   0.849
  261SOL    HW1 1682   5.954   3.507   0.774
  261SOL    HW2 1683   6.046   3.407   0.865
  262SOL     OW 1684   1.033   3.949   6.987
  262SOL    HW1 1685   0.939   3.915   6.988
  262SOL    HW2 1686   1.036   4.039   0.009
  263SOL     OW 1687   1.814   0.275   5.183
  263SOL    HW1 1688   1.770   0.271   5.094
  263SOL    HW2 1689   1.768   0.343   5.241
  264SOL     OW 1690   6.121   2.966   6.868
  264SOL    HW1 1691   6.077   2.898   6.809
  264SOL    HW2 1692   6.074   3.053   6.858
  265SOL     OW 1693   5.194   6.848   2.772
  265SOL    HW1 1694   5.143   6.913   2.716
  265SOL    HW2 1695   5.289   6.877   2.780
  266SOL     OW 1696   4.238   2.496   5.714
  266SOL    HW1 1697   4.192   2.540   5.636
  266SOL    HW2 1698   4.337   2.509   5.705
  267SOL     OW 1699   0.654   1.743   6.002
  267SOL    HW1 1700   0.564   1.764   5.963
  267SOL    HW2 1701   0.643   1.677   6.076
  268SOL     OW 1702   3.358   0.998   6.077
  268SOL    HW1 1703   3.383   0.902   6.064
  268SOL    HW2 1704   3.406   1.055   6.010
  269SOL     OW 1705   1.524   3.794   1.121
  269SOL    HW1 1706   1.595   3.795   1.191
  269SOL    HW2 1707   1.547   3.859   1.049
  270SOL     OW 1708   1.401   5.988   0.595
  270SOL    HW1 1709   1.409   5.898   0.638
  270SOL    HW2 1710   1.304   6.012   0.586
  271SOL     OW 1711   6.716   0.975   6.413
  271SOL    HW1 1712   6.742   1.035   6.338
  271SOL    HW2 1713   6.736   0.880   6.388
  272SOL     OW 1714   3.670   5.995   3.942
  272SOL    HW1 1715   3.752   6.053   3.941
  272SOL    HW2 1716   3.595   6.043   3.895
  273SOL     OW 1717   2.346   4.671   4.202
  273SOL    HW1 1718   2.385   4.754   4.163
  273SOL    HW2 1719   2.403   4.592   4.177
  274SOL     OW 1720   4.033   1.521   3.162
  274SOL    HW1 1721   4.031   1.557   3.069
  274SOL    HW2 1722   3.939   1.511   3.196
  275SOL     OW 1723   6.898   5.403   3.660
  275SOL    HW1 1724   6.987   5.358   3.652
  275SOL    HW2 1725   6.850   5.369   3.741
  276SOL     OW 1726   0.268   6.484   2.761
  276SOL    HW1 1727   0.342   6.481   2.828
  276SOL    HW2 1728   0.206   6.407   2.776
  277SOL     OW 1729   1.081   3.910   0.519
  277SOL    HW1 1730   1.146   3.836   0.537
  277SOL    HW2 1731   1.109   3.960   0.437
  278SOL     OW 1732   0.304   4.266   1.393
  278SOL    HW1 1733   0.289   4.223   1.482
  278SOL    HW2 1734   0.356   4.351   1.405
  279SOL     OW 1735   5.668   2.818   4.210
  279SOL    HW1 1736   5.568   2.824   4.205
  279SOL    HW2 1737   5.708   2.895   4.160
  280SOL     OW 1738   2.571   5.451   2.700
  280SOL    HW1 1739   2.577   5.530   2.760
  280SOL    HW2 1740   2.475   5.433   2.677
  281SOL     OW 1741   2.673   4.631   1.751
  281SOL    HW1 1742   2.704   4.725   1.765
  281SOL    HW2 1743   2.743   4.567   1.782
  282SOL     OW 1744   3.489   1.452   5.459
  282SOL    HW1 1745   3.444   1.374   5.501
  282SOL    HW2 1746   3.474   1.534   5.514
  283SOL     OW 1747   5.854   2.935   6.522
  283SOL    HW1 1748   5.887   2.863   6.461
  283SOL    HW2 1749   5.755   2.943   6.515
  284SOL     OW 1750   1.237   3.714   3.603
  284SOL    HW1 1751   1.210   3.620   3.581
  284SOL    HW2 1752   1.335   3.716   3.624
  285SOL     OW 1753   5.721   5.192   4.287
  285SOL    HW1 1754   5.778   5.213   4.208
  285SOL    HW2 1755   5.780   5.170   4.365
  286SOL     OW 1756   3.390   5.025   6.856
  286SOL    HW1 1757   3.419   5.105   6.803
  286SOL    HW2 1758   3.367   4.950   6.795
  287SOL     OW 1759   1.081   3.437   1.089
  287SOL    HW1 1760   0.983   3.432   1.074
  287SOL    HW2 1761   1.101   3.415   1.185
  288SOL     OW 1762   3.275   1.594   0.161
  288SOL    HW1 1763   3.246   1.661   0.230
  288SOL    HW2 1764   3.374   1.599   0.150
  289SOL     OW 1765   2.202   4.269   5.816
  289SOL    HW1 1766   2.245   4.324   5.745
  289SOL    HW2 1767   2.116   4.312   5.844
  290SOL     OW 1768   6.493   2.048   4.800
  290SOL    HW1 1769   6.470   2.136   4.841
  290SOL    HW2 1770   6.484   1.976   4.869
  291SOL     OW 1771   0.959   2.033   4.688
  291SOL    HW1 1772   1.047   2.081   4.689
  291SOL    HW2 1773   0.905   2.064   4.609
  292SOL     OW 1774   1.731   2.024   2.991
  292SOL    HW1 1775   1.794   2.078   3.047
  292SOL    HW2 1776   1.681   2.084   2.929
  293SOL     OW 1777   4.248   6.196   3.263
  293SOL    HW1 1778   4.338   6.183   3.222
  293SOL    HW2 1779   4.230   6.293   3.275
  294SOL     OW 1780   0.400   6.170   6.809
  294SOL    HW1 1781   0.302   6.178   6.791
  294SOL    HW2 1782   0.416   6.174   6.908
  295SOL     OW 1783   4.025   1.121   3.227
  295SOL    HW1 1784   4.011   1.052   3.298
  295SOL    HW2 1785   4.036   1.211   3.269
  296SOL     OW 1786   3.360   1.491   2.955
  296SOL    HW1 1787   3.397   1.581   2.930
  296SOL    HW2 1788   3.364   1.430   2.876
  297SOL     OW 1789   2.676   4.606   3.927
  297SOL    HW1 1790   2.631   4.547   3.994
  297SOL    HW2 1791   2.671   4.565   3.837
  298SOL     OW 1792   4.272   5.809   2.217
  298SOL    HW1 1793   4.366   5.830   2.245
  298SOL    HW2 1794   4.236   5.885   2.164
  299SOL     OW 1795   5.291   3.251   5.931
  299SOL    HW1 1796   5.263   3.306   6.010
  299SOL    HW2 1797   5.215   3.246   5.866
  300SOL     OW 1798   6.314   0.759   2.506
  300SOL    HW1 1799   6.348   0.838   2.454
  300SOL    HW2 1800   6.248   0.708   2.451
  301SOL     OW 1801   4.929   3.664   1.125
  301SOL    HW1 1802   4.831   3.648   1.124
  301SOL    HW2 1803   4.977   3.582   1.157
  302SOL     OW 1804   1.220   0.483   3.025
  302SOL    HW1 1805   1.217   0.551   2.951
  302SOL    HW2 1806   1.210   0.392   2.986
  303SOL     OW 1807   6.000   0.410   2.523
  303SOL    HW1 1808   6.050   0.477   2.578
  303SOL    HW2 1809   6.014   0.430   2.426
  304SOL     OW 1810   1.745   0.198   3.169
  304SOL    HW1 1811   1.738   0.255   3.087
  304SOL    HW2 1812   1.768   0.255   3.248
  305SOL     OW 1813   0.364   3.398   6.692
  305SOL    HW1 1814   0.410   3.388   6.781
  305SOL    HW2 1815   0.384   3.318   6.636
  306SOL     OW 1816   1.159   1.140   3.384
  306SOL    HW1 1817   1.222   1.182   3.319
  306SOL    HW2 1818   1.115   1.061   3.342
  307SOL     OW 1819   4.590   6.647   1.045
  307SOL    HW1 1820   4.535   6.618   1.124
  307SOL    HW2 1821   4.645   6.727   1.070
  308SOL     OW 1822   6.976   3.973   4.716
  308SOL    HW1 1823   6.924   3.916   4.780
  308SOL    HW2 1824   0.003   4.043   4.766
  309SOL     OW 1825   3.806   4.549   5.320
  309SOL    HW1 1826   3.730   4.545   5.384
  309SOL    HW2 1827   3.819   4.459   5.279
  310SOL     OW 1828   6.260   6.611   6.012
  310SOL    HW1 1829   6.293   6.618   5.918
  310SOL    HW2 1830   6.245   6.703   6.049
  311SOL     OW 1831   6.462   4.919   1.660
  311SOL    HW1 1832   6.416   4.985   1.601
  311SOL    HW2 1833   6.461   4.829   1.616
  312SOL     OW 1834   4.909   1.910   5.708
  312SOL    HW1 1835   4.974   1.857   5.762
  312SOL    HW2 1836   4.832   1.851   5.683
  313SOL     OW 1837   2.682   4.325   1.665
  313SOL    HW1 1838   2.757   4.360   1.721
  313SOL    HW2 1839   2.697   4.350   1.569
  314SOL     OW 1840   3.531   5.637   0.365
  314SOL    HW1 1841   3.458   5.704   0.355
  314SOL    HW2 1842   3.605   5.659   0.301
  315SOL     OW 1843   0.796   2.081   3.718
  315SOL    HW1 1844   0.863   2.012   3.743
  315SOL    HW2 1845   0.785   2.084   3.619
  316SOL     OW 1846   2.004   2.351   4.420
  316SOL    HW1 1847   1.996   2.425   4.354
  316SOL    HW2 1848   2.098   2.347   4.454
  317SOL     OW 1849   0.403   1.443   0.079
  317SOL    HW1 1850   0.394   1.440   0.179
  317SOL    HW2 1851   0.439   1.356   0.045
  318SOL     OW 1852   1.210   4.636   0.847
  318SOL    HW1 1853   1.182   4.658   0.941
  318SOL    HW2 1854   1.131   4.637   0.787
  319SOL     OW 1855   0.415   0.268   2.158
  319SOL    HW1 1856   0.403   0.219   2.245
  319SOL    HW2 1857   0.481   0.341   2.170
  320SOL     OW 1858   5.551   2.256   7.001
  320SOL    HW1 1859   5.554   2.300   0.068
  320SOL    HW2 1860   5.472   2.194   6.997
  321SOL     OW 1861   2.560   1.409   2.260
  321SOL    HW1 1862   2.522   1.500   2.275
  321SOL    HW2 1863   2.487   1.346   2.232
  322SOL     OW 1864   3.084   3.361   4.549
  322SOL    HW1 1865   3.053   3.453   4.573
  322SOL    HW2 1866   3.145   3.366   4.470
  323SOL     OW 1867   0.933   4.213   6.820
  323SOL    HW1 1868   0.933   4.266   6.735
  323SOL    HW2 1869   0.889   4.125   6.804
  324SOL     OW 1870   1.488   2.938   4.001
  324SOL    HW1 1871   1.438   2.976   3.923
  324SOL    HW2 1872   1.455   2.980   4.086
  325SOL     OW 1873   2.018   3.072   1.320
  325SOL    HW1 1874   1.950   3.071   1.393
  325SOL    HW2 1875   2.102   3.028   1.353
  326SOL     OW 1876   1.657   5.962   6.964
  326SOL    HW1 1877   1.706   5.887   6.921
  326SOL    HW2 1878   1.720   6.037   6.983
  327SOL     OW 1879   0.837   5.179   4.061
  327SOL    HW1 1880   0.873   5.091   4.093
  327SOL    HW2 1881   0.738   5.181   4.071
  328SOL     OW 1882   2.929   5.191   2.467
  328SOL    HW1 1883   2.926   5.155   2.374
  328SOL    HW2 1884   3.019   5.232   2.484
  329SOL     OW 1885   3.221   4.061   3.903
  329SOL    HW1 1886   3.248   4.047   3.807
  329SOL    HW2 1887   3.298   4.098   3.954
  330SOL     OW 1888   3.348   6.038   1.850
  330SOL    HW1 1889   3.419   6.097   1.888
  330SOL    HW2 1890   3.320   6.074   1.761
  331SOL     OW 1891   4.673   5.031   6.482
  331SOL    HW1 1892   4.718   4.946   6.454
  331SOL    HW2 1893   4.738   5.107   6.475
  332SOL     OW 1894   3.732   2.109   4.045
  332SOL    HW1 1895   3.729   2.112   4.145
  332SOL    HW2 1896   3.651   2.061   4.011
  333SOL     OW 1897   3.879   0.154   6.981
  333SOL    HW1 1898   3.941   0.096   6.929
  333SOL    HW2 1899   3.920   0.176   0.047
  334SOL     OW 1900   2.671   6.833   1.353
  334SOL    HW1 1901   2.770   6.819   1.362
  334SOL    HW2 1902   2.623   6.760   1.402
  335SOL     OW 1903   2.963   5.939   3.692
  335SOL    HW1 1904   3.052   5.953   3.737
  335SOL    HW2 1905   2.948   6.012   3.626
  336SOL     OW 1906   2.477   1.017   3.454
  336SOL    HW1 1907   2.505   1.077   3.529
  336SOL    HW2 1908   2.445   1.073   3.377
  337SOL     OW 1909   0.020   3.920   1.216
  337SOL    HW1 1910   6.964   3.889   1.163
  337SOL    HW2 1911   0.047   4.011   1.186
  338SOL     OW 1912   2.942   3.127   1.839
  338SOL    HW1 1913   3.021   3.066   1.838
  338SOL    HW2 1914   2.932   3.169   1.929
  339SOL     OW 1915   3.980   0.143   3.525
  339SOL    HW1 1916   3.944   0.053   3.499
  339SOL    HW2 1917   4.048   0.172   3.458
  340SOL     OW 1918   5.147   4.023   5.114
  340SOL    HW1 1919   5.110   4.040   5.023
  340SOL    HW2 1920   5.218   3.953   5.109
  341SOL     OW 1921   6.401   6.366   4.169
  341SOL    HW1 1922   6.500   6.370   4.173
  341SOL    HW2 1923   6.366   6.442   4.115
  342SOL     OW 1924   5.856   4.132   0.370
  342SOL    HW1 1925   5.891   4.126   0.277
  342SOL    HW2 1926   5.832   4.040   0.402
  343SOL     OW 1927   3.424   5.858   1.587
  343SOL    HW1 1928   3.377   5.831   1.504
  343SOL    HW2 1929   3.377   5.820   1.667
  344SOL     OW 1930   2.479   5.219   1.091
  344SOL    HW1 1931   2.566   5.172   1.080
  344SOL    HW2 1932   2.468   5.287   1.018
  345SOL     OW 1933   0.305   0.437   6.012
  345SOL    HW1 1934   0.403   0.457   6.004
  345SOL    HW2 1935   0.286   0.345   5.977
  346SOL     OW 1936   1.749   0.011   2.224
  346SOL    HW1 1937   1.666   0.059   2.251
  346SOL    HW2 1938   1.789   6.990   2.304
  347SOL     OW 1939   5.032   0.152   6.467
  347SOL    HW1 1940   5.063   0.234   6.515
  347SOL    HW2 1941   5.015   0.174   6.371
  348SOL     OW 1942   4.205   4.947   1.976
  348SOL    HW1 1943   4.240   4.857   1.949
  348SOL    HW2 1944   4.172   4.995   1.896
  349SOL     OW 1945   0.104   4.858   2.514
  349SOL    HW1 1946   0.023   4.799   2.514
  349SOL    HW2 1947   0.076   4.954   2.519
  350SOL     OW 1948   3.736   3.939   1.605
  350SOL    HW1 1949   3.754   3.850   1.647
  350SOL    HW2 1950   3.663   3.985   1.655
  351SOL     OW 1951   2.666   2.510   0.756
  351SOL    HW1 1952   2.663   2.464   0.845
  351SOL    HW2 1953   2.584   2.566   0.745
  352SOL     OW 1954   3.747   0.283   4.865
  352SOL    HW1 1955   3.720   0.379   4.877
  352SOL    HW2 1956   3.674   0.223   4.897
  353SOL     OW 1957   2.379   0.317   0.703
  353SOL    HW1 1958   2.356   0.345   0.797
  353SOL    HW2 1959   2.459   0.257   0.705
  354SOL     OW 1960   4.106   2.573   0.680
  354SOL    HW1 1961   4.035   2.574   0.751
  354SOL    HW2 1962   4.114   2.665   0.641
  355SOL     OW 1963   6.645   3.151   2.662
  355SOL    HW1 1964   6.567   3.110   2.709
  355SOL    HW2 1965   6.704   3.196   2.729
  356SOL     OW 1966   4.190   5.912   4.874
  356SOL    HW1 1967   4.272   5.905   4.931
  356SOL    HW2 1968   4.110   5.889   4.929
  357SOL     OW 1969   0.144   6.304   5.235
  357SOL    HW1 1970   0.108   6.396   5.249
  357SOL    HW2 1971   0.239   6.301   5.266
  358SOL     OW 1972   6.506   0.164   1.174
  358SOL    HW1 1973   6.484   0.067   1.178
  358SOL    HW2 1974   6.461   0.212   1.250
  359SOL     OW 1975   1.578   2.761   2.183
  359SOL    HW1 1976   1.660   2.815   2.205
  359SOL    HW2 1977   1.583   2.673   2.229
  360SOL     OW 1978   2.849   6.272   6.179
  360SOL    HW1 1979   2.931   6.319   6.212
  360SOL    HW2 1980   2.849   6.178   6.213
  361SOL     OW 1981   6.121   5.874   3.209
  361SOL    HW1 1982   6.146   5.824   3.126
  361SOL    HW2 1983   6.034   5.840   3.243
  362SOL     OW 1984   3.216   4.112   0.452
  362SOL    HW1 1985   3.148   4.136   0.521
  362SOL    HW2 1986   3.240   4.194   0.400
  363SOL     OW 1987   3.665   5.002   4.117
  363SOL    HW1 1988   3.590   5.041   4.063
  363SOL    HW2 1989   3.719   4.941   4.059
  364SOL     OW 1990   0.580   5.800   5.462
  364SOL    HW1 1991   0.585   5.859   5.543
  364SOL    HW2 1992   0.656   5.822   5.401
  365SOL     OW 1993   4.449   6.693   3.093
  365SOL    HW1 1994   4.452   6.709   3.192
  365SOL    HW2 1995   4.527   6.638   3.066
  366SOL     OW 1996   5.241   1.251   0.242
  366SOL    HW1 1997   5.150   1.233   0.280
  366SOL    HW2 1998   5.301   1.285   0.314
  367SOL     OW 1999   4.783   2.826   0.746
  367SOL    HW1 2000   4.742   2.809   0.657
  367SOL    HW2 2001   4.818   2.741   0.784
  368SOL     OW 2002   1.329   4.654   4.686
  368SOL    HW1 2003   1.419   4.690   4.662
  368SOL    HW2 2004   1.336   4.596   4.767
  369SOL     OW 2005   6.143   4.982   2.014
  369SOL    HW1 2006   6.186   4.914   1.954
  369SOL    HW2 2007   6.204   5.060   2.025
  370SOL     OW 2008   2.493   0.923   5.107
  370SOL    HW1 2009   2.394   0.939   5.113
  370SOL    HW2 2010   2.535   0.995   5.053
  371SOL     OW 2011   2.313   3.715   6.706
  371SOL    HW1 2012   2.229   3.719   6.651
  371SOL    HW2 2013   2.383   3.772   6.664
  372SOL     OW 2014   6.750   0.175   5.075
  372SOL    HW1 2015   6.736   0.251   5.139
  372SOL    HW2 2016   6.839   0.133   5.092
  373SOL     OW 2017   0.336   6.556   6.095
  373SOL    HW1 2018   0.428   6.587   6.068
  373SOL    HW2 2019   0.307   6.605   6.176
  374SOL     OW 2020   4.176   6.882   2.103
  374SOL    HW1 2021   4.091   6.842   2.070
  374SOL    HW2 2022   4.155   6.960   2.163
  375SOL     OW 2023   6.727   4.748   3.993
  375SOL    HW1 2024   6.718   4.830   4.049
  375SOL    HW2 2025   6.821   4.715   3.998
  376SOL     OW 2026   1.571   3.054   3.677
  376SOL    HW1 2027   1.610   3.007   3.756
  376SOL    HW2 2028   1.582   2.997   3.596
  377SOL     OW 2029   5.479   2.482   2.637
  377SOL    HW1 2030   5.403   2.436   2.592
  377SOL    HW2 2031   5.561   2.475   2.579
  378SOL     OW 2032   3.971   3.076   5.627
  378SOL    HW1 2033   4.005   3.104   5.717
  378SOL    HW2 2034   4.026   3.119   5.556
  379SOL     OW 2035   5.850   3.198   1.502
  379SOL    HW1 2036   5.851   3.252   1.418
  379SOL    HW2 2037   5.788   3.239   1.568
  380SOL     OW 2038   2.186   1.664   1.271
  380SOL    HW1 2039   2.116   1.730   1.247
  380SOL    HW2 2040   2.144   1.577   1.295
  381SOL     OW 2041   2.364   4.877   1.733
  381SOL    HW1 2042   2.337   4.952   1.673
  381SOL    HW2 2043   2.408   4.914   1.815
  382SOL     OW 2044   3.752   6.054   0.141
  382SOL    HW1 2045   3.782   6.057   0.046
  382SOL    HW2 2046   3.828   6.080   0.201
  383SOL     OW 2047   6.469   2.793   6.637
  383SOL    HW1 2048   6.504   2.703   6.614
  383SOL    HW2 2049   6.497   2.817   6.730
  384SOL     OW 2050   1.245   4.790   5.116
  384SOL    HW1 2051   1.338   4.771   5.085
  384SOL    HW2 2052   1.183   4.791   5.037
  385SOL     OW 2053   5.168   6.593   0.052
  385SOL    HW1 2054   5.086   6.637   0.016
  385SOL    HW2 2055   5.150   6.556   0.143
  386SOL     OW 2056   4.145   6.988   5.735
  386SOL    HW1 2057   4.187   0.054   5.721
  386SOL    HW2 2058   4.085   6.966   5.658
  387SOL     OW 2059   0.490   0.021   4.208
  387SOL    HW1 2060   0.414   6.981   4.227
  387SOL    HW2 2061   0.550   0.025   4.288
  388SOL     OW 2062   6.890   2.329   5.474
  388SOL    HW1 2063   6.874   2.304   5.570
  388SOL    HW2 2064   6.860   2.423   5.458
  389SOL     OW 2065   4.256   4.465   1.758
  389SOL    HW1 2066   4.164   4.428   1.741
  389SOL    HW2 2067   4.311   4.397   1.806
  390SOL     OW 2068   3.752   1.098   0.747
  390SOL    HW1 2069   3.680   1.149   0.700
  390SOL    HW2 2070   3.756   1.005   0.709
  391SOL     OW 2071   2.724   4.124   5.670
  391SOL    HW1 2072   2.635   4.170   5.661
  391SOL    HW2 2073   2.761   4.106   5.579
  392SOL     OW 2074   1.663   3.575   2.241
  392SOL    HW1 2075   1.648   3.661   2.191
  392SOL    HW2 2076   1.760   3.564   2.260
  393SOL     OW 2077   0.703   4.452   0.913
  393SOL    HW1 2078   0.642   4.458   0.835
  393SOL    HW2 2079   0.729   4.544   0.943
  394SOL     OW 2080   6.849   3.313   0.179
  394SOL    HW1 2081   6.942   3.279   0.195
  394SOL    HW2 2082   6.819   3.364   0.260
  395SOL     OW 2083   5.324   4.192   2.261
  395SOL    HW1 2084   5.271   4.266   2.303
  395SOL    HW2 2085   5.279   4.163   2.176
  396SOL     OW 2086   2.707   2.099   1.981
  396SOL    HW1 2087   2.621   2.114   2.029
  396SOL    HW2 2088   2.772   2.170   2.006
  397SOL     OW 2089   4.687   1.256   5.641
  397SOL    HW1 2090   4.628   1.182   5.610
  397SOL    HW2 2091   4.671   1.274   5.738
  398SOL     OW 2092   0.933   0.520   4.280
  398SOL    HW1 2093   1.013   0.561   4.238
  398SOL    HW2 2094   0.856   0.523   4.216
  399SOL     OW 2095   5.632   5.909   3.966
  399SOL    HW1 2096   5.537   5.926   3.939
  399SOL    HW2 2097   5.661   5.978   4.031
  400SOL     OW 2098   6.365   0.367   4.857
  400SOL    HW1 2099   6.441   0.342   4.797
  400SOL    HW2 2100   6.305   0.288   4.870
  401SOL     OW 2101   6.568   0.383   6.031
  401SOL    HW1 2102   6.504   0.429   6.092
  401SOL    HW2 2103   6.601   0.448   5.962
  402SOL     OW 2104   6.454   0.312   2.501
  402SOL    HW1 2105   6.435   0.344   2.594
  402SOL    HW2 2106   6.491   0.219   2.505
  403SOL     OW 2107   2.655   0.342   5.656
  403SOL    HW1 2108   2.731   0.402   5.629
  403SOL    HW2 2109   2.692   0.254   5.685
  404SOL     OW 2110   3.599   6.519   6.132
  404SOL    HW1 2111   3.544   6.463   6.071
  404SOL    HW2 2112   3.540   6.584   6.180
  405SOL     OW 2113   1.729   3.750   3.506
  405SOL    HW1 2114   1.720   3.849   3.520
  405SOL    HW2 2115   1.814   3.718   3.548
  406SOL     OW 2116   0.899   5.320   5.258
  406SOL    HW1 2117   0.859   5.391   5.200
  406SOL    HW2 2118   0.871   5.334   5.353
  407SOL     OW 2119   1.600   3.246   3.428
  407SOL    HW1 2120   1.694   3.277   3.440
  407SOL    HW2 2121   1.578   3.179   3.499
  408SOL     OW 2122   3.616   1.730   2.696
  408SOL    HW1 2123   3.655   1.681   2.774
  408SOL    HW2 2124   3.634   1.828   2.704
  409SOL     OW 2125   0.816   3.679   2.242
  409SOL    HW1 2126   0.872   3.644   2.167
  409SOL    HW2 2127   0.757   3.752   2.207
  410SOL     OW 2128   1.381   2.551   1.195
  410SOL    HW1 2129   1.466   2.598   1.218
  410SOL    HW2 2130   1.401   2.462   1.154
  411SOL     OW 2131   0.093   2.005   2.173
  411SOL    HW1 2132   0.130   1.913   2.188
  411SOL    HW2 2133   0.133   2.043   2.090
  412SOL     OW 2134   2.354   4.757   3.131
  412SOL    HW1 2135   2.313   4.666   3.136
  412SOL    HW2 2136   2.407   4.766   3.047
  413SOL     OW 2137   3.644   4.862   2.450
  413SOL    HW1 2138   3.553   4.857   2.408
  413SOL    HW2 2139   3.675   4.770   2.473
  414SOL     OW 2140   2.570   6.902   3.620
  414SOL    HW1 2141   2.501   6.931   3.554
  414SOL    HW2 2142   2.650   6.867   3.571
  415SOL     OW 2143   6.597   1.553   0.496
  415SOL    HW1 2144   6.521   1.616   0.515
  415SOL    HW2 2145   6.616   1.553   0.398
  416SOL     OW 2146   4.974   4.045   4.827
  416SOL    HW1 2147   4.902   4.114   4.817
  416SOL    HW2 2148   4.933   3.954   4.836
  417SOL     OW 2149   2.743   2.153   6.836
  417SOL    HW1 2150   2.656   2.166   6.883
  417SOL    HW2 2151   2.776   2.060   6.853
  418SOL     OW 2152   3.561   6.996   4.169
  418SOL    HW1 2153   3.619   6.991   4.250
  418SOL    HW2 2154   3.521   6.906   4.150
  419SOL     OW 2155   0.456   6.780   1.550
  419SOL    HW1 2156   0.535   6.749   1.603
  419SOL    HW2 2157   0.389   6.822   1.611
  420SOL     OW 2158   5.599   0.421   6.856
  420SOL    HW1 2159   5.636   0.335   6.893
  420SOL    HW2 2160   5.671   0.470   6.808
  421SOL     OW 2161   5.170   4.377   4.381
  421SOL    HW1 2162   5.172   4.281   4.354
  421SOL    HW2 2163   5.198   4.385   4.477
  422SOL     OW 2164   4.942   2.289   1.384
  422SOL    HW1 2165   5.022   2.346   1.366
  422SOL    HW2 2166   4.859   2.344   1.371
  423SOL     OW 2167   2.847   1.096   5.943
  423SOL    HW1 2168   2.896   1.177   5.912
  423SOL    HW2 2169   2.884   1.015   5.897
  424SOL     OW 2170   1.411   4.574   3.081
  424SOL    HW1 2171   1.368   4.637   3.145
  424SOL    HW2 2172   1.491   4.532   3.125
  425SOL     OW 2173   4.426   0.530   5.278
  425SOL    HW1 2174   4.525   0.528   5.292
  425SOL    HW2 2175   4.389   0.616   5.313
  426SOL     OW 2176   2.749   2.000   4.886
  426SOL    HW1 2177   2.792   1.969   4.971
  426SOL    HW2 2178   2.812   2.058   4.835
  427SOL     OW 2179   4.516   1.612   3.295
  427SOL    HW1 2180   4.528   1.594   3.197
  427SOL    HW2 2181   4.585   1.678   3.325
  428SOL     OW 2182   2.930   0.893   5.225
  428SOL    HW1 2183   2.930   0.981   5.177
  428SOL    HW2 2184   2.857   0.835   5.188
  429SOL     OW 2185   1.584   6.100   3.537
  429SOL    HW1 2186   1.517   6.033   3.569
  429SOL    HW2 2187   1.535   6.181   3.504
  430SOL     OW 2188   1.618   6.857   3.994
  430SOL    HW1 2189   1.593   6.947   3.957
  430SOL    HW2 2190   1.713   6.860   4.025
  431SOL     OW 2191   2.735   2.212   1.138
  431SOL    HW1 2192   2.706   2.154   1.214
  431SOL    HW2 2193   2.815   2.266   1.167
  432SOL     OW 2194   4.330   1.905   1.503
  432SOL    HW1 2195   4.377   1.916   1.415
  432SOL    HW2 2196   4.381   1.954   1.574
  433SOL     OW 2197   2.782   6.645   6.834
  433SOL    HW1 2198   2.807   6.710   6.762
  433SOL    HW2 2199   2.754   6.696   6.916
  434SOL     OW 2200   4.352   6.670   3.902
  434SOL    HW1 2201   4.278   6.606   3.923
  434SOL    HW2 2202   4.409   6.633   3.829
  435SOL     OW 2203   3.713   1.880   5.965
  435SOL    HW1 2204   3.651   1.950   6.001
  435SOL    HW2 2205   3.661   1.799   5.941
  436SOL     OW 2206   3.902   6.271   3.721
  436SOL    HW1 2207   3.928   6.298   3.813
  436SOL    HW2 2208   3.802   6.267   3.714
  437SOL     OW 2209   0.206   0.489   4.047
  437SOL    HW1 2210   0.170   0.566   3.994
  437SOL    HW2 2211   0.172   0.494   4.141
  438SOL     OW 2212   1.002   5.064   2.775
  438SOL    HW1 2213   0.948   5.074   2.858
  438SOL    HW2 2214   1.011   4.967   2.752
  439SOL     OW 2215   5.669   0.467   3.010
  439SOL    HW1 2216   5.709   0.498   3.095
  439SOL    HW2 2217   5.736   0.415   2.958
  440SOL     OW 2218   4.545   0.578   7.009
  440SOL    HW1 2219   4.477   0.646   0.015
  440SOL    HW2 2220   4.542   0.499   0.047
  441SOL     OW 2221   6.835   4.286   2.723
  441SOL    HW1 2222   6.924   4.277   2.677
  441SOL    HW2 2223   6.797   4.195   2.739
  442SOL     OW 2224   5.506   3.604   5.661
  442SOL    HW1 2225   5.468   3.545   5.732
  442SOL    HW2 2226   5.499   3.700   5.691
  443SOL     OW 2227   4.864   4.194   3.346
  443SOL    HW1 2228   4.908   4.105   3.335
  443SOL    HW2 2229   4.892   4.234   3.433
  444SOL     OW 2230   3.765   1.326   1.174
  444SOL    HW1 2231   3.741   1.256   1.107
  444SOL    HW2 2232   3.798   1.407   1.126
  445SOL     OW 2233   1.937   5.423   2.520
  445SOL    HW1 2234   1.929   5.520   2.498
  445SOL    HW2 2235   2.010   5.410   2.588
  446SOL     OW 2236   5.764   6.021   2.793
  446SOL    HW1 2237   5.809   5.937   2.761
  446SOL    HW2 2238   5.775   6.093   2.725
  447SOL     OW 2239   5.961   3.975   6.742
  447SOL    HW1 2240   5.990   4.068   6.723
  447SOL    HW2 2241   6.040   3.914   6.742
  448SOL     OW 2242   2.977   0.948   2.485
  448SOL    HW1 2243   2.912   0.998   2.543
  448SOL    HW2 2244   2.968   0.850   2.503
  449SOL     OW 2245   1.792   2.512   3.975
  449SOL    HW1 2246   1.752   2.472   3.892
  449SOL    HW2 2247   1.723   2.567   4.022
  450SOL     OW 2248   1.206   4.318   2.990
  450SOL    HW1 2249   1.185   4.284   3.082
  450SOL    HW2 2250   1.236   4.413   2.997
  451SOL     OW 2251   0.741   2.043   3.448
  451SOL    HW1 2252   0.769   2.118   3.388
  451SOL    HW2 2253   0.791   1.960   3.424
  452SOL     OW 2254   3.947   6.399   3.393
  452SOL    HW1 2255   4.005   6.367   3.318
  452SOL    HW2 2256   3.918   6.320   3.448
  453SOL     OW 2257   4.085   6.668   0.374
  453SOL    HW1 2258   4.009   6.634   0.430
  453SOL    HW2 2259   4.114   6.757   0.410
  454SOL     OW 2260   6.882   4.838   6.515
  454SOL    HW1 2261   6.939   4.875   6.588
  454SOL    HW2 2262   6.800   4.895   6.504
  455SOL     OW 2263   6.641   4.598   5.546
  455SOL    HW1 2264   6.712   4.581   5.615
  455SOL    HW2 2265   6.552   4.574   5.583
  456SOL     OW 2266   2.501   1.109   2.743
  456SOL    HW1 2267   2.516   1.111   2.644
  456SOL    HW2 2268   2.586   1.129   2.791
  457SOL     OW 2269   2.242   6.157   5.939
  457SOL    HW1 2270   2.270   6.070   5.899
  457SOL    HW2 2271   2.263   6.157   6.037
  458SOL     OW 2272   1.934   1.636   3.172
  458SOL    HW1 2273   1.888   1.628   3.084
  458SOL    HW2 2274   1.948   1.545   3.211
  459SOL     OW 2275   2.235   6.962   4.879
  459SOL    HW1 2276   2.317   6.986   4.931
  459SOL    HW2 2277   2.158   6.950   4.943
  460SOL     OW 2278   1.825   1.923   4.988
  460SOL    HW1 2279   1.879   1.938   5.072
  460SOL    HW2 2280   1.749   1.988   4.986
  461SOL     OW 2281   0.564   5.038   5.727
  461SOL    HW1 2282   0.645   4.993   5.764
  461SOL    HW2 2283   0.514   5.083   5.801
  462SOL     OW 2284   3.336   3.593   4.480
  462SOL    HW1 2285   3.277   3.641   4.415
  462SOL    HW2 2286   3.350   3.499   4.450
  463SOL     OW 2287   6.183   6.511   2.460
  463SOL    HW1 2288   6.163   6.455   2.380
  463SOL    HW2 2289   6.281   6.507   2.481
  464SOL     OW 2290   3.364   6.340   6.364
  464SOL    HW1 2291   3.405   6.257   6.327
  464SOL    HW2 2292   3.429   6.385   6.424
  465SOL     OW 2293   1.118   2.063   0.755
  465SOL    HW1 2294   1.162   2.153   0.749
  465SOL    HW2 2295   1.080   2.039   0.666
  466SOL     OW 2296   3.441   6.307   4.787
  466SOL    HW1 2297   3.457   6.360   4.704
  466SOL    HW2 2298   3.344   6.309   4.810
  467SOL     OW 2299   6.468   1.129   2.557
  467SOL    HW1 2300   6.559   1.170   2.568
  467SOL    HW2 2301   6.398   1.199   2.574
  468SOL     OW 2302   3.951   0.592   6.577
  468SOL    HW1 2303   3.998   0.545   6.652
  468SOL    HW2 2304   3.975   0.689   6.578
  469SOL     OW 2305   2.723   4.370   6.033
  469SOL    HW1 2306   2.654   4.412   5.974
  469SOL    HW2 2307   2.784   4.314   5.979
  470SOL     OW 2308   2.636   5.035   3.090
  470SOL    HW1 2309   2.733   5.022   3.110
  470SOL    HW2 2310   2.583   5.030   3.175
  471SOL     OW 2311   2.788   2.290   4.026
  471SOL    HW1 2312   2.830   2.230   3.958
  471SOL    HW2 2313   2.740   2.364   3.980
  472SOL     OW 2314   6.456   4.195   5.949
  472SOL    HW1 2315   6.469   4.118   5.887
  472SOL    HW2 2316   6.378   4.250   5.919
  473SOL     OW 2317   0.117   2.143   2.761
  473SOL    HW1 2318   0.069   2.094   2.688
  473SOL    HW2 2319   0.053   2.163   2.836
  474SOL     OW 2320   6.380   6.408   4.492
  474SOL    HW1 2321   6.316   6.485   4.484
  474SOL    HW2 2322   6.334   6.324   4.466
  475SOL     OW 2323   6.309   1.588   0.736
  475SOL    HW1 2324   6.225   1.628   0.772
  475SOL    HW2 2325   6.287   1.526   0.661
  476SOL     OW 2326   0.994   4.041   1.713
  476SOL    HW1 2327   0.957   4.029   1.621
  476SOL    HW2 2328   1.083   4.088   1.707
  477SOL     OW 2329   1.715   4.658   3.638
  477SOL    HW1 2330   1.742   4.631   3.545
  477SOL    HW2 2331   1.615   4.661   3.644
  478SOL     OW 2332   4.714   5.811   2.778
  478SOL    HW1 2333   4.674   5.903   2.779
  478SOL    HW2 2334   4.642   5.744   2.796
  479SOL     OW 2335   4.047   3.776   3.739
  479SOL    HW1 2336   4.020   3.851   3.798
  479SOL    HW2 2337   4.111   3.716   3.787
  480SOL     OW 2338   1.450   0.108   2.745
  480SOL    HW1 2339   1.512   0.086   2.820
  480SOL    HW2 2340   1.473   0.199   2.709
  481SOL     OW 2341   1.042   6.449   0.680
  481SOL    HW1 2342   0.983   6.407   0.611
  481SOL    HW2 2343   1.005   6.433   0.771
  482SOL     OW 2344   5.160   4.404   2.347
  482SOL    HW1 2345   5.080   4.437   2.297
  482SOL    HW2 2346   5.167   4.453   2.434
  483SOL     OW 2347   5.977   2.448   3.668
  483SOL    HW1 2348   6.054   2.396   3.631
  483SOL    HW2 2349   6.010   2.532   3.710
  484SOL     OW 2350   2.254   4.090   4.260
  484SOL    HW1 2351   2.264   4.157   4.187
  484SOL    HW2 2352   2.220   4.004   4.221
  485SOL     OW 2353   5.132   2.755   2.841
  485SOL    HW1 2354   5.141   2.789   2.747
  485SOL    HW2 2355   5.173   2.664   2.847
  486SOL     OW 2356   6.789   6.247   5.835
  486SOL    HW1 2357   6.818   6.161   5.875
  486SOL    HW2 2358   6.691   6.245   5.818
  487SOL     OW 2359   0.393   6.248   4.228
  487SOL    HW1 2360   0.442   6.163   4.209
  487SOL    HW2 2361   0.310   6.228   4.281
  488SOL     OW 2362   1.664   6.616   3.276
  488SOL    HW1 2363   1.593   6.560   3.235
  488SOL    HW2 2364   1.679   6.588   3.371
  489SOL     OW 2365   0.269   5.727   5.256
  489SOL    HW1 2366   0.286   5.824   5.241
  489SOL    HW2 2367   0.288   5.705   5.352
  490SOL     OW 2368   1.474   4.848   5.727
  490SOL    HW1 2369   1.482   4.845   5.827
  490SOL    HW2 2370   1.415   4.774   5.696
  491SOL     OW 2371   0.198   2.377   1.051
  491SOL    HW1 2372   0.137   2.299   1.038
  491SOL    HW2 2373   0.256   2.388   0.970
  492SOL     OW 2374   1.784   1.662   5.713
  492SOL    HW1 2375   1.699   1.652   5.765
  492SOL    HW2 2376   1.857   1.610   5.759
  493SOL     OW 2377   2.537   6.574   4.904
  493SOL    HW1 2378   2.538   6.475   4.919
  493SOL    HW2 2379   2.609   6.617   4.958
  494SOL     OW 2380   2.260   0.298   4.842
  494SOL    HW1 2381   2.267   0.199   4.841
  494SOL    HW2 2382   2.193   0.327   4.910
  495SOL     OW 2383   4.176   6.165   5.394
  495SOL    HW1 2384   4.195   6.121   5.307
  495SOL    HW2 2385   4.263   6.188   5.439
  496SOL     OW 2386   5.328   2.235   2.652
  496SOL    HW1 2387   5.231   2.213   2.659
  496SOL    HW2 2388   5.374   2.215   2.739
  497SOL     OW 2389   3.236   1.174   6.355
  497SOL    HW1 2390   3.263   1.240   6.425
  497SOL    HW2 2391   3.138   1.183   6.337
  498SOL     OW 2392   0.789   5.906   1.918
  498SOL    HW1 2393   0.756   5.944   1.832
  498SOL    HW2 2394   0.812   5.809   1.905
  499SOL     OW 2395   3.788   5.494   6.919
  499SOL    HW1 2396   3.756   5.407   6.955
  499SOL    HW2 2397   3.715   5.537   6.866
  500SOL     OW 2398   5.784   2.127   6.974
  500SOL    HW1 2399   5.703   2.184   6.964
  500SOL    HW2 2400   5.757   2.031   6.976
  501SOL     OW 2401   0.858   7.020   3.021
  501SOL    HW1 2402   0.805   0.082   3.031
  501SOL    HW2 2403   0.943   0.006   3.072
  502SOL     OW 2404   1.848   4.907   6.787
  502SOL    HW1 2405   1.884   4.935   6.698
  502SOL    HW2 2406   1.921   4.867   6.842
  503SOL     OW 2407   3.724   5.199   6.891
  503SOL    HW1 2408   3.728   5.206   6.991
  503SOL    HW2 2409   3.629   5.183   6.863
  504SOL     OW 2410   5.995   6.162   2.085
  504SOL    HW1 2411   6.007   6.201   1.993
  504SOL    HW2 2412   6.074   6.185   2.142
  505SOL     OW 2413   5.071   6.488   5.321
  505SOL    HW1 2414   5.089   6.534   5.408
  505SOL    HW2 2415   4.992   6.427   5.331
  506SOL     OW 2416   3.231   5.885   2.957
  506SOL    HW1 2417   3.202   5.868   2.863
  506SOL    HW2 2418   3.304   5.953   2.959
  507SOL     OW 2419   3.669   1.193   1.449
  507SOL    HW1 2420   3.731   1.258   1.492
  507SOL    HW2 2421   3.628   1.234   1.368
  508SOL     OW 2422   0.672   4.483   4.669
  508SOL    HW1 2423   0.588   4.518   4.711
  508SOL    HW2 2424   0.737   4.558   4.659
  509SOL     OW 2425   4.326   0.504   6.222
  509SOL    HW1 2426   4.252   0.508   6.290
  509SOL    HW2 2427   4.370   0.414   6.226
  510SOL     OW 2428   6.242   4.221   6.234
  510SOL    HW1 2429   6.185   4.302   6.246
  510SOL    HW2 2430   6.339   4.248   6.236
  511SOL     OW 2431   1.313   1.726   0.434
  511SOL    HW1 2432   1.312   1.691   0.340
  511SOL    HW2 2433   1.225   1.706   0.478
  512SOL     OW 2434   6.197   1.957   6.951
  512SOL    HW1 2435   6.164   1.919   6.865
  512SOL    HW2 2436   6.180   2.056   6.952
  513SOL     OW 2437   5.663   0.654   2.777
  513SOL    HW1 2438   5.714   0.627   2.695
  513SOL    HW2 2439   5.659   0.577   2.840
  514SOL     OW 2440   6.876   6.961   4.194
  514SOL    HW1 2441   6.913   6.928   4.280
  514SOL    HW2 2442   6.782   6.992   4.207
  515SOL     OW 2443   3.700   6.755   6.792
  515SOL    HW1 2444   3.709   6.715   6.701
  515SOL    HW2 2445   3.674   6.851   6.784
  516SOL     OW 2446   2.651   4.905   1.512
  516SOL    HW1 2447   2.600   4.935   1.431
  516SOL    HW2 2448   2.677   4.809   1.502
  517SOL     OW 2449   2.654   5.023   2.303
  517SOL    HW1 2450   2.735   4.974   2.270
  517SOL    HW2 2451   2.653   5.023   2.403
  518SOL     OW 2452   2.012   2.661   3.871
  518SOL    HW1 2453   2.059   2.585   3.827
  518SOL    HW2 2454   1.920   2.632   3.899
  519SOL     OW 2455   0.303   6.282   3.507
  519SOL    HW1 2456   0.238   6.224   3.459
  519SOL    HW2 2457   0.317   6.367   3.456
  520SOL     OW 2458   1.195   2.785   0.161
  520SOL    HW1 2459   1.191   2.735   0.075
  520SOL    HW2 2460   1.242   2.872   0.146
  521SOL     OW 2461   4.888   4.949   4.824
  521SOL    HW1 2462   4.909   5.043   4.851
  521SOL    HW2 2463   4.795   4.926   4.852
  522SOL     OW 2464   4.312   3.778   1.207
  522SOL    HW1 2465   4.275   3.769   1.114
  522SOL    HW2 2466   4.301   3.873   1.237
  523SOL     OW 2467   6.891   6.430   1.618
  523SOL    HW1 2468   6.961   6.371   1.659
  523SOL    HW2 2469   6.830   6.375   1.561
  524SOL     OW 2470   7.021   2.451   2.360
  524SOL    HW1 2471   7.018   2.550   2.373
  524SOL    HW2 2472   7.020   2.430   2.262
  525SOL     OW 2473   1.238   3.419   6.844
  525SOL    HW1 2474   1.264   3.438   6.749
  525SOL    HW2 2475   1.292   3.478   6.905
  526SOL     OW 2476   3.051   0.139   4.715
  526SOL    HW1 2477   3.030   0.142   4.813
  526SOL    HW2 2478   3.005   0.215   4.668
  527SOL     OW 2479   1.375   2.332   6.622
  527SOL    HW1 2480   1.412   2.318   6.530
  527SOL    HW2 2481   1.322   2.417   6.625
  528SOL     OW 2482   0.090   3.186   4.081
  528SOL    HW1 2483   0.071   3.283   4.068
  528SOL    HW2 2484   0.173   3.161   4.030
  529SOL     OW 2485   2.354   0.069   5.446
  529SOL    HW1 2486   2.366   0.086   5.348
  529SOL    HW2 2487   2.258   0.082   5.470
  530SOL     OW 2488   3.512   3.424   1.727
  530SOL    HW1 2489   3.456   3.492   1.774
  530SOL    HW2 2490   3.519   3.342   1.783
  531SOL     OW 2491   2.444   0.881   2.238
  531SOL    HW1 2492   2.377   0.889   2.311
  531SOL    HW2 2493   2.531   0.850   2.276
  532SOL     OW 2494   2.981   2.815   0.050
  532SOL    HW1 2495   2.994   2.716   0.044
  532SOL    HW2 2496   3.016   2.848   0.138
  533SOL     OW 2497   3.812   0.329   3.653
  533SOL    HW1 2498   3.751   0.304   3.728
  533SOL    HW2 2499   3.880   0.257   3.640
  534SOL     OW 2500   0.844   5.542   1.104
  534SOL    HW1 2501   0.777   5.547   1.030
  534SOL    HW2 2502   0.799   5.510   1.188
  535SOL     OW 2503   5.257   4.042   3.350
  535SOL    HW1 2504   5.298   4.066   3.262
  535SOL    HW2 2505   5.160   4.023   3.337
  536SOL     OW 2506   6.879   6.251   3.210
  536SOL    HW1 2507   6.876   6.284   3.304
  536SOL    HW2 2508   6.798   6.196   3.191
  537SOL     OW 2509   3.124   0.218   3.973
  537SOL    HW1 2510   3.199   0.278   3.946
  537SOL    HW2 2511   3.160   0.132   4.009
  538SOL     OW 2512   2.386   5.070   5.863
  538SOL    HW1 2513   2.484   5.080   5.845
  538SOL    HW2 2514   2.370   4.983   5.910
  539SOL     OW 2515   0.885   6.025   0.510
  539SOL    HW1 2516   0.841   5.948   0.464
  539SOL    HW2 2517   0.927   5.993   0.595
  540SOL     OW 2518   1.499   0.538   3.385
  540SOL    HW1 2519   1.584   0.549   3.436
  540SOL    HW2 2520   1.464   0.445   3.398
  541SOL     OW 2521   4.177   6.570   4.500
  541SOL    HW1 2522   4.145   6.614   4.416
  541SOL    HW2 2523   4.227   6.637   4.555
  542SOL     OW 2524   3.207   6.152   6.671
  542SOL    HW1 2525   3.168   6.183   6.758
  542SOL    HW2 2526   3.208   6.229   6.607
  543SOL     OW 2527   6.010   2.869   4.084
  543SOL    HW1 2528   6.073   2.931   4.036
  543SOL    HW2 2529   6.060   2.819   4.154
  544SOL     OW 2530   0.036   5.034   6.891
  544SOL    HW1 2531   0.005   5.128   6.879
  544SOL    HW2 2532   0.020   5.006   6.986
  545SOL     OW 2533   5.145   1.548   1.121
  545SOL    HW1 2534   5.047   1.538   1.138
  545SOL    HW2 2535   5.174   1.480   1.054
  546SOL     OW 2536   0.653   4.386   2.298
  546SOL    HW1 2537   0.566   4.433   2.316
  546SOL    HW2 2538   0.635   4.303   2.245
  547SOL     OW 2539   3.462   1.242   0.189
  547SOL    HW1 2540   3.387   1.298   0.153
  547SOL    HW2 2541   3.426   1.180   0.259
  548SOL     OW 2542   3.900   2.909   0.032
  548SOL    HW1 2543   3.835   2.861   0.091
  548SOL    HW2 2544   3.906   3.004   0.061
  549SOL     OW 2545   5.751   2.374   0.691
  549SOL    HW1 2546   5.783   2.290   0.646
  549SOL    HW2 2547   5.651   2.376   0.689
  550SOL     OW 2548   0.290   4.451   3.060
  550SOL    HW1 2549   0.209   4.399   3.029
  550SOL    HW2 2550   0.342   4.481   2.980
  551SOL     OW 2551   0.043   1.156   0.158
  551SOL    HW1 2552   7.014   1.078   0.123
  551SOL    HW2 2553   0.086   1.131   0.245
  552SOL     OW 2554   5.700   5.554   5.674
  552SOL    HW1 2555   5.609   5.514   5.663
  552SOL    HW2 2556   5.692   5.645   5.713
  553SOL     OW 2557   3.268   1.195   5.468
  553SOL    HW1 2558   3.205   1.118   5.473
  553SOL    HW2 2559   3.362   1.162   5.474
  554SOL     OW 2560   5.445   5.766   0.919
  554SOL    HW1 2561   5.411   5.859   0.905
  554SOL    HW2 2562   5.371   5.701   0.900
  555SOL     OW 2563   2.587   5.633   5.312
  555SOL    HW1 2564   2.648   5.635   5.392
  555SOL    HW2 2565   2.581   5.539   5.277
  556SOL     OW 2566   4.857   1.747   3.760
  556SOL    HW1 2567   4.939   1.694   3.737
  556SOL    HW2 2568   4.778   1.709   3.714
  557SOL     OW 2569   0.141   4.952   5.685
  557SOL    HW1 2570   0.096   4.967   5.773
  557SOL    HW2 2571   0.089   4.885   5.632
  558SOL     OW 2572   3.895   3.570   2.949
  558SOL    HW1 2573   3.988   3.589   2.918
  558SOL    HW2 2574   3.878   3.620   3.034
  559SOL     OW 2575   6.505   6.191   5.871
  559SOL    HW1 2576   6.414   6.157   5.847
  559SOL    HW2 2577   6.537   6.143   5.953
  560SOL     OW 2578   6.838   2.795   3.320
  560SOL    HW1 2579   6.936   2.778   3.327
  560SOL    HW2 2580   6.803   2.759   3.233
  561SOL     OW 2581   0.310   3.467   6.327
  561SOL    HW1 2582   0.386   3.529   6.310
  561SOL    HW2 2583   0.232   3.519   6.362
  562SOL     OW 2584   4.794   6.595   5.880
  562SOL    HW1 2585   4.789   6.555   5.972
  562SOL    HW2 2586   4.727   6.669   5.873
  563SOL     OW 2587   1.798   1.825   4.562
  563SOL    HW1 2588   1.742   1.759   4.612
  563SOL    HW2 2589   1.847   1.778   4.489
  564SOL     OW 2590   0.395   1.279   6.022
  564SOL    HW1 2591   0.460   1.333   5.969
  564SOL    HW2 2592   0.305   1.322   6.017
  565SOL     OW 2593   3.328   2.927   3.778
  565SOL    HW1 2594   3.275   3.012   3.778
  565SOL    HW2 2595   3.397   2.931   3.850
  566SOL     OW 2596   3.429   5.258   2.964
  566SOL    HW1 2597   3.528   5.253   2.978
  566SOL    HW2 2598   3.398   5.352   2.978
  567SOL     OW 2599   2.750   2.477   0.153
  567SOL    HW1 2600   2.721   2.490   0.247
  567SOL    HW2 2601   2.707   2.395   0.115
  568SOL     OW 2602   5.524   6.687   0.625
  568SOL    HW1 2603   5.581   6.757   0.580
  568SOL    HW2 2604   5.581   6.608   0.647
  569SOL     OW 2605   0.415   2.048   6.823
  569SOL    HW1 2606   0.361   2.132   6.832
  569SOL    HW2 2607   0.406   1.994   6.907
  570SOL     OW 2608   2.624   0.692   5.862
  570SOL    HW1 2609   2.543   0.655   5.815
  570SOL    HW2 2610   2.681   0.617   5.894
  571SOL     OW 2611   2.514   4.862   2.913
  571SOL    HW1 2612   2.557   4.933   2.968
  571SOL    HW2 2613   2.507   4.893   2.818
  572SOL     OW 2614   1.893   6.147   4.437
  572SOL    HW1 2615   1.872   6.237   4.399
  572SOL    HW2 2616   1.927   6.157   4.530
  573SOL     OW 2617   6.366   2.136   5.895
  573SOL    HW1 2618   6.297   2.076   5.853
  573SOL    HW2 2619   6.402   2.093   5.978
  574SOL     OW 2620   3.187   1.580   5.220
  574SOL    HW1 2621   3.225   1.664   5.257
  574SOL    HW2 2622   3.261   1.524   5.182
  575SOL     OW 2623   3.420   3.322   0.558
  575SOL    HW1 2624   3.419   3.417   0.527
  575SOL    HW2 2625   3.461   3.316   0.649
  576SOL     OW 2626   2.183   2.894   2.876
  576SOL    HW1 2627   2.183   2.805   2.923
  576SOL    HW2 2628   2.277   2.928   2.871
  577SOL     OW 2629   0.846   0.808   2.279
  577SOL    HW1 2630   0.847   0.737   2.208
  577SOL    HW2 2631   0.864   0.897   2.238
  578SOL     OW 2632   1.669   5.529   0.336
  578SOL    HW1 2633   1.736   5.592   0.296
  578SOL    HW2 2634   1.601   5.503   0.268
  579SOL     OW 2635   2.796   4.799   2.550
  579SOL    HW1 2636   2.777   4.868   2.620
  579SOL    HW2 2637   2.887   4.815   2.512
  580SOL     OW 2638   4.386   5.287   5.188
  580SOL    HW1 2639   4.452   5.222   5.224
  580SOL    HW2 2640   4.336   5.246   5.112
  581SOL     OW 2641   0.910   2.816   3.397
  581SOL    HW1 2642   0.866   2.904   3.381
  581SOL    HW2 2643   0.964   2.820   3.481
  582SOL     OW 2644   5.391   5.269   3.323
  582SOL    HW1 2645   5.371   5.358   3.364
  582SOL    HW2 2646   5.307   5.214   3.321
  583SOL     OW 2647   2.984   5.301   5.547
  583SOL    HW1 2648   3.039   5.359   5.608
  583SOL    HW2 2649   2.974   5.346   5.459
  584SOL     OW 2650   3.547   0.264   6.022
  584SOL    HW1 2651   3.606   0.202   6.073
  584SOL    HW2 2652   3.556   0.246   5.924
  585SOL     OW 2653   3.105   6.853   1.549
  585SOL    HW1 2654   3.169   6.785   1.514
  585SOL    HW2 2655   3.013   6.813   1.554
  586SOL     OW 2656   4.322   0.423   1.386
  586SOL    HW1 2657   4.405   0.406   1.439
  586SOL    HW2 2658   4.298   0.520   1.391
  587SOL     OW 2659   5.354   1.868   1.823
  587SOL    HW1 2660   5.420   1.850   1.750
  587SOL    HW2 2661   5.395   1.927   1.892
  588SOL     OW 2662   1.456   5.384   0.945
  588SOL    HW1 2663   1.456   5.364   0.847
  588SOL    HW2 2664   1.381   5.446   0.966
  589SOL     OW 2665   3.409   6.044   1.304
  589SOL    HW1 2666   3.354   5.965   1.329
  589SOL    HW2 2667   3.416   6.049   1.204
  590SOL     OW 2668   5.960   1.949   0.824
  590SOL    HW1 2669   5.883   1.887   0.836
  590SOL    HW2 2670   5.929   2.043   0.830
  591SOL     OW 2671   4.248   5.568   4.522
  591SOL    HW1 2672   4.284   5.576   4.614
  591SOL    HW2 2673   4.318   5.529   4.462
  592SOL     OW 2674   4.855   1.223   4.068
  592SOL    HW1 2675   4.809   1.303   4.106
  592SOL    HW2 2676   4.901   1.174   4.141
  593SOL     OW 2677   4.000   2.182   5.082
  593SOL    HW1 2678   3.906   2.149   5.071
  593SOL    HW2 2679   4.000   2.262   5.143
  594SOL     OW 2680   5.749   2.044   1.382
  594SOL    HW1 2681   5.780   2.078   1.471
  594SOL    HW2 2682   5.821   2.058   1.314
  595SOL     OW 2683   4.954   6.667   3.114
  595SOL    HW1 2684   5.037   6.636   3.160
  595SOL    HW2 2685   4.942   6.765   3.130
  596SOL     OW 2686   6.977   4.652   4.020
  596SOL    HW1 2687   0.027   4.683   4.081
  596SOL    HW2 2688   7.011   4.649   3.926
  597SOL     OW 2689   3.230   6.809   5.909
  597SOL    HW1 2690   3.197   6.896   5.870
  597SOL    HW2 2691   3.277   6.827   5.996
  598SOL     OW 2692   2.903   3.794   4.844
  598SOL    HW1 2693   2.901   3.856   4.923
  598SOL    HW2 2694   2.928   3.702   4.874
  599SOL     OW 2695   1.606   6.025   2.121
  599SOL    HW1 2696   1.665   6.008   2.042
  599SOL    HW2 2697   1.532   6.086   2.093
  600SOL     OW 2698   0.301   3.829   5.479
  600SOL    HW1 2699   0.398   3.807   5.465
  600SOL    HW2 2700   0.282   3.921   5.445
  601SOL     OW 2701   1.472   0.591   4.869
  601SOL    HW1 2702   1.543   0.558   4.807
  601SOL    HW2 2703   1.498   0.681   4.904
  602SOL     OW 2704   3.060   6.823   5.126
  602SOL    HW1 2705   3.014   6.878   5.196
  602SOL    HW2 2706   3.154   6.805   5.154
  603SOL     OW 2707   1.626   1.360   5.268
  603SOL    HW1 2708   1.548   1.414   5.300
  603SOL    HW2 2709   1.702   1.370   5.332
  604SOL     OW 2710   6.977   2.227   1.891
  604SOL    HW1 2711   6.985   2.270   1.801
  604SOL    HW2 2712   6.929   2.140   1.881
  605SOL     OW 2713   0.414   4.452   2.424
  605SOL    HW1 2714   0.475   4.457   2.503
  605SOL    HW2 2715   0.370   4.541   2.410
  606SOL     OW 2716   4.213   6.927   5.202
  606SOL    HW1 2717   4.122   6.951   5.235
  606SOL    HW2 2718   4.210   6.836   5.159
  607SOL     OW 2719   1.549   5.109   5.966
  607SOL    HW1 2720   1.581   5.132   5.874
  607SOL    HW2 2721   1.572   5.184   6.029
  608SOL     OW 2722   4.021   6.809   6.997
  608SOL    HW1 2723   3.924   6.811   7.022
  608SOL    HW2 2724   4.063   6.727   0.012
  609SOL     OW 2725   3.893   2.351   1.696
  609SOL    HW1 2726   3.907   2.450   1.696
  609SOL    HW2 2727   3.815   2.328   1.755
  610SOL     OW 2728   4.702   2.276   0.253
  610SOL    HW1 2729   4.682   2.285   0.156
  610SOL    HW2 2730   4.800   2.290   0.269
  611SOL     OW 2731   3.854   6.742   2.516
  611SOL    HW1 2732   3.796   6.673   2.559
  611SOL    HW2 2733   3.884   6.808   2.585
  612SOL     OW 2734   3.101   4.793   5.640
  612SOL    HW1 2735   3.122   4.890   5.648
  612SOL    HW2 2736   3.006   4.782   5.609
  613SOL     OW 2737   5.817   5.734   5.033
  613SOL    HW1 2738   5.804   5.699   4.940
  613SOL    HW2 2739   5.895   5.688   5.075
  614SOL     OW 2740   4.938   5.288   5.237
  614SOL    HW1 2741   4.872   5.227   5.280
  614SOL    HW2 2742   5.031   5.257   5.258
  615SOL     OW 2743   0.176   4.594   0.871
  615SOL    HW1 2744   0.248   4.635   0.814
  615SOL    HW2 2745   0.211   4.579   0.963
  616SOL     OW 2746   6.632   2.917   3.500
  616SOL    HW1 2747   6.645   3.016   3.503
  616SOL    HW2 2748   6.685   2.879   3.425
  617SOL     OW 2749   2.430   5.581   6.118
  617SOL    HW1 2750   2.520   5.616   6.094
  617SOL    HW2 2751   2.412   5.496   6.068
  618SOL     OW 2752   1.910   1.644   1.601
  618SOL    HW1 2753   1.905   1.626   1.503
  618SOL    HW2 2754   1.822   1.680   1.632
  619SOL     OW 2755   1.744   1.968   6.799
  619SOL    HW1 2756   1.668   1.905   6.812
  619SOL    HW2 2757   1.720   2.057   6.837
  620SOL     OW 2758   5.108   2.494   0.652
  620SOL    HW1 2759   5.140   2.539   0.735
  620SOL    HW2 2760   5.086   2.562   0.583
  621SOL     OW 2761   6.142   5.224   6.971
  621SOL    HW1 2762   6.117   5.282   6.893
  621SOL    HW2 2763   6.103   5.262   0.032
  622SOL     OW 2764   1.845   1.277   0.063
  622SOL    HW1 2765   1.880   1.296   6.994
  622SOL    HW2 2766   1.746   1.262   0.059
  623SOL     OW 2767   0.724   5.344   5.999
  623SOL    HW1 2768   0.684   5.409   5.934
  623SOL    HW2 2769   0.720   5.382   6.091
  624SOL     OW 2770   0.463   2.597   2.654
  624SOL    HW1 2771   0.444   2.689   2.687
  624SOL    HW2 2772   0.414   2.530   2.711
  625SOL     OW 2773   2.909   1.653   2.052
  625SOL    HW1 2774   2.925   1.566   2.099
  625SOL    HW2 2775   2.954   1.651   1.963
  626SOL     OW 2776   2.089   5.805   3.607
  626SOL    HW1 2777   2.117   5.896   3.636
  626SOL    HW2 2778   2.027   5.813   3.529
  627SOL     OW 2779   5.503   1.012   0.413
  627SOL    HW1 2780   5.597   1.030   0.384
  627SOL    HW2 2781   5.450   0.976   0.336
  628SOL     OW 2782   4.954   5.420   4.844
  628SOL    HW1 2783   4.898   5.430   4.762
  628SOL    HW2 2784   4.957   5.323   4.870
  629SOL     OW 2785   0.755   0.234   1.262
  629SOL    HW1 2786   0.808   0.287   1.327
  629SOL    HW2 2787   0.780   0.261   1.169
  630SOL     OW 2788   4.829   1.846   1.865
  630SOL    HW1 2789   4.806   1.849   1.962
  630SOL    HW2 2790   4.928   1.855   1.854
  631SOL     OW 2791   2.832   0.492   5.074
  631SOL    HW1 2792   2.792   0.450   4.992
  631SOL    HW2 2793   2.808   0.589   5.077
  632SOL     OW 2794   2.257   1.107   0.389
  632SOL    HW1 2795   2.282   1.103   0.292
  632SOL    HW2 2796   2.162   1.137   0.397
  633SOL     OW 2797   3.058   5.353   0.753
  633SOL    HW1 2798   3.113   5.278   0.790
  633SOL    HW2 2799   3.086   5.372   0.659
  634SOL     OW 2800   4.351   4.842   1.619
  634SOL    HW1 2801   4.428   4.871   1.676
  634SOL    HW2 2802   4.266   4.880   1.657
  635SOL     OW 2803   3.673   0.051   3.424
  635SOL    HW1 2804   3.678   0.147   3.399
  635SOL    HW2 2805   3.593   0.035   3.482
  636SOL     OW 2806   4.837   5.243   6.478
  636SOL    HW1 2807   4.812   5.302   6.555
  636SOL    HW2 2808   4.903   5.292   6.420
  637SOL     OW 2809   4.997   4.930   1.710
  637SOL    HW1 2810   4.922   4.919   1.775
  637SOL    HW2 2811   4.968   4.900   1.620
  638SOL     OW 2812   5.054   1.205   1.821
  638SOL    HW1 2813   5.043   1.241   1.729
  638SOL    HW2 2814   5.049   1.280   1.887
  639SOL     OW 2815   4.885   4.589   1.956
  639SOL    HW1 2816   4.819   4.651   1.999
  639SOL    HW2 2817   4.837   4.525   1.896
  640SOL     OW 2818   2.428   4.232   6.159
  640SOL    HW1 2819   2.331   4.210   6.167
  640SOL    HW2 2820   2.454   4.230   6.062
  641SOL     OW 2821   0.907   5.075   4.614
  641SOL    HW1 2822   1.004   5.053   4.627
  641SOL    HW2 2823   0.895   5.174   4.615
  642SOL     OW 2824   0.187   4.524   5.183
  642SOL    HW1 2825   0.276   4.554   5.218
  642SOL    HW2 2826   0.157   4.587   5.111
  643SOL     OW 2827   6.587   6.017   4.761
  643SOL    HW1 2828   6.544   6.103   4.736
  643SOL    HW2 2829   6.602   6.014   4.860
  644SOL     OW 2830   0.943   6.309   3.361
  644SOL    HW1 2831   0.944   6.326   3.262
  644SOL    HW2 2832   1.028   6.342   3.401
  645SOL     OW 2833   4.387   2.376   4.474
  645SOL    HW1 2834   4.466   2.429   4.446
  645SOL    HW2 2835   4.370   2.390   4.572
  646SOL     OW 2836   1.676   1.566   3.755
  646SOL    HW1 2837   1.737   1.603   3.825
  646SOL    HW2 2838   1.728   1.548   3.672
  647SOL     OW 2839   6.195   3.062   0.130
  647SOL    HW1 2840   6.293   3.058   0.115
  647SOL    HW2 2841   6.147   3.043   0.045
  648SOL     OW 2842   5.714   3.685   2.548
  648SOL    HW1 2843   5.637   3.638   2.591
  648SOL    HW2 2844   5.795   3.625   2.549
  649SOL     OW 2845   3.562   4.295   0.736
  649SOL    HW1 2846   3.555   4.271   0.833
  649SOL    HW2 2847   3.568   4.211   0.681
  650SOL     OW 2848   4.863   4.476   0.688
  650SOL    HW1 2849   4.773   4.440   0.708
  650SOL    HW2 2850   4.858   4.536   0.608
  651SOL     OW 2851   0.635   6.249   0.977
  651SOL    HW1 2852   0.624   6.191   0.896
  651SOL    HW2 2853   0.712   6.311   0.964
  652SOL     OW 2854   4.760   6.925   2.649
  652SOL    HW1 2855   4.720   6.841   2.686
  652SOL    HW2 2856   4.777   6.989   2.723
  653SOL     OW 2857   3.514   5.191   4.366
  653SOL    HW1 2858   3.590   5.176   4.303
  653SOL    HW2 2859   3.428   5.186   4.316
  654SOL     OW 2860   6.872   5.681   6.369
  654SOL    HW1 2861   6.964   5.653   6.395
  654SOL    HW2 2862   6.840   5.753   6.430
  655SOL     OW 2863   0.510   0.178   1.629
  655SOL    HW1 2864   0.545   0.136   1.546
  655SOL    HW2 2865   0.464   0.264   1.606
  656SOL     OW 2866   2.351   6.088   2.141
  656SOL    HW1 2867   2.258   6.125   2.142
  656SOL    HW2 2868   2.386   6.084   2.235
  657SOL     OW 2869   2.991   2.039   1.078
  657SOL    HW1 2870   2.931   2.100   1.026
  657SOL    HW2 2871   3.032   1.972   1.016
  658SOL     OW 2872   3.260   3.767   6.829
  658SOL    HW1 2873   3.193   3.837   6.853
  658SOL    HW2 2874   3.247   3.740   6.733
  659SOL     OW 2875   2.768   6.536   6.182
  659SOL    HW1 2876   2.794   6.440   6.191
  659SOL    HW2 2877   2.730   6.569   6.269
  660SOL     OW 2878   3.946   5.879   2.017
  660SOL    HW1 2879   3.869   5.838   2.065
  660SOL    HW2 2880   3.985   5.813   1.953
  661SOL     OW 2881   4.771   6.029   3.558
  661SOL    HW1 2882   4.817   6.091   3.495
  661SOL    HW2 2883   4.831   5.952   3.580
  662SOL     OW 2884   3.684   0.963   5.857
  662SOL    HW1 2885   3.727   0.874   5.870
  662SOL    HW2 2886   3.755   1.031   5.837
  663SOL     OW 2887   2.025   4.445   4.759
  663SOL    HW1 2888   1.990   4.412   4.671
  663SOL    HW2 2889   2.018   4.372   4.827
  664SOL     OW 2890   0.348   6.327   6.210
  664SOL    HW1 2891   0.386   6.360   6.297
  664SOL    HW2 2892   0.332   6.405   6.149
  665SOL     OW 2893   3.861   5.280   3.571
  665SOL    HW1 2894   3.902   5.322   3.490
  665SOL    HW2 2895   3.917   5.203   3.600
  666SOL     OW 2896   4.017   0.747   2.151
  666SOL    HW1 2897   4.038   0.762   2.248
  666SOL    HW2 2898   4.102   0.738   2.099
  667SOL     OW 2899   0.822   5.065   1.624
  667SOL    HW1 2900   0.899   5.015   1.664
  667SOL    HW2 2901   0.784   5.127   1.693
  668SOL     OW 2902   5.453   5.062   6.010
  668SOL    HW1 2903   5.401   4.977   6.006
  668SOL    HW2 2904   5.525   5.054   6.078
  669SOL     OW 2905   5.535   1.407   3.147
  669SOL    HW1 2906   5.454   1.421   3.091
  669SOL    HW2 2907   5.534   1.314   3.184
  670SOL     OW 2908   2.173   1.739   2.869
  670SOL    HW1 2909   2.253   1.741   2.809
  670SOL    HW2 2910   2.102   1.799   2.832
  671SOL     OW 2911   2.683   6.403   1.460
  671SOL    HW1 2912   2.779   6.427   1.473
  671SOL    HW2 2913   2.644   6.371   1.546
  672SOL     OW 2914   0.292   5.607   1.744
  672SOL    HW1 2915   0.297   5.606   1.644
  672SOL    HW2 2916   0.226   5.539   1.774
  673SOL     OW 2917   5.128   6.855   1.076
  673SOL    HW1 2918   5.139   6.778   1.013
  673SOL    HW2 2919   5.212   6.869   1.127
  674SOL     OW 2920   6.972   1.902   4.946
  674SOL    HW1 2921   6.962   1.999   4.925
  674SOL    HW2 2922   6.883   1.865   4.974
  675SOL     OW 2923   6.305   2.281   1.983
  675SOL    HW1 2924   6.293   2.312   2.077
  675SOL    HW2 2925   6.234   2.215   1.960
  676SOL     OW 2926   2.433   4.816   4.740
  676SOL    HW1 2927   2.437   4.716   4.744
  676SOL    HW2 2928   2.522   4.852   4.715
  677SOL     OW 2929   5.101   0.790   1.553
  677SOL    HW1 2930   5.109   0.875   1.605
  677SOL    HW2 2931   5.031   0.732   1.594
  678SOL     OW 2932   2.720   4.643   5.293
  678SOL    HW1 2933   2.648   4.689   5.241
  678SOL    HW2 2934   2.797   4.622   5.233
  679SOL     OW 2935   5.303   2.108   4.984
  679SOL    HW1 2936   5.238   2.163   4.932
  679SOL    HW2 2937   5.393   2.114   4.942
  680SOL     OW 2938   4.930   6.385   4.501
  680SOL    HW1 2939   4.873   6.464   4.523
  680SOL    HW2 2940   5.021   6.417   4.474
  681SOL     OW 2941   4.902   5.861   2.576
  681SOL    HW1 2942   4.891   5.889   2.671
  681SOL    HW2 2943   4.862   5.931   2.516
  682SOL     OW 2944   0.081   1.471   1.965
  682SOL    HW1 2945   0.080   1.446   2.062
  682SOL    HW2 2946   0.112   1.565   1.954
  683SOL     OW 2947   4.207   3.169   1.162
  683SOL    HW1 2948   4.165   3.160   1.252
  683SOL    HW2 2949   4.291   3.116   1.159
  684SOL     OW 2950   6.180   0.398   0.102
  684SOL    HW1 2951   6.242   0.383   0.179
  684SOL    HW2 2952   6.089   0.363   0.125
  685SOL     OW 2953   3.406   1.129   3.653
  685SOL    HW1 2954   3.490   1.079   3.630
  685SOL    HW2 2955   3.339   1.064   3.689
  686SOL     OW 2956   4.260   1.122   3.832
  686SOL    HW1 2957   4.187   1.097   3.896
  686SOL    HW2 2958   4.349   1.104   3.875
  687SOL     OW 2959   1.037   1.819   4.521
  687SOL    HW1 2960   0.978   1.873   4.581
  687SOL    HW2 2961   1.077   1.743   4.574
  688SOL     OW 2962   0.135   0.627   5.860
  688SOL    HW1 2963   0.200   0.566   5.903
  688SOL    HW2 2964   0.045   0.584   5.858
  689SOL     OW 2965   1.048   4.554   5.613
  689SOL    HW1 2966   1.042   4.614   5.692
  689SOL    HW2 2967   0.976   4.578   5.547
  690SOL     OW 2968   6.629   3.680   3.234
  690SOL    HW1 2969   6.534   3.667   3.261
  690SOL    HW2 2970   6.687   3.682   3.315
  691SOL     OW 2971   4.454   1.772   0.584
  691SOL    HW1 2972   4.462   1.865   0.622
  691SOL    HW2 2973   4.480   1.774   0.488
  692SOL     OW 2974   3.284   1.851   5.221
  692SOL    HW1 2975   3.242   1.919   5.160
  692SOL    HW2 2976   3.356   1.894   5.274
  693SOL     OW 2977   4.599   6.466   4.050
  693SOL    HW1 2978   4.646   6.438   4.134
  693SOL    HW2 2979   4.665   6.501   3.984
  694SOL     OW 2980   3.796   6.240   4.208
  694SOL    HW1 2981   3.710   6.283   4.181
  694SOL    HW2 2982   3.831   6.185   4.132
  695SOL     OW 2983   3.156   5.673   4.670
  695SOL    HW1 2984   3.172   5.576   4.650
  695SOL    HW2 2985   3.129   5.682   4.766
  696SOL     OW 2986   4.957   4.348   3.577
  696SOL    HW1 2987   4.872   4.392   3.607
  696SOL    HW2 2988   5.034   4.384   3.631
  697SOL     OW 2989   0.883   3.800   1.783
  697SOL    HW1 2990   0.882   3.775   1.686
  697SOL    HW2 2991   0.921   3.891   1.794
  698SOL     OW 2992   4.827   6.518   1.544
  698SOL    HW1 2993   4.804   6.581   1.618
  698SOL    HW2 2994   4.906   6.463   1.571
  699SOL     OW 2995   2.164   3.143   6.388
  699SOL    HW1 2996   2.249   3.180   6.427
  699SOL    HW2 2997   2.185   3.099   6.300
  700SOL     OW 2998   3.642   6.993   2.474
  700SOL    HW1 2999   3.544   6.984   2.487
  700SOL    HW2 3000   3.672   6.932   2.401
  701SOL     OW 3001   5.936   4.861   1.037
  701SOL    HW1 3002   5.879   4.805   1.097
  701SOL    HW2 3003   6.028   4.870   1.077
  702SOL     OW 3004   2.516   0.353   4.201
  702SOL    HW1 3005   2.548   0.274   4.253
  702SOL    HW2 3006   2.427   0.382   4.235
  703SOL     OW 3007   2.941   3.281   5.789
  703SOL    HW1 3008   2.932   3.267   5.690
  703SOL    HW2 3009   2.992   3.365   5.806
  704SOL     OW 3010   1.869   2.885   6.189
  704SOL    HW1 3011   1.930   2.808   6.207
  704SOL    HW2 3012   1.777   2.851   6.168
  705SOL     OW 3013   0.068   6.478   3.853
  705SOL    HW1 3014   0.029   6.391   3.822
  705SOL    HW2 3015   0.150   6.499   3.800
  706SOL     OW 3016   4.073   1.233   5.216
  706SOL    HW1 3017   4.157   1.213   5.164
  706SOL    HW2 3018   4.005   1.163   5.197
  707SOL     OW 3019   4.248   5.338   3.309
  707SOL    HW1 3020   4.227   5.331   3.211
  707SOL    HW2 3021   4.257   5.434   3.334
  708SOL     OW 3022   2.487   1.303   3.597
  708SOL    HW1 3023   2.461   1.291   3.693
  708SOL    HW2 3024   2.585   1.290   3.587
  709SOL     OW 3025   1.834   6.798   1.467
  709SOL    HW1 3026   1.832   6.699   1.457
  709SOL    HW2 3027   1.910   6.835   1.413
  710SOL     OW 3028   5.060   2.414   1.800
  710SOL    HW1 3029   4.970   2.458   1.801
  710SOL    HW2 3030   5.122   2.465   1.859
  711SOL     OW 3031   6.749   2.988   6.208
  711SOL    HW1 3032   6.747   3.010   6.110
  711SOL    HW2 3033   6.841   2.957   6.233
  712SOL     OW 3034   4.806   2.788   1.197
  712SOL    HW1 3035   4.870   2.862   1.178
  712SOL    HW2 3036   4.724   2.826   1.241
  713SOL     OW 3037   4.256   2.751   5.372
  713SOL    HW1 3038   4.172   2.781   5.418
  713SOL    HW2 3039   4.233   2.700   5.290
  714SOL     OW 3040   6.113   5.337   3.777
  714SOL    HW1 3041   6.138   5.385   3.861
  714SOL    HW2 3042   6.148   5.387   3.698
  715SOL     OW 3043   6.508   5.215   5.382
  715SOL    HW1 3044   6.480   5.131   5.427
  715SOL    HW2 3045   6.447   5.234   5.305
  716SOL     OW 3046   2.161   0.813   2.893
  716SOL    HW1 3047   2.139   0.721   2.860
  716SOL    HW2 3048   2.143   0.880   2.821
  717SOL     OW 3049   5.752   4.796   4.493
  717SOL    HW1 3050   5.706   4.710   4.517
  717SOL    HW2 3051   5.851   4.779   4.484
  718SOL     OW 3052   4.640   2.771   4.518
  718SOL    HW1 3053   4.541   2.769   4.503
  718SOL    HW2 3054   4.659   2.775   4.616
  719SOL     OW 3055   6.721   0.297   2.368
  719SOL    HW1 3056   6.754   0.210   2.405
  719SOL    HW2 3057   6.648   0.333   2.426
  720SOL     OW 3058   2.456   0.508   5.716
  720SOL    HW1 3059   2.411   0.460   5.792
  720SOL    HW2 3060   2.530   0.452   5.681
  721SOL     OW 3061   0.571   1.760   1.957
  721SOL    HW1 3062   0.524   1.846   1.936
  721SOL    HW2 3063   0.656   1.780   2.005
  722SOL     OW 3064   4.122   0.587   6.365
  722SOL    HW1 3065   4.202   0.637   6.396
  722SOL    HW2 3066   4.054   0.584   6.438
  723SOL     OW 3067   2.248   6.141   3.469
  723SOL    HW1 3068   2.303   6.086   3.407
  723SOL    HW2 3069   2.171   6.181   3.419
  724SOL     OW 3070   6.794   0.717   3.236
  724SOL    HW1 3071   6.732   0.787   3.198
  724SOL    HW2 3072   6.771   0.701   3.332
  725SOL     OW 3073   2.218   4.517   2.008
  725SOL    HW1 3074   2.313   4.491   1.992
  725SOL    HW2 3075   2.168   4.440   2.049
  726SOL     OW 3076   2.477   5.024   0.727
  726SOL    HW1 3077   2.495   4.953   0.795
  726SOL    HW2 3078   2.564   5.054   0.687
  727SOL     OW 3079   4.445   5.424   6.182
  727SOL    HW1 3080   4.426   5.351   6.116
  727SOL    HW2 3081   4.360   5.455   6.223
  728SOL     OW 3082   0.138   3.152   4.410
  728SOL    HW1 3083   0.171   3.218   4.343
  728SOL    HW2 3084   0.095   3.199   4.487
  729SOL     OW 3085   0.081   3.233   0.977
  729SOL    HW1 3086   0.113   3.146   1.012
  729SOL    HW2 3087   0.157   3.298   0.972
  730SOL     OW 3088   5.269   0.402   2.609
  730SOL    HW1 3089   5.253   0.390   2.707
  730SOL    HW2 3090   5.230   0.489   2.580
  731SOL     OW 3091   4.928   4.543   6.416
  731SOL    HW1 3092   5.009   4.546   6.474
  731SOL    HW2 3093   4.938   4.470   6.348
  732SOL     OW 3094   5.491   2.040   2.255
  732SOL    HW1 3095   5.460   1.945   2.266
  732SOL    HW2 3096   5.518   2.077   2.344
  733SOL     OW 3097   5.708   0.130   4.089
  733SOL    HW1 3098   5.735   0.035   4.071
  733SOL    HW2 3099   5.642   0.133   4.163
  734SOL     OW 3100   6.275   4.265   2.391
  734SOL    HW1 3101   6.257   4.327   2.315
  734SOL    HW2 3102   6.207   4.191   2.390
  735SOL     OW 3103   5.701   0.593   1.669
  735SOL    HW1 3104   5.673   0.584   1.765
  735SOL    HW2 3105   5.625   0.568   1.610
  736SOL     OW 3106   1.258   1.490   4.350
  736SOL    HW1 3107   1.211   1.404   4.373
  736SOL    HW2 3108   1.317   1.475   4.271
  737SOL     OW 3109   5.834   1.830   5.566
  737SOL    HW1 3110   5.746   1.829   5.613
  737SOL    HW2 3111   5.862   1.736   5.546
  738SOL     OW 3112   2.995   4.067   1.103
  738SOL    HW1 3113   3.049   4.058   1.019
  738SOL    HW2 3114   3.052   4.045   1.182
  739SOL     OW 3115   3.495   6.960   5.137
  739SOL    HW1 3116   3.475   0.008   5.069
  739SOL    HW2 3117   3.594   6.949   5.144
  740SOL     OW 3118   5.963   2.499   2.601
  740SOL    HW1 3119   5.957   2.565   2.676
  740SOL    HW2 3120   5.918   2.414   2.628
  741SOL     OW 3121   1.734   0.826   4.702
  741SOL    HW1 3122   1.745   0.924   4.717
  741SOL    HW2 3123   1.656   0.810   4.640
  742SOL     OW 3124   1.773   5.952   1.164
  742SOL    HW1 3125   1.820   5.866   1.144
  742SOL    HW2 3126   1.773   5.968   1.262
  743SOL     OW 3127   0.538   6.175   3.621
  743SOL    HW1 3128   0.461   6.228   3.584
  743SOL    HW2 3129   0.624   6.217   3.592
  744SOL     OW 3130   6.748   1.197   0.783
  744SOL    HW1 3131   6.797   1.251   0.715
  744SOL    HW2 3132   6.814   1.164   0.851
  745SOL     OW 3133   1.947   5.940   5.271
  745SOL    HW1 3134   1.980   5.846   5.270
  745SOL    HW2 3135   1.991   5.990   5.345
  746SOL     OW 3136   5.590   4.126   5.276
  746SOL    HW1 3137   5.537   4.098   5.356
  746SOL    HW2 3138   5.533   4.120   5.194
  747SOL     OW 3139   5.029   5.381   3.601
  747SOL    HW1 3140   5.072   5.378   3.692
  747SOL    HW2 3141   5.087   5.332   3.536
  748SOL     OW 3142   5.295   4.866   2.556
  748SOL    HW1 3143   5.253   4.911   2.635
  748SOL    HW2 3144   5.377   4.816   2.585
  749SOL     OW 3145   4.967   3.492   3.298
  749SOL    HW1 3146   4.984   3.463   3.392
  749SOL    HW2 3147   4.958   3.412   3.239
  750SOL     OW 3148   2.779   0.897   1.272
  750SOL    HW1 3149   2.863   0.945   1.250
  750SOL    HW2 3150   2.728   0.947   1.342
  751SOL     OW 3151   5.085   2.632   0.927
  751SOL    HW1 3152   5.025   2.583   0.989
  751SOL    HW2 3153   5.044   2.720   0.902
  752SOL     OW 3154   3.610   2.354   5.941
  752SOL    HW1 3155   3.659   2.311   6.017
  752SOL    HW2 3156   3.576   2.443   5.969
  753SOL     OW 3157   2.800   3.839   5.367
  753SOL    HW1 3158   2.757   3.803   5.450
  753SOL    HW2 3159   2.850   3.765   5.321
  754SOL     OW 3160   5.697   0.829   6.827
  754SOL    HW1 3161   5.783   0.881   6.828
  754SOL    HW2 3162   5.705   0.751   6.766
  755SOL     OW 3163   3.076   4.493   5.315
  755SOL    HW1 3164   3.139   4.569   5.331
  755SOL    HW2 3165   3.020   4.512   5.235
  756SOL     OW 3166   3.287   5.287   6.943
  756SOL    HW1 3167   3.367   5.227   6.943
  756SOL    HW2 3168   3.296   5.355   7.015
  757SOL     OW 3169   1.900   6.899   2.428
  757SOL    HW1 3170   1.821   6.878   2.486
  757SOL    HW2 3171   1.943   6.813   2.398
  758SOL     OW 3172   3.903   1.315   3.910
  758SOL    HW1 3173   3.823   1.334   3.967
  758SOL    HW2 3174   3.956   1.399   3.899
  759SOL     OW 3175   0.364   2.247   3.255
  759SOL    HW1 3176   0.372   2.178   3.327
  759SOL    HW2 3177   0.290   2.310   3.276
  760SOL     OW 3178   6.459   6.777   3.661
  760SOL    HW1 3179   6.450   6.712   3.584
  760SOL    HW2 3180   6.550   6.767   3.701
  761SOL     OW 3181   5.604   4.139   5.960
  761SOL    HW1 3182   5.545   4.162   5.882
  761SOL    HW2 3183   5.699   4.132   5.929
  762SOL     OW 3184   2.956   6.442   5.699
  762SOL    HW1 3185   2.897   6.376   5.745
  762SOL    HW2 3186   2.983   6.513   5.763
  763SOL     OW 3187   5.355   0.409   6.499
  763SOL    HW1 3188   5.353   0.395   6.598
  763SOL    HW2 3189   5.326   0.324   6.453
  764SOL     OW 3190   5.936   1.391   5.688
  764SOL    HW1 3191   5.976   1.308   5.648
  764SOL    HW2 3192   5.851   1.369   5.734
  765SOL     OW 3193   1.462   6.962   0.827
  765SOL    HW1 3194   1.516   6.970   0.744
  765SOL    HW2 3195   1.462   6.867   0.858
  766SOL     OW 3196   2.472   2.408   5.403
  766SOL    HW1 3197   2.479   2.462   5.319
  766SOL    HW2 3198   2.423   2.323   5.384
  767SOL     OW 3199   6.925   6.624   3.419
  767SOL    HW1 3200   6.954   6.664   3.332
  767SOL    HW2 3201   6.929   6.694   3.491
  768SOL     OW 3202   2.205   5.992   2.911
  768SOL    HW1 3203   2.235   6.080   2.875
  768SOL    HW2 3204   2.285   5.938   2.938
  769SOL     OW 3205   3.568   1.713   5.144
  769SOL    HW1 3206   3.616   1.707   5.056
  769SOL    HW2 3207   3.477   1.750   5.130
  770SOL     OW 3208   1.573   4.935   4.156
  770SOL    HW1 3209   1.606   5.023   4.123
  770SOL    HW2 3210   1.650   4.881   4.189
  771SOL     OW 3211   1.158   5.322   3.535
  771SOL    HW1 3212   1.214   5.306   3.454
  771SOL    HW2 3213   1.157   5.240   3.592
  772SOL     OW 3214   5.790   5.033   6.940
  772SOL    HW1 3215   5.763   5.128   6.954
  772SOL    HW2 3216   5.709   4.976   6.927
  773SOL     OW 3217   1.032   3.501   3.161
  773SOL    HW1 3218   0.984   3.500   3.073
  773SOL    HW2 3219   1.116   3.554   3.152
  774SOL     OW 3220   2.324   1.873   3.355
  774SOL    HW1 3221   2.363   1.851   3.266
  774SOL    HW2 3222   2.225   1.862   3.351
  775SOL     OW 3223   2.186   3.371   4.220
  775SOL    HW1 3224   2.119   3.314   4.172
  775SOL    HW2 3225   2.261   3.393   4.159
  776SOL     OW 3226   0.888   6.971   6.433
  776SOL    HW1 3227   0.937   6.896   6.388
  776SOL    HW2 3228   0.834   6.935   6.509
  777SOL     OW 3229   1.484   3.449   0.495
  777SOL    HW1 3230   1.450   3.369   0.446
  777SOL    HW2 3231   1.463   3.441   0.592
  778SOL     OW 3232   2.816   6.855   1.645
  778SOL    HW1 3233   2.835   6.926   1.713
  778SOL    HW2 3234   2.723   6.821   1.657
  779SOL     OW 3235   0.320   2.413   1.654
  779SOL    HW1 3236   0.416   2.409   1.627
  779SOL    HW2 3237   0.301   2.502   1.695
  780SOL     OW 3238   1.456   2.219   4.432
  780SOL    HW1 3239   1.536   2.160   4.439
  780SOL    HW2 3240   1.389   2.177   4.370
  781SOL     OW 3241   6.930   4.422   0.011
  781SOL    HW1 3242   6.838   4.456   0.029
  781SOL    HW2 3243   6.965   4.463   6.950
  782SOL     OW 3244   1.789   4.286   5.652
  782SOL    HW1 3245   1.793   4.368   5.709
  782SOL    HW2 3246   1.878   4.242   5.650
  783SOL     OW 3247   5.579   5.601   6.489
  783SOL    HW1 3248   5.670   5.574   6.520
  783SOL    HW2 3249   5.512   5.535   6.522
  784SOL     OW 3250   2.429   6.091   1.831
  784SOL    HW1 3251   2.352   6.090   1.895
  784SOL    HW2 3252   2.454   5.997   1.809
  785SOL     OW 3253   0.681   0.143   3.881
  785SOL    HW1 3254   0.687   0.238   3.911
  785SOL    HW2 3255   0.698   0.139   3.782
  786SOL     OW 3256   5.855   0.390   3.250
  786SOL    HW1 3257   5.954   0.383   3.260
  786SOL    HW2 3258   5.816   0.299   3.241
  787SOL     OW 3259   2.469   0.922   0.462
  787SOL    HW1 3260   2.393   0.987   0.473
  787SOL    HW2 3261   2.446   0.837   0.508
  788SOL     OW 3262   3.814   2.964   1.691
  788SOL    HW1 3263   3.801   2.867   1.710
  788SOL    HW2 3264   3.772   2.986   1.603
  789SOL     OW 3265   4.472   5.500   1.986
  789SOL    HW1 3266   4.556   5.448   1.998
  789SOL    HW2 3267   4.454   5.554   2.069
  790SOL     OW 3268   0.785   2.511   1.428
  790SOL    HW1 3269   0.864   2.562   1.462
  790SOL    HW2 3270   0.805   2.413   1.431
  791SOL     OW 3271   3.176   5.935   5.304
  791SOL    HW1 3272   3.142   6.012   5.248
  791SOL    HW2 3273   3.214   5.865   5.244
  792SOL     OW 3274   0.301   1.418   0.343
  792SOL    HW1 3275   0.391   1.407   0.386
  792SOL    HW2 3276   0.242   1.473   0.403
  793SOL     OW 3277   4.552   5.660   4.618
  793SOL    HW1 3278   4.575   5.607   4.536
  793SOL    HW2 3279   4.553   5.757   4.595
  794SOL     OW 3280   3.257   3.402   4.143
  794SOL    HW1 3281   3.249   3.425   4.240
  794SOL    HW2 3282   3.208   3.470   4.088
  795SOL     OW 3283   4.057   0.466   5.634
  795SOL    HW1 3284   4.035   0.563   5.634
  795SOL    HW2 3285   4.013   0.422   5.555
  796SOL     OW 3286   2.053   2.695   6.259
  796SOL    HW1 3287   2.131   2.723   6.315
  796SOL    HW2 3288   2.083   2.625   6.194
  797SOL     OW 3289   4.279   0.150   1.349
  797SOL    HW1 3290   4.283   0.245   1.382
  797SOL    HW2 3291   4.213   0.144   1.275
  798SOL     OW 3292   2.521   6.623   1.423
  798SOL    HW1 3293   2.560   6.532   1.439
  798SOL    HW2 3294   2.496   6.664   1.511
  799SOL     OW 3295   0.180   2.333   6.401
  799SOL    HW1 3296   0.238   2.293   6.330
  799SOL    HW2 3297   0.171   2.431   6.385
  800SOL     OW 3298   5.878   1.307   1.994
  800SOL    HW1 3299   5.789   1.353   1.993
  800SOL    HW2 3300   5.883   1.243   1.917
  801SOL     OW 3301   2.124   5.507   5.758
  801SOL    HW1 3302   2.171   5.424   5.788
  801SOL    HW2 3303   2.143   5.581   5.823
  802SOL     OW 3304   5.269   2.520   6.548
  802SOL    HW1 3305   5.273   2.505   6.647
  802SOL    HW2 3306   5.278   2.617   6.528
  803SOL     OW 3307   2.811   0.184   5.898
  803SOL    HW1 3308   2.775   0.106   5.847
  803SOL    HW2 3309   2.855   0.150   5.982
  804SOL     OW 3310   6.154   0.414   1.548
  804SOL    HW1 3311   6.064   0.394   1.587
  804SOL    HW2 3312   6.220   0.429   1.622
  805SOL     OW 3313   2.055   0.542   3.503
  805SOL    HW1 3314   2.155   0.547   3.513
  805SOL    HW2 3315   2.014   0.624   3.544
  806SOL     OW 3316   0.630   0.114   5.954
  806SOL    HW1 3317   0.694   0.129   5.878
  806SOL    HW2 3318   0.668   0.048   6.018
  807SOL     OW 3319   0.719   6.460   4.603
  807SOL    HW1 3320   0.743   6.466   4.506
  807SOL    HW2 3321   0.746   6.544   4.650
  808SOL     OW 3322   5.718   2.903   0.271
  808SOL    HW1 3323   5.765   2.970   0.214
  808SOL    HW2 3324   5.704   2.941   0.362
  809SOL     OW 3325   0.230   5.208   6.642
  809SOL    HW1 3326   0.328   5.194   6.662
  809SOL    HW2 3327   0.178   5.198   6.727
  810SOL     OW 3328   2.557   3.124   0.715
  810SOL    HW1 3329   2.557   3.106   0.617
  810SOL    HW2 3330   2.469   3.163   0.742
  811SOL     OW 3331   5.184   5.091   4.606
  811SOL    HW1 3332   5.259   5.137   4.558
  811SOL    HW2 3333   5.206   5.085   4.703
  812SOL     OW 3334   0.729   2.145   2.225
  812SOL    HW1 3335   0.699   2.214   2.290
  812SOL    HW2 3336   0.820   2.111   2.251
  813SOL     OW 3337   2.210   0.846   4.332
  813SOL    HW1 3338   2.204   0.929   4.275
  813SOL    HW2 3339   2.306   0.831   4.357
  814SOL     OW 3340   6.909   5.949   2.691
  814SOL    HW1 3341   6.912   5.954   2.791
  814SOL    HW2 3342   6.906   6.042   2.654
  815SOL     OW 3343   4.829   2.304   3.386
  815SOL    HW1 3344   4.739   2.279   3.422
  815SOL    HW2 3345   4.818   2.345   3.296
  816SOL     OW 3346   5.007   4.066   0.281
  816SOL    HW1 3347   5.006   4.161   0.314
  816SOL    HW2 3348   5.094   4.049   0.234
  817SOL     OW 3349   1.058   5.359   1.075
  817SOL    HW1 3350   1.131   5.423   1.054
  817SOL    HW2 3351   0.970   5.401   1.054
  818SOL     OW 3352   5.591   2.838   3.392
  818SOL    HW1 3353   5.607   2.740   3.401
  818SOL    HW2 3354   5.608   2.866   3.297
  819SOL     OW 3355   5.977   2.813   1.147
  819SOL    HW1 3356   6.000   2.842   1.240
  819SOL    HW2 3357   5.929   2.726   1.151
  820SOL     OW 3358   2.971   1.765   4.539
  820SOL    HW1 3359   2.945   1.835   4.472
  820SOL    HW2 3360   2.894   1.748   4.600
  821SOL     OW 3361   5.687   4.539   4.565
  821SOL    HW1 3362   5.729   4.533   4.474
  821SOL    HW2 3363   5.750   4.505   4.634
  822SOL     OW 3364   0.671   4.494   2.996
  822SOL    HW1 3365   0.660   4.497   3.096
  822SOL    HW2 3366   0.616   4.419   2.959
  823SOL     OW 3367   0.785   3.374   5.867
  823SOL    HW1 3368   0.865   3.331   5.912
  823SOL    HW2 3369   0.739   3.434   5.933
  824SOL     OW 3370   5.625   1.175   5.277
  824SOL    HW1 3371   5.564   1.110   5.324
  824SOL    HW2 3372   5.714   1.175   5.322
  825SOL     OW 3373   6.273   6.247   1.127
  825SOL    HW1 3374   6.363   6.289   1.130
  825SOL    HW2 3375   6.207   6.305   1.175
  826SOL     OW 3376   3.923   1.901   5.815
  826SOL    HW1 3377   3.977   1.982   5.838
  826SOL    HW2 3378   3.842   1.897   5.874
  827SOL     OW 3379   3.437   4.203   4.752
  827SOL    HW1 3380   3.430   4.301   4.735
  827SOL    HW2 3381   3.346   4.165   4.768
  828SOL     OW 3382   6.472   5.471   4.337
  828SOL    HW1 3383   6.464   5.525   4.253
  828SOL    HW2 3384   6.424   5.383   4.324
  829SOL     OW 3385   3.224   2.933   2.437
  829SOL    HW1 3386   3.205   3.021   2.394
  829SOL    HW2 3387   3.311   2.898   2.404
  830SOL     OW 3388   5.914   4.821   6.614
  830SOL    HW1 3389   5.924   4.920   6.607
  830SOL    HW2 3390   5.973   4.786   6.687
  831SOL     OW 3391   5.752   6.482   1.530
  831SOL    HW1 3392   5.773   6.435   1.616
  831SOL    HW2 3393   5.656   6.465   1.506
  832SOL     OW 3394   3.902   1.525   4.420
  832SOL    HW1 3395   3.891   1.440   4.471
  832SOL    HW2 3396   3.935   1.505   4.328
  833SOL     OW 3397   1.143   3.859   6.247
  833SOL    HW1 3398   1.076   3.803   6.198
  833SOL    HW2 3399   1.195   3.800   6.309
  834SOL     OW 3400   4.470   3.434   6.651
  834SOL    HW1 3401   4.569   3.443   6.641
  834SOL    HW2 3402   4.443   3.341   6.626
  835SOL     OW 3403   1.726   0.538   4.703
  835SOL    HW1 3404   1.763   0.628   4.683
  835SOL    HW2 3405   1.713   0.488   4.617
  836SOL     OW 3406   3.472   1.954   5.697
  836SOL    HW1 3407   3.554   1.898   5.683
  836SOL    HW2 3408   3.392   1.902   5.669
  837SOL     OW 3409   1.372   0.849   1.337
  837SOL    HW1 3410   1.393   0.752   1.342
  837SOL    HW2 3411   1.382   0.881   1.243
  838SOL     OW 3412   2.257   5.517   4.359
  838SOL    HW1 3413   2.232   5.614   4.349
  838SOL    HW2 3414   2.261   5.474   4.269
  839SOL     OW 3415   1.845   0.917   0.933
  839SOL    HW1 3416   1.881   0.955   0.848
  839SOL    HW2 3417   1.914   0.926   1.005
  840SOL     OW 3418   5.877   5.879   0.356
  840SOL    HW1 3419   5.876   5.950   0.285
  840SOL    HW2 3420   5.936   5.804   0.326
  841SOL     OW 3421   4.463   5.487   5.786
  841SOL    HW1 3422   4.497   5.401   5.824
  841SOL    HW2 3423   4.376   5.470   5.740
  842SOL     OW 3424   3.038   0.101   0.019
  842SOL    HW1 3425   3.124   0.149   0.002
  842SOL    HW2 3426   2.965   0.146   6.991
  843SOL     OW 3427   2.324   2.028   1.776
  843SOL    HW1 3428   2.279   2.038   1.688
  843SOL    HW2 3429   2.390   1.953   1.772
  844SOL     OW 3430   0.457   6.269   1.244
  844SOL    HW1 3431   0.497   6.258   1.153
  844SOL    HW2 3432   0.496   6.200   1.305
  845SOL     OW 3433   4.164   1.997   3.089
  845SOL    HW1 3434   4.158   1.976   2.991
  845SOL    HW2 3435   4.151   2.095   3.104
  846SOL     OW 3436   3.215   1.536   6.092
  846SOL    HW1 3437   3.216   1.596   6.012
  846SOL    HW2 3438   3.229   1.591   6.174
  847SOL     OW 3439   2.081   3.394   1.537
  847SOL    HW1 3440   2.134   3.455   1.596
  847SOL    HW2 3441   2.130   3.307   1.527
  848SOL     OW 3442   5.998   6.589   6.141
  848SOL    HW1 3443   6.079   6.541   6.106
  848SOL    HW2 3444   6.007   6.687   6.121
  849SOL     OW 3445   5.649   3.684   0.202
  849SOL    HW1 3446   5.556   3.647   0.210
  849SOL    HW2 3447   5.711   3.612   0.172
  850SOL     OW 3448   6.703   0.225   4.807
  850SOL    HW1 3449   6.614   0.182   4.791
  850SOL    HW2 3450   6.727   0.217   4.904
  851SOL     OW 3451   6.793   3.423   0.407
  851SOL    HW1 3452   6.810   3.409   0.505
  851SOL    HW2 3453   6.739   3.506   0.395
  852SOL     OW 3454   6.734   4.676   0.915
  852SOL    HW1 3455   6.705   4.689   0.820
  852SOL    HW2 3456   6.831   4.697   0.924
  853SOL     OW 3457   2.278   4.300   6.931
  853SOL    HW1 3458   2.183   4.271   6.920
  853SOL    HW2 3459   2.281   4.397   6.954
  854SOL     OW 3460   6.295   6.614   6.862
  854SOL    HW1 3461   6.254   6.523   6.854
  854SOL    HW2 3462   6.229   6.677   6.902
  855SOL     OW 3463   6.858   0.814   0.350
  855SOL    HW1 3464   6.858   0.903   0.396
  855SOL    HW2 3465   6.843   0.827   0.252
  856SOL     OW 3466   2.018   6.822   6.462
  856SOL    HW1 3467   1.921   6.841   6.451
  856SOL    HW2 3468   2.030   6.732   6.504
  857SOL     OW 3469   0.165   4.632   3.260
  857SOL    HW1 3470   0.150   4.716   3.208
  857SOL    HW2 3471   0.193   4.559   3.198
  858SOL     OW 3472   3.175   4.146   0.895
  858SOL    HW1 3473   3.257   4.088   0.891
  858SOL    HW2 3474   3.096   4.094   0.862
  859SOL     OW 3475   4.881   6.257   5.349
  859SOL    HW1 3476   4.858   6.166   5.382
  859SOL    HW2 3477   4.853   6.266   5.253
  860SOL     OW 3478   5.726   3.271   6.503
  860SOL    HW1 3479   5.800   3.337   6.517
  860SOL    HW2 3480   5.639   3.319   6.496
  861SOL     OW 3481   1.559   5.363   2.885
  861SOL    HW1 3482   1.570   5.438   2.951
  861SOL    HW2 3483   1.572   5.399   2.792
  862SOL     OW 3484   1.719   4.772   3.918
  862SOL    HW1 3485   1.632   4.821   3.906
  862SOL    HW2 3486   1.732   4.708   3.843
  863SOL     OW 3487   6.276   0.568   6.053
  863SOL    HW1 3488   6.340   0.570   6.130
  863SOL    HW2 3489   6.264   0.474   6.022
  864SOL     OW 3490   4.675   0.226   5.443
  864SOL    HW1 3491   4.585   0.182   5.450
  864SOL    HW2 3492   4.742   0.159   5.412
  865SOL     OW 3493   2.166   6.534   4.828
  865SOL    HW1 3494   2.163   6.509   4.925
  865SOL    HW2 3495   2.114   6.618   4.814
  866SOL     OW 3496   3.179   6.708   0.973
  866SOL    HW1 3497   3.227   6.767   0.908
  866SOL    HW2 3498   3.088   6.687   0.937
  867SOL     OW 3499   5.777   2.675   0.545
  867SOL    HW1 3500   5.790   2.741   0.471
  867SOL    HW2 3501   5.855   2.613   0.548
  868SOL     OW 3502   0.312   2.340   2.383
  868SOL    HW1 3503   0.311   2.279   2.304
  868SOL    HW2 3504   0.297   2.434   2.353
  869SOL     OW 3505   6.969   3.711   3.924
  869SOL    HW1 3506   0.029   3.686   3.873
  869SOL    HW2 3507   6.994   3.772   3.999
  870SOL     OW 3508   3.767   4.948   1.266
  870SOL    HW1 3509   3.849   4.925   1.213
  870SOL    HW2 3510   3.691   4.892   1.236
  871SOL     OW 3511   4.939   2.049   4.044
  871SOL    HW1 3512   4.924   2.146   4.061
  871SOL    HW2 3513   4.994   2.036   3.962
  872SOL     OW 3514   7.015   1.934   4.642
  872SOL    HW1 3515   6.981   1.924   4.736
  872SOL    HW2 3516   0.086   1.899   4.637
  873SOL     OW 3517   4.739   6.335   5.764
  873SOL    HW1 3518   4.705   6.337   5.670
  873SOL    HW2 3519   4.761   6.428   5.794
  874SOL     OW 3520   6.085   4.171   6.599
  874SOL    HW1 3521   6.031   4.242   6.644
  874SOL    HW2 3522   6.181   4.199   6.598
  875SOL     OW 3523   5.359   5.224   1.457
  875SOL    HW1 3524   5.325   5.302   1.510
  875SOL    HW2 3525   5.311   5.141   1.484
  876SOL     OW 3526   0.556   5.417   1.843
  876SOL    HW1 3527   0.467   5.399   1.886
  876SOL    HW2 3528   0.542   5.451   1.750
  877SOL     OW 3529   2.584   4.387   6.473
  877SOL    HW1 3530   2.499   4.360   6.519
  877SOL    HW2 3531   2.616   4.312   6.415
  878SOL     OW 3532   4.438   6.752   4.328
  878SOL    HW1 3533   4.368   6.812   4.367
  878SOL    HW2 3534   4.396   6.667   4.297
  879SOL     OW 3535   3.893   0.667   1.680
  879SOL    HW1 3536   3.795   0.653   1.695
  879SOL    HW2 3537   3.913   0.765   1.678
  880SOL     OW 3538   3.480   4.124   3.973
  880SOL    HW1 3539   3.540   4.103   4.051
  880SOL    HW2 3540   3.520   4.199   3.921
  881SOL     OW 3541   4.882   3.135   4.831
  881SOL    HW1 3542   4.830   3.220   4.830
  881SOL    HW2 3543   4.868   3.088   4.918
  882SOL     OW 3544   0.888   3.024   4.257
  882SOL    HW1 3545   0.857   2.953   4.194
  882SOL    HW2 3546   0.827   3.102   4.251
  883SOL     OW 3547   3.489   0.632   2.349
  883SOL    HW1 3548   3.481   0.673   2.258
  883SOL    HW2 3549   3.575   0.581   2.355
  884SOL     OW 3550   5.038   3.252   5.784
  884SOL    HW1 3551   5.053   3.236   5.687
  884SOL    HW2 3552   4.976   3.329   5.797
  885SOL     OW 3553   3.724   1.066   5.308
  885SOL    HW1 3554   3.773   0.980   5.324
  885SOL    HW2 3555   3.744   1.099   5.216
  886SOL     OW 3556   3.520   0.433   0.646
  886SOL    HW1 3557   3.465   0.414   0.728
  886SOL    HW2 3558   3.486   0.378   0.570
  887SOL     OW 3559   3.909   6.889   3.853
  887SOL    HW1 3560   3.833   6.950   3.875
  887SOL    HW2 3561   3.912   6.813   3.917
  888SOL     OW 3562   0.586   6.173   3.161
  888SOL    HW1 3563   0.487   6.163   3.149
  888SOL    HW2 3564   0.618   6.252   3.109
  889SOL     OW 3565   0.655   3.864   0.811
  889SOL    HW1 3566   0.722   3.913   0.755
  889SOL    HW2 3567   0.651   3.906   0.902
  890SOL     OW 3568   1.331   5.280   3.348
  890SOL    HW1 3569   1.425   5.246   3.336
  890SOL    HW2 3570   1.289   5.292   3.258
  891SOL     OW 3571   5.307   5.600   0.521
  891SOL    HW1 3572   5.223   5.558   0.554
  891SOL    HW2 3573   5.378   5.593   0.591
  892SOL     OW 3574   2.305   3.718   5.239
  892SOL    HW1 3575   2.342   3.810   5.238
  892SOL    HW2 3576   2.255   3.702   5.153
  893SOL     OW 3577   2.045   6.633   2.635
  893SOL    HW1 3578   2.059   6.644   2.537
  893SOL    HW2 3579   1.952   6.598   2.651
  894SOL     OW 3580   0.921   3.027   1.659
  894SOL    HW1 3581   0.949   2.970   1.737
  894SOL    HW2 3582   0.827   3.003   1.633
  895SOL     OW 3583   0.382   4.574   3.607
  895SOL    HW1 3584   0.298   4.521   3.591
  895SOL    HW2 3585   0.454   4.513   3.641
  896SOL     OW 3586   5.816   4.562   0.501
  896SOL    HW1 3587   5.767   4.624   0.561
  896SOL    HW2 3588   5.782   4.469   0.514
  897SOL     OW 3589   4.774   1.363   6.908
  897SOL    HW1 3590   4.686   1.362   6.861
  897SOL    HW2 3591   4.843   1.318   6.851
  898SOL     OW 3592   3.263   6.231   2.590
  898SOL    HW1 3593   3.166   6.255   2.596
  898SOL    HW2 3594   3.319   6.306   2.627
  899SOL     OW 3595   0.192   6.373   6.504
  899SOL    HW1 3596   0.103   6.328   6.503
  899SOL    HW2 3597   0.187   6.458   6.452
  900SOL     OW 3598   5.795   6.392   0.422
  900SOL    HW1 3599   5.821   6.472   0.475
  900SOL    HW2 3600   5.701   6.367   0.444
  901SOL     OW 3601   2.204   0.812   3.167
  901SOL    HW1 3602   2.251   0.897   3.190
  901SOL    HW2 3603   2.156   0.823   3.080
  902SOL     OW 3604   0.168   2.365   0.533
  902SOL    HW1 3605   0.206   2.431   0.468
  902SOL    HW2 3606   0.122   2.292   0.482
  903SOL     OW 3607   6.823   2.586   6.802
  903SOL    HW1 3608   6.841   2.537   6.887
  903SOL    HW2 3609   6.737   2.554   6.763
  904SOL     OW 3610   2.550   2.152   2.848
  904SOL    HW1 3611   2.571   2.229   2.908
  904SOL    HW2 3612   2.594   2.166   2.759
  905SOL     OW 3613   4.880   1.902   6.836
  905SOL    HW1 3614   4.924   1.985   6.801
  905SOL    HW2 3615   4.809   1.928   6.902
  906SOL     OW 3616   0.030   2.176   6.042
  906SOL    HW1 3617   0.085   2.094   6.026
  906SOL    HW2 3618   7.012   2.171   6.133
  907SOL     OW 3619   5.100   3.728   0.478
  907SOL    HW1 3620   5.043   3.741   0.397
  907SOL    HW2 3621   5.068   3.647   0.528
  908SOL     OW 3622   2.629   4.585   2.564
  908SOL    HW1 3623   2.606   4.542   2.477
  908SOL    HW2 3624   2.697   4.657   2.549
  909SOL     OW 3625   4.312   5.761   0.725
  909SOL    HW1 3626   4.258   5.789   0.804
  909SOL    HW2 3627   4.401   5.728   0.756
  910SOL     OW 3628   2.871   2.438   1.451
  910SOL    HW1 3629   2.778   2.468   1.432
  910SOL    HW2 3630   2.870   2.368   1.523
  911SOL     OW 3631   1.090   5.794   6.572
  911SOL    HW1 3632   1.089   5.790   6.672
  911SOL    HW2 3633   1.184   5.781   6.539
  912SOL     OW 3634   5.692   2.372   2.824
  912SOL    HW1 3635   5.724   2.320   2.904
  912SOL    HW2 3636   5.694   2.469   2.845
  913SOL     OW 3637   4.280   6.509   3.018
  913SOL    HW1 3638   4.333   6.593   3.031
  913SOL    HW2 3639   4.208   6.525   2.950
  914SOL     OW 3640   2.231   6.996   6.285
  914SOL    HW1 3641   2.255   7.022   6.192
  914SOL    HW2 3642   2.261   6.903   6.303
  915SOL     OW 3643   5.855   4.420   6.398
  915SOL    HW1 3644   5.950   4.442   6.379
  915SOL    HW2 3645   5.813   4.495   6.449
  916SOL     OW 3646   1.732   2.444   1.916
  916SOL    HW1 3647   1.813   2.493   1.948
  916SOL    HW2 3648   1.752   2.346   1.915
  917SOL     OW 3649   0.121   6.239   0.443
  917SOL    HW1 3650   0.172   6.291   0.512
  917SOL    HW2 3651   0.035   6.206   0.483
  918SOL     OW 3652   2.675   0.271   0.476
  918SOL    HW1 3653   2.608   0.211   0.432
  918SOL    HW2 3654   2.713   0.224   0.556
  919SOL     OW 3655   5.718   1.492   3.382
  919SOL    HW1 3656   5.670   1.450   3.304
  919SOL    HW2 3657   5.727   1.425   3.455
  920SOL     OW 3658   2.283   4.284   1.426
  920SOL    HW1 3659   2.318   4.194   1.403
  920SOL    HW2 3660   2.237   4.280   1.515
  921SOL     OW 3661   5.143   5.721   4.449
  921SOL    HW1 3662   5.111   5.691   4.359
  921SOL    HW2 3663   5.226   5.670   4.474
  922SOL     OW 3664   4.015   3.921   4.487
  922SOL    HW1 3665   4.019   3.835   4.538
  922SOL    HW2 3666   4.067   3.991   4.536
  923SOL     OW 3667   2.341   2.495   6.529
  923SOL    HW1 3668   2.413   2.530   6.589
  923SOL    HW2 3669   2.356   2.528   6.436
  924SOL     OW 3670   6.159   3.870   1.959
  924SOL    HW1 3671   6.087   3.801   1.960
  924SOL    HW2 3672   6.184   3.892   2.053
  925SOL     OW 3673   6.850   2.496   0.071
  925SOL    HW1 3674   6.864   2.410   0.023
  925SOL    HW2 3675   6.938   2.530   0.104
  926SOL     OW 3676   6.823   1.697   1.152
  926SOL    HW1 3677   6.753   1.637   1.116
  926SOL    HW2 3678   6.912   1.672   1.113
  927SOL     OW 3679   5.997   3.535   3.794
  927SOL    HW1 3680   6.035   3.523   3.702
  927SOL    HW2 3681   6.013   3.452   3.848
  928SOL     OW 3682   2.733   6.369   0.704
  928SOL    HW1 3683   2.730   6.463   0.739
  928SOL    HW2 3684   2.827   6.343   0.684
  929SOL     OW 3685   7.009   0.590   6.849
  929SOL    HW1 3686   6.977   0.498   6.871
  929SOL    HW2 3687   6.937   0.656   6.870
  930SOL     OW 3688   4.282   5.585   6.453
  930SOL    HW1 3689   4.239   5.649   6.518
  930SOL    HW2 3690   4.213   5.520   6.421
  931SOL     OW 3691   6.792   2.108   3.837
  931SOL    HW1 3692   6.784   2.073   3.931
  931SOL    HW2 3693   6.793   2.032   3.773
  932SOL     OW 3694   2.603   1.751   3.185
  932SOL    HW1 3695   2.522   1.700   3.156
  932SOL    HW2 3696   2.605   1.839   3.138
  933SOL     OW 3697   1.301   4.950   2.472
  933SOL    HW1 3698   1.389   4.920   2.508
  933SOL    HW2 3699   1.287   5.047   2.492
  934SOL     OW 3700   2.758   6.003   5.676
  934SOL    HW1 3701   2.841   5.955   5.647
  934SOL    HW2 3702   2.718   6.050   5.598
  935SOL     OW 3703   4.946   4.006   3.827
  935SOL    HW1 3704   4.961   3.908   3.816
  935SOL    HW2 3705   4.974   4.054   3.744
  936SOL     OW 3706   1.754   0.268   6.233
  936SOL    HW1 3707   1.825   0.242   6.299
  936SOL    HW2 3708   1.664   0.251   6.272
  937SOL     OW 3709   5.067   1.417   5.365
  937SOL    HW1 3710   5.076   1.494   5.429
  937SOL    HW2 3711   5.120   1.436   5.282
  938SOL     OW 3712   6.775   5.399   3.904
  938SOL    HW1 3713   6.824   5.339   3.967
  938SOL    HW2 3714   6.776   5.493   3.939
  939SOL     OW 3715   0.350   6.754   4.500
  939SOL    HW1 3716   0.403   6.738   4.583
  939SOL    HW2 3717   0.323   6.666   4.461
  940SOL     OW 3718   1.309   4.350   0.546
  940SOL    HW1 3719   1.290   4.403   0.464
  940SOL    HW2 3720   1.239   4.368   0.615
  941SOL     OW 3721   4.948   0.523   0.031
  941SOL    HW1 3722   5.004   0.442   0.020
  941SOL    HW2 3723   4.924   0.535   0.128
  942SOL     OW 3724   6.654   6.418   1.448
  942SOL    HW1 3725   6.714   6.379   1.378
  942SOL    HW2 3726   6.671   6.516   1.455
  943SOL     OW 3727   2.245   5.120   2.433
  943SOL    HW1 3728   2.298   5.174   2.368
  943SOL    HW2 3729   2.232   5.028   2.396
  944SOL     OW 3730   0.779   5.270   4.472
  944SOL    HW1 3731   0.799   5.355   4.422
  944SOL    HW2 3732   0.702   5.224   4.427
  945SOL     OW 3733   0.955   5.090   5.084
  945SOL    HW1 3734   0.908   5.151   5.147
  945SOL    HW2 3735   1.052   5.116   5.078
  946SOL     OW 3736   4.685   4.802   4.381
  946SOL    HW1 3737   4.715   4.710   4.406
  946SOL    HW2 3738   4.709   4.866   4.454
  947SOL     OW 3739   3.897   3.664   3.320
  947SOL    HW1 3740   3.853   3.587   3.366
  947SOL    HW2 3741   3.887   3.747   3.376
  948SOL     OW 3742   5.122   1.107   2.538
  948SOL    HW1 3743   5.062   1.184   2.516
  948SOL    HW2 3744   5.067   1.024   2.550
  949SOL     OW 3745   3.105   6.611   0.148
  949SOL    HW1 3746   3.117   6.583   0.243
  949SOL    HW2 3747   3.066   6.703   0.145
  950SOL     OW 3748   6.218   5.817   2.032
  950SOL    HW1 3749   6.278   5.740   2.054
  950SOL    HW2 3750   6.123   5.791   2.047
  951SOL     OW 3751   1.228   6.809   3.376
  951SOL    HW1 3752   1.155   6.872   3.403
  951SOL    HW2 3753   1.206   6.717   3.408
  952SOL     OW 3754   4.154   2.165   2.692
  952SOL    HW1 3755   4.158   2.096   2.765
  952SOL    HW2 3756   4.242   2.213   2.687
  953SOL     OW 3757   6.225   5.967   4.951
  953SOL    HW1 3758   6.237   5.874   4.917
  953SOL    HW2 3759   6.253   6.032   4.881
  954SOL     OW 3760   4.407   6.001   2.578
  954SOL    HW1 3761   4.421   6.087   2.528
  954SOL    HW2 3762   4.360   6.021   2.664
  955SOL     OW 3763   1.888   4.094   0.153
  955SOL    HW1 3764   1.972   4.104   0.100
  955SOL    HW2 3765   1.834   4.018   0.116
  956SOL     OW 3766   0.483   1.131   1.183
  956SOL    HW1 3767   0.516   1.225   1.174
  956SOL    HW2 3768   0.552   1.068   1.148
  957SOL     OW 3769   6.108   1.317   2.145
  957SOL    HW1 3770   6.169   1.373   2.088
  957SOL    HW2 3771   6.022   1.302   2.096
  958SOL     OW 3772   5.350   6.458   2.359
  958SOL    HW1 3773   5.344   6.414   2.270
  958SOL    HW2 3774   5.270   6.436   2.414
  959SOL     OW 3775   3.546   6.740   4.487
  959SOL    HW1 3776   3.511   6.739   4.581
  959SOL    HW2 3777   3.644   6.757   4.488
  960SOL     OW 3778   1.048   0.755   0.945
  960SOL    HW1 3779   1.010   0.690   0.880
  960SOL    HW2 3780   1.050   0.846   0.903
  961SOL     OW 3781   3.420   6.679   3.339
  961SOL    HW1 3782   3.437   6.752   3.273
  961SOL    HW2 3783   3.449   6.592   3.300
  962SOL     OW 3784   5.778   0.314   4.983
  962SOL    HW1 3785   5.696   0.289   5.034
  962SOL    HW2 3786   5.837   0.371   5.040
  963SOL     OW 3787   4.352   1.527   1.435
  963SOL    HW1 3788   4.269   1.509   1.382
  963SOL    HW2 3789   4.391   1.615   1.407
  964SOL     OW 3790   4.802   4.626   5.337
  964SOL    HW1 3791   4.899   4.644   5.352
  964SOL    HW2 3792   4.791   4.544   5.281
  965SOL     OW 3793   6.547   2.517   2.701
  965SOL    HW1 3794   6.576   2.422   2.692
  965SOL    HW2 3795   6.447   2.522   2.698
  966SOL     OW 3796   4.867   1.985   3.285
  966SOL    HW1 3797   4.801   2.043   3.236
  966SOL    HW2 3798   4.892   2.030   3.371
  967SOL     OW 3799   3.602   4.692   6.452
  967SOL    HW1 3800   3.701   4.681   6.443
  967SOL    HW2 3801   3.557   4.659   6.369
  968SOL     OW 3802   3.170   0.341   1.388
  968SOL    HW1 3803   3.093   0.401   1.369
  968SOL    HW2 3804   3.202   0.300   1.302
  969SOL     OW 3805   2.787   5.116   5.576
  969SOL    HW1 3806   2.859   5.186   5.569
  969SOL    HW2 3807   2.718   5.132   5.505
  970SOL     OW 3808   6.162   1.296   5.967
  970SOL    HW1 3809   6.070   1.292   6.008
  970SOL    HW2 3810   6.219   1.358   6.021
  971SOL     OW 3811   6.868   3.632   2.638
  971SOL    HW1 3812   6.829   3.650   2.547
  971SOL    HW2 3813   6.953   3.683   2.648
  972SOL     OW 3814   6.390   2.401   1.060
  972SOL    HW1 3815   6.487   2.424   1.066
  972SOL    HW2 3816   6.373   2.317   1.112
  973SOL     OW 3817   0.353   4.070   6.125
  973SOL    HW1 3818   0.415   4.007   6.172
  973SOL    HW2 3819   0.307   4.127   6.192
  974SOL     OW 3820   0.643   4.978   2.939
  974SOL    HW1 3821   0.620   4.893   2.893
  974SOL    HW2 3822   0.725   4.965   2.994
  975SOL     OW 3823   2.705   6.835   1.083
  975SOL    HW1 3824   2.696   6.743   1.044
  975SOL    HW2 3825   2.683   6.832   1.181
  976SOL     OW 3826   6.163   4.125   1.831
  976SOL    HW1 3827   6.170   4.188   1.908
  976SOL    HW2 3828   6.145   4.033   1.864
  977SOL     OW 3829   0.704   1.393   2.189
  977SOL    HW1 3830   0.688   1.365   2.094
  977SOL    HW2 3831   0.774   1.334   2.230
  978SOL     OW 3832   5.584   2.096   0.979
  978SOL    HW1 3833   5.571   2.179   1.035
  978SOL    HW2 3834   5.516   2.095   0.906
  979SOL     OW 3835   6.949   3.085   6.579
  979SOL    HW1 3836   6.855   3.056   6.595
  979SOL    HW2 3837   6.951   3.151   6.504
  980SOL     OW 3838   3.917   1.079   4.863
  980SOL    HW1 3839   3.980   1.032   4.925
  980SOL    HW2 3840   3.842   1.119   4.915
  981SOL     OW 3841   6.984   0.027   5.076
  981SOL    HW1 3842   6.980   6.989   5.155
  981SOL    HW2 3843   0.056   0.055   5.060
  982SOL     OW 3844   0.162   1.589   5.401
  982SOL    HW1 3845   0.193   1.525   5.471
  982SOL    HW2 3846   0.142   1.677   5.443
  983SOL     OW 3847   6.581   3.030   3.159
  983SOL    HW1 3848   6.486   3.056   3.140
  983SOL    HW2 3849   6.628   3.106   3.204
  984SOL     OW 3850   1.698   2.267   2.799
  984SOL    HW1 3851   1.618   2.296   2.745
  984SOL    HW2 3852   1.750   2.348   2.827
  985SOL     OW 3853   5.952   3.846   4.695
  985SOL    HW1 3854   5.905   3.815   4.778
  985SOL    HW2 3855   5.998   3.768   4.651
  986SOL     OW 3856   5.161   4.204   1.365
  986SOL    HW1 3857   5.157   4.109   1.332
  986SOL    HW2 3858   5.250   4.222   1.407
  987SOL     OW 3859   5.555   6.447   3.468
  987SOL    HW1 3860   5.639   6.488   3.435
  987SOL    HW2 3861   5.485   6.451   3.396
  988SOL     OW 3862   3.282   3.829   2.289
  988SOL    HW1 3863   3.344   3.902   2.319
  988SOL    HW2 3864   3.247   3.850   2.198
  989SOL     OW 3865   6.982   2.109   0.491
  989SOL    HW1 3866   7.003   2.087   0.586
  989SOL    HW2 3867   6.911   2.178   0.487
  990SOL     OW 3868   3.145   0.291   2.940
  990SOL    HW1 3869   3.098   0.349   2.874
  990SOL    HW2 3870   3.152   0.338   3.028
  991SOL     OW 3871   6.650   4.494   3.358
  991SOL    HW1 3872   6.723   4.425   3.363
  991SOL    HW2 3873   6.613   4.510   3.450
  992SOL     OW 3874   0.586   2.703   1.420
  992SOL    HW1 3875   0.668   2.646   1.423
  992SOL    HW2 3876   0.611   2.798   1.441
  993SOL     OW 3877   1.050   4.115   1.194
  993SOL    HW1 3878   1.067   4.068   1.280
  993SOL    HW2 3879   0.969   4.077   1.150
  994SOL     OW 3880   4.009   5.712   1.156
  994SOL    HW1 3881   3.944   5.732   1.083
  994SOL    HW2 3882   3.972   5.744   1.243
  995SOL     OW 3883   4.299   3.434   5.556
  995SOL    HW1 3884   4.367   3.396   5.618
  995SOL    HW2 3885   4.343   3.465   5.472
  996SOL     OW 3886   4.400   5.654   5.145
  996SOL    HW1 3887   4.450   5.649   5.231
  996SOL    HW2 3888   4.302   5.665   5.164
  997SOL     OW 3889   1.587   7.003   3.197
  997SOL    HW1 3890   1.609   6.972   3.290
  997SOL    HW2 3891   1.638   0.064   3.178
  998SOL     OW 3892   6.185   0.323   5.989
  998SOL    HW1 3893   6.120   0.297   6.060
  998SOL    HW2 3894   6.137   0.371   5.916
  999SOL     OW 3895   4.662   3.567   1.684
  999SOL    HW1 3896   4.575   3.572   1.636
  999SOL    HW2 3897   4.694   3.660   1.706
 1000SOL     OW 3898   4.162   1.533   1.244
 1000SOL    HW1 3899   4.134   1.628   1.259
 1000SOL    HW2 3900   4.090   1.472   1.277
 1001SOL     OW 3901   2.637   6.074   2.381
 1001SOL    HW1 3902   2.611   6.169   2.400
 1001SOL    HW2 3903   2.578   6.012   2.433
 1002SOL     OW 3904   5.311   2.060   1.515
 1002SOL    HW1 3905   5.401   2.019   1.495
 1002SOL    HW2 3906   5.299   2.065   1.614
 1003SOL     OW 3907   1.583   6.097   2.804
 1003SOL    HW1 3908   1.504   6.134   2.756
 1003SOL    HW2 3909   1.600   6.150   2.887
 1004SOL     OW 3910   6.503   1.435   2.305
 1004SOL    HW1 3911   6.505   1.460   2.402
 1004SOL    HW2 3912   6.558   1.352   2.290
 1005SOL     OW 3913   1.568   4.250   3.818
 1005SOL    HW1 3914   1.519   4.337   3.807
 1005SOL    HW2 3915   1.657   4.256   3.773
 1006SOL     OW 3916   2.357   3.684   0.375
 1006SOL    HW1 3917   2.400   3.646   0.293
 1006SOL    HW2 3918   2.260   3.698   0.359
 1007SOL     OW 3919   4.675   1.496   6.498
 1007SOL    HW1 3920   4.600   1.436   6.470
 1007SOL    HW2 3921   4.637   1.581   6.535
 1008SOL     OW 3922   0.738   3.583   5.573
 1008SOL    HW1 3923   0.719   3.530   5.490
 1008SOL    HW2 3924   0.820   3.548   5.617
 1009SOL     OW 3925   6.031   4.915   5.451
 1009SOL    HW1 3926   6.114   4.862   5.435
 1009SOL    HW2 3927   6.053   5.013   5.448
 1010SOL     OW 3928   2.422   2.246   1.935
 1010SOL    HW1 3929   2.469   2.332   1.916
 1010SOL    HW2 3930   2.376   2.214   1.852
 1011SOL     OW 3931   1.017   5.501   3.167
 1011SOL    HW1 3932   1.029   5.564   3.091
 1011SOL    HW2 3933   1.017   5.553   3.253
 1012SOL     OW 3934   6.812   0.066   2.471
 1012SOL    HW1 3935   6.719   0.071   2.509
 1012SOL    HW2 3936   6.875   0.031   2.541
 1013SOL     OW 3937   6.493   0.846   6.095
 1013SOL    HW1 3938   6.397   0.856   6.124
 1013SOL    HW2 3939   6.535   0.936   6.089
 1014SOL     OW 3940   1.166   4.347   4.600
 1014SOL    HW1 3941   1.179   4.330   4.502
 1014SOL    HW2 3942   1.249   4.321   4.650
 1015SOL     OW 3943   3.432   0.449   6.203
 1015SOL    HW1 3944   3.433   0.418   6.298
 1015SOL    HW2 3945   3.465   0.376   6.144
 1016SOL     OW 3946   4.785   4.284   1.433
 1016SOL    HW1 3947   4.857   4.333   1.482
 1016SOL    HW2 3948   4.773   4.194   1.474
 1017SOL     OW 3949   2.813   1.323   1.771
 1017SOL    HW1 3950   2.801   1.240   1.716
 1017SOL    HW2 3951   2.741   1.388   1.748
 1018SOL     OW 3952   0.166   4.371   4.096
 1018SOL    HW1 3953   0.191   4.377   3.999
 1018SOL    HW2 3954   0.164   4.463   4.135
 1019SOL     OW 3955   6.662   5.263   0.353
 1019SOL    HW1 3956   6.608   5.340   0.385
 1019SOL    HW2 3957   6.724   5.293   0.280
 1020SOL     OW 3958   6.637   0.607   1.068
 1020SOL    HW1 3959   6.574   0.589   0.992
 1020SOL    HW2 3960   6.677   0.698   1.057
 1021SOL     OW 3961   6.180   5.660   2.573
 1021SOL    HW1 3962   6.201   5.723   2.498
 1021SOL    HW2 3963   6.141   5.712   2.649
 1022SOL     OW 3964   3.054   6.072   5.818
 1022SOL    HW1 3965   3.036   6.037   5.726
 1022SOL    HW2 3966   2.973   6.120   5.852
 1023SOL     OW 3967   6.788   0.930   2.405
 1023SOL    HW1 3968   6.887   0.928   2.390
 1023SOL    HW2 3969   6.743   0.876   2.334
 1024SOL     OW 3970   0.838   1.091   4.551
 1024SOL    HW1 3971   0.810   1.159   4.619
 1024SOL    HW2 3972   0.929   1.057   4.573
 1025SOL     OW 3973   4.548   3.085   0.498
 1025SOL    HW1 3974   4.506   3.080   0.589
 1025SOL    HW2 3975   4.476   3.090   0.429
 1026SOL     OW 3976   3.021   2.571   1.694
 1026SOL    HW1 3977   2.990   2.535   1.782
 1026SOL    HW2 3978   2.986   2.514   1.620
 1027SOL     OW 3979   1.408   6.182   2.029
 1027SOL    HW1 3980   1.443   6.260   1.976
 1027SOL    HW2 3981   1.375   6.112   1.966
 1028SOL     OW 3982   1.419   6.523   3.191
 1028SOL    HW1 3983   1.364   6.604   3.209
 1028SOL    HW2 3984   1.364   6.456   3.140
 1029SOL     OW 3985   0.886   1.870   6.109
 1029SOL    HW1 3986   0.897   1.857   6.207
 1029SOL    HW2 3987   0.789   1.861   6.086
 1030SOL     OW 3988   3.234   3.449   1.624
 1030SOL    HW1 3989   3.148   3.403   1.644
 1030SOL    HW2 3990   3.303   3.381   1.599
 1031SOL     OW 3991   3.625   3.128   1.820
 1031SOL    HW1 3992   3.609   3.053   1.883
 1031SOL    HW2 3993   3.697   3.103   1.755
 1032SOL     OW 3994   2.249   1.002   5.070
 1032SOL    HW1 3995   2.164   0.968   5.112
 1032SOL    HW2 3996   2.235   1.095   5.037
 1033SOL     OW 3997   1.686   5.897   2.489
 1033SOL    HW1 3998   1.594   5.908   2.525
 1033SOL    HW2 3999   1.714   5.981   2.442
 1034SOL     OW 4000   2.471   6.395   4.309
 1034SOL    HW1 4001   2.532   6.414   4.386
 1034SOL    HW2 4002   2.457   6.478   4.256
 1035SOL     OW 4003   0.911   2.398   5.933
 1035SOL    HW1 4004   0.905   2.341   6.014
 1035SOL    HW2 4005   0.852   2.479   5.944
 1036SOL     OW 4006   5.096   1.324   1.582
 1036SOL    HW1 4007   5.172   1.388   1.588
 1036SOL    HW2 4008   5.074   1.308   1.486
 1037SOL     OW 4009   1.464   2.229   2.359
 1037SOL    HW1 4010   1.505   2.143   2.328
 1037SOL    HW2 4011   1.522   2.270   2.429
 1038SOL     OW 4012   2.113   1.489   6.520
 1038SOL    HW1 4013   2.044   1.481   6.448
 1038SOL    HW2 4014   2.094   1.570   6.575
 1039SOL     OW 4015   3.150   3.038   4.000
 1039SOL    HW1 4016   3.099   3.107   3.948
 1039SOL    HW2 4017   3.118   2.947   3.976
 1040SOL     OW 4018   5.207   0.565   3.263
 1040SOL    HW1 4019   5.168   0.475   3.281
 1040SOL    HW2 4020   5.145   0.635   3.298
 1041SOL     OW 4021   6.924   6.861   3.941
 1041SOL    HW1 4022   6.915   6.906   4.030
 1041SOL    HW2 4023   6.888   6.768   3.947
 1042SOL     OW 4024   4.749   4.874   3.012
 1042SOL    HW1 4025   4.807   4.877   3.093
 1042SOL    HW2 4026   4.801   4.837   2.935
 1043SOL     OW 4027   3.796   1.799   3.165
 1043SOL    HW1 4028   3.857   1.802   3.244
 1043SOL    HW2 4029   3.701   1.804   3.196
 1044SOL     OW 4030   6.070   5.915   1.251
 1044SOL    HW1 4031   5.996   5.855   1.281
 1044SOL    HW2 4032   6.045   6.010   1.266
 1045SOL     OW 4033   2.734   0.079   2.795
 1045SOL    HW1 4034   2.703   0.152   2.854
 1045SOL    HW2 4035   2.833   0.087   2.781
 1046SOL     OW 4036   2.711   1.343   1.126
 1046SOL    HW1 4037   2.734   1.279   1.053
 1046SOL    HW2 4038   2.612   1.341   1.142
 1047SOL     OW 4039   3.006   6.803   4.010
 1047SOL    HW1 4040   3.013   6.707   3.984
 1047SOL    HW2 4041   2.910   6.826   4.028
 1048SOL     OW 4042   2.596   5.509   2.307
 1048SOL    HW1 4043   2.639   5.469   2.387
 1048SOL    HW2 4044   2.573   5.437   2.242
 1049SOL     OW 4045   4.603   6.933   4.186
 1049SOL    HW1 4046   4.561   6.864   4.243
 1049SOL    HW2 4047   4.551   6.944   4.101
 1050SOL     OW 4048   4.180   5.433   2.959
 1050SOL    HW1 4049   4.116   5.510   2.966
 1050SOL    HW2 4050   4.272   5.464   2.981
 1051SOL     OW 4051   6.898   5.959   0.233
 1051SOL    HW1 4052   6.847   5.960   0.319
 1051SOL    HW2 4053   6.993   5.984   0.251
 1052SOL     OW 4054   4.333   0.450   5.664
 1052SOL    HW1 4055   4.342   0.351   5.658
 1052SOL    HW2 4056   4.237   0.475   5.665
 1053SOL     OW 4057   5.971   3.634   2.310
 1053SOL    HW1 4058   5.946   3.599   2.401
 1053SOL    HW2 4059   5.893   3.683   2.271
 1054SOL     OW 4060   3.126   3.526   1.045
 1054SOL    HW1 4061   3.177   3.493   0.965
 1054SOL    HW2 4062   3.045   3.469   1.059
 1055SOL     OW 4063   5.118   5.744   6.332
 1055SOL    HW1 4064   5.083   5.651   6.343
 1055SOL    HW2 4065   5.079   5.803   6.402
 1056SOL     OW 4066   1.426   3.836   0.329
 1056SOL    HW1 4067   1.370   3.792   0.399
 1056SOL    HW2 4068   1.493   3.770   0.295
 1057SOL     OW 4069   3.531   1.972   1.947
 1057SOL    HW1 4070   3.489   1.988   1.857
 1057SOL    HW2 4071   3.574   2.056   1.980
 1058SOL     OW 4072   3.974   2.207   3.111
 1058SOL    HW1 4073   3.938   2.228   3.020
 1058SOL    HW2 4074   3.897   2.192   3.174
 1059SOL     OW 4075   2.590   6.488   2.098
 1059SOL    HW1 4076   2.494   6.513   2.087
 1059SOL    HW2 4077   2.606   6.396   2.062
 1060SOL     OW 4078   0.298   4.886   4.089
 1060SOL    HW1 4079   0.276   4.923   4.179
 1060SOL    HW2 4080   0.321   4.960   4.026
 1061SOL     OW 4081   6.332   4.035   6.942
 1061SOL    HW1 4082   6.280   4.012   6.860
 1061SOL    HW2 4083   6.351   3.952   6.993
 1062SOL     OW 4084   4.356   6.765   5.445
 1062SOL    HW1 4085   4.388   6.679   5.406
 1062SOL    HW2 4086   4.300   6.813   5.377
 1063SOL     OW 4087   0.721   6.975   6.196
 1063SOL    HW1 4088   0.768   6.973   6.284
 1063SOL    HW2 4089   0.622   6.972   6.212
 1064SOL     OW 4090   0.669   4.344   1.588
 1064SOL    HW1 4091   0.571   4.360   1.573
 1064SOL    HW2 4092   0.707   4.421   1.639
 1065SOL     OW 4093   3.655   1.023   3.630
 1065SOL    HW1 4094   3.713   0.941   3.629
 1065SOL    HW2 4095   3.712   1.103   3.649
 1066SOL     OW 4096   4.894   6.897   2.016
 1066SOL    HW1 4097   4.955   6.943   2.080
 1066SOL    HW2 4098   4.859   6.813   2.057
 1067SOL     OW 4099   2.720   1.071   0.138
 1067SOL    HW1 4100   2.634   1.087   0.186
 1067SOL    HW2 4101   2.701   1.034   0.047
 1068SOL     OW 4102   6.231   3.917   1.506
 1068SOL    HW1 4103   6.163   3.866   1.453
 1068SOL    HW2 4104   6.249   4.005   1.461
 1069SOL     OW 4105   5.741   4.896   0.847
 1069SOL    HW1 4106   5.717   4.799   0.856
 1069SOL    HW2 4107   5.841   4.906   0.847
 1070SOL     OW 4108   2.471   0.195   2.523
 1070SOL    HW1 4109   2.459   0.103   2.560
 1070SOL    HW2 4110   2.382   0.240   2.516
 1071SOL     OW 4111   0.432   2.037   4.799
 1071SOL    HW1 4112   0.455   1.989   4.883
 1071SOL    HW2 4113   0.349   2.090   4.813
 1072SOL     OW 4114   1.901   0.822   1.597
 1072SOL    HW1 4115   1.944   0.875   1.524
 1072SOL    HW2 4116   1.834   0.759   1.557
 1073SOL     OW 4117   6.105   2.005   3.303
 1073SOL    HW1 4118   6.171   1.964   3.241
 1073SOL    HW2 4119   6.012   1.982   3.273
 1074SOL     OW 4120   2.811   5.467   1.542
 1074SOL    HW1 4121   2.740   5.463   1.612
 1074SOL    HW2 4122   2.771   5.496   1.455
 1075SOL     OW 4123   6.060   1.184   4.720
 1075SOL    HW1 4124   6.049   1.268   4.667
 1075SOL    HW2 4125   6.000   1.112   4.684
 1076SOL     OW 4126   1.883   3.747   5.441
 1076SOL    HW1 4127   1.817   3.672   5.437
 1076SOL    HW2 4128   1.837   3.830   5.473
 1077SOL     OW 4129   0.123   7.003   0.053
 1077SOL    HW1 4130   0.094   0.013   6.986
 1077SOL    HW2 4131   0.047   7.014   0.118
 1078SOL     OW 4132   6.629   7.012   3.271
 1078SOL    HW1 4133   6.646   6.991   3.368
 1078SOL    HW2 4134   6.709   0.036   3.233
 1079SOL     OW 4135   1.259   5.352   2.315
 1079SOL    HW1 4136   1.167   5.340   2.277
 1079SOL    HW2 4137   1.300   5.262   2.332
 1080SOL     OW 4138   2.307   5.570   5.080
 1080SOL    HW1 4139   2.390   5.608   5.121
 1080SOL    HW2 4140   2.261   5.641   5.026
 1081SOL     OW 4141   0.188   5.584   4.241
 1081SOL    HW1 4142   0.154   5.651   4.175
 1081SOL    HW2 4143   0.194   5.628   4.331
 1082SOL     OW 4144   6.186   1.558   6.338
 1082SOL    HW1 4145   6.225   1.548   6.430
 1082SOL    HW2 4146   6.106   1.500   6.330
 1083SOL     OW 4147   4.612   4.366   0.333
 1083SOL    HW1 4148   4.613   4.355   0.432
 1083SOL    HW2 4149   4.618   4.276   0.290
 1084SOL     OW 4150   6.225   6.890   6.813
 1084SOL    HW1 4151   6.227   6.951   6.734
 1084SOL    HW2 4152   6.310   6.900   6.865
 1085SOL     OW 4153   1.823   3.706   4.028
 1085SOL    HW1 4154   1.754   3.635   4.035
 1085SOL    HW2 4155   1.792   3.788   4.076
 1086SOL     OW 4156   6.673   4.704   6.128
 1086SOL    HW1 4157   6.582   4.663   6.135
 1086SOL    HW2 4158   6.719   4.697   6.217
 1087SOL     OW 4159   1.430   1.765   5.479
 1087SOL    HW1 4160   1.476   1.850   5.506
 1087SOL    HW2 4161   1.384   1.726   5.558
 1088SOL     OW 4162   0.357   5.128   3.303
 1088SOL    HW1 4163   0.390   5.154   3.394
 1088SOL    HW2 4164   0.268   5.171   3.288
 1089SOL     OW 4165   0.602   5.538   4.747
 1089SOL    HW1 4166   0.684   5.511   4.797
 1089SOL    HW2 4167   0.606   5.636   4.727
 1090SOL     OW 4168   5.712   1.958   3.474
 1090SOL    HW1 4169   5.702   2.000   3.564
 1090SOL    HW2 4170   5.757   2.022   3.412
 1091SOL     OW 4171   2.130   3.198   3.392
 1091SOL    HW1 4172   2.209   3.163   3.342
 1091SOL    HW2 4173   2.156   3.280   3.443
 1092SOL     OW 4174   0.881   4.676   0.981
 1092SOL    HW1 4175   0.961   4.676   1.041
 1092SOL    HW2 4176   0.822   4.754   1.004
 1093SOL     OW 4177   2.978   0.103   1.481
 1093SOL    HW1 4178   2.967   0.203   1.480
 1093SOL    HW2 4179   2.939   0.066   1.565
 1094SOL     OW 4180   0.918   6.918   2.768
 1094SOL    HW1 4181   0.891   6.934   2.863
 1094SOL    HW2 4182   0.966   6.830   2.761
 1095SOL     OW 4183   0.375   2.757   6.352
 1095SOL    HW1 4184   0.429   2.836   6.381
 1095SOL    HW2 4185   0.387   2.742   6.254
 1096SOL     OW 4186   2.804   5.320   0.828
 1096SOL    HW1 4187   2.799   5.323   0.928
 1096SOL    HW2 4188   2.899   5.315   0.800
 1097SOL     OW 4189   2.264   5.388   3.387
 1097SOL    HW1 4190   2.288   5.485   3.389
 1097SOL    HW2 4191   2.311   5.343   3.310
 1098SOL     OW 4192   5.740   4.129   6.742
 1098SOL    HW1 4193   5.804   4.052   6.743
 1098SOL    HW2 4194   5.716   4.153   6.648
 1099SOL     OW 4195   4.800   1.025   6.193
 1099SOL    HW1 4196   4.834   0.931   6.191
 1099SOL    HW2 4197   4.734   1.038   6.119
 1100SOL     OW 4198   3.558   1.574   3.965
 1100SOL    HW1 4199   3.540   1.664   4.005
 1100SOL    HW2 4200   3.594   1.513   4.036
 1101SOL     OW 4201   5.630   3.596   5.307
 1101SOL    HW1 4202   5.678   3.666   5.360
 1101SOL    HW2 4203   5.632   3.510   5.357
 1102SOL     OW 4204   2.482   0.904   4.351
 1102SOL    HW1 4205   2.458   0.995   4.387
 1102SOL    HW2 4206   2.561   0.869   4.402
 1103SOL     OW 4207   2.927   1.782   6.924
 1103SOL    HW1 4208   2.985   1.863   6.911
 1103SOL    HW2 4209   2.938   1.721   6.846
 1104SOL     OW 4210   1.231   4.032   3.199
 1104SOL    HW1 4211   1.146   4.060   3.243
 1104SOL    HW2 4212   1.223   4.044   3.100
 1105SOL     OW 4213   5.182   2.641   4.301
 1105SOL    HW1 4214   5.123   2.709   4.257
 1105SOL    HW2 4215   5.177   2.652   4.400
 1106SOL     OW 4216   0.330   1.156   0.265
 1106SOL    HW1 4217   0.295   1.249   0.279
 1106SOL    HW2 4218   0.380   1.153   0.178
 1107SOL     OW 4219   1.041   0.162   6.521
 1107SOL    HW1 4220   0.989   0.077   6.508
 1107SOL    HW2 4221   1.063   0.200   6.431
 1108SOL     OW 4222   3.559   6.343   4.151
 1108SOL    HW1 4223   3.505   6.340   4.066
 1108SOL    HW2 4224   3.498   6.337   4.230
 1109SOL     OW 4225   6.008   1.956   3.734
 1109SOL    HW1 4226   6.015   1.921   3.827
 1109SOL    HW2 4227   5.917   1.996   3.721
 1110SOL     OW 4228   3.225   1.109   3.144
 1110SOL    HW1 4229   3.208   1.055   3.226
 1110SOL    HW2 4230   3.173   1.072   3.068
 1111SOL     OW 4231   4.947   4.366   6.216
 1111SOL    HW1 4232   4.952   4.428   6.138
 1111SOL    HW2 4233   4.985   4.277   6.190
 1112SOL     OW 4234   6.237   6.849   3.777
 1112SOL    HW1 4235   6.314   6.806   3.729
 1112SOL    HW2 4236   6.248   6.835   3.876
 1113SOL     OW 4237   6.464   4.020   1.925
 1113SOL    HW1 4238   6.478   4.007   2.023
 1113SOL    HW2 4239   6.431   4.113   1.908
 1114SOL     OW 4240   4.000   2.380   5.842
 1114SOL    HW1 4241   3.946   2.464   5.843
 1114SOL    HW2 4242   4.084   2.395   5.789
 1115SOL     OW 4243   4.044   4.275   5.518
 1115SOL    HW1 4244   4.036   4.250   5.421
 1115SOL    HW2 4245   4.115   4.218   5.561
 1116SOL     OW 4246   5.282   0.927   0.190
 1116SOL    HW1 4247   5.247   1.008   0.237
 1116SOL    HW2 4248   5.211   0.856   0.187
 1117SOL     OW 4249   0.794   2.241   1.410
 1117SOL    HW1 4250   0.718   2.186   1.443
 1117SOL    HW2 4251   0.801   2.234   1.310
 1118SOL     OW 4252   2.432   5.861   6.721
 1118SOL    HW1 4253   2.523   5.848   6.683
 1118SOL    HW2 4254   2.437   5.924   6.799
 1119SOL     OW 4255   4.511   4.409   2.374
 1119SOL    HW1 4256   4.482   4.441   2.284
 1119SOL    HW2 4257   4.581   4.339   2.364
 1120SOL     OW 4258   6.294   5.766   1.247
 1120SOL    HW1 4259   6.205   5.809   1.261
 1120SOL    HW2 4260   6.367   5.827   1.280
 1121SOL     OW 4261   0.864   4.973   4.328
 1121SOL    HW1 4262   0.853   5.048   4.393
 1121SOL    HW2 4263   0.776   4.955   4.283
 1122SOL     OW 4264   6.479   2.991   1.989
 1122SOL    HW1 4265   6.563   2.976   1.936
 1122SOL    HW2 4266   6.401   2.997   1.926
 1123SOL     OW 4267   4.625   2.084   3.458
 1123SOL    HW1 4268   4.599   2.009   3.398
 1123SOL    HW2 4269   4.709   2.061   3.506
 1124SOL     OW 4270   1.230   3.311   5.184
 1124SOL    HW1 4271   1.162   3.296   5.112
 1124SOL    HW2 4272   1.205   3.392   5.237
 1125SOL     OW 4273   1.807   3.114   4.746
 1125SOL    HW1 4274   1.738   3.066   4.799
 1125SOL    HW2 4275   1.783   3.211   4.741
 1126SOL     OW 4276   4.027   6.044   5.623
 1126SOL    HW1 4277   4.076   6.122   5.661
 1126SOL    HW2 4278   4.021   6.054   5.523
 1127SOL     OW 4279   6.090   6.605   4.146
 1127SOL    HW1 4280   6.111   6.694   4.106
 1127SOL    HW2 4281   6.123   6.602   4.241
 1128SOL     OW 4282   5.698   1.179   4.474
 1128SOL    HW1 4283   5.744   1.225   4.550
 1128SOL    HW2 4284   5.609   1.146   4.505
 1129SOL     OW 4285   1.929   7.002   0.466
 1129SOL    HW1 4286   1.848   0.010   0.415
 1129SOL    HW2 4287   2.000   0.048   0.461
 1130SOL     OW 4288   1.762   5.138   1.612
 1130SOL    HW1 4289   1.722   5.073   1.547
 1130SOL    HW2 4290   1.688   5.186   1.660
 1131SOL     OW 4291   1.745   6.981   4.815
 1131SOL    HW1 4292   1.651   6.951   4.831
 1131SOL    HW2 4293   1.767   6.974   4.718
 1132SOL     OW 4294   4.708   0.633   2.358
 1132SOL    HW1 4295   4.640   0.686   2.307
 1132SOL    HW2 4296   4.775   0.595   2.294
 1133SOL     OW 4297   1.451   0.348   6.174
 1133SOL    HW1 4298   1.360   0.323   6.207
 1133SOL    HW2 4299   1.462   0.317   6.079
 1134SOL     OW 4300   5.293   6.964   1.775
 1134SOL    HW1 4301   5.278   6.907   1.856
 1134SOL    HW2 4302   5.211   7.018   1.757
 1135SOL     OW 4303   2.524   6.161   3.881
 1135SOL    HW1 4304   2.593   6.096   3.849
 1135SOL    HW2 4305   2.507   6.147   3.978
 1136SOL     OW 4306   3.469   5.723   3.423
 1136SOL    HW1 4307   3.398   5.793   3.416
 1136SOL    HW2 4308   3.470   5.669   3.339
 1137SOL     OW 4309   0.989   5.940   6.972
 1137SOL    HW1 4310   1.032   5.855   6.940
 1137SOL    HW2 4311   0.937   5.981   6.898
 1138SOL     OW 4312   1.712   2.880   5.213
 1138SOL    HW1 4313   1.753   2.971   5.211
 1138SOL    HW2 4314   1.684   2.859   5.307
 1139SOL     OW 4315   2.455   4.887   4.070
 1139SOL    HW1 4316   2.485   4.861   3.978
 1139SOL    HW2 4317   2.387   4.961   4.063
 1140SOL     OW 4318   1.783   0.963   2.188
 1140SOL    HW1 4319   1.871   0.968   2.141
 1140SOL    HW2 4320   1.746   1.056   2.198
 1141SOL     OW 4321   6.027   5.261   6.288
 1141SOL    HW1 4322   6.118   5.287   6.318
 1141SOL    HW2 4323   5.962   5.333   6.313
 1142SOL     OW 4324   2.411   6.933   3.404
 1142SOL    HW1 4325   2.406   7.014   3.346
 1142SOL    HW2 4326   2.440   6.854   3.349
 1143SOL     OW 4327   1.324   2.906   2.330
 1143SOL    HW1 4328   1.392   2.978   2.316
 1143SOL    HW2 4329   1.369   2.818   2.342
 1144SOL     OW 4330   5.525   4.130   2.939
 1144SOL    HW1 4331   5.499   4.065   2.868
 1144SOL    HW2 4332   5.624   4.129   2.950
 1145SOL     OW 4333   1.094   2.733   0.494
 1145SOL    HW1 4334   1.012   2.689   0.458
 1145SOL    HW2 4335   1.167   2.666   0.503
 1146SOL     OW 4336   0.643   1.914   1.206
 1146SOL    HW1 4337   0.631   2.013   1.207
 1146SOL    HW2 4338   0.599   1.876   1.124
 1147SOL     OW 4339   2.957   6.018   0.705
 1147SOL    HW1 4340   2.869   5.993   0.744
 1147SOL    HW2 4341   2.963   6.118   0.698
 1148SOL     OW 4342   3.926   6.333   1.819
 1148SOL    HW1 4343   4.023   6.348   1.840
 1148SOL    HW2 4344   3.907   6.235   1.819
 1149SOL     OW 4345   6.240   3.087   1.800
 1149SOL    HW1 4346   6.217   3.182   1.823
 1149SOL    HW2 4347   6.284   3.084   1.710
 1150SOL     OW 4348   1.174   4.244   6.911
 1150SOL    HW1 4349   1.076   4.228   6.895
 1150SOL    HW2 4350   1.201   4.201   6.997
 1151SOL     OW 4351   5.993   5.051   4.161
 1151SOL    HW1 4352   6.013   5.139   4.118
 1151SOL    HW2 4353   5.979   5.065   4.259
 1152SOL     OW 4354   4.453   6.840   0.350
 1152SOL    HW1 4355   4.468   6.760   0.291
 1152SOL    HW2 4356   4.445   6.922   0.293
 1153SOL     OW 4357   6.979   6.897   1.033
 1153SOL    HW1 4358   6.932   6.832   0.974
 1153SOL    HW2 4359   6.915   6.967   1.065
 1154SOL     OW 4360   0.679   3.879   2.097
 1154SOL    HW1 4361   0.653   3.838   2.010
 1154SOL    HW2 4362   0.778   3.896   2.097
 1155SOL     OW 4363   2.442   6.452   5.217
 1155SOL    HW1 4364   2.528   6.435   5.170
 1155SOL    HW2 4365   2.393   6.527   5.173
 1156SOL     OW 4366   4.376   1.858   5.060
 1156SOL    HW1 4367   4.384   1.810   4.973
 1156SOL    HW2 4368   4.456   1.918   5.073
 1157SOL     OW 4369   4.932   1.189   5.477
 1157SOL    HW1 4370   4.965   1.275   5.436
 1157SOL    HW2 4371   4.859   1.210   5.542
 1158SOL     OW 4372   5.708   6.140   4.093
 1158SOL    HW1 4373   5.718   6.210   4.023
 1158SOL    HW2 4374   5.639   6.170   4.160
 1159SOL     OW 4375   6.117   6.639   3.453
 1159SOL    HW1 4376   6.157   6.712   3.397
 1159SOL    HW2 4377   6.026   6.667   3.483
 1160SOL     OW 4378   4.146   6.145   1.300
 1160SOL    HW1 4379   4.070   6.142   1.235
 1160SOL    HW2 4380   4.232   6.153   1.250
 1161SOL     OW 4381   0.102   5.504   6.234
 1161SOL    HW1 4382   0.124   5.407   6.245
 1161SOL    HW2 4383   0.126   5.553   6.318
 1162SOL     OW 4384   2.362   3.127   5.640
 1162SOL    HW1 4385   2.353   3.089   5.732
 1162SOL    HW2 4386   2.440   3.083   5.594
 1163SOL     OW 4387   6.043   4.672   1.674
 1163SOL    HW1 4388   6.085   4.631   1.593
 1163SOL    HW2 4389   6.015   4.599   1.737
 1164SOL     OW 4390   5.534   2.266   4.705
 1164SOL    HW1 4391   5.446   2.296   4.743
 1164SOL    HW2 4392   5.557   2.175   4.741
 1165SOL     OW 4393   4.542   6.395   3.405
 1165SOL    HW1 4394   4.591   6.482   3.408
 1165SOL    HW2 4395   4.528   6.361   3.498
 1166SOL     OW 4396   1.905   6.644   0.399
 1166SOL    HW1 4397   1.921   6.721   0.337
 1166SOL    HW2 4398   1.894   6.560   0.345
 1167SOL     OW 4399   5.068   3.910   1.678
 1167SOL    HW1 4400   5.085   4.008   1.684
 1167SOL    HW2 4401   5.052   3.873   1.770
 1168SOL     OW 4402   6.149   2.056   1.995
 1168SOL    HW1 4403   6.180   1.986   1.931
 1168SOL    HW2 4404   6.063   2.027   2.037
 1169SOL     OW 4405   5.901   1.585   5.492
 1169SOL    HW1 4406   5.909   1.513   5.561
 1169SOL    HW2 4407   5.869   1.546   5.406
 1170SOL     OW 4408   4.429   0.459   2.722
 1170SOL    HW1 4409   4.398   0.374   2.765
 1170SOL    HW2 4410   4.392   0.465   2.630
 1171SOL     OW 4411   2.488   0.064   0.486
 1171SOL    HW1 4412   2.501   0.059   0.585
 1171SOL    HW2 4413   2.541   7.014   0.442
 1172SOL     OW 4414   5.476   4.002   0.945
 1172SOL    HW1 4415   5.401   3.941   0.969
 1172SOL    HW2 4416   5.466   4.088   0.994
 1173SOL     OW 4417   2.083   1.401   1.348
 1173SOL    HW1 4418   2.125   1.368   1.263
 1173SOL    HW2 4419   2.083   1.328   1.415
 1174SOL     OW 4420   3.555   3.989   1.858
 1174SOL    HW1 4421   3.607   3.911   1.894
 1174SOL    HW2 4422   3.597   4.074   1.888
 1175SOL     OW 4423   4.469   3.360   5.739
 1175SOL    HW1 4424   4.509   3.424   5.805
 1175SOL    HW2 4425   4.531   3.350   5.661
 1176SOL     OW 4426   4.555   3.385   6.185
 1176SOL    HW1 4427   4.583   3.412   6.092
 1176SOL    HW2 4428   4.563   3.286   6.194
 1177SOL     OW 4429   6.522   3.564   4.999
 1177SOL    HW1 4430   6.568   3.537   4.914
 1177SOL    HW2 4431   6.557   3.510   5.075
 1178SOL     OW 4432   2.804   3.241   0.726
 1178SOL    HW1 4433   2.775   3.335   0.710
 1178SOL    HW2 4434   2.723   3.181   0.728
 1179SOL     OW 4435   2.149   6.060   0.390
 1179SOL    HW1 4436   2.109   6.076   0.480
 1179SOL    HW2 4437   2.161   5.961   0.377
 1180SOL     OW 4438   2.589   6.130   3.195
 1180SOL    HW1 4439   2.658   6.152   3.125
 1180SOL    HW2 4440   2.621   6.054   3.251
 1181SOL     OW 4441   0.314   5.531   5.859
 1181SOL    HW1 4442   0.359   5.498   5.942
 1181SOL    HW2 4443   0.351   5.482   5.779
 1182SOL     OW 4444   4.282   5.611   3.336
 1182SOL    HW1 4445   4.245   5.643   3.249
 1182SOL    HW2 4446   4.238   5.661   3.411
 1183SOL     OW 4447   2.005   4.260   0.667
 1183SOL    HW1 4448   1.945   4.328   0.708
 1183SOL    HW2 4449   1.971   4.234   0.576
 1184SOL     OW 4450   0.493   0.333   4.791
 1184SOL    HW1 4451   0.414   0.367   4.841
 1184SOL    HW2 4452   0.560   0.294   4.854
 1185SOL     OW 4453   0.487   0.961   6.822
 1185SOL    HW1 4454   0.513   1.051   6.785
 1185SOL    HW2 4455   0.553   0.893   6.793
 1186SOL     OW 4456   4.987   5.755   5.441
 1186SOL    HW1 4457   4.946   5.666   5.458
 1186SOL    HW2 4458   5.049   5.750   5.362
 1187SOL     OW 4459   6.539   6.625   6.946
 1187SOL    HW1 4460   6.536   6.716   6.987
 1187SOL    HW2 4461   6.449   6.603   6.908
 1188SOL     OW 4462   3.683   6.245   4.890
 1188SOL    HW1 4463   3.760   6.283   4.839
 1188SOL    HW2 4464   3.597   6.271   4.846
 1189SOL     OW 4465   6.587   2.599   2.961
 1189SOL    HW1 4466   6.524   2.673   2.987
 1189SOL    HW2 4467   6.569   2.573   2.867
 1190SOL     OW 4468   2.446   5.765   3.899
 1190SOL    HW1 4469   2.429   5.816   3.815
 1190SOL    HW2 4470   2.383   5.796   3.970
 1191SOL     OW 4471   4.724   4.957   3.875
 1191SOL    HW1 4472   4.730   4.913   3.786
 1191SOL    HW2 4473   4.652   4.914   3.929
 1192SOL     OW 4474   3.841   5.631   3.186
 1192SOL    HW1 4475   3.751   5.609   3.148
 1192SOL    HW2 4476   3.910   5.619   3.115
 1193SOL     OW 4477   6.240   3.865   4.826
 1193SOL    HW1 4478   6.333   3.836   4.846
 1193SOL    HW2 4479   6.227   3.960   4.856
 1194SOL     OW 4480   5.453   6.944   1.463
 1194SOL    HW1 4481   5.354   6.937   1.455
 1194SOL    HW2 4482   5.483   6.893   1.544
 1195SOL     OW 4483   6.443   4.700   1.522
 1195SOL    HW1 4484   6.362   4.679   1.467
 1195SOL    HW2 4485   6.510   4.627   1.511
 1196SOL     OW 4486   0.032   5.636   3.165
 1196SOL    HW1 4487   6.986   5.592   3.224
 1196SOL    HW2 4488   0.112   5.660   3.219
 1197SOL     OW 4489   4.092   0.339   5.881
 1197SOL    HW1 4490   4.015   0.277   5.866
 1197SOL    HW2 4491   4.114   0.386   5.796
 1198SOL     OW 4492   1.388   3.107   1.585
 1198SOL    HW1 4493   1.401   3.069   1.493
 1198SOL    HW2 4494   1.472   3.150   1.616
 1199SOL     OW 4495   4.518   4.526   1.936
 1199SOL    HW1 4496   4.490   4.506   2.030
 1199SOL    HW2 4497   4.471   4.463   1.874
 1200SOL     OW 4498   3.542   3.475   3.496
 1200SOL    HW1 4499   3.621   3.528   3.526
 1200SOL    HW2 4500   3.499   3.432   3.576
 1201SOL     OW 4501   1.075   1.055   4.668
 1201SOL    HW1 4502   1.124   1.091   4.747
 1201SOL    HW2 4503   1.136   0.999   4.613
 1202SOL     OW 4504   1.027   5.684   6.190
 1202SOL    HW1 4505   1.033   5.675   6.090
 1202SOL    HW2 4506   1.044   5.778   6.216
 1203SOL     OW 4507   6.121   6.434   0.061
 1203SOL    HW1 4508   6.106   6.531   0.076
 1203SOL    HW2 4509   6.043   6.382   0.097
 1204SOL     OW 4510   2.948   6.767   1.303
 1204SOL    HW1 4511   3.016   6.840   1.291
 1204SOL    HW2 4512   2.963   6.696   1.234
 1205SOL     OW 4513   5.596   3.882   1.405
 1205SOL    HW1 4514   5.678   3.932   1.375
 1205SOL    HW2 4515   5.566   3.917   1.494
 1206SOL     OW 4516   3.196   2.811   5.355
 1206SOL    HW1 4517   3.210   2.836   5.451
 1206SOL    HW2 4518   3.124   2.868   5.316
 1207SOL     OW 4519   1.931   6.456   1.543
 1207SOL    HW1 4520   2.029   6.439   1.537
 1207SOL    HW2 4521   1.896   6.489   1.455
 1208SOL     OW 4522   3.172   3.745   0.481
 1208SOL    HW1 4523   3.236   3.816   0.512
 1208SOL    HW2 4524   3.209   3.700   0.400
 1209SOL     OW 4525   4.255   0.736   4.943
 1209SOL    HW1 4526   4.234   0.744   5.041
 1209SOL    HW2 4527   4.266   0.827   4.904
 1210SOL     OW 4528   2.585   0.244   3.006
 1210SOL    HW1 4529   2.503   0.242   2.950
 1210SOL    HW2 4530   2.620   0.338   3.012
 1211SOL     OW 4531   1.239   3.680   1.556
 1211SOL    HW1 4532   1.180   3.715   1.482
 1211SOL    HW2 4533   1.323   3.644   1.517
 1212SOL     OW 4534   6.348   0.310   6.722
 1212SOL    HW1 4535   6.338   0.410   6.726
 1212SOL    HW2 4536   6.335   0.279   6.628
 1213SOL     OW 4537   6.259   2.359   0.446
 1213SOL    HW1 4538   6.332   2.417   0.481
 1213SOL    HW2 4539   6.207   2.322   0.522
 1214SOL     OW 4540   0.444   2.919   0.276
 1214SOL    HW1 4541   0.411   3.001   0.323
 1214SOL    HW2 4542   0.543   2.913   0.286
 1215SOL     OW 4543   1.390   4.042   3.771
 1215SOL    HW1 4544   1.473   4.095   3.787
 1215SOL    HW2 4545   1.414   3.948   3.747
 1216SOL     OW 4546   5.311   0.737   1.311
 1216SOL    HW1 4547   5.262   0.693   1.235
 1216SOL    HW2 4548   5.251   0.745   1.390
 1217SOL     OW 4549   1.449   4.688   0.650
 1217SOL    HW1 4550   1.514   4.708   0.723
 1217SOL    HW2 4551   1.356   4.706   0.683
 1218SOL     OW 4552   1.981   4.512   4.335
 1218SOL    HW1 4553   2.033   4.590   4.371
 1218SOL    HW2 4554   2.002   4.500   4.238
 1219SOL     OW 4555   5.400   5.086   2.246
 1219SOL    HW1 4556   5.424   5.124   2.335
 1219SOL    HW2 4557   5.391   4.987   2.253
 1220SOL     OW 4558   0.748   5.136   3.396
 1220SOL    HW1 4559   0.694   5.052   3.405
 1220SOL    HW2 4560   0.692   5.214   3.426
 1221SOL     OW 4561   4.860   3.468   5.768
 1221SOL    HW1 4562   4.845   3.484   5.670
 1221SOL    HW2 4563   4.940   3.519   5.799
 1222SOL     OW 4564   6.481   6.660   6.638
 1222SOL    HW1 4565   6.568   6.647   6.685
 1222SOL    HW2 4566   6.414   6.697   6.703
 1223SOL     OW 4567   3.825   0.775   0.974
 1223SOL    HW1 4568   3.884   0.709   1.020
 1223SOL    HW2 4569   3.767   0.820   1.042
 1224SOL     OW 4570   2.417   6.436   0.636
 1224SOL    HW1 4571   2.370   6.451   0.549
 1224SOL    HW2 4572   2.500   6.492   0.639
 1225SOL     OW 4573   3.530   3.888   6.225
 1225SOL    HW1 4574   3.611   3.840   6.260
 1225SOL    HW2 4575   3.511   3.858   6.132
 1226SOL     OW 4576   2.459   5.412   0.855
 1226SOL    HW1 4577   2.426   5.502   0.883
 1226SOL    HW2 4578   2.538   5.423   0.795
 1227SOL     OW 4579   6.985   4.095   6.869
 1227SOL    HW1 4580   0.014   4.028   6.923
 1227SOL    HW2 4581   6.942   4.050   6.791
 1228SOL     OW 4582   4.164   2.431   6.662
 1228SOL    HW1 4583   4.167   2.331   6.669
 1228SOL    HW2 4584   4.120   2.469   6.744
 1229SOL     OW 4585   3.552   4.553   6.181
 1229SOL    HW1 4586   3.475   4.548   6.118
 1229SOL    HW2 4587   3.632   4.588   6.132
 1230SOL     OW 4588   4.609   0.068   3.536
 1230SOL    HW1 4589   4.526   0.117   3.563
 1230SOL    HW2 4590   4.688   0.130   3.542
 1231SOL     OW 4591   1.111   3.862   4.460
 1231SOL    HW1 4592   1.118   3.767   4.489
 1231SOL    HW2 4593   1.187   3.915   4.499
 1232SOL     OW 4594   1.037   1.772   5.890
 1232SOL    HW1 4595   0.984   1.826   5.955
 1232SOL    HW2 4596   1.005   1.789   5.797
 1233SOL     OW 4597   1.683   3.044   4.501
 1233SOL    HW1 4598   1.715   3.064   4.594
 1233SOL    HW2 4599   1.749   3.078   4.435
 1234SOL     OW 4600   6.546   4.115   4.754
 1234SOL    HW1 4601   6.552   4.061   4.670
 1234SOL    HW2 4602   6.479   4.075   4.815
 1235SOL     OW 4603   0.130   5.891   2.589
 1235SOL    HW1 4604   0.033   5.895   2.613
 1235SOL    HW2 4605   0.184   5.940   2.656
 1236SOL     OW 4606   5.395   1.307   7.015
 1236SOL    HW1 4607   5.383   1.285   0.088
 1236SOL    HW2 4608   5.402   1.222   6.962
 1237SOL     OW 4609   2.825   5.186   6.820
 1237SOL    HW1 4610   2.864   5.178   6.729
 1237SOL    HW2 4611   2.898   5.180   6.888
 1238SOL     OW 4612   1.934   1.007   0.684
 1238SOL    HW1 4613   1.871   1.011   0.606
 1238SOL    HW2 4614   2.011   0.948   0.662
 1239SOL     OW 4615   6.823   6.396   6.690
 1239SOL    HW1 4616   6.780   6.486   6.689
 1239SOL    HW2 4617   6.813   6.353   6.600
 1240SOL     OW 4618   5.728   6.021   2.084
 1240SOL    HW1 4619   5.722   5.938   2.028
 1240SOL    HW2 4620   5.800   6.080   2.048
 1241SOL     OW 4621   6.845   3.592   4.201
 1241SOL    HW1 4622   6.748   3.569   4.194
 1241SOL    HW2 4623   6.855   3.675   4.256
 1242SOL     OW 4624   1.734   3.373   1.319
 1242SOL    HW1 4625   1.651   3.343   1.272
 1242SOL    HW2 4626   1.813   3.361   1.259
 1243SOL     OW 4627   1.076   6.000   5.144
 1243SOL    HW1 4628   1.023   5.955   5.072
 1243SOL    HW2 4629   1.118   6.083   5.106
 1244SOL     OW 4630   0.391   5.970   3.338
 1244SOL    HW1 4631   0.420   6.011   3.425
 1244SOL    HW2 4632   0.331   6.034   3.290
 1245SOL     OW 4633   4.397   3.805   6.334
 1245SOL    HW1 4634   4.383   3.707   6.328
 1245SOL    HW2 4635   4.400   3.833   6.429
 1246SOL     OW 4636   2.084   6.287   2.195
 1246SOL    HW1 4637   2.018   6.281   2.119
 1246SOL    HW2 4638   2.034   6.285   2.282
 1247SOL     OW 4639   2.859   0.353   6.557
 1247SOL    HW1 4640   2.910   0.362   6.471
 1247SOL    HW2 4641   2.846   0.444   6.598
 1248SOL     OW 4642   2.307   0.011   3.926
 1248SOL    HW1 4643   2.399   0.040   3.902
 1248SOL    HW2 4644   2.278   6.960   3.866
 1249SOL     OW 4645   5.773   2.510   2.188
 1249SOL    HW1 4646   5.731   2.570   2.119
 1249SOL    HW2 4647   5.872   2.509   2.175
 1250SOL     OW 4648   0.067   4.626   4.962
 1250SOL    HW1 4649   0.061   4.703   4.898
 1250SOL    HW2 4650   7.013   4.564   4.946
 1251SOL     OW 4651   3.336   0.190   4.256
 1251SOL    HW1 4652   3.319   0.123   4.329
 1251SOL    HW2 4653   3.371   0.143   4.175
 1252SOL     OW 4654   3.513   3.731   6.005
 1252SOL    HW1 4655   3.574   3.653   6.015
 1252SOL    HW2 4656   3.498   3.749   5.908
 1253SOL     OW 4657   4.064   5.646   1.904
 1253SOL    HW1 4658   4.065   5.608   1.812
 1253SOL    HW2 4659   4.037   5.575   1.969
 1254SOL     OW 4660   6.154   3.019   2.748
 1254SOL    HW1 4661   6.207   3.068   2.678
 1254SOL    HW2 4662   6.114   2.937   2.707
 1255SOL     OW 4663   6.857   1.262   4.734
 1255SOL    HW1 4664   6.846   1.357   4.765
 1255SOL    HW2 4665   6.774   1.210   4.757
 1256SOL     OW 4666   6.839   0.098   3.137
 1256SOL    HW1 4667   6.824   0.157   3.057
 1256SOL    HW2 4668   6.931   0.113   3.173
 1257SOL     OW 4669   0.336   0.019   3.699
 1257SOL    HW1 4670   0.330   6.942   3.692
 1257SOL    HW2 4671   0.370   0.044   3.790
 1258SOL     OW 4672   0.569   4.932   3.560
 1258SOL    HW1 4673   0.646   4.875   3.589
 1258SOL    HW2 4674   0.499   4.874   3.517
 1259SOL     OW 4675   3.805   1.948   4.454
 1259SOL    HW1 4676   3.871   1.926   4.527
 1259SOL    HW2 4677   3.830   1.897   4.371
 1260SOL     OW 4678   0.967   1.778   0.182
 1260SOL    HW1 4679   0.934   1.772   0.276
 1260SOL    HW2 4680   0.984   1.686   0.146
 1261SOL     OW 4681   0.396   5.672   6.863
 1261SOL    HW1 4682   0.370   5.760   6.903
 1261SOL    HW2 4683   0.336   5.600   6.897
 1262SOL     OW 4684   5.060   5.435   2.426
 1262SOL    HW1 4685   4.969   5.444   2.467
 1262SOL    HW2 4686   5.078   5.515   2.368
 1263SOL     OW 4687   0.420   1.274   2.682
 1263SOL    HW1 4688   0.349   1.238   2.742
 1263SOL    HW2 4689   0.422   1.374   2.689
 1264SOL     OW 4690   1.079   3.688   5.905
 1264SOL    HW1 4691   1.177   3.689   5.923
 1264SOL    HW2 4692   1.056   3.610   5.846
 1265SOL     OW 4693   6.713   5.562   4.427
 1265SOL    HW1 4694   6.686   5.609   4.511
 1265SOL    HW2 4695   6.634   5.513   4.390
 1266SOL     OW 4696   0.667   0.670   4.584
 1266SOL    HW1 4697   0.641   0.689   4.489
 1266SOL    HW2 4698   0.745   0.608   4.586
 1267SOL     OW 4699   5.220   0.681   1.978
 1267SOL    HW1 4700   5.231   0.779   1.998
 1267SOL    HW2 4701   5.273   0.658   1.897
 1268SOL     OW 4702   3.890   2.621   5.775
 1268SOL    HW1 4703   3.966   2.656   5.720
 1268SOL    HW2 4704   3.804   2.663   5.744
 1269SOL     OW 4705   5.228   2.413   4.184
 1269SOL    HW1 4706   5.189   2.408   4.092
 1269SOL    HW2 4707   5.206   2.502   4.224
 1270SOL     OW 4708   1.782   4.772   1.974
 1270SOL    HW1 4709   1.788   4.767   2.074
 1270SOL    HW2 4710   1.687   4.760   1.945
 1271SOL     OW 4711   1.705   0.678   1.273
 1271SOL    HW1 4712   1.639   0.739   1.228
 1271SOL    HW2 4713   1.663   0.589   1.289
 1272SOL     OW 4714   6.338   3.798   6.318
 1272SOL    HW1 4715   6.276   3.868   6.354
 1272SOL    HW2 4716   6.366   3.823   6.225
 1273SOL     OW 4717   1.606   3.843   4.674
 1273SOL    HW1 4718   1.587   3.868   4.579
 1273SOL    HW2 4719   1.683   3.896   4.708
 1274SOL     OW 4720   0.370   4.773   1.387
 1274SOL    HW1 4721   0.271   4.766   1.371
 1274SOL    HW2 4722   0.388   4.836   1.462
 1275SOL     OW 4723   2.650   0.322   3.402
 1275SOL    HW1 4724   2.597   0.244   3.369
 1275SOL    HW2 4725   2.628   0.403   3.347
 1276SOL     OW 4726   5.417   4.447   4.613
 1276SOL    HW1 4727   5.515   4.459   4.626
 1276SOL    HW2 4728   5.369   4.528   4.646
 1277SOL     OW 4729   1.185   5.525   0.236
 1277SOL    HW1 4730   1.128   5.536   0.154
 1277SOL    HW2 4731   1.191   5.429   0.260
 1278SOL     OW 4732   0.958   6.925   3.801
 1278SOL    HW1 4733   0.870   6.912   3.754
 1278SOL    HW2 4734   0.985   6.839   3.845
 1279SOL     OW 4735   2.174   3.649   6.098
 1279SOL    HW1 4736   2.253   3.683   6.149
 1279SOL    HW2 4737   2.106   3.721   6.091
 1280SOL     OW 4738   3.390   0.636   3.720
 1280SOL    HW1 4739   3.395   0.650   3.622
 1280SOL    HW2 4740   3.461   0.691   3.765
 1281SOL     OW 4741   2.831   6.117   4.187
 1281SOL    HW1 4742   2.761   6.068   4.238
 1281SOL    HW2 4743   2.912   6.060   4.176
 1282SOL     OW 4744   6.726   2.862   0.322
 1282SOL    HW1 4745   6.640   2.896   0.359
 1282SOL    HW2 4746   6.707   2.803   0.243
 1283SOL     OW 4747   6.495   3.996   5.509
 1283SOL    HW1 4748   6.591   4.013   5.529
 1283SOL    HW2 4749   6.439   4.071   5.544
 1284SOL     OW 4750   3.830   0.790   1.326
 1284SOL    HW1 4751   3.758   0.846   1.285
 1284SOL    HW2 4752   3.895   0.848   1.374
 1285SOL     OW 4753   3.804   1.456   5.121
 1285SOL    HW1 4754   3.776   1.445   5.216
 1285SOL    HW2 4755   3.780   1.547   5.089
 1286SOL     OW 4756   4.882   3.069   1.138
 1286SOL    HW1 4757   4.827   3.083   1.056
 1286SOL    HW2 4758   4.979   3.083   1.116
 1287SOL     OW 4759   5.731   4.746   5.339
 1287SOL    HW1 4760   5.720   4.812   5.414
 1287SOL    HW2 4761   5.822   4.756   5.299
 1288SOL     OW 4762   4.601   4.651   6.150
 1288SOL    HW1 4763   4.563   4.742   6.133
 1288SOL    HW2 4764   4.561   4.613   6.233
 1289SOL     OW 4765   6.468   0.785   1.475
 1289SOL    HW1 4766   6.398   0.789   1.546
 1289SOL    HW2 4767   6.552   0.746   1.513
 1290SOL     OW 4768   1.705   0.555   0.550
 1290SOL    HW1 4769   1.644   0.546   0.472
 1290SOL    HW2 4770   1.697   0.473   0.607
 1291SOL     OW 4771   6.348   5.015   4.427
 1291SOL    HW1 4772   6.282   5.015   4.501
 1291SOL    HW2 4773   6.381   4.922   4.410
 1292SOL     OW 4774   6.981   5.547   2.396
 1292SOL    HW1 4775   0.028   5.536   2.467
 1292SOL    HW2 4776   7.011   5.501   2.312
 1293SOL     OW 4777   2.305   1.845   0.155
 1293SOL    HW1 4778   2.384   1.796   0.120
 1293SOL    HW2 4779   2.296   1.933   0.108
 1294SOL     OW 4780   1.784   4.318   6.593
 1294SOL    HW1 4781   1.698   4.328   6.544
 1294SOL    HW2 4782   1.858   4.303   6.528
 1295SOL     OW 4783   0.192   3.756   1.501
 1295SOL    HW1 4784   0.133   3.764   1.421
 1295SOL    HW2 4785   0.137   3.765   1.584
 1296SOL     OW 4786   5.227   6.723   5.472
 1296SOL    HW1 4787   5.299   6.785   5.442
 1296SOL    HW2 4788   5.150   6.776   5.508
 1297SOL     OW 4789   0.953   6.589   2.000
 1297SOL    HW1 4790   0.888   6.526   1.958
 1297SOL    HW2 4791   1.046   6.555   1.986
 1298SOL     OW 4792   5.068   6.146   3.058
 1298SOL    HW1 4793   5.085   6.217   2.989
 1298SOL    HW2 4794   5.111   6.174   3.144
 1299SOL     OW 4795   1.980   2.911   3.967
 1299SOL    HW1 4796   2.026   2.827   3.940
 1299SOL    HW2 4797   1.962   2.910   4.065
 1300SOL     OW 4798   2.096   3.879   1.161
 1300SOL    HW1 4799   2.119   3.976   1.165
 1300SOL    HW2 4800   2.178   3.826   1.139
 1301SOL     OW 4801   0.787   0.339   1.618
 1301SOL    HW1 4802   0.848   0.260   1.613
 1301SOL    HW2 4803   0.692   0.308   1.610
 1302SOL     OW 4804   5.615   0.326   5.421
 1302SOL    HW1 4805   5.617   0.423   5.398
 1302SOL    HW2 4806   5.682   0.307   5.492
 1303SOL     OW 4807   3.998   0.176   1.713
 1303SOL    HW1 4808   3.979   0.247   1.645
 1303SOL    HW2 4809   3.997   0.217   1.804
 1304SOL     OW 4810   1.250   1.451   1.350
 1304SOL    HW1 4811   1.317   1.485   1.284
 1304SOL    HW2 4812   1.249   1.510   1.430
 1305SOL     OW 4813   5.400   4.111   6.168
 1305SOL    HW1 4814   5.401   4.188   6.232
 1305SOL    HW2 4815   5.467   4.128   6.096
 1306SOL     OW 4816   0.689   6.134   5.018
 1306SOL    HW1 4817   0.684   6.123   5.117
 1306SOL    HW2 4818   0.690   6.231   4.995
 1307SOL     OW 4819   1.967   2.909   3.668
 1307SOL    HW1 4820   1.877   2.866   3.663
 1307SOL    HW2 4821   1.985   2.938   3.762
 1308SOL     OW 4822   6.615   6.259   6.459
 1308SOL    HW1 4823   6.560   6.332   6.499
 1308SOL    HW2 4824   6.641   6.284   6.366
 1309SOL     OW 4825   5.114   4.895   5.778
 1309SOL    HW1 4826   5.195   4.940   5.741
 1309SOL    HW2 4827   5.066   4.847   5.705
 1310SOL     OW 4828   0.594   4.084   4.011
 1310SOL    HW1 4829   0.662   4.015   4.036
 1310SOL    HW2 4830   0.577   4.144   4.089
 1311SOL     OW 4831   6.382   5.544   6.342
 1311SOL    HW1 4832   6.367   5.524   6.246
 1311SOL    HW2 4833   6.462   5.604   6.352
 1312SOL     OW 4834   1.337   1.108   5.769
 1312SOL    HW1 4835   1.400   1.083   5.696
 1312SOL    HW2 4836   1.325   1.030   5.830
 1313SOL     OW 4837   6.282   5.460   2.899
 1313SOL    HW1 4838   6.323   5.463   2.808
 1313SOL    HW2 4839   6.324   5.385   2.951
 1314SOL     OW 4840   3.050   1.853   4.877
 1314SOL    HW1 4841   3.106   1.772   4.860
 1314SOL    HW2 4842   2.954   1.830   4.864
 1315SOL     OW 4843   6.564   0.647   3.890
 1315SOL    HW1 4844   6.656   0.612   3.906
 1315SOL    HW2 4845   6.537   0.630   3.795
 1316SOL     OW 4846   3.985   0.248   5.293
 1316SOL    HW1 4847   4.084   0.259   5.291
 1316SOL    HW2 4848   3.951   0.228   5.201
 1317SOL     OW 4849   2.201   4.477   5.603
 1317SOL    HW1 4850   2.264   4.553   5.620
 1317SOL    HW2 4851   2.184   4.468   5.505
 1318SOL     OW 4852   2.048   3.220   7.008
 1318SOL    HW1 4853   2.126   3.213   6.944
 1318SOL    HW2 4854   2.031   3.131   0.026
 1319SOL     OW 4855   0.131   6.124   6.915
 1319SOL    HW1 4856   0.060   6.161   6.855
 1319SOL    HW2 4857   0.112   6.149   7.009
 1320SOL     OW 4858   3.306   2.983   6.424
 1320SOL    HW1 4859   3.292   2.887   6.400
 1320SOL    HW2 4860   3.232   3.038   6.385
 1321SOL     OW 4861   4.854   2.446   6.449
 1321SOL    HW1 4862   4.857   2.521   6.383
 1321SOL    HW2 4863   4.940   2.396   6.447
 1322SOL     OW 4864   3.577   1.219   4.848
 1322SOL    HW1 4865   3.529   1.176   4.772
 1322SOL    HW2 4866   3.595   1.315   4.826
 1323SOL     OW 4867   3.547   6.654   0.826
 1323SOL    HW1 4868   3.488   6.574   0.834
 1323SOL    HW2 4869   3.607   6.659   0.906
 1324SOL     OW 4870   1.281   3.668   0.502
 1324SOL    HW1 4871   1.349   3.598   0.485
 1324SOL    HW2 4872   1.235   3.649   0.589
 1325SOL     OW 4873   3.788   6.497   5.518
 1325SOL    HW1 4874   3.723   6.430   5.553
 1325SOL    HW2 4875   3.869   6.450   5.482
 1326SOL     OW 4876   4.664   4.172   5.121
 1326SOL    HW1 4877   4.645   4.194   5.025
 1326SOL    HW2 4878   4.702   4.080   5.128
 1327SOL     OW 4879   0.360   6.791   1.042
 1327SOL    HW1 4880   0.334   6.839   1.125
 1327SOL    HW2 4881   0.364   6.693   1.060
 1328SOL     OW 4882   1.805   3.305   5.860
 1328SOL    HW1 4883   1.878   3.307   5.928
 1328SOL    HW2 4884   1.807   3.389   5.806
 1329SOL     OW 4885   6.981   1.549   2.721
 1329SOL    HW1 4886   6.975   1.636   2.673
 1329SOL    HW2 4887   0.042   1.546   2.775
 1330SOL     OW 4888   0.509   2.234   0.896
 1330SOL    HW1 4889   0.511   2.227   0.797
 1330SOL    HW2 4890   0.479   2.326   0.922
 1331SOL     OW 4891   4.481   2.494   2.598
 1331SOL    HW1 4892   4.565   2.450   2.629
 1331SOL    HW2 4893   4.503   2.569   2.536
 1332SOL     OW 4894   2.167   0.093   0.401
 1332SOL    HW1 4895   2.233   0.033   0.356
 1332SOL    HW2 4896   2.201   0.117   0.492
 1333SOL     OW 4897   3.177   4.031   2.960
 1333SOL    HW1 4898   3.234   4.104   2.998
 1333SOL    HW2 4899   3.224   3.988   2.883
 1334SOL     OW 4900   6.863   1.853   3.485
 1334SOL    HW1 4901   6.939   1.918   3.494
 1334SOL    HW2 4902   6.854   1.825   3.390
 1335SOL     OW 4903   1.933   2.591   1.994
 1335SOL    HW1 4904   1.952   2.609   2.090
 1335SOL    HW2 4905   2.009   2.540   1.953
 1336SOL     OW 4906   4.114   1.519   5.309
 1336SOL    HW1 4907   4.036   1.524   5.371
 1336SOL    HW2 4908   4.128   1.424   5.281
 1337SOL     OW 4909   6.687   1.267   2.573
 1337SOL    HW1 4910   6.637   1.353   2.565
 1337SOL    HW2 4911   6.785   1.284   2.564
 1338SOL     OW 4912   5.990   4.146   4.169
 1338SOL    HW1 4913   5.923   4.139   4.242
 1338SOL    HW2 4914   6.045   4.062   4.166
 1339SOL     OW 4915   6.991   0.399   0.201
 1339SOL    HW1 4916   0.035   0.326   0.190
 1339SOL    HW2 4917   6.903   0.370   0.163
 1340SOL     OW 4918   4.940   1.956   2.497
 1340SOL    HW1 4919   4.873   2.029   2.489
 1340SOL    HW2 4920   4.997   1.954   2.415
 1341SOL     OW 4921   4.605   6.430   0.441
 1341SOL    HW1 4922   4.611   6.529   0.431
 1341SOL    HW2 4923   4.672   6.387   0.379
 1342SOL     OW 4924   3.151   5.386   6.683
 1342SOL    HW1 4925   3.160   5.313   6.750
 1342SOL    HW2 4926   3.054   5.403   6.664
 1343SOL     OW 4927   6.000   5.313   3.073
 1343SOL    HW1 4928   6.065   5.263   3.015
 1343SOL    HW2 4929   6.041   5.329   3.163
 1344SOL     OW 4930   0.975   6.346   4.253
 1344SOL    HW1 4931   0.984   6.265   4.193
 1344SOL    HW2 4932   0.885   6.387   4.239
 1345SOL     OW 4933   1.004   4.556   2.060
 1345SOL    HW1 4934   0.996   4.538   2.158
 1345SOL    HW2 4935   0.939   4.499   2.010
 1346SOL     OW 4936   1.875   5.483   6.259
 1346SOL    HW1 4937   1.962   5.464   6.304
 1346SOL    HW2 4938   1.869   5.580   6.237
 1347SOL     OW 4939   2.349   0.383   6.206
 1347SOL    HW1 4940   2.284   0.396   6.281
 1347SOL    HW2 4941   2.438   0.418   6.233
 1348SOL     OW 4942   0.398   5.978   5.316
 1348SOL    HW1 4943   0.453   5.938   5.242
 1348SOL    HW2 4944   0.433   5.947   5.404
 1349SOL     OW 4945   5.472   2.501   4.077
 1349SOL    HW1 4946   5.552   2.440   4.071
 1349SOL    HW2 4947   5.394   2.450   4.112
 1350SOL     OW 4948   3.935   4.582   0.138
 1350SOL    HW1 4949   3.889   4.503   0.178
 1350SOL    HW2 4950   4.032   4.562   0.125
 1351SOL     OW 4951   5.780   2.292   3.783
 1351SOL    HW1 4952   5.773   2.289   3.883
 1351SOL    HW2 4953   5.843   2.365   3.757
 1352SOL     OW 4954   6.867   6.731   2.517
 1352SOL    HW1 4955   6.771   6.729   2.543
 1352SOL    HW2 4956   6.901   6.825   2.521
 1353SOL     OW 4957   0.975   2.034   0.511
 1353SOL    HW1 4958   0.893   2.024   0.568
 1353SOL    HW2 4959   0.967   2.118   0.457
 1354SOL     OW 4960   6.756   3.757   2.404
 1354SOL    HW1 4961   6.663   3.794   2.410
 1354SOL    HW2 4962   6.815   3.821   2.356
 1355SOL     OW 4963   6.313   3.835   4.549
 1355SOL    HW1 4964   6.228   3.796   4.514
 1355SOL    HW2 4965   6.292   3.892   4.629
 1356SOL     OW 4966   3.842   2.963   2.197
 1356SOL    HW1 4967   3.933   2.931   2.173
 1356SOL    HW2 4968   3.850   3.051   2.245
 1357SOL     OW 4969   6.310   3.680   5.748
 1357SOL    HW1 4970   6.250   3.600   5.750
 1357SOL    HW2 4971   6.405   3.650   5.736
 1358SOL     OW 4972   5.903   7.011   0.462
 1358SOL    HW1 4973   5.885   0.079   0.500
 1358SOL    HW2 4974   5.989   7.012   0.411
 1359SOL     OW 4975   6.213   4.766   1.854
 1359SOL    HW1 4976   6.288   4.772   1.788
 1359SOL    HW2 4977   6.128   4.746   1.806
 1360SOL     OW 4978   3.405   3.307   6.936
 1360SOL    HW1 4979   3.433   3.396   6.901
 1360SOL    HW2 4980   3.344   3.320   7.014
 1361SOL     OW 4981   0.032   4.865   5.178
 1361SOL    HW1 4982   7.013   4.882   5.089
 1361SOL    HW2 4983   0.128   4.893   5.175
 1362SOL     OW 4984   4.116   3.497   2.557
 1362SOL    HW1 4985   4.061   3.414   2.552
 1362SOL    HW2 4986   4.143   3.513   2.652
 1363SOL     OW 4987   0.089   5.352   4.865
 1363SOL    HW1 4988   0.058   5.436   4.821
 1363SOL    HW2 4989   0.014   5.310   4.916
 1364SOL     OW 4990   4.339   4.329   6.833
 1364SOL    HW1 4991   4.437   4.348   6.828
 1364SOL    HW2 4992   4.295   4.362   6.749
 1365SOL     OW 4993   0.402   4.296   6.542
 1365SOL    HW1 4994   0.374   4.370   6.603
 1365SOL    HW2 4995   0.448   4.334   6.461
 1366SOL     OW 4996   1.898   6.756   5.499
 1366SOL    HW1 4997   1.973   6.798   5.549
 1366SOL    HW2 4998   1.934   6.694   5.429
 1367SOL     OW 4999   1.725   1.798   2.132
 1367SOL    HW1 5000   1.632   1.763   2.135
 1367SOL    HW2 5001   1.729   1.888   2.176
 1368SOL     OW 5002   5.653   6.683   4.722
 1368SOL    HW1 5003   5.601   6.707   4.640
 1368SOL    HW2 5004   5.632   6.590   4.750
 1369SOL     OW 5005   1.214   6.364   3.003
 1369SOL    HW1 5006   1.118   6.354   3.030
 1369SOL    HW2 5007   1.219   6.392   2.908
 1370SOL     OW 5008   3.260   0.873   1.380
 1370SOL    HW1 5009   3.340   0.914   1.424
 1370SOL    HW2 5010   3.235   0.790   1.428
 1371SOL     OW 5011   4.266   0.761   5.329
 1371SOL    HW1 5012   4.186   0.715   5.292
 1371SOL    HW2 5013   4.236   0.836   5.388
 1372SOL     OW 5014   1.837   2.615   0.881
 1372SOL    HW1 5015   1.931   2.649   0.882
 1372SOL    HW2 5016   1.834   2.529   0.830
 1373SOL     OW 5017   0.212   4.976   0.850
 1373SOL    HW1 5018   0.243   4.921   0.928
 1373SOL    HW2 5019   0.271   5.056   0.840
 1374SOL     OW 5020   4.194   2.130   1.033
 1374SOL    HW1 5021   4.251   2.179   1.098
 1374SOL    HW2 5022   4.097   2.147   1.053
 1375SOL     OW 5023   0.192   5.258   6.027
 1375SOL    HW1 5024   0.211   5.324   5.954
 1375SOL    HW2 5025   0.116   5.200   6.000
 1376SOL     OW 5026   4.793   2.404   3.654
 1376SOL    HW1 5027   4.811   2.371   3.561
 1376SOL    HW2 5028   4.697   2.431   3.662
 1377SOL     OW 5029   0.470   4.602   5.169
 1377SOL    HW1 5030   0.538   4.671   5.195
 1377SOL    HW2 5031   0.492   4.566   5.078
 1378SOL     OW 5032   1.101   2.611   6.587
 1378SOL    HW1 5033   1.087   2.544   6.660
 1378SOL    HW2 5034   1.141   2.566   6.507
 1379SOL     OW 5035   3.182   5.649   3.237
 1379SOL    HW1 5036   3.086   5.655   3.210
 1379SOL    HW2 5037   3.222   5.741   3.237
 1380SOL     OW 5038   6.511   6.854   2.439
 1380SOL    HW1 5039   6.485   6.793   2.364
 1380SOL    HW2 5040   6.527   6.800   2.522
 1381SOL     OW 5041   5.880   3.263   0.310
 1381SOL    HW1 5042   5.935   3.299   0.385
 1381SOL    HW2 5043   5.785   3.292   0.321
 1382SOL     OW 5044   5.948   5.045   6.121
 1382SOL    HW1 5045   5.993   5.091   6.198
 1382SOL    HW2 5046   6.011   4.980   6.079
 1383SOL     OW 5047   0.441   0.362   0.058
 1383SOL    HW1 5048   0.431   0.371   0.157
 1383SOL    HW2 5049   0.351   0.375   0.014
 1384SOL     OW 5050   3.914   0.963   3.034
 1384SOL    HW1 5051   3.925   0.981   2.937
 1384SOL    HW2 5052   3.955   1.038   3.087
 1385SOL     OW 5053   6.387   2.770   3.027
 1385SOL    HW1 5054   6.398   2.822   3.112
 1385SOL    HW2 5055   6.390   2.832   2.949
 1386SOL     OW 5056   1.962   3.055   4.391
 1386SOL    HW1 5057   1.984   3.121   4.319
 1386SOL    HW2 5058   2.008   3.081   4.476
 1387SOL     OW 5059   3.412   0.401   4.425
 1387SOL    HW1 5060   3.376   0.335   4.359
 1387SOL    HW2 5061   3.462   0.473   4.377
 1388SOL     OW 5062   6.681   1.002   4.391
 1388SOL    HW1 5063   6.715   0.958   4.473
 1388SOL    HW2 5064   6.699   1.100   4.396
 1389SOL     OW 5065   5.785   6.899   4.126
 1389SOL    HW1 5066   5.815   6.900   4.221
 1389SOL    HW2 5067   5.742   6.811   4.106
 1390SOL     OW 5068   4.056   1.673   1.562
 1390SOL    HW1 5069   4.067   1.772   1.567
 1390SOL    HW2 5070   4.131   1.629   1.612
 1391SOL     OW 5071   6.586   0.607   4.957
 1391SOL    HW1 5072   6.491   0.590   4.983
 1391SOL    HW2 5073   6.591   0.691   4.903
 1392SOL     OW 5074   4.526   5.726   6.970
 1392SOL    HW1 5075   4.458   5.655   6.986
 1392SOL    HW2 5076   4.614   5.684   6.949
 1393SOL     OW 5077   6.594   1.475   6.377
 1393SOL    HW1 5078   6.532   1.553   6.373
 1393SOL    HW2 5079   6.670   1.496   6.439
 1394SOL     OW 5080   3.992   6.870   3.378
 1394SOL    HW1 5081   4.069   6.855   3.440
 1394SOL    HW2 5082   3.937   6.786   3.373
 1395SOL     OW 5083   1.403   5.193   2.756
 1395SOL    HW1 5084   1.448   5.108   2.784
 1395SOL    HW2 5085   1.443   5.270   2.806
 1396SOL     OW 5086   2.689   0.996   4.672
 1396SOL    HW1 5087   2.743   1.012   4.590
 1396SOL    HW2 5088   2.596   1.031   4.659
 1397SOL     OW 5089   0.527   5.162   4.386
 1397SOL    HW1 5090   0.472   5.246   4.394
 1397SOL    HW2 5091   0.467   5.084   4.374
 1398SOL     OW 5092   0.790   1.696   1.042
 1398SOL    HW1 5093   0.815   1.793   1.048
 1398SOL    HW2 5094   0.873   1.640   1.052
 1399SOL     OW 5095   3.797   0.414   0.574
 1399SOL    HW1 5096   3.838   0.412   0.665
 1399SOL    HW2 5097   3.721   0.349   0.570
 1400SOL     OW 5098   6.238   0.757   4.411
 1400SOL    HW1 5099   6.148   0.737   4.450
 1400SOL    HW2 5100   6.308   0.710   4.464
 1401SOL     OW 5101   5.476   0.521   3.251
 1401SOL    HW1 5102   5.523   0.588   3.194
 1401SOL    HW2 5103   5.378   0.540   3.251
 1402SOL     OW 5104   6.290   3.752   1.730
 1402SOL    HW1 5105   6.287   3.811   1.810
 1402SOL    HW2 5106   6.273   3.806   1.647
 1403SOL     OW 5107   3.781   2.600   0.037
 1403SOL    HW1 5108   3.759   2.635   0.128
 1403SOL    HW2 5109   3.736   2.657   6.991
 1404SOL     OW 5110   4.486   0.076   1.111
 1404SOL    HW1 5111   4.467   0.166   1.071
 1404SOL    HW2 5112   4.533   0.088   1.199
 1405SOL     OW 5113   2.385   3.327   1.250
 1405SOL    HW1 5114   2.326   3.296   1.325
 1405SOL    HW2 5115   2.411   3.249   1.194
 1406SOL     OW 5116   2.933   3.140   0.991
 1406SOL    HW1 5117   2.973   3.220   0.946
 1406SOL    HW2 5118   2.838   3.130   0.963
 1407SOL     OW 5119   0.647   2.970   1.444
 1407SOL    HW1 5120   0.634   2.954   1.346
 1407SOL    HW2 5121   0.677   3.064   1.459
 1408SOL     OW 5122   6.002   5.975   6.510
 1408SOL    HW1 5123   6.057   6.050   6.473
 1408SOL    HW2 5124   6.057   5.891   6.511
 1409SOL     OW 5125   6.796   0.982   5.831
 1409SOL    HW1 5126   6.831   0.961   5.922
 1409SOL    HW2 5127   6.861   1.041   5.782
 1410SOL     OW 5128   3.197   2.623   6.053
 1410SOL    HW1 5129   3.132   2.597   5.983
 1410SOL    HW2 5130   3.150   2.674   6.125
 1411SOL     OW 5131   3.977   5.563   0.401
 1411SOL    HW1 5132   4.070   5.555   0.366
 1411SOL    HW2 5133   3.914   5.587   0.327
 1412SOL     OW 5134   1.532   2.635   0.773
 1412SOL    HW1 5135   1.546   2.729   0.744
 1412SOL    HW2 5136   1.584   2.618   0.857
 1413SOL     OW 5137   1.882   1.653   4.846
 1413SOL    HW1 5138   1.944   1.630   4.921
 1413SOL    HW2 5139   1.834   1.738   4.867
 1414SOL     OW 5140   1.345   3.353   2.036
 1414SOL    HW1 5141   1.338   3.363   2.136
 1414SOL    HW2 5142   1.282   3.283   2.005
 1415SOL     OW 5143   2.141   1.787   3.741
 1415SOL    HW1 5144   2.058   1.737   3.716
 1415SOL    HW2 5145   2.221   1.732   3.720
 1416SOL     OW 5146   4.130   0.165   6.140
 1416SOL    HW1 5147   4.097   0.257   6.163
 1416SOL    HW2 5148   4.091   0.136   6.053
 1417SOL     OW 5149   3.788   2.819   6.170
 1417SOL    HW1 5150   3.698   2.841   6.132
 1417SOL    HW2 5151   3.808   2.723   6.154
 1418SOL     OW 5152   3.723   3.902   0.053
 1418SOL    HW1 5153   3.777   3.984   0.035
 1418SOL    HW2 5154   3.640   3.905   7.020
 1419SOL     OW 5155   2.102   4.600   3.721
 1419SOL    HW1 5156   2.025   4.617   3.783
 1419SOL    HW2 5157   2.066   4.578   3.630
 1420SOL     OW 5158   3.543   5.607   3.161
 1420SOL    HW1 5159   3.561   5.514   3.193
 1420SOL    HW2 5160   3.497   5.604   3.072
 1421SOL     OW 5161   1.497   5.516   5.785
 1421SOL    HW1 5162   1.510   5.565   5.871
 1421SOL    HW2 5163   1.399   5.498   5.772
 1422SOL     OW 5164   2.686   3.190   5.850
 1422SOL    HW1 5165   2.670   3.122   5.778
 1422SOL    HW2 5166   2.759   3.252   5.820
 1423SOL     OW 5167   4.522   1.140   4.586
 1423SOL    HW1 5168   4.599   1.188   4.628
 1423SOL    HW2 5169   4.554   1.094   4.503
 1424SOL     OW 5170   5.353   3.034   6.401
 1424SOL    HW1 5171   5.354   3.082   6.489
 1424SOL    HW2 5172   5.269   3.056   6.352
 1425SOL     OW 5173   4.237   6.968   3.607
 1425SOL    HW1 5174   4.222   6.969   3.706
 1425SOL    HW2 5175   4.237   6.873   3.574
 1426SOL     OW 5176   2.630   1.844   6.928
 1426SOL    HW1 5177   2.597   1.797   7.010
 1426SOL    HW2 5178   2.729   1.834   6.922
 1427SOL     OW 5179   1.388   1.489   3.019
 1427SOL    HW1 5180   1.319   1.543   3.067
 1427SOL    HW2 5181   1.388   1.513   2.922
 1428SOL     OW 5182   6.746   3.574   3.871
 1428SOL    HW1 5183   6.698   3.558   3.957
 1428SOL    HW2 5184   6.828   3.629   3.888
 1429SOL     OW 5185   6.397   1.432   0.930
 1429SOL    HW1 5186   6.371   1.486   0.850
 1429SOL    HW2 5187   6.433   1.344   0.901
 1430SOL     OW 5188   2.079   3.455   3.565
 1430SOL    HW1 5189   2.106   3.429   3.658
 1430SOL    HW2 5190   2.047   3.550   3.565
 1431SOL     OW 5191   2.447   1.709   5.481
 1431SOL    HW1 5192   2.513   1.757   5.538
 1431SOL    HW2 5193   2.354   1.727   5.514
 1432SOL     OW 5194   2.792   1.359   1.405
 1432SOL    HW1 5195   2.760   1.453   1.407
 1432SOL    HW2 5196   2.771   1.318   1.316
 1433SOL     OW 5197   2.919   0.253   4.121
 1433SOL    HW1 5198   2.852   0.312   4.077
 1433SOL    HW2 5199   2.988   0.225   4.055
 1434SOL     OW 5200   6.912   3.371   6.930
 1434SOL    HW1 5201   6.876   3.362   7.023
 1434SOL    HW2 5202   6.837   3.362   6.864
 1435SOL     OW 5203   0.600   6.957   5.017
 1435SOL    HW1 5204   0.618   0.032   5.011
 1435SOL    HW2 5205   0.520   6.934   4.961
 1436SOL     OW 5206   5.402   2.106   0.770
 1436SOL    HW1 5207   5.314   2.058   0.767
 1436SOL    HW2 5208   5.395   2.190   0.716
 1437SOL     OW 5209   4.454   0.735   6.156
 1437SOL    HW1 5210   4.547   0.730   6.193
 1437SOL    HW2 5211   4.403   0.653   6.182
 1438SOL     OW 5212   2.434   0.651   1.724
 1438SOL    HW1 5213   2.428   0.724   1.792
 1438SOL    HW2 5214   2.353   0.653   1.666
 1439SOL     OW 5215   6.755   5.029   0.028
 1439SOL    HW1 5216   6.664   4.990   0.014
 1439SOL    HW2 5217   6.824   4.957   0.023
 1440SOL     OW 5218   3.160   3.624   3.601
 1440SOL    HW1 5219   3.246   3.631   3.549
 1440SOL    HW2 5220   3.151   3.705   3.659
 1441SOL     OW 5221   0.084   2.556   3.560
 1441SOL    HW1 5222   0.032   2.637   3.588
 1441SOL    HW2 5223   0.087   2.491   3.636
 1442SOL     OW 5224   4.826   4.522   0.283
 1442SOL    HW1 5225   4.745   4.463   0.287
 1442SOL    HW2 5226   4.812   4.601   0.342
 1443SOL     OW 5227   0.818   1.751   3.647
 1443SOL    HW1 5228   0.743   1.811   3.673
 1443SOL    HW2 5229   0.858   1.783   3.561
 1444SOL     OW 5230   4.269   0.812   3.740
 1444SOL    HW1 5231   4.266   0.734   3.677
 1444SOL    HW2 5232   4.235   0.893   3.693
 1445SOL     OW 5233   6.532   2.510   1.911
 1445SOL    HW1 5234   6.458   2.565   1.872
 1445SOL    HW2 5235   6.532   2.419   1.868
 1446SOL     OW 5236   3.807   2.001   1.634
 1446SOL    HW1 5237   3.896   2.039   1.608
 1446SOL    HW2 5238   3.803   1.989   1.733
 1447SOL     OW 5239   6.707   1.481   4.480
 1447SOL    HW1 5240   6.758   1.492   4.566
 1447SOL    HW2 5241   6.736   1.397   4.435
 1448SOL     OW 5242   5.594   1.155   6.096
 1448SOL    HW1 5243   5.650   1.132   6.176
 1448SOL    HW2 5244   5.564   1.250   6.102
 1449SOL     OW 5245   4.810   5.722   1.100
 1449SOL    HW1 5246   4.876   5.722   1.025
 1449SOL    HW2 5247   4.852   5.685   1.182
 1450SOL     OW 5248   5.667   2.920   3.166
 1450SOL    HW1 5249   5.743   2.984   3.160
 1450SOL    HW2 5250   5.685   2.841   3.107
 1451SOL     OW 5251   1.280   6.431   2.743
 1451SOL    HW1 5252   1.208   6.386   2.690
 1451SOL    HW2 5253   1.275   6.530   2.731
 1452SOL     OW 5254   5.047   0.589   5.227
 1452SOL    HW1 5255   4.990   0.656   5.275
 1452SOL    HW2 5256   5.124   0.636   5.184
 1453SOL     OW 5257   5.194   4.182   4.718
 1453SOL    HW1 5258   5.108   4.137   4.744
 1453SOL    HW2 5259   5.223   4.244   4.791
 1454SOL     OW 5260   4.909   3.136   1.804
 1454SOL    HW1 5261   4.868   3.130   1.713
 1454SOL    HW2 5262   4.851   3.087   1.869
 1455SOL     OW 5263   1.139   1.816   1.601
 1455SOL    HW1 5264   1.186   1.850   1.683
 1455SOL    HW2 5265   1.041   1.831   1.610
 1456SOL     OW 5266   6.799   6.497   4.224
 1456SOL    HW1 5267   6.882   6.458   4.262
 1456SOL    HW2 5268   6.750   6.548   4.294
 1457SOL     OW 5269   1.678   0.580   3.730
 1457SOL    HW1 5270   1.649   0.641   3.656
 1457SOL    HW2 5271   1.764   0.537   3.706
 1458SOL     OW 5272   5.693   6.087   6.347
 1458SOL    HW1 5273   5.651   6.046   6.428
 1458SOL    HW2 5274   5.736   6.174   6.373
 1459SOL     OW 5275   3.054   6.193   6.880
 1459SOL    HW1 5276   3.033   6.261   6.950
 1459SOL    HW2 5277   2.976   6.185   6.818
 1460SOL     OW 5278   1.391   0.194   6.847
 1460SOL    HW1 5279   1.376   0.136   6.927
 1460SOL    HW2 5280   1.487   0.222   6.843
 1461SOL     OW 5281   5.400   4.498   2.751
 1461SOL    HW1 5282   5.437   4.557   2.823
 1461SOL    HW2 5283   5.459   4.503   2.670
 1462SOL     OW 5284   6.011   0.730   0.315
 1462SOL    HW1 5285   5.927   0.680   0.292
 1462SOL    HW2 5286   6.018   0.811   0.257
 1463SOL     OW 5287   1.261   1.211   5.288
 1463SOL    HW1 5288   1.353   1.172   5.290
 1463SOL    HW2 5289   1.194   1.137   5.280
 1464SOL     OW 5290   0.237   6.385   0.931
 1464SOL    HW1 5291   0.286   6.438   1.000
 1464SOL    HW2 5292   0.291   6.382   0.847
 1465SOL     OW 5293   0.266   0.123   4.871
 1465SOL    HW1 5294   0.287   0.213   4.909
 1465SOL    HW2 5295   0.234   0.133   4.777
 1466SOL     OW 5296   6.064   5.251   3.447
 1466SOL    HW1 5297   6.013   5.188   3.504
 1466SOL    HW2 5298   6.160   5.252   3.476
 1467SOL     OW 5299   1.052   1.255   3.802
 1467SOL    HW1 5300   1.050   1.327   3.870
 1467SOL    HW2 5301   1.031   1.293   3.712
 1468SOL     OW 5302   5.117   6.064   3.610
 1468SOL    HW1 5303   5.206   6.020   3.622
 1468SOL    HW2 5304   5.117   6.152   3.657
 1469SOL     OW 5305   0.803   1.191   2.361
 1469SOL    HW1 5306   0.785   1.106   2.313
 1469SOL    HW2 5307   0.762   1.187   2.453
 1470SOL     OW 5308   1.385   1.336   2.731
 1470SOL    HW1 5309   1.294   1.301   2.710
 1470SOL    HW2 5310   1.439   1.264   2.777
 1471SOL     OW 5311   0.557   0.103   7.020
 1471SOL    HW1 5312   0.541   0.197   0.028
 1471SOL    HW2 5313   0.631   0.063   0.050
 1472SOL     OW 5314   5.020   0.444   6.097
 1472SOL    HW1 5315   5.010   0.532   6.143
 1472SOL    HW2 5316   5.082   0.453   6.019
 1473SOL     OW 5317   6.139   4.333   2.936
 1473SOL    HW1 5318   6.184   4.394   3.001
 1473SOL    HW2 5319   6.043   4.361   2.926
 1474SOL     OW 5320   5.642   5.436   4.342
 1474SOL    HW1 5321   5.641   5.343   4.306
 1474SOL    HW2 5322   5.661   5.501   4.268
 1475SOL     OW 5323   6.677   0.658   2.253
 1475SOL    HW1 5324   6.733   0.620   2.326
 1475SOL    HW2 5325   6.733   0.669   2.171
 1476SOL     OW 5326   0.390   2.160   2.171
 1476SOL    HW1 5327   0.439   2.078   2.200
 1476SOL    HW2 5328   0.312   2.135   2.115
 1477SOL     OW 5329   2.748   6.599   5.387
 1477SOL    HW1 5330   2.718   6.675   5.329
 1477SOL    HW2 5331   2.846   6.606   5.404
 1478SOL     OW 5332   6.022   4.671   0.817
 1478SOL    HW1 5333   6.011   4.708   0.909
 1478SOL    HW2 5334   5.944   4.612   0.795
 1479SOL     OW 5335   1.658   4.473   0.149
 1479SOL    HW1 5336   1.644   4.502   0.244
 1479SOL    HW2 5337   1.599   4.527   0.089
 1480SOL     OW 5338   2.673   1.398   0.584
 1480SOL    HW1 5339   2.656   1.485   0.630
 1480SOL    HW2 5340   2.643   1.403   0.489
 1481SOL     OW 5341   5.812   2.370   5.859
 1481SOL    HW1 5342   5.837   2.393   5.953
 1481SOL    HW2 5343   5.889   2.388   5.798
 1482SOL     OW 5344   6.006   0.673   6.868
 1482SOL    HW1 5345   5.921   0.631   6.896
 1482SOL    HW2 5346   5.992   0.771   6.854
 1483SOL     OW 5347   5.978   2.531   0.326
 1483SOL    HW1 5348   5.997   2.622   0.363
 1483SOL    HW2 5349   6.053   2.503   0.266
 1484SOL     OW 5350   6.703   5.190   2.952
 1484SOL    HW1 5351   6.738   5.281   2.972
 1484SOL    HW2 5352   6.780   5.127   2.937
 1485SOL     OW 5353   5.129   2.474   3.933
 1485SOL    HW1 5354   5.192   2.524   3.873
 1485SOL    HW2 5355   5.126   2.378   3.905
 1486SOL     OW 5356   4.639   1.940   2.639
 1486SOL    HW1 5357   4.698   2.012   2.603
 1486SOL    HW2 5358   4.554   1.937   2.586
 1487SOL     OW 5359   6.355   1.207   5.783
 1487SOL    HW1 5360   6.292   1.225   5.858
 1487SOL    HW2 5361   6.448   1.232   5.811
 1488SOL     OW 5362   4.546   1.179   2.969
 1488SOL    HW1 5363   4.455   1.171   2.927
 1488SOL    HW2 5364   4.612   1.126   2.916
 1489SOL     OW 5365   3.648   5.111   5.195
 1489SOL    HW1 5366   3.588   5.109   5.115
 1489SOL    HW2 5367   3.726   5.051   5.178
 1490SOL     OW 5368   1.398   2.702   0.345
 1490SOL    HW1 5369   1.482   2.667   0.303
 1490SOL    HW2 5370   1.325   2.706   0.277
 1491SOL     OW 5371   0.192   2.961   3.654
 1491SOL    HW1 5372   0.104   2.986   3.693
 1491SOL    HW2 5373   0.214   2.866   3.677
 1492SOL     OW 5374   4.779   1.611   1.552
 1492SOL    HW1 5375   4.786   1.529   1.609
 1492SOL    HW2 5376   4.869   1.656   1.547
 1493SOL     OW 5377   4.863   0.022   5.339
 1493SOL    HW1 5378   4.928   0.012   5.264
 1493SOL    HW2 5379   4.797   6.970   5.337
 1494SOL     OW 5380   4.089   2.206   5.574
 1494SOL    HW1 5381   4.152   2.171   5.643
 1494SOL    HW2 5382   3.996   2.178   5.596
 1495SOL     OW 5383   0.828   3.249   2.447
 1495SOL    HW1 5384   0.831   3.298   2.534
 1495SOL    HW2 5385   0.736   3.258   2.408
 1496SOL     OW 5386   0.097   0.304   2.389
 1496SOL    HW1 5387   0.041   0.226   2.359
 1496SOL    HW2 5388   0.194   0.283   2.372
 1497SOL     OW 5389   6.325   5.252   4.280
 1497SOL    HW1 5390   6.282   5.226   4.193
 1497SOL    HW2 5391   6.333   5.172   4.339
 1498SOL     OW 5392   1.796   5.174   6.769
 1498SOL    HW1 5393   1.713   5.165   6.714
 1498SOL    HW2 5394   1.830   5.083   6.794
 1499SOL     OW 5395   1.170   3.784   4.926
 1499SOL    HW1 5396   1.188   3.835   5.010
 1499SOL    HW2 5397   1.255   3.773   4.874
 1500SOL     OW 5398   5.137   6.480   0.305
 1500SOL    HW1 5399   5.216   6.525   0.345
 1500SOL    HW2 5400   5.102   6.410   0.368
 1501SOL     OW 5401   3.978   0.244   6.636
 1501SOL    HW1 5402   4.047   0.198   6.581
 1501SOL    HW2 5403   4.022   0.302   6.703
 1502SOL     OW 5404   6.282   6.677   0.226
 1502SOL    HW1 5405   6.377   6.707   0.228
 1502SOL    HW2 5406   6.271   6.596   0.283
 1503SOL     OW 5407   3.233   3.026   6.755
 1503SOL    HW1 5408   3.186   3.106   6.793
 1503SOL    HW2 5409   3.169   2.950   6.746
 1504SOL     OW 5410   3.686   6.557   4.758
 1504SOL    HW1 5411   3.775   6.590   4.725
 1504SOL    HW2 5412   3.694   6.460   4.781
 1505SOL     OW 5413   5.925   6.231   6.222
 1505SOL    HW1 5414   5.839   6.184   6.243
 1505SOL    HW2 5415   5.919   6.273   6.131
 1506SOL     OW 5416   1.043   5.997   4.343
 1506SOL    HW1 5417   0.975   6.067   4.366
 1506SOL    HW2 5418   1.109   5.989   4.417
 1507SOL     OW 5419   2.228   1.435   5.165
 1507SOL    HW1 5420   2.144   1.392   5.129
 1507SOL    HW2 5421   2.297   1.365   5.179
 1508SOL     OW 5422   4.540   0.024   0.760
 1508SOL    HW1 5423   4.442   0.033   0.778
 1508SOL    HW2 5424   4.583   7.001   0.838
 1509SOL     OW 5425   4.347   2.982   6.982
 1509SOL    HW1 5426   4.264   2.937   7.015
 1509SOL    HW2 5427   4.325   3.038   6.902
 1510SOL     OW 5428   0.073   1.942   4.016
 1510SOL    HW1 5429   0.099   2.013   3.950
 1510SOL    HW2 5430   7.003   1.958   4.048
 1511SOL     OW 5431   2.694   2.473   0.451
 1511SOL    HW1 5432   2.685   2.508   0.544
 1511SOL    HW2 5433   2.603   2.462   0.410
 1512SOL     OW 5434   0.094   0.933   1.496
 1512SOL    HW1 5435   0.089   1.000   1.570
 1512SOL    HW2 5436   0.185   0.934   1.456
 1513SOL     OW 5437   3.430   6.982   3.814
 1513SOL    HW1 5438   3.396   6.983   3.908
 1513SOL    HW2 5439   3.416   6.891   3.774
 1514SOL     OW 5440   6.040   1.418   4.581
 1514SOL    HW1 5441   5.962   1.477   4.599
 1514SOL    HW2 5442   6.041   1.392   4.484
 1515SOL     OW 5443   0.337   4.371   5.500
 1515SOL    HW1 5444   0.368   4.341   5.410
 1515SOL    HW2 5445   0.383   4.456   5.525
 1516SOL     OW 5446   0.476   1.318   0.850
 1516SOL    HW1 5447   0.574   1.303   0.836
 1516SOL    HW2 5448   0.442   1.383   0.783
 1517SOL     OW 5449   4.772   6.090   3.070
 1517SOL    HW1 5450   4.870   6.104   3.087
 1517SOL    HW2 5451   4.756   6.089   2.971
 1518SOL     OW 5452   6.779   4.459   1.110
 1518SOL    HW1 5453   6.715   4.383   1.118
 1518SOL    HW2 5454   6.738   4.533   1.056
 1519SOL     OW 5455   6.116   4.401   0.960
 1519SOL    HW1 5456   6.170   4.484   0.947
 1519SOL    HW2 5457   6.051   4.392   0.884
 1520SOL     OW 5458   2.097   3.618   2.650
 1520SOL    HW1 5459   2.120   3.529   2.612
 1520SOL    HW2 5460   2.108   3.617   2.749
 1521SOL     OW 5461   2.088   3.254   6.655
 1521SOL    HW1 5462   2.163   3.220   6.712
 1521SOL    HW2 5463   2.087   3.204   6.568
 1522SOL     OW 5464   5.782   1.869   6.668
 1522SOL    HW1 5465   5.752   1.788   6.717
 1522SOL    HW2 5466   5.712   1.940   6.674
 1523SOL     OW 5467   6.388   2.793   1.196
 1523SOL    HW1 5468   6.475   2.749   1.175
 1523SOL    HW2 5469   6.322   2.723   1.224
 1524SOL     OW 5470   0.092   1.094   1.721
 1524SOL    HW1 5471   0.173   1.109   1.779
 1524SOL    HW2 5472   0.042   1.180   1.712
 1525SOL     OW 5473   4.162   1.906   6.077
 1525SOL    HW1 5474   4.227   1.981   6.092
 1525SOL    HW2 5475   4.185   1.858   5.993
 1526SOL     OW 5476   6.774   2.137   1.578
 1526SOL    HW1 5477   6.833   2.177   1.508
 1526SOL    HW2 5478   6.812   2.050   1.609
 1527SOL     OW 5479   3.485   2.014   5.003
 1527SOL    HW1 5480   3.385   2.016   5.004
 1527SOL    HW2 5481   3.516   1.932   4.954
 1528SOL     OW 5482   4.464   6.742   3.377
 1528SOL    HW1 5483   4.542   6.710   3.432
 1528SOL    HW2 5484   4.487   6.831   3.337
 1529SOL     OW 5485   3.649   6.896   6.117
 1529SOL    HW1 5486   3.655   6.831   6.041
 1529SOL    HW2 5487   3.707   6.975   6.097
 1530SOL     OW 5488   2.933   6.338   2.126
 1530SOL    HW1 5489   2.901   6.431   2.147
 1530SOL    HW2 5490   2.936   6.284   2.210
 1531SOL     OW 5491   6.567   0.430   4.129
 1531SOL    HW1 5492   6.662   0.421   4.159
 1531SOL    HW2 5493   6.531   0.519   4.158
 1532SOL     OW 5494   3.413   2.252   5.253
 1532SOL    HW1 5495   3.406   2.183   5.181
 1532SOL    HW2 5496   3.345   2.324   5.237
 1533SOL     OW 5497   6.134   3.536   6.689
 1533SOL    HW1 5498   6.219   3.551   6.639
 1533SOL    HW2 5499   6.154   3.512   6.783
 1534SOL     OW 5500   0.752   5.904   0.744
 1534SOL    HW1 5501   0.681   5.915   0.813
 1534SOL    HW2 5502   0.841   5.895   0.789
 1535SOL     OW 5503   4.894   4.469   3.896
 1535SOL    HW1 5504   4.854   4.387   3.856
 1535SOL    HW2 5505   4.826   4.514   3.954
 1536SOL     OW 5506   2.940   5.835   5.026
 1536SOL    HW1 5507   2.916   5.748   4.984
 1536SOL    HW2 5508   2.899   5.840   5.118
 1537SOL     OW 5509   1.875   5.223   4.676
 1537SOL    HW1 5510   1.793   5.244   4.622
 1537SOL    HW2 5511   1.950   5.283   4.647
 1538SOL     OW 5512   2.587   5.070   0.278
 1538SOL    HW1 5513   2.658   5.091   0.345
 1538SOL    HW2 5514   2.523   5.146   0.273
 1539SOL     OW 5515   3.802   4.858   1.537
 1539SOL    HW1 5516   3.792   4.901   1.447
 1539SOL    HW2 5517   3.712   4.844   1.578
 1540SOL     OW 5518   0.554   0.235   5.333
 1540SOL    HW1 5519   0.500   0.171   5.388
 1540SOL    HW2 5520   0.527   0.329   5.355
 1541SOL     OW 5521   4.492   2.593   1.264
 1541SOL    HW1 5522   4.473   2.554   1.174
 1541SOL    HW2 5523   4.453   2.684   1.270
 1542SOL     OW 5524   0.331   6.337   1.632
 1542SOL    HW1 5525   0.370   6.255   1.675
 1542SOL    HW2 5526   0.333   6.413   1.697
 1543SOL     OW 5527   3.584   3.663   3.860
 1543SOL    HW1 5528   3.572   3.731   3.932
 1543SOL    HW2 5529   3.672   3.617   3.871
 1544SOL     OW 5530   3.267   3.893   2.729
 1544SOL    HW1 5531   3.203   3.858   2.661
 1544SOL    HW2 5532   3.358   3.856   2.711
 1545SOL     OW 5533   6.354   0.588   4.627
 1545SOL    HW1 5534   6.449   0.572   4.653
 1545SOL    HW2 5535   6.303   0.622   4.705
 1546SOL     OW 5536   6.564   5.729   6.353
 1546SOL    HW1 5537   6.661   5.710   6.343
 1546SOL    HW2 5538   6.550   5.828   6.365
 1547SOL     OW 5539   2.756   5.419   2.495
 1547SOL    HW1 5540   2.716   5.435   2.585
 1547SOL    HW2 5541   2.818   5.341   2.499
 1548SOL     OW 5542   4.746   4.195   4.828
 1548SOL    HW1 5543   4.723   4.146   4.744
 1548SOL    HW2 5544   4.729   4.293   4.816
 1549SOL     OW 5545   6.630   2.681   1.233
 1549SOL    HW1 5546   6.691   2.734   1.292
 1549SOL    HW2 5547   6.621   2.588   1.269
 1550SOL     OW 5548   1.994   6.186   4.680
 1550SOL    HW1 5549   1.973   6.242   4.761
 1550SOL    HW2 5550   2.032   6.099   4.709
 1551SOL     OW 5551   1.936   3.273   1.157
 1551SOL    HW1 5552   1.969   3.205   1.222
 1551SOL    HW2 5553   2.002   3.348   1.151
 1552SOL     OW 5554   1.099   1.053   1.215
 1552SOL    HW1 5555   1.022   1.035   1.154
 1552SOL    HW2 5556   1.086   1.004   1.301
 1553SOL     OW 5557   5.998   1.607   6.593
 1553SOL    HW1 5558   5.902   1.582   6.584
 1553SOL    HW2 5559   6.005   1.693   6.644
 1554SOL     OW 5560   3.951   1.858   2.227
 1554SOL    HW1 5561   3.939   1.935   2.289
 1554SOL    HW2 5562   3.870   1.848   2.169
 1555SOL     OW 5563   3.737   1.346   5.384
 1555SOL    HW1 5564   3.742   1.246   5.377
 1555SOL    HW2 5565   3.657   1.370   5.439
 1556SOL     OW 5566   3.971   0.435   0.868
 1556SOL    HW1 5567   3.962   0.489   0.952
 1556SOL    HW2 5568   4.065   0.436   0.836
 1557SOL     OW 5569   1.729   2.051   1.186
 1557SOL    HW1 5570   1.753   2.095   1.100
 1557SOL    HW2 5571   1.674   2.113   1.242
 1558SOL     OW 5572   6.200   3.485   5.410
 1558SOL    HW1 5573   6.103   3.465   5.423
 1558SOL    HW2 5574   6.210   3.559   5.342
 1559SOL     OW 5575   1.838   4.405   3.007
 1559SOL    HW1 5576   1.871   4.492   2.973
 1559SOL    HW2 5577   1.782   4.360   2.936
 1560SOL     OW 5578   3.582   1.537   1.251
 1560SOL    HW1 5579   3.553   1.515   1.344
 1560SOL    HW2 5580   3.600   1.452   1.201
 1561SOL     OW 5581   5.420   6.134   1.822
 1561SOL    HW1 5582   5.326   6.101   1.824
 1561SOL    HW2 5583   5.421   6.233   1.838
 1562SOL     OW 5584   3.191   0.009   1.775
 1562SOL    HW1 5585   3.166   6.971   1.700
 1562SOL    HW2 5586   3.187   6.982   1.862
 1563SOL     OW 5587   3.968   2.203   4.266
 1563SOL    HW1 5588   3.970   2.146   4.184
 1563SOL    HW2 5589   3.877   2.201   4.306
 1564SOL     OW 5590   0.922   2.082   2.418
 1564SOL    HW1 5591   1.013   2.042   2.411
 1564SOL    HW2 5592   0.930   2.176   2.452
 1565SOL     OW 5593   3.664   0.343   3.424
 1565SOL    HW1 5594   3.704   0.356   3.515
 1565SOL    HW2 5595   3.704   0.408   3.360
 1566SOL     OW 5596   4.753   4.443   2.960
 1566SOL    HW1 5597   4.803   4.519   3.001
 1566SOL    HW2 5598   4.754   4.365   3.023
 1567SOL     OW 5599   5.435   6.024   5.486
 1567SOL    HW1 5600   5.521   6.073   5.476
 1567SOL    HW2 5601   5.388   6.056   5.568
 1568SOL     OW 5602   2.060   6.219   2.682
 1568SOL    HW1 5603   2.145   6.225   2.734
 1568SOL    HW2 5604   1.999   6.154   2.726
 1569SOL     OW 5605   2.482   0.005   3.137
 1569SOL    HW1 5606   2.517   0.081   3.082
 1569SOL    HW2 5607   2.415   6.976   3.083
 1570SOL     OW 5608   3.351   6.953   0.239
 1570SOL    HW1 5609   3.296   7.005   0.304
 1570SOL    HW2 5610   3.446   6.985   0.242
 1571SOL     OW 5611   1.171   2.493   3.800
 1571SOL    HW1 5612   1.129   2.528   3.884
 1571SOL    HW2 5613   1.154   2.394   3.793
 1572SOL     OW 5614   1.591   5.284   1.757
 1572SOL    HW1 5615   1.520   5.337   1.711
 1572SOL    HW2 5616   1.632   5.340   1.830
 1573SOL     OW 5617   4.768   4.565   1.297
 1573SOL    HW1 5618   4.730   4.508   1.224
 1573SOL    HW2 5619   4.774   4.512   1.382
 1574SOL     OW 5620   6.750   3.499   2.267
 1574SOL    HW1 5621   6.685   3.471   2.196
 1574SOL    HW2 5622   6.738   3.596   2.287
 1575SOL     OW 5623   0.464   1.041   0.800
 1575SOL    HW1 5624   0.539   1.024   0.736
 1575SOL    HW2 5625   0.464   1.137   0.826
 1576SOL     OW 5626   0.409   6.232   1.967
 1576SOL    HW1 5627   0.412   6.160   2.037
 1576SOL    HW2 5628   0.317   6.272   1.965
 1577SOL     OW 5629   4.116   6.984   6.325
 1577SOL    HW1 5630   4.113   0.043   6.267
 1577SOL    HW2 5631   4.170   7.004   6.408
 1578SOL     OW 5632   4.694   0.713   0.292
 1578SOL    HW1 5633   4.699   0.714   0.192
 1578SOL    HW2 5634   4.632   0.639   0.321
 1579SOL     OW 5635   2.059   2.441   1.794
 1579SOL    HW1 5636   2.139   2.444   1.734
 1579SOL    HW2 5637   2.087   2.408   1.885
 1580SOL     OW 5638   3.394   4.140   3.107
 1580SOL    HW1 5639   3.443   4.148   3.020
 1580SOL    HW2 5640   3.423   4.058   3.155
 1581SOL     OW 5641   0.014   4.143   6.016
 1581SOL    HW1 5642   0.083   4.078   6.046
 1581SOL    HW2 5643   6.968   4.096   5.960
 1582SOL     OW 5644   4.499   6.323   6.110
 1582SOL    HW1 5645   4.561   6.327   6.188
 1582SOL    HW2 5646   4.441   6.404   6.108
 1583SOL     OW 5647   1.029   5.774   5.604
 1583SOL    HW1 5648   1.005   5.680   5.579
 1583SOL    HW2 5649   1.117   5.776   5.650
 1584SOL     OW 5650   0.726   5.079   6.521
 1584SOL    HW1 5651   0.754   5.143   6.592
 1584SOL    HW2 5652   0.626   5.082   6.511
 1585SOL     OW 5653   4.128   6.950   3.064
 1585SOL    HW1 5654   4.058   7.012   3.097
 1585SOL    HW2 5655   4.089   6.890   2.993
 1586SOL     OW 5656   2.933   5.757   4.229
 1586SOL    HW1 5657   2.947   5.659   4.242
 1586SOL    HW2 5658   2.837   5.776   4.212
 1587SOL     OW 5659   2.002   6.200   6.210
 1587SOL    HW1 5660   2.055   6.231   6.288
 1587SOL    HW2 5661   1.976   6.278   6.153
 1588SOL     OW 5662   6.162   6.982   2.350
 1588SOL    HW1 5663   6.219   0.019   2.294
 1588SOL    HW2 5664   6.088   0.013   2.392
 1589SOL     OW 5665   6.490   4.097   2.906
 1589SOL    HW1 5666   6.462   4.139   2.993
 1589SOL    HW2 5667   6.457   4.152   2.830
 1590SOL     OW 5668   6.637   1.676   3.375
 1590SOL    HW1 5669   6.542   1.669   3.408
 1590SOL    HW2 5670   6.688   1.739   3.434
 1591SOL     OW 5671   0.335   5.735   1.184
 1591SOL    HW1 5672   0.239   5.728   1.156
 1591SOL    HW2 5673   0.368   5.827   1.167
 1592SOL     OW 5674   1.462   4.235   6.815
 1592SOL    HW1 5675   1.364   4.226   6.833
 1592SOL    HW2 5676   1.511   4.241   6.901
 1593SOL     OW 5677   0.776   6.769   6.856
 1593SOL    HW1 5678   0.838   6.693   6.836
 1593SOL    HW2 5679   0.716   6.744   6.932
 1594SOL     OW 5680   6.715   0.390   1.556
 1594SOL    HW1 5681   6.625   0.363   1.590
 1594SOL    HW2 5682   6.786   0.337   1.604
 1595SOL     OW 5683   1.476   3.586   6.630
 1595SOL    HW1 5684   1.494   3.642   6.710
 1595SOL    HW2 5685   1.562   3.548   6.595
 1596SOL     OW 5686   5.790   4.344   2.383
 1596SOL    HW1 5687   5.820   4.252   2.355
 1596SOL    HW2 5688   5.862   4.410   2.362
 1597SOL     OW 5689   3.270   5.942   0.927
 1597SOL    HW1 5690   3.197   5.927   0.994
 1597SOL    HW2 5691   3.233   5.935   0.834
 1598SOL     OW 5692   1.448   5.691   6.972
 1598SOL    HW1 5693   1.424   5.786   6.991
 1598SOL    HW2 5694   1.422   5.669   6.878
 1599SOL     OW 5695   4.132   5.030   3.839
 1599SOL    HW1 5696   4.116   5.109   3.898
 1599SOL    HW2 5697   4.068   4.957   3.863
 1600SOL     OW 5698   3.322   0.355   2.644
 1600SOL    HW1 5699   3.321   0.259   2.671
 1600SOL    HW2 5700   3.362   0.410   2.718
 1601SOL     OW 5701   6.616   0.039   3.967
 1601SOL    HW1 5702   6.606   6.994   4.039
 1601SOL    HW2 5703   6.707   0.082   3.974
 1602SOL     OW 5704   4.325   5.257   4.141
 1602SOL    HW1 5705   4.240   5.228   4.098
 1602SOL    HW2 5706   4.388   5.293   4.072
 1603SOL     OW 5707   2.816   6.377   4.073
 1603SOL    HW1 5708   2.808   6.279   4.094
 1603SOL    HW2 5709   2.771   6.396   3.986
 1604SOL     OW 5710   3.887   5.006   2.056
 1604SOL    HW1 5711   3.814   4.979   1.994
 1604SOL    HW2 5712   3.918   4.927   2.109
 1605SOL     OW 5713   4.780   4.888   1.909
 1605SOL    HW1 5714   4.765   4.909   2.006
 1605SOL    HW2 5715   4.698   4.843   1.871
 1606SOL     OW 5716   4.462   6.338   4.423
 1606SOL    HW1 5717   4.533   6.288   4.376
 1606SOL    HW2 5718   4.503   6.412   4.477
 1607SOL     OW 5719   4.478   6.381   2.669
 1607SOL    HW1 5720   4.388   6.399   2.630
 1607SOL    HW2 5721   4.467   6.344   2.761
 1608SOL     OW 5722   6.784   0.500   3.053
 1608SOL    HW1 5723   6.797   0.547   2.965
 1608SOL    HW2 5724   6.780   0.568   3.126
 1609SOL     OW 5725   3.002   6.664   0.774
 1609SOL    HW1 5726   3.074   6.613   0.729
 1609SOL    HW2 5727   3.009   6.761   0.748
 1610SOL     OW 5728   4.151   6.962   0.203
 1610SOL    HW1 5729   4.240   6.919   0.216
 1610SOL    HW2 5730   4.094   6.905   0.144
 1611SOL     OW 5731   0.531   4.052   1.453
 1611SOL    HW1 5732   0.619   4.095   1.472
 1611SOL    HW2 5733   0.471   4.119   1.408
 1612SOL     OW 5734   3.035   6.253   0.993
 1612SOL    HW1 5735   3.063   6.250   0.897
 1612SOL    HW2 5736   2.937   6.235   0.999
 1613SOL     OW 5737   0.314   5.586   2.391
 1613SOL    HW1 5738   0.237   5.578   2.454
 1613SOL    HW2 5739   0.386   5.523   2.418
 1614SOL     OW 5740   5.453   2.810   6.631
 1614SOL    HW1 5741   5.486   2.767   6.547
 1614SOL    HW2 5742   5.469   2.749   6.709
 1615SOL     OW 5743   0.476   5.101   6.480
 1615SOL    HW1 5744   0.443   5.042   6.553
 1615SOL    HW2 5745   0.425   5.081   6.396
 1616SOL     OW 5746   2.879   0.982   5.641
 1616SOL    HW1 5747   2.789   0.954   5.607
 1616SOL    HW2 5748   2.899   0.934   5.726
 1617SOL     OW 5749   4.824   6.870   3.498
 1617SOL    HW1 5750   4.891   6.864   3.572
 1617SOL    HW2 5751   4.754   6.938   3.523
 1618SOL     OW 5752   2.556   5.755   3.165
 1618SOL    HW1 5753   2.635   5.755   3.226
 1618SOL    HW2 5754   2.546   5.666   3.122
 1619SOL     OW 5755   0.979   5.330   6.762
 1619SOL    HW1 5756   0.889   5.339   6.719
 1619SOL    HW2 5757   0.968   5.301   6.857
 1620SOL     OW 5758   3.309   5.293   1.052
 1620SOL    HW1 5759   3.245   5.229   1.010
 1620SOL    HW2 5760   3.362   5.246   1.123
 1621SOL     OW 5761   5.931   6.464   1.286
 1621SOL    HW1 5762   6.024   6.498   1.297
 1621SOL    HW2 5763   5.875   6.494   1.364
 1622SOL     OW 5764   0.804   3.504   4.980
 1622SOL    HW1 5765   0.838   3.484   5.072
 1622SOL    HW2 5766   0.870   3.562   4.932
 1623SOL     OW 5767   0.616   2.283   4.757
 1623SOL    HW1 5768   0.594   2.187   4.742
 1623SOL    HW2 5769   0.601   2.306   4.853
 1624SOL     OW 5770   3.973   1.431   0.538
 1624SOL    HW1 5771   4.054   1.490   0.536
 1624SOL    HW2 5772   3.979   1.368   0.615
 1625SOL     OW 5773   1.842   5.075   0.611
 1625SOL    HW1 5774   1.869   5.120   0.526
 1625SOL    HW2 5775   1.779   5.000   0.590
 1626SOL     OW 5776   3.087   2.144   1.352
 1626SOL    HW1 5777   3.057   2.160   1.257
 1626SOL    HW2 5778   3.007   2.125   1.409
 1627SOL     OW 5779   4.688   2.388   4.126
 1627SOL    HW1 5780   4.732   2.409   4.038
 1627SOL    HW2 5781   4.751   2.334   4.182
 1628SOL     OW 5782   5.034   6.185   6.496
 1628SOL    HW1 5783   5.075   6.184   6.405
 1628SOL    HW2 5784   5.104   6.206   6.565
 1629SOL     OW 5785   2.939   1.837   3.075
 1629SOL    HW1 5786   3.029   1.880   3.070
 1629SOL    HW2 5787   2.889   1.873   3.153
 1630SOL     OW 5788   0.627   4.073   0.104
 1630SOL    HW1 5789   0.706   4.135   0.101
 1630SOL    HW2 5790   0.568   4.097   0.181
 1631SOL     OW 5791   0.238   3.492   1.051
 1631SOL    HW1 5792   0.167   3.542   1.100
 1631SOL    HW2 5793   0.279   3.551   0.981
 1632SOL     OW 5794   5.893   4.383   2.834
 1632SOL    HW1 5795   5.816   4.390   2.897
 1632SOL    HW2 5796   5.887   4.455   2.766
 1633SOL     OW 5797   4.933   3.727   3.820
 1633SOL    HW1 5798   4.871   3.655   3.789
 1633SOL    HW2 5799   5.017   3.724   3.765
 1634SOL     OW 5800   4.622   0.644   4.791
 1634SOL    HW1 5801   4.572   0.611   4.872
 1634SOL    HW2 5802   4.711   0.598   4.786
 1635SOL     OW 5803   3.794   4.831   5.401
 1635SOL    HW1 5804   3.809   4.734   5.380
 1635SOL    HW2 5805   3.697   4.852   5.392
 1636SOL     OW 5806   4.721   5.792   1.728
 1636SOL    HW1 5807   4.804   5.804   1.782
 1636SOL    HW2 5808   4.711   5.696   1.704
 1637SOL     OW 5809   0.047   6.574   2.291
 1637SOL    HW1 5810   7.010   6.563   2.370
 1637SOL    HW2 5811   0.110   6.497   2.285
 1638SOL     OW 5812   6.775   3.240   1.771
 1638SOL    HW1 5813   6.721   3.324   1.776
 1638SOL    HW2 5814   6.774   3.204   1.678
 1639SOL     OW 5815   5.763   3.793   2.229
 1639SOL    HW1 5816   5.664   3.787   2.244
 1639SOL    HW2 5817   5.783   3.862   2.160
 1640SOL     OW 5818   6.438   0.058   0.848
 1640SOL    HW1 5819   6.450   0.152   0.878
 1640SOL    HW2 5820   6.524   0.023   0.810
 1641SOL     OW 5821   0.151   2.536   3.027
 1641SOL    HW1 5822   0.229   2.582   3.070
 1641SOL    HW2 5823   0.083   2.514   3.097
 1642SOL     OW 5824   5.851   2.937   5.785
 1642SOL    HW1 5825   5.758   2.928   5.751
 1642SOL    HW2 5826   5.893   3.018   5.744
 1643SOL     OW 5827   3.654   5.356   4.550
 1643SOL    HW1 5828   3.594   5.312   4.483
 1643SOL    HW2 5829   3.713   5.287   4.591
 1644SOL     OW 5830   5.982   3.302   0.567
 1644SOL    HW1 5831   5.977   3.224   0.630
 1644SOL    HW2 5832   5.891   3.338   0.552
 1645SOL     OW 5833   2.917   0.865   6.139
 1645SOL    HW1 5834   2.880   0.822   6.222
 1645SOL    HW2 5835   2.846   0.923   6.098
 1646SOL     OW 5836   1.117   5.790   0.304
 1646SOL    HW1 5837   1.132   5.874   0.254
 1646SOL    HW2 5838   1.135   5.711   0.245
 1647SOL     OW 5839   6.278   2.813   4.651
 1647SOL    HW1 5840   6.359   2.754   4.651
 1647SOL    HW2 5841   6.294   2.890   4.713
 1648SOL     OW 5842   4.737   5.708   0.725
 1648SOL    HW1 5843   4.745   5.796   0.772
 1648SOL    HW2 5844   4.735   5.723   0.626
 1649SOL     OW 5845   3.209   0.558   3.294
 1649SOL    HW1 5846   3.226   0.583   3.199
 1649SOL    HW2 5847   3.130   0.497   3.299
 1650SOL     OW 5848   2.574   5.420   6.460
 1650SOL    HW1 5849   2.520   5.373   6.530
 1650SOL    HW2 5850   2.565   5.371   6.373
 1651SOL     OW 5851   0.719   2.786   4.005
 1651SOL    HW1 5852   0.649   2.763   4.072
 1651SOL    HW2 5853   0.675   2.812   3.919
 1652SOL     OW 5854   1.048   2.667   1.467
 1652SOL    HW1 5855   1.101   2.695   1.547
 1652SOL    HW2 5856   1.092   2.589   1.424
 1653SOL     OW 5857   6.698   5.150   2.574
 1653SOL    HW1 5858   6.608   5.114   2.600
 1653SOL    HW2 5859   6.688   5.245   2.545
 1654SOL     OW 5860   0.450   2.796   1.653
 1654SOL    HW1 5861   0.532   2.828   1.701
 1654SOL    HW2 5862   0.477   2.730   1.583
 1655SOL     OW 5863   0.013   1.212   4.533
 1655SOL    HW1 5864   6.984   1.257   4.606
 1655SOL    HW2 5865   0.107   1.247   4.533
 1656SOL     OW 5866   2.521   5.431   4.393
 1656SOL    HW1 5867   2.446   5.496   4.385
 1656SOL    HW2 5868   2.556   5.409   4.302
 1657SOL     OW 5869   0.165   0.622   5.595
 1657SOL    HW1 5870   0.188   0.693   5.528
 1657SOL    HW2 5871   0.155   0.662   5.685
 1658SOL     OW 5872   6.824   6.957   0.470
 1658SOL    HW1 5873   6.749   6.907   0.513
 1658SOL    HW2 5874   6.801   0.031   0.465
 1659SOL     OW 5875   4.370   0.017   6.762
 1659SOL    HW1 5876   4.442   6.995   6.708
 1659SOL    HW2 5877   4.374   0.116   6.746
 1660SOL     OW 5878   1.659   6.416   2.186
 1660SOL    HW1 5879   1.582   6.404   2.250
 1660SOL    HW2 5880   1.625   6.454   2.100
 1661SOL     OW 5881   3.254   5.025   2.434
 1661SOL    HW1 5882   3.352   5.044   2.433
 1661SOL    HW2 5883   3.213   5.065   2.516
 1662SOL     OW 5884   6.970   1.478   5.607
 1662SOL    HW1 5885   7.019   1.566   5.612
 1662SOL    HW2 5886   7.007   1.416   5.676
 1663SOL     OW 5887   4.570   4.772   1.786
 1663SOL    HW1 5888   4.580   4.744   1.690
 1663SOL    HW2 5889   4.562   4.690   1.843
 1664SOL     OW 5890   0.687   0.080   5.646
 1664SOL    HW1 5891   0.739   0.147   5.592
 1664SOL    HW2 5892   0.605   0.054   5.595
 1665SOL     OW 5893   1.766   3.792   0.834
 1665SOL    HW1 5894   1.707   3.852   0.887
 1665SOL    HW2 5895   1.811   3.727   0.896
 1666SOL     OW 5896   5.302   0.138   6.375
 1666SOL    HW1 5897   5.255   0.061   6.418
 1666SOL    HW2 5898   5.384   0.105   6.327
 1667SOL     OW 5899   0.360   6.893   0.805
 1667SOL    HW1 5900   0.451   6.925   0.778
 1667SOL    HW2 5901   0.366   6.846   0.893
 1668SOL     OW 5902   5.071   4.785   3.983
 1668SOL    HW1 5903   5.091   4.805   4.079
 1668SOL    HW2 5904   4.974   4.764   3.972
 1669SOL     OW 5905   0.531   3.400   5.737
 1669SOL    HW1 5906   0.624   3.423   5.768
 1669SOL    HW2 5907   0.493   3.477   5.686
 1670SOL     OW 5908   1.695   4.676   6.013
 1670SOL    HW1 5909   1.671   4.681   5.916
 1670SOL    HW2 5910   1.786   4.716   6.026
 1671SOL     OW 5911   5.022   1.548   2.063
 1671SOL    HW1 5912   5.023   1.463   2.116
 1671SOL    HW2 5913   4.999   1.527   1.967
 1672SOL     OW 5914   0.807   3.048   7.016
 1672SOL    HW1 5915   0.892   3.000   6.994
 1672SOL    HW2 5916   0.821   3.146   7.004
 1673SOL     OW 5917   2.613   1.476   4.476
 1673SOL    HW1 5918   2.589   1.387   4.438
 1673SOL    HW2 5919   2.530   1.529   4.494
 1674SOL     OW 5920   4.999   2.876   2.361
 1674SOL    HW1 5921   4.901   2.860   2.359
 1674SOL    HW2 5922   5.040   2.850   2.274
 1675SOL     OW 5923   5.729   0.908   1.305
 1675SOL    HW1 5924   5.819   0.864   1.306
 1675SOL    HW2 5925   5.680   0.881   1.223
 1676SOL     OW 5926   1.841   2.517   2.861
 1676SOL    HW1 5927   1.881   2.596   2.909
 1676SOL    HW2 5928   1.914   2.463   2.820
 1677SOL     OW 5929   3.663   3.713   3.114
 1677SOL    HW1 5930   3.627   3.620   3.121
 1677SOL    HW2 5931   3.748   3.720   3.165
 1678SOL     OW 5932   0.393   6.288   0.663
 1678SOL    HW1 5933   0.369   6.372   0.616
 1678SOL    HW2 5934   0.485   6.259   0.635
 1679SOL     OW 5935   1.951   2.018   5.219
 1679SOL    HW1 5936   1.961   1.964   5.303
 1679SOL    HW2 5937   1.865   2.069   5.222
 1680SOL     OW 5938   5.227   2.890   4.552
 1680SOL    HW1 5939   5.326   2.904   4.551
 1680SOL    HW2 5940   5.183   2.961   4.606
 1681SOL     OW 5941   1.767   5.806   4.080
 1681SOL    HW1 5942   1.756   5.713   4.046
 1681SOL    HW2 5943   1.817   5.805   4.166
 1682SOL     OW 5944   2.908   6.925   5.324
 1682SOL    HW1 5945   2.923   6.907   5.422
 1682SOL    HW2 5946   2.885   7.021   5.311
 1683SOL     OW 5947   5.833   4.858   2.590
 1683SOL    HW1 5948   5.927   4.890   2.600
 1683SOL    HW2 5949   5.788   4.855   2.679
 1684SOL     OW 5950   1.685   4.609   1.601
 1684SOL    HW1 5951   1.723   4.584   1.512
 1684SOL    HW2 5952   1.758   4.647   1.658
 1685SOL     OW 5953   1.325   1.808   5.948
 1685SOL    HW1 5954   1.387   1.752   5.894
 1685SOL    HW2 5955   1.232   1.774   5.939
 1686SOL     OW 5956   4.743   5.584   3.581
 1686SOL    HW1 5957   4.663   5.639   3.556
 1686SOL    HW2 5958   4.823   5.644   3.591
 1687SOL     OW 5959   0.212   3.715   2.459
 1687SOL    HW1 5960   0.240   3.733   2.365
 1687SOL    HW2 5961   0.212   3.616   2.476
 1688SOL     OW 5962   1.984   2.193   3.379
 1688SOL    HW1 5963   2.067   2.241   3.408
 1688SOL    HW2 5964   1.968   2.114   3.437
 1689SOL     OW 5965   6.616   0.970   2.138
 1689SOL    HW1 5966   6.557   1.000   2.213
 1689SOL    HW2 5967   6.569   0.899   2.085
 1690SOL     OW 5968   0.633   3.737   3.993
 1690SOL    HW1 5969   0.557   3.735   4.058
 1690SOL    HW2 5970   0.692   3.815   4.012
 1691SOL     OW 5971   5.001   3.137   4.601
 1691SOL    HW1 5972   4.947   3.116   4.682
 1691SOL    HW2 5973   4.942   3.136   4.520
 1692SOL     OW 5974   5.664   5.244   2.192
 1692SOL    HW1 5975   5.589   5.182   2.214
 1692SOL    HW2 5976   5.744   5.190   2.163
 1693SOL     OW 5977   6.865   1.356   5.365
 1693SOL    HW1 5978   6.901   1.426   5.302
 1693SOL    HW2 5979   6.932   1.339   5.437
 1694SOL     OW 5980   6.243   1.164   4.922
 1694SOL    HW1 5981   6.191   1.144   5.005
 1694SOL    HW2 5982   6.181   1.160   4.843
 1695SOL     OW 5983   3.673   0.759   0.036
 1695SOL    HW1 5984   3.627   0.847   0.023
 1695SOL    HW2 5985   3.689   0.716   6.970
 1696SOL     OW 5986   4.226   5.553   0.262
 1696SOL    HW1 5987   4.287   5.629   0.281
 1696SOL    HW2 5988   4.278   5.477   0.223
 1697SOL     OW 5989   5.979   2.382   1.101
 1697SOL    HW1 5990   5.921   2.315   1.056
 1697SOL    HW2 5991   5.923   2.459   1.132
 1698SOL     OW 5992   3.374   0.778   2.111
 1698SOL    HW1 5993   3.419   0.837   2.044
 1698SOL    HW2 5994   3.315   0.713   2.064
 1699SOL     OW 5995   2.598   1.197   6.731
 1699SOL    HW1 5996   2.563   1.199   6.825
 1699SOL    HW2 5997   2.697   1.189   6.732
 1700SOL     OW 5998   6.110   3.532   3.551
 1700SOL    HW1 5999   6.112   3.561   3.456
 1700SOL    HW2 6000   6.187   3.471   3.570
 1701SOL     OW 6001   6.428   4.597   4.823
 1701SOL    HW1 6002   6.527   4.612   4.814
 1701SOL    HW2 6003   6.394   4.557   4.738
 1702SOL     OW 6004   2.118   1.823   6.058
 1702SOL    HW1 6005   2.047   1.867   6.003
 1702SOL    HW2 6006   2.108   1.851   6.153
 1703SOL     OW 6007   3.086   1.413   6.293
 1703SOL    HW1 6008   2.990   1.432   6.269
 1703SOL    HW2 6009   3.146   1.447   6.220
 1704SOL     OW 6010   2.518   1.608   0.683
 1704SOL    HW1 6011   2.562   1.626   0.771
 1704SOL    HW2 6012   2.448   1.677   0.666
 1705SOL     OW 6013   3.557   1.525   1.826
 1705SOL    HW1 6014   3.535   1.619   1.852
 1705SOL    HW2 6015   3.623   1.487   1.891
 1706SOL     OW 6016   4.648   2.035   0.773
 1706SOL    HW1 6017   4.696   1.983   0.703
 1706SOL    HW2 6018   4.560   2.067   0.736
 1707SOL     OW 6019   4.722   1.503   2.539
 1707SOL    HW1 6020   4.754   1.430   2.479
 1707SOL    HW2 6021   4.639   1.544   2.502
 1708SOL     OW 6022   3.221   5.248   2.239
 1708SOL    HW1 6023   3.216   5.151   2.263
 1708SOL    HW2 6024   3.140   5.272   2.184
 1709SOL     OW 6025   4.956   5.573   0.800
 1709SOL    HW1 6026   4.871   5.620   0.775
 1709SOL    HW2 6027   4.991   5.524   0.720
 1710SOL     OW 6028   4.534   5.224   3.317
 1710SOL    HW1 6029   4.475   5.295   3.278
 1710SOL    HW2 6030   4.600   5.266   3.379
 1711SOL     OW 6031   3.740   6.101   5.829
 1711SOL    HW1 6032   3.723   6.005   5.809
 1711SOL    HW2 6033   3.793   6.109   5.913
 1712SOL     OW 6034   0.200   2.167   4.817
 1712SOL    HW1 6035   0.224   2.261   4.793
 1712SOL    HW2 6036   0.145   2.167   4.900
 1713SOL     OW 6037   3.852   0.593   2.939
 1713SOL    HW1 6038   3.929   0.657   2.936
 1713SOL    HW2 6039   3.836   0.556   2.847
 1714SOL     OW 6040   4.042   2.521   6.896
 1714SOL    HW1 6041   4.074   2.611   6.928
 1714SOL    HW2 6042   3.942   2.519   6.895
 1715SOL     OW 6043   1.153   6.396   2.402
 1715SOL    HW1 6044   1.158   6.360   2.496
 1715SOL    HW2 6045   1.058   6.417   2.379
 1716SOL     OW 6046   5.092   0.785   4.339
 1716SOL    HW1 6047   5.134   0.701   4.305
 1716SOL    HW2 6048   5.142   0.864   4.303
 1717SOL     OW 6049   4.033   6.368   5.479
 1717SOL    HW1 6050   4.088   6.287   5.462
 1717SOL    HW2 6051   4.066   6.414   5.562
 1718SOL     OW 6052   2.136   2.357   2.042
 1718SOL    HW1 6053   2.171   2.266   2.064
 1718SOL    HW2 6054   2.153   2.419   2.118
 1719SOL     OW 6055   1.039   4.587   1.498
 1719SOL    HW1 6056   1.109   4.567   1.566
 1719SOL    HW2 6057   1.034   4.513   1.432
 1720SOL     OW 6058   6.776   2.710   5.951
 1720SOL    HW1 6059   6.821   2.799   5.960
 1720SOL    HW2 6060   6.702   2.716   5.885
 1721SOL     OW 6061   0.972   1.272   1.976
 1721SOL    HW1 6062   1.033   1.342   2.013
 1721SOL    HW2 6063   0.987   1.264   1.877
 1722SOL     OW 6064   3.402   2.076   2.603
 1722SOL    HW1 6065   3.378   2.089   2.507
 1722SOL    HW2 6066   3.318   2.060   2.656
 1723SOL     OW 6067   5.093   2.147   6.810
 1723SOL    HW1 6068   5.070   2.243   6.793
 1723SOL    HW2 6069   5.153   2.141   6.890
 1724SOL     OW 6070   6.146   2.609   1.352
 1724SOL    HW1 6071   6.074   2.565   1.298
 1724SOL    HW2 6072   6.214   2.541   1.379
 1725SOL     OW 6073   2.408   5.046   6.540
 1725SOL    HW1 6074   2.459   5.045   6.625
 1725SOL    HW2 6075   2.340   4.973   6.540
 1726SOL     OW 6076   5.658   4.978   3.769
 1726SOL    HW1 6077   5.701   4.888   3.768
 1726SOL    HW2 6078   5.665   5.018   3.860
 1727SOL     OW 6079   3.001   3.710   3.280
 1727SOL    HW1 6080   2.978   3.760   3.363
 1727SOL    HW2 6081   2.989   3.770   3.201
 1728SOL     OW 6082   4.830   3.548   5.504
 1728SOL    HW1 6083   4.798   3.635   5.465
 1728SOL    HW2 6084   4.925   3.534   5.479
 1729SOL     OW 6085   1.865   4.036   2.012
 1729SOL    HW1 6086   1.801   4.111   1.997
 1729SOL    HW2 6087   1.816   3.950   2.015
 1730SOL     OW 6088   2.555   4.997   5.442
 1730SOL    HW1 6089   2.488   5.056   5.396
 1730SOL    HW2 6090   2.546   5.007   5.541
 1731SOL     OW 6091   5.744   4.673   4.053
 1731SOL    HW1 6092   5.796   4.659   3.968
 1731SOL    HW2 6093   5.660   4.619   4.049
 1732SOL     OW 6094   2.028   4.783   6.973
 1732SOL    HW1 6095   1.980   4.695   6.974
 1732SOL    HW2 6096   2.079   4.794   0.035
 1733SOL     OW 6097   2.784   4.022   0.265
 1733SOL    HW1 6098   2.845   3.969   0.324
 1733SOL    HW2 6099   2.694   4.030   0.308
 1734SOL     OW 6100   0.016   3.240   1.375
 1734SOL    HW1 6101   0.110   3.213   1.355
 1734SOL    HW2 6102   0.012   3.283   1.465
 1735SOL     OW 6103   4.374   5.113   6.651
 1735SOL    HW1 6104   4.322   5.098   6.567
 1735SOL    HW2 6105   4.382   5.211   6.668
 1736SOL     OW 6106   4.665   3.629   1.147
 1736SOL    HW1 6107   4.621   3.567   1.212
 1736SOL    HW2 6108   4.652   3.724   1.178
 1737SOL     OW 6109   4.368   1.377   4.524
 1737SOL    HW1 6110   4.427   1.451   4.558
 1737SOL    HW2 6111   4.406   1.289   4.553
 1738SOL     OW 6112   1.263   3.908   3.985
 1738SOL    HW1 6113   1.288   3.812   3.994
 1738SOL    HW2 6114   1.307   3.947   3.904
 1739SOL     OW 6115   5.428   0.087   4.018
 1739SOL    HW1 6116   5.410   0.151   4.093
 1739SOL    HW2 6117   5.499   0.125   3.959
 1740SOL     OW 6118   6.855   2.110   4.449
 1740SOL    HW1 6119   6.926   2.053   4.489
 1740SOL    HW2 6120   6.884   2.142   4.359
 1741SOL     OW 6121   1.550   2.095   4.784
 1741SOL    HW1 6122   1.628   2.119   4.841
 1741SOL    HW2 6123   1.582   2.060   4.696
 1742SOL     OW 6124   6.374   6.154   6.261
 1742SOL    HW1 6125   6.434   6.203   6.323
 1742SOL    HW2 6126   6.332   6.218   6.197
 1743SOL     OW 6127   1.334   1.263   3.188
 1743SOL    HW1 6128   1.320   1.321   3.108
 1743SOL    HW2 6129   1.431   1.258   3.210
 1744SOL     OW 6130   5.090   2.311   3.416
 1744SOL    HW1 6131   4.997   2.313   3.378
 1744SOL    HW2 6132   5.148   2.374   3.364
 1745SOL     OW 6133   6.393   6.398   1.404
 1745SOL    HW1 6134   6.400   6.303   1.433
 1745SOL    HW2 6135   6.484   6.438   1.395
 1746SOL     OW 6136   1.654   3.650   3.245
 1746SOL    HW1 6137   1.715   3.698   3.181
 1746SOL    HW2 6138   1.662   3.692   3.336
 1747SOL     OW 6139   3.159   1.085   2.325
 1747SOL    HW1 6140   3.098   1.030   2.381
 1747SOL    HW2 6141   3.138   1.070   2.228
 1748SOL     OW 6142   7.005   1.712   4.401
 1748SOL    HW1 6143   6.920   1.740   4.357
 1748SOL    HW2 6144   7.019   1.765   4.484
 1749SOL     OW 6145   2.756   5.679   0.992
 1749SOL    HW1 6146   2.816   5.623   1.049
 1749SOL    HW2 6147   2.679   5.713   1.047
 1750SOL     OW 6148   4.338   0.822   5.923
 1750SOL    HW1 6149   4.280   0.741   5.925
 1750SOL    HW2 6150   4.391   0.827   6.008
 1751SOL     OW 6151   6.007   2.689   5.269
 1751SOL    HW1 6152   6.002   2.732   5.359
 1751SOL    HW2 6153   5.953   2.741   5.204
 1752SOL     OW 6154   6.493   0.921   1.067
 1752SOL    HW1 6155   6.549   0.891   0.990
 1752SOL    HW2 6156   6.552   0.940   1.146
 1753SOL     OW 6157   6.377   1.663   1.823
 1753SOL    HW1 6158   6.431   1.745   1.845
 1753SOL    HW2 6159   6.414   1.620   1.741
 1754SOL     OW 6160   3.061   5.989   5.562
 1754SOL    HW1 6161   3.009   6.065   5.524
 1754SOL    HW2 6162   3.147   5.980   5.513
 1755SOL     OW 6163   6.191   0.162   4.897
 1755SOL    HW1 6164   6.216   0.066   4.900
 1755SOL    HW2 6165   6.121   0.177   4.827
 1756SOL     OW 6166   5.564   0.181   6.253
 1756SOL    HW1 6167   5.597   0.275   6.253
 1756SOL    HW2 6168   5.611   0.129   6.182
 1757SOL     OW 6169   2.636   5.586   4.953
 1757SOL    HW1 6170   2.733   5.591   4.929
 1757SOL    HW2 6171   2.612   5.492   4.977
 1758SOL     OW 6172   1.932   6.667   4.890
 1758SOL    HW1 6173   1.913   6.758   4.928
 1758SOL    HW2 6174   1.883   6.598   4.943
 1759SOL     OW 6175   1.428   6.378   0.191
 1759SOL    HW1 6176   1.353   6.349   0.132
 1759SOL    HW2 6177   1.392   6.400   0.282
 1760SOL     OW 6178   6.507   0.813   5.244
 1760SOL    HW1 6179   6.533   0.889   5.302
 1760SOL    HW2 6180   6.441   0.844   5.175
 1761SOL     OW 6181   6.561   1.967   1.205
 1761SOL    HW1 6182   6.536   1.875   1.177
 1761SOL    HW2 6183   6.496   2.033   1.168
 1762SOL     OW 6184   0.398   1.302   5.567
 1762SOL    HW1 6185   0.411   1.214   5.611
 1762SOL    HW2 6186   0.370   1.288   5.472
 1763SOL     OW 6187   0.794   3.653   4.490
 1763SOL    HW1 6188   0.826   3.576   4.544
 1763SOL    HW2 6189   0.717   3.625   4.432
 1764SOL     OW 6190   1.469   4.673   2.321
 1764SOL    HW1 6191   1.527   4.599   2.286
 1764SOL    HW2 6192   1.482   4.681   2.420
 1765SOL     OW 6193   5.654   3.209   1.893
 1765SOL    HW1 6194   5.649   3.153   1.810
 1765SOL    HW2 6195   5.730   3.273   1.886
 1766SOL     OW 6196   4.071   4.861   4.237
 1766SOL    HW1 6197   3.981   4.865   4.280
 1766SOL    HW2 6198   4.135   4.916   4.290
 1767SOL     OW 6199   6.925   5.103   2.440
 1767SOL    HW1 6200   6.909   5.030   2.374
 1767SOL    HW2 6201   6.850   5.105   2.506
 1768SOL     OW 6202   4.566   6.510   2.351
 1768SOL    HW1 6203   4.566   6.412   2.329
 1768SOL    HW2 6204   4.479   6.550   2.324
 1769SOL     OW 6205   5.604   6.996   6.448
 1769SOL    HW1 6206   5.694   6.960   6.422
 1769SOL    HW2 6207   5.595   0.067   6.414
 1770SOL     OW 6208   1.754   4.504   6.263
 1770SOL    HW1 6209   1.696   4.527   6.185
 1770SOL    HW2 6210   1.737   4.410   6.291
 1771SOL     OW 6211   0.943   3.718   6.134
 1771SOL    HW1 6212   1.002   3.695   6.056
 1771SOL    HW2 6213   0.973   3.667   6.214
 1772SOL     OW 6214   2.803   4.841   3.937
 1772SOL    HW1 6215   2.870   4.832   4.010
 1772SOL    HW2 6216   2.736   4.766   3.944
 1773SOL     OW 6217   0.155   6.916   5.463
 1773SOL    HW1 6218   0.181   6.825   5.494
 1773SOL    HW2 6219   0.167   6.923   5.364
 1774SOL     OW 6220   5.772   5.708   1.262
 1774SOL    HW1 6221   5.727   5.687   1.348
 1774SOL    HW2 6222   5.722   5.782   1.216
 1775SOL     OW 6223   1.647   5.412   6.782
 1775SOL    HW1 6224   1.720   5.343   6.783
 1775SOL    HW2 6225   1.656   5.469   6.701
 1776SOL     OW 6226   4.197   0.985   5.754
 1776SOL    HW1 6227   4.236   0.918   5.817
 1776SOL    HW2 6228   4.255   1.066   5.752
 1777SOL     OW 6229   4.362   6.795   7.018
 1777SOL    HW1 6230   4.360   6.784   6.919
 1777SOL    HW2 6231   4.301   6.730   0.038
 1778SOL     OW 6232   5.961   1.052   3.824
 1778SOL    HW1 6233   5.984   1.131   3.767
 1778SOL    HW2 6234   5.864   1.030   3.814
 1779SOL     OW 6235   5.592   6.651   4.130
 1779SOL    HW1 6236   5.556   6.722   4.069
 1779SOL    HW2 6237   5.517   6.613   4.185
 1780SOL     OW 6238   1.952   5.424   5.082
 1780SOL    HW1 6239   2.012   5.432   5.002
 1780SOL    HW2 6240   1.968   5.501   5.143
 1781SOL     OW 6241   4.243   0.230   3.972
 1781SOL    HW1 6242   4.216   0.252   4.066
 1781SOL    HW2 6243   4.290   0.309   3.932
 1782SOL     OW 6244   1.553   1.845   2.615
 1782SOL    HW1 6245   1.547   1.786   2.696
 1782SOL    HW2 6246   1.649   1.867   2.596
 1783SOL     OW 6247   1.945   4.011   5.947
 1783SOL    HW1 6248   2.019   3.988   5.884
 1783SOL    HW2 6249   1.858   4.007   5.899
 1784SOL     OW 6250   2.131   0.726   1.070
 1784SOL    HW1 6251   2.207   0.776   1.110
 1784SOL    HW2 6252   2.057   0.719   1.136
 1785SOL     OW 6253   1.117   6.539   4.515
 1785SOL    HW1 6254   1.174   6.548   4.434
 1785SOL    HW2 6255   1.072   6.626   4.535
 1786SOL     OW 6256   1.427   6.124   0.881
 1786SOL    HW1 6257   1.514   6.158   0.845
 1786SOL    HW2 6258   1.357   6.130   0.810
 1787SOL     OW 6259   2.110   3.562   5.717
 1787SOL    HW1 6260   2.129   3.495   5.789
 1787SOL    HW2 6261   2.195   3.593   5.676
 1788SOL     OW 6262   4.715   3.974   0.554
 1788SOL    HW1 6263   4.712   3.890   0.608
 1788SOL    HW2 6264   4.755   4.047   0.609
 1789SOL     OW 6265   0.030   3.667   1.999
 1789SOL    HW1 6266   0.115   3.699   2.040
 1789SOL    HW2 6267   6.986   3.742   1.999
 1790SOL     OW 6268   2.868   2.254   4.306
 1790SOL    HW1 6269   2.868   2.262   4.206
 1790SOL    HW2 6270   2.794   2.309   4.344
 1791SOL     OW 6271   5.913   0.052   3.844
 1791SOL    HW1 6272   5.996   0.064   3.789
 1791SOL    HW2 6273   5.867   0.141   3.855
 1792SOL     OW 6274   6.527   1.510   5.129
 1792SOL    HW1 6275   6.590   1.563   5.072
 1792SOL    HW2 6276   6.536   1.538   5.224
 1793SOL     OW 6277   0.047   1.099   5.757
 1793SOL    HW1 6278   0.109   1.026   5.783
 1793SOL    HW2 6279   0.053   1.115   5.658
 1794SOL     OW 6280   0.042   0.058   6.353
 1794SOL    HW1 6281   0.023   0.089   6.260
 1794SOL    HW2 6282   7.008   0.110   6.417
 1795SOL     OW 6283   5.968   4.888   0.050
 1795SOL    HW1 6284   5.905   4.941   7.015
 1795SOL    HW2 6285   5.916   4.843   0.122
 1796SOL     OW 6286   1.023   6.730   5.703
 1796SOL    HW1 6287   0.943   6.759   5.755
 1796SOL    HW2 6288   1.054   6.640   5.735
 1797SOL     OW 6289   2.528   6.310   4.948
 1797SOL    HW1 6290   2.515   6.224   4.996
 1797SOL    HW2 6291   2.503   6.299   4.851
 1798SOL     OW 6292   3.198   4.107   4.782
 1798SOL    HW1 6293   3.170   4.080   4.690
 1798SOL    HW2 6294   3.121   4.098   4.845
 1799SOL     OW 6295   3.182   0.983   0.069
 1799SOL    HW1 6296   3.129   1.016   0.147
 1799SOL    HW2 6297   3.199   1.060   0.006
 1800SOL     OW 6298   5.440   3.478   4.393
 1800SOL    HW1 6299   5.466   3.480   4.296
 1800SOL    HW2 6300   5.376   3.404   4.410
 1801SOL     OW 6301   0.839   1.636   2.251
 1801SOL    HW1 6302   0.776   1.561   2.231
 1801SOL    HW2 6303   0.839   1.654   2.349
 1802SOL     OW 6304   6.478   4.801   3.717
 1802SOL    HW1 6305   6.571   4.765   3.708
 1802SOL    HW2 6306   6.442   4.777   3.807
 1803SOL     OW 6307   0.573   6.699   3.057
 1803SOL    HW1 6308   0.640   6.716   2.984
 1803SOL    HW2 6309   0.546   6.786   3.098
 1804SOL     OW 6310   2.596   3.349   6.045
 1804SOL    HW1 6311   2.615   3.307   5.956
 1804SOL    HW2 6312   2.651   3.432   6.055
 1805SOL     OW 6313   0.047   6.000   6.246
 1805SOL    HW1 6314   0.102   6.008   6.163
 1805SOL    HW2 6315   0.105   6.009   6.326
 1806SOL     OW 6316   6.853   1.972   2.078
 1806SOL    HW1 6317   6.784   2.040   2.105
 1806SOL    HW2 6318   6.942   1.999   2.114
 1807SOL     OW 6319   6.626   3.796   2.117
 1807SOL    HW1 6320   6.556   3.813   2.187
 1807SOL    HW2 6321   6.584   3.748   2.040
 1808SOL     OW 6322   5.307   1.832   5.798
 1808SOL    HW1 6323   5.335   1.855   5.891
 1808SOL    HW2 6324   5.250   1.750   5.800
 1809SOL     OW 6325   3.841   2.104   5.602
 1809SOL    HW1 6326   3.841   2.021   5.657
 1809SOL    HW2 6327   3.755   2.153   5.614
 1810SOL     OW 6328   0.688   6.774   4.233
 1810SOL    HW1 6329   0.750   6.826   4.173
 1810SOL    HW2 6330   0.694   6.811   4.326
 1811SOL     OW 6331   4.220   5.794   2.792
 1811SOL    HW1 6332   4.182   5.791   2.700
 1811SOL    HW2 6333   4.156   5.754   2.857
 1812SOL     OW 6334   4.790   6.912   5.669
 1812SOL    HW1 6335   4.733   6.994   5.673
 1812SOL    HW2 6336   4.768   6.853   5.747
 1813SOL     OW 6337   4.481   4.456   2.673
 1813SOL    HW1 6338   4.390   4.457   2.630
 1813SOL    HW2 6339   4.528   4.371   2.650
 1814SOL     OW 6340   0.262   6.512   0.604
 1814SOL    HW1 6341   0.169   6.493   0.636
 1814SOL    HW2 6342   0.271   6.609   0.585
 1815SOL     OW 6343   5.700   6.291   1.975
 1815SOL    HW1 6344   5.739   6.294   1.883
 1815SOL    HW2 6345   5.693   6.384   2.011
 1816SOL     OW 6346   4.222   5.835   6.150
 1816SOL    HW1 6347   4.248   5.751   6.101
 1816SOL    HW2 6348   4.202   5.907   6.084
 1817SOL     OW 6349   1.423   1.647   3.672
 1817SOL    HW1 6350   1.361   1.610   3.741
 1817SOL    HW2 6351   1.514   1.607   3.683
 1818SOL     OW 6352   2.202   6.675   0.207
 1818SOL    HW1 6353   2.236   6.655   0.115
 1818SOL    HW2 6354   2.214   6.594   0.264
 1819SOL     OW 6355   2.000   4.616   2.931
 1819SOL    HW1 6356   2.007   4.667   2.845
 1819SOL    HW2 6357   2.089   4.617   2.977
 1820SOL     OW 6358   3.585   0.768   3.835
 1820SOL    HW1 6359   3.665   0.787   3.779
 1820SOL    HW2 6360   3.613   0.733   3.924
 1821SOL     OW 6361   4.400   1.942   2.466
 1821SOL    HW1 6362   4.386   2.037   2.495
 1821SOL    HW2 6363   4.311   1.896   2.459
 1822SOL     OW 6364   0.436   3.414   2.200
 1822SOL    HW1 6365   0.482   3.359   2.130
 1822SOL    HW2 6366   0.337   3.403   2.190
 1823SOL     OW 6367   3.914   6.361   2.348
 1823SOL    HW1 6368   3.854   6.314   2.284
 1823SOL    HW2 6369   3.921   6.457   2.323
 1824SOL     OW 6370   4.015   3.377   0.962
 1824SOL    HW1 6371   4.023   3.344   0.868
 1824SOL    HW2 6372   4.094   3.347   1.014
 1825SOL     OW 6373   2.204   2.084   5.115
 1825SOL    HW1 6374   2.111   2.070   5.149
 1825SOL    HW2 6375   2.248   1.995   5.101
 1826SOL     OW 6376   3.513   2.163   1.706
 1826SOL    HW1 6377   3.565   2.196   1.785
 1826SOL    HW2 6378   3.535   2.219   1.626
 1827SOL     OW 6379   5.585   4.679   0.658
 1827SOL    HW1 6380   5.505   4.726   0.619
 1827SOL    HW2 6381   5.557   4.628   0.739
 1828SOL     OW 6382   1.693   3.568   5.457
 1828SOL    HW1 6383   1.693   3.487   5.399
 1828SOL    HW2 6384   1.603   3.581   5.497
 1829SOL     OW 6385   3.188   0.972   3.728
 1829SOL    HW1 6386   3.128   1.031   3.783
 1829SOL    HW2 6387   3.167   0.876   3.747
 1830SOL     OW 6388   5.721   6.772   4.966
 1830SOL    HW1 6389   5.696   6.764   4.870
 1830SOL    HW2 6390   5.642   6.748   5.023
 1831SOL     OW 6391   4.930   5.593   2.802
 1831SOL    HW1 6392   4.884   5.680   2.784
 1831SOL    HW2 6393   5.025   5.599   2.770
 1832SOL     OW 6394   3.026   2.909   0.326
 1832SOL    HW1 6395   3.004   3.006   0.336
 1832SOL    HW2 6396   2.990   2.858   0.404
 1833SOL     OW 6397   5.024   0.214   1.157
 1833SOL    HW1 6398   4.980   0.287   1.105
 1833SOL    HW2 6399   5.056   0.143   1.094
 1834SOL     OW 6400   2.620   2.543   6.664
 1834SOL    HW1 6401   2.699   2.488   6.639
 1834SOL    HW2 6402   2.634   2.637   6.634
 1835SOL     OW 6403   0.094   5.151   1.424
 1835SOL    HW1 6404   0.001   5.187   1.417
 1835SOL    HW2 6405   0.155   5.203   1.364
 1836SOL     OW 6406   5.397   2.369   1.685
 1836SOL    HW1 6407   5.327   2.311   1.644
 1836SOL    HW2 6408   5.462   2.312   1.737
 1837SOL     OW 6409   2.702   1.615   6.139
 1837SOL    HW1 6410   2.696   1.710   6.108
 1837SOL    HW2 6411   2.705   1.554   6.060
 1838SOL     OW 6412   6.544   1.007   0.646
 1838SOL    HW1 6413   6.607   1.084   0.649
 1838SOL    HW2 6414   6.524   0.976   0.739
 1839SOL     OW 6415   5.649   1.175   6.863
 1839SOL    HW1 6416   5.745   1.171   6.835
 1839SOL    HW2 6417   5.632   1.262   6.908
 1840SOL     OW 6418   4.353   6.994   3.241
 1840SOL    HW1 6419   4.289   6.999   3.318
 1840SOL    HW2 6420   4.301   6.987   3.155
 1841SOL     OW 6421   2.112   1.733   1.966
 1841SOL    HW1 6422   2.052   1.674   2.019
 1841SOL    HW2 6423   2.167   1.790   2.027
 1842SOL     OW 6424   1.681   5.584   0.594
 1842SOL    HW1 6425   1.685   5.565   0.496
 1842SOL    HW2 6426   1.661   5.499   0.643
 1843SOL     OW 6427   3.517   1.137   4.368
 1843SOL    HW1 6428   3.420   1.157   4.352
 1843SOL    HW2 6429   3.524   1.055   4.425
 1844SOL     OW 6430   5.373   1.175   6.547
 1844SOL    HW1 6431   5.457   1.210   6.588
 1844SOL    HW2 6432   5.329   1.247   6.495
 1845SOL     OW 6433   1.645   1.454   3.100
 1845SOL    HW1 6434   1.546   1.466   3.087
 1845SOL    HW2 6435   1.690   1.543   3.088
 1846SOL     OW 6436   4.336   1.326   2.470
 1846SOL    HW1 6437   4.364   1.336   2.375
 1846SOL    HW2 6438   4.305   1.415   2.506
 1847SOL     OW 6439   2.068   0.364   5.066
 1847SOL    HW1 6440   2.074   0.464   5.068
 1847SOL    HW2 6441   1.973   0.336   5.079
 1848SOL     OW 6442   2.621   5.977   4.308
 1848SOL    HW1 6443   2.548   6.038   4.277
 1848SOL    HW2 6444   2.611   5.962   4.407
 1849SOL     OW 6445   4.742   2.788   1.895
 1849SOL    HW1 6446   4.705   2.877   1.872
 1849SOL    HW2 6447   4.803   2.796   1.974
 1850SOL     OW 6448   5.059   1.705   1.597
 1850SOL    HW1 6449   5.016   1.785   1.638
 1850SOL    HW2 6450   5.091   1.727   1.505
 1851SOL     OW 6451   6.851   3.812   5.549
 1851SOL    HW1 6452   6.842   3.906   5.518
 1851SOL    HW2 6453   6.769   3.760   5.526
 1852SOL     OW 6454   1.460   5.232   2.142
 1852SOL    HW1 6455   1.387   5.168   2.164
 1852SOL    HW2 6456   1.420   5.317   2.108
 1853SOL     OW 6457   0.590   2.478   4.320
 1853SOL    HW1 6458   0.684   2.476   4.353
 1853SOL    HW2 6459   0.530   2.433   4.387
 1854SOL     OW 6460   0.296   6.486   3.701
 1854SOL    HW1 6461   0.370   6.485   3.769
 1854SOL    HW2 6462   0.305   6.406   3.642
 1855SOL     OW 6463   4.815   3.330   5.266
 1855SOL    HW1 6464   4.723   3.324   5.305
 1855SOL    HW2 6465   4.815   3.396   5.191
 1856SOL     OW 6466   3.761   2.786   0.265
 1856SOL    HW1 6467   3.672   2.819   0.298
 1856SOL    HW2 6468   3.820   2.766   0.343
 1857SOL     OW 6469   4.689   0.824   0.595
 1857SOL    HW1 6470   4.731   0.902   0.641
 1857SOL    HW2 6471   4.668   0.848   0.501
 1858SOL     OW 6472   4.231   2.290   4.178
 1858SOL    HW1 6473   4.227   2.347   4.096
 1858SOL    HW2 6474   4.144   2.297   4.227
 1859SOL     OW 6475   5.437   1.989   3.774
 1859SOL    HW1 6476   5.492   1.908   3.750
 1859SOL    HW2 6477   5.384   2.018   3.694
 1860SOL     OW 6478   1.400   1.042   4.749
 1860SOL    HW1 6479   1.395   0.963   4.687
 1860SOL    HW2 6480   1.385   1.126   4.697
 1861SOL     OW 6481   6.375   0.264   3.301
 1861SOL    HW1 6482   6.386   0.178   3.252
 1861SOL    HW2 6483   6.361   0.247   3.398
 1862SOL     OW 6484   2.747   6.337   6.490
 1862SOL    HW1 6485   2.688   6.409   6.455
 1862SOL    HW2 6486   2.745   6.259   6.427
 1863SOL     OW 6487   0.206   2.712   1.612
 1863SOL    HW1 6488   0.295   2.753   1.632
 1863SOL    HW2 6489   0.141   2.740   1.682
 1864SOL     OW 6490   3.586   5.991   2.851
 1864SOL    HW1 6491   3.643   6.071   2.832
 1864SOL    HW2 6492   3.521   6.014   2.924
 1865SOL     OW 6493   5.652   0.908   6.001
 1865SOL    HW1 6494   5.736   0.908   6.057
 1865SOL    HW2 6495   5.607   0.997   6.009
 1866SOL     OW 6496   0.112   4.461   3.490
 1866SOL    HW1 6497   0.136   4.522   3.415
 1866SOL    HW2 6498   0.116   4.366   3.458
 1867SOL     OW 6499   2.208   2.493   0.759
 1867SOL    HW1 6500   2.186   2.405   0.800
 1867SOL    HW2 6501   2.170   2.567   0.815
 1868SOL     OW 6502   6.113   4.547   5.682
 1868SOL    HW1 6503   6.121   4.645   5.699
 1868SOL    HW2 6504   6.033   4.529   5.625
 1869SOL     OW 6505   4.590   1.920   4.438
 1869SOL    HW1 6506   4.613   1.956   4.348
 1869SOL    HW2 6507   4.492   1.906   4.445
 1870SOL     OW 6508   0.631   4.960   4.161
 1870SOL    HW1 6509   0.651   4.959   4.063
 1870SOL    HW2 6510   0.608   5.053   4.190
 1871SOL     OW 6511   0.954   6.726   0.580
 1871SOL    HW1 6512   0.925   6.725   0.485
 1871SOL    HW2 6513   0.986   6.635   0.606
 1872SOL     OW 6514   2.434   2.621   0.660
 1872SOL    HW1 6515   2.364   2.555   0.690
 1872SOL    HW2 6516   2.395   2.713   0.661
 1873SOL     OW 6517   6.592   0.568   0.080
 1873SOL    HW1 6518   6.541   0.652   0.096
 1873SOL    HW2 6519   6.625   0.532   0.167
 1874SOL     OW 6520   1.182   6.293   0.113
 1874SOL    HW1 6521   1.139   6.204   0.129
 1874SOL    HW2 6522   1.145   6.334   0.030
 1875SOL     OW 6523   6.217   4.980   0.068
 1875SOL    HW1 6524   6.210   5.066   0.017
 1875SOL    HW2 6525   6.128   4.935   0.070
 1876SOL     OW 6526   6.785   5.874   6.554
 1876SOL    HW1 6527   6.710   5.939   6.538
 1876SOL    HW2 6528   6.869   5.925   6.572
 1877SOL     OW 6529   0.035   0.996   2.342
 1877SOL    HW1 6530   0.075   1.022   2.430
 1877SOL    HW2 6531   0.085   0.918   2.305
 1878SOL     OW 6532   6.919   4.795   3.613
 1878SOL    HW1 6533   7.009   4.799   3.657
 1878SOL    HW2 6534   6.930   4.759   3.520
 1879SOL     OW 6535   3.921   5.752   4.603
 1879SOL    HW1 6536   3.871   5.691   4.542
 1879SOL    HW2 6537   4.019   5.732   4.599
 1880SOL     OW 6538   0.450   1.543   3.864
 1880SOL    HW1 6539   0.441   1.541   3.964
 1880SOL    HW2 6540   0.377   1.489   3.823
 1881SOL     OW 6541   1.340   1.513   3.894
 1881SOL    HW1 6542   1.300   1.532   3.984
 1881SOL    HW2 6543   1.340   1.414   3.878
 1882SOL     OW 6544   1.473   5.523   0.146
 1882SOL    HW1 6545   1.390   5.531   0.202
 1882SOL    HW2 6546   1.473   5.593   0.076
 1883SOL     OW 6547   1.601   3.125   2.841
 1883SOL    HW1 6548   1.590   3.178   2.926
 1883SOL    HW2 6549   1.683   3.068   2.849
 1884SOL     OW 6550   2.808   0.519   0.143
 1884SOL    HW1 6551   2.780   0.536   0.238
 1884SOL    HW2 6552   2.903   0.489   0.142
 1885SOL     OW 6553   6.675   2.377   1.055
 1885SOL    HW1 6554   6.695   2.376   1.153
 1885SOL    HW2 6555   6.704   2.291   1.014
 1886SOL     OW 6556   2.645   2.844   7.012
 1886SOL    HW1 6557   2.616   2.749   7.022
 1886SOL    HW2 6558   2.741   2.846   6.984
 1887SOL     OW 6559   1.360   6.539   5.905
 1887SOL    HW1 6560   1.408   6.542   5.992
 1887SOL    HW2 6561   1.408   6.596   5.838
 1888SOL     OW 6562   2.012   2.144   6.093
 1888SOL    HW1 6563   1.993   2.082   6.170
 1888SOL    HW2 6564   2.101   2.122   6.054
 1889SOL     OW 6565   4.636   2.780   0.285
 1889SOL    HW1 6566   4.684   2.832   0.356
 1889SOL    HW2 6567   4.664   2.815   0.195
 1890SOL     OW 6568   0.126   5.629   6.496
 1890SOL    HW1 6569   0.214   5.670   6.522
 1890SOL    HW2 6570   0.077   5.601   6.578
 1891SOL     OW 6571   6.159   3.173   5.372
 1891SOL    HW1 6572   6.189   3.212   5.284
 1891SOL    HW2 6573   6.070   3.213   5.397
 1892SOL     OW 6574   3.788   5.238   1.940
 1892SOL    HW1 6575   3.723   5.269   2.010
 1892SOL    HW2 6576   3.811   5.142   1.956
 1893SOL     OW 6577   3.804   1.747   4.206
 1893SOL    HW1 6578   3.713   1.780   4.227
 1893SOL    HW2 6579   3.799   1.652   4.175
 1894SOL     OW 6580   4.143   3.860   0.700
 1894SOL    HW1 6581   4.198   3.781   0.672
 1894SOL    HW2 6582   4.049   3.848   0.667
 1895SOL     OW 6583   5.687   0.746   3.249
 1895SOL    HW1 6584   5.659   0.840   3.271
 1895SOL    HW2 6585   5.765   0.749   3.186
 1896SOL     OW 6586   0.071   1.440   5.014
 1896SOL    HW1 6587   0.139   1.509   4.985
 1896SOL    HW2 6588   0.087   1.355   4.963
 1897SOL     OW 6589   5.758   4.726   3.437
 1897SOL    HW1 6590   5.795   4.662   3.369
 1897SOL    HW2 6591   5.733   4.812   3.392
 1898SOL     OW 6592   5.700   4.636   0.977
 1898SOL    HW1 6593   5.705   4.547   0.932
 1898SOL    HW2 6594   5.701   4.623   1.076
 1899SOL     OW 6595   0.640   2.995   2.659
 1899SOL    HW1 6596   0.616   3.083   2.700
 1899SOL    HW2 6597   0.692   2.941   2.725
 1900SOL     OW 6598   2.174   5.933   6.118
 1900SOL    HW1 6599   2.136   6.024   6.134
 1900SOL    HW2 6600   2.128   5.867   6.179
 1901SOL     OW 6601   1.596   0.946   6.459
 1901SOL    HW1 6602   1.651   0.929   6.377
 1901SOL    HW2 6603   1.550   1.035   6.450
 1902SOL     OW 6604   0.860   2.777   4.424
 1902SOL    HW1 6605   0.775   2.796   4.474
 1902SOL    HW2 6606   0.881   2.855   4.364
 1903SOL     OW 6607   6.271   3.334   3.629
 1903SOL    HW1 6608   6.288   3.246   3.585
 1903SOL    HW2 6609   6.324   3.340   3.714
 1904SOL     OW 6610   6.446   0.025   3.734
 1904SOL    HW1 6611   6.498   0.009   3.818
 1904SOL    HW2 6612   6.414   6.960   3.698
 1905SOL     OW 6613   0.060   2.188   3.549
 1905SOL    HW1 6614   0.067   2.266   3.488
 1905SOL    HW2 6615   0.103   2.108   3.507
 1906SOL     OW 6616   2.587   0.481   6.273
 1906SOL    HW1 6617   2.652   0.502   6.201
 1906SOL    HW2 6618   2.550   0.565   6.312
 1907SOL     OW 6619   3.197   6.009   3.794
 1907SOL    HW1 6620   3.280   6.055   3.762
 1907SOL    HW2 6621   3.221   5.918   3.829
 1908SOL     OW 6622   4.107   1.374   6.121
 1908SOL    HW1 6623   4.077   1.413   6.208
 1908SOL    HW2 6624   4.045   1.300   6.094
 1909SOL     OW 6625   2.589   5.312   4.613
 1909SOL    HW1 6626   2.553   5.351   4.528
 1909SOL    HW2 6627   2.607   5.214   4.600
 1910SOL     OW 6628   5.449   1.954   5.987
 1910SOL    HW1 6629   5.441   1.956   6.087
 1910SOL    HW2 6630   5.541   1.983   5.961
 1911SOL     OW 6631   6.438   2.801   4.945
 1911SOL    HW1 6632   6.520   2.807   4.889
 1911SOL    HW2 6633   6.370   2.865   4.911
 1912SOL     OW 6634   3.554   6.888   2.963
 1912SOL    HW1 6635   3.493   6.874   3.041
 1912SOL    HW2 6636   3.632   6.944   2.992
 1913SOL     OW 6637   1.863   5.525   5.548
 1913SOL    HW1 6638   1.890   5.435   5.514
 1913SOL    HW2 6639   1.883   5.594   5.479
 1914SOL     OW 6640   3.525   2.588   6.034
 1914SOL    HW1 6641   3.444   2.570   6.090
 1914SOL    HW2 6642   3.549   2.685   6.040
 1915SOL     OW 6643   3.593   0.079   5.819
 1915SOL    HW1 6644   3.645   0.024   5.753
 1915SOL    HW2 6645   3.505   0.104   5.780
 1916SOL     OW 6646   3.147   5.897   1.992
 1916SOL    HW1 6647   3.136   5.896   2.091
 1916SOL    HW2 6648   3.198   5.978   1.964
 1917SOL     OW 6649   2.978   3.284   4.183
 1917SOL    HW1 6650   2.935   3.212   4.129
 1917SOL    HW2 6651   3.041   3.337   4.126
 1918SOL     OW 6652   5.761   6.043   4.644
 1918SOL    HW1 6653   5.667   6.048   4.680
 1918SOL    HW2 6654   5.825   6.066   4.717
 1919SOL     OW 6655   6.953   6.225   1.784
 1919SOL    HW1 6656   6.863   6.185   1.792
 1919SOL    HW2 6657   7.023   6.154   1.792
 1920SOL     OW 6658   0.082   5.788   4.108
 1920SOL    HW1 6659   0.016   5.771   4.034
 1920SOL    HW2 6660   0.033   5.810   4.192
 1921SOL     OW 6661   1.056   6.337   6.893
 1921SOL    HW1 6662   1.037   6.424   6.848
 1921SOL    HW2 6663   1.099   6.274   6.828
 1922SOL     OW 6664   3.760   3.951   0.920
 1922SOL    HW1 6665   3.793   3.891   0.847
 1922SOL    HW2 6666   3.830   3.959   0.991
 1923SOL     OW 6667   1.725   0.967   0.497
 1923SOL    HW1 6668   1.628   0.989   0.505
 1923SOL    HW2 6669   1.746   0.939   0.403
 1924SOL     OW 6670   0.391   4.394   1.753
 1924SOL    HW1 6671   0.354   4.479   1.790
 1924SOL    HW2 6672   0.437   4.343   1.825
 1925SOL     OW 6673   3.412   4.264   1.563
 1925SOL    HW1 6674   3.420   4.357   1.600
 1925SOL    HW2 6675   3.353   4.210   1.622
 1926SOL     OW 6676   1.204   0.046   4.544
 1926SOL    HW1 6677   1.284   0.100   4.519
 1926SOL    HW2 6678   1.142   0.041   4.466
 1927SOL     OW 6679   3.692   4.022   6.682
 1927SOL    HW1 6680   3.685   4.092   6.611
 1927SOL    HW2 6681   3.601   3.986   6.702
 1928SOL     OW 6682   6.094   4.139   5.605
 1928SOL    HW1 6683   6.134   4.193   5.530
 1928SOL    HW2 6684   6.074   4.047   5.572
 1929SOL     OW 6685   0.832   6.072   1.248
 1929SOL    HW1 6686   0.762   6.069   1.319
 1929SOL    HW2 6687   0.797   6.122   1.168
 1930SOL     OW 6688   5.850   4.733   6.343
 1930SOL    HW1 6689   5.752   4.719   6.354
 1930SOL    HW2 6690   5.890   4.765   6.429
 1931SOL     OW 6691   0.706   3.232   4.265
 1931SOL    HW1 6692   0.707   3.290   4.184
 1931SOL    HW2 6693   0.641   3.157   4.252
 1932SOL     OW 6694   5.289   4.075   1.885
 1932SOL    HW1 6695   5.252   3.986   1.914
 1932SOL    HW2 6696   5.213   4.136   1.860
 1933SOL     OW 6697   2.749   4.377   0.612
 1933SOL    HW1 6698   2.811   4.367   0.690
 1933SOL    HW2 6699   2.664   4.328   0.630
 1934SOL     OW 6700   0.821   6.668   6.225
 1934SOL    HW1 6701   0.760   6.647   6.302
 1934SOL    HW2 6702   0.852   6.582   6.184
 1935SOL     OW 6703   2.444   0.322   3.587
 1935SOL    HW1 6704   2.523   0.314   3.526
 1935SOL    HW2 6705   2.459   0.265   3.668
 1936SOL     OW 6706   6.178   6.093   4.697
 1936SOL    HW1 6707   6.113   6.126   4.629
 1936SOL    HW2 6708   6.195   5.995   4.683
 1937SOL     OW 6709   3.738   6.369   2.011
 1937SOL    HW1 6710   3.743   6.465   2.037
 1937SOL    HW2 6711   3.806   6.350   1.940
 1938SOL     OW 6712   4.019   1.108   3.642
 1938SOL    HW1 6713   4.041   1.041   3.571
 1938SOL    HW2 6714   4.102   1.131   3.692
 1939SOL     OW 6715   1.400   1.231   3.500
 1939SOL    HW1 6716   1.398   1.331   3.499
 1939SOL    HW2 6717   1.307   1.196   3.487
 1940SOL     OW 6718   6.629   5.426   0.091
 1940SOL    HW1 6719   6.668   5.489   0.024
 1940SOL    HW2 6720   6.556   5.372   0.049
 1941SOL     OW 6721   5.516   3.648   2.235
 1941SOL    HW1 6722   5.474   3.592   2.306
 1941SOL    HW2 6723   5.575   3.590   2.178
 1942SOL     OW 6724   6.361   5.073   2.323
 1942SOL    HW1 6725   6.399   5.040   2.409
 1942SOL    HW2 6726   6.413   5.153   2.293
 1943SOL     OW 6727   2.376   4.300   3.581
 1943SOL    HW1 6728   2.341   4.284   3.489
 1943SOL    HW2 6729   2.475   4.313   3.577
 1944SOL     OW 6730   5.924   1.275   6.752
 1944SOL    HW1 6731   5.953   1.364   6.788
 1944SOL    HW2 6732   5.998   1.209   6.765
 1945SOL     OW 6733   4.099   5.497   3.884
 1945SOL    HW1 6734   4.175   5.495   3.820
 1945SOL    HW2 6735   4.016   5.525   3.836
 1946SOL     OW 6736   1.282   0.442   6.940
 1946SOL    HW1 6737   1.330   0.393   7.013
 1946SOL    HW2 6738   1.289   0.389   6.855
 1947SOL     OW 6739   5.079   6.512   3.374
 1947SOL    HW1 6740   5.082   6.579   3.448
 1947SOL    HW2 6741   5.004   6.448   3.390
 1948SOL     OW 6742   6.703   5.854   4.378
 1948SOL    HW1 6743   6.664   5.827   4.465
 1948SOL    HW2 6744   6.655   5.935   4.344
 1949SOL     OW 6745   4.732   4.263   6.467
 1949SOL    HW1 6746   4.714   4.275   6.370
 1949SOL    HW2 6747   4.717   4.349   6.516
 1950SOL     OW 6748   3.359   4.055   6.749
 1950SOL    HW1 6749   3.393   4.139   6.792
 1950SOL    HW2 6750   3.281   4.020   6.800
 1951SOL     OW 6751   5.380   1.539   0.314
 1951SOL    HW1 6752   5.399   1.469   0.383
 1951SOL    HW2 6753   5.287   1.572   0.325
 1952SOL     OW 6754   4.146   2.159   0.629
 1952SOL    HW1 6755   4.195   2.244   0.613
 1952SOL    HW2 6756   4.049   2.171   0.608
 1953SOL     OW 6757   0.334   1.945   6.566
 1953SOL    HW1 6758   0.372   1.998   6.642
 1953SOL    HW2 6759   0.347   1.847   6.585
 1954SOL     OW 6760   4.007   1.885   4.073
 1954SOL    HW1 6761   4.022   1.833   3.990
 1954SOL    HW2 6762   3.929   1.848   4.123
 1955SOL     OW 6763   0.424   6.492   2.522
 1955SOL    HW1 6764   0.354   6.478   2.593
 1955SOL    HW2 6765   0.379   6.504   2.433
 1956SOL     OW 6766   5.650   5.710   2.628
 1956SOL    HW1 6767   5.591   5.781   2.667
 1956SOL    HW2 6768   5.736   5.751   2.597
 1957SOL     OW 6769   0.439   5.626   4.477
 1957SOL    HW1 6770   0.451   5.676   4.391
 1957SOL    HW2 6771   0.529   5.602   4.515
 1958SOL     OW 6772   5.351   3.557   5.357
 1958SOL    HW1 6773   5.451   3.547   5.354
 1958SOL    HW2 6774   5.319   3.590   5.268
 1959SOL     OW 6775   1.488   2.202   6.416
 1959SOL    HW1 6776   1.567   2.235   6.362
 1959SOL    HW2 6777   1.496   2.104   6.430
 1960SOL     OW 6778   5.879   4.808   0.331
 1960SOL    HW1 6779   5.946   4.875   0.362
 1960SOL    HW2 6780   5.885   4.726   0.388
 1961SOL     OW 6781   6.187   4.702   4.019
 1961SOL    HW1 6782   6.165   4.732   4.112
 1961SOL    HW2 6783   6.287   4.693   4.010
 1962SOL     OW 6784   1.426   6.300   3.392
 1962SOL    HW1 6785   1.396   6.262   3.304
 1962SOL    HW2 6786   1.475   6.386   3.375
 1963SOL     OW 6787   0.518   0.222   2.653
 1963SOL    HW1 6788   0.562   0.157   2.716
 1963SOL    HW2 6789   0.537   0.316   2.684
 1964SOL     OW 6790   4.147   2.177   2.122
 1964SOL    HW1 6791   4.149   2.213   2.029
 1964SOL    HW2 6792   4.053   2.167   2.152
 1965SOL     OW 6793   0.669   3.592   2.452
 1965SOL    HW1 6794   0.724   3.640   2.384
 1965SOL    HW2 6795   0.729   3.536   2.510
 1966SOL     OW 6796   6.909   5.321   5.095
 1966SOL    HW1 6797   6.890   5.241   5.152
 1966SOL    HW2 6798   6.961   5.388   5.148
 1967SOL     OW 6799   4.969   2.811   5.760
 1967SOL    HW1 6800   5.005   2.885   5.817
 1967SOL    HW2 6801   5.042   2.746   5.739
 1968SOL     OW 6802   2.958   6.385   0.026
 1968SOL    HW1 6803   2.951   6.325   0.105
 1968SOL    HW2 6804   3.011   6.466   0.050
 1969SOL     OW 6805   6.642   2.533   1.623
 1969SOL    HW1 6806   6.636   2.443   1.667
 1969SOL    HW2 6807   6.583   2.536   1.543
 1970SOL     OW 6808   1.373   0.082   5.641
 1970SOL    HW1 6809   1.330   7.019   5.668
 1970SOL    HW2 6810   1.355   0.100   5.545
 1971SOL     OW 6811   0.319   6.452   6.730
 1971SOL    HW1 6812   0.274   6.427   6.644
 1971SOL    HW2 6813   0.392   6.386   6.749
 1972SOL     OW 6814   0.628   4.414   3.976
 1972SOL    HW1 6815   0.595   4.331   4.020
 1972SOL    HW2 6816   0.581   4.493   4.015
 1973SOL     OW 6817   3.617   2.707   1.414
 1973SOL    HW1 6818   3.637   2.691   1.511
 1973SOL    HW2 6819   3.685   2.658   1.358
 1974SOL     OW 6820   5.164   6.713   4.530
 1974SOL    HW1 6821   5.157   6.671   4.620
 1974SOL    HW2 6822   5.162   6.642   4.459
 1975SOL     OW 6823   2.617   0.570   3.892
 1975SOL    HW1 6824   2.596   0.623   3.975
 1975SOL    HW2 6825   2.556   0.492   3.886
 1976SOL     OW 6826   0.553   6.017   0.397
 1976SOL    HW1 6827   0.511   5.976   0.478
 1976SOL    HW2 6828   0.607   6.096   0.424
 1977SOL     OW 6829   1.122   2.388   4.313
 1977SOL    HW1 6830   1.114   2.332   4.231
 1977SOL    HW2 6831   1.216   2.423   4.320
 1978SOL     OW 6832   0.275   0.983   4.815
 1978SOL    HW1 6833   0.354   0.945   4.863
 1978SOL    HW2 6834   0.307   1.037   4.736
 1979SOL     OW 6835   0.080   4.302   5.055
 1979SOL    HW1 6836   0.131   4.221   5.084
 1979SOL    HW2 6837   0.121   4.383   5.096
 1980SOL     OW 6838   3.290   0.236   1.121
 1980SOL    HW1 6839   3.263   0.328   1.090
 1980SOL    HW2 6840   3.386   0.221   1.101
 1981SOL     OW 6841   5.200   2.741   2.194
 1981SOL    HW1 6842   5.256   2.719   2.274
 1981SOL    HW2 6843   5.218   2.834   2.165
 1982SOL     OW 6844   5.921   5.335   5.037
 1982SOL    HW1 6845   5.963   5.244   5.028
 1982SOL    HW2 6846   5.829   5.326   5.075
 1983SOL     OW 6847   1.273   2.526   3.000
 1983SOL    HW1 6848   1.196   2.505   3.060
 1983SOL    HW2 6849   1.356   2.536   3.054
 1984SOL     OW 6850   4.544   1.692   6.013
 1984SOL    HW1 6851   4.468   1.754   5.994
 1984SOL    HW2 6852   4.524   1.601   5.975
 1985SOL     OW 6853   1.248   0.895   2.075
 1985SOL    HW1 6854   1.336   0.941   2.085
 1985SOL    HW2 6855   1.223   0.890   1.979
 1986SOL     OW 6856   1.429   2.255   6.884
 1986SOL    HW1 6857   1.528   2.239   6.882
 1986SOL    HW2 6858   1.393   2.255   6.791
 1987SOL     OW 6859   2.712   3.104   1.691
 1987SOL    HW1 6860   2.696   3.027   1.629
 1987SOL    HW2 6861   2.796   3.087   1.743
 1988SOL     OW 6862   4.669   3.617   6.757
 1988SOL    HW1 6863   4.691   3.709   6.724
 1988SOL    HW2 6864   4.663   3.619   6.857
 1989SOL     OW 6865   1.842   0.008   4.303
 1989SOL    HW1 6866   1.890   6.950   4.268
 1989SOL    HW2 6867   1.907   0.067   4.352
 1990SOL     OW 6868   2.978   1.022   0.824
 1990SOL    HW1 6869   2.940   1.086   0.758
 1990SOL    HW2 6870   3.035   1.071   0.890
 1991SOL     OW 6871   3.303   5.358   5.086
 1991SOL    HW1 6872   3.351   5.435   5.043
 1991SOL    HW2 6873   3.323   5.357   5.184
 1992SOL     OW 6874   2.344   6.670   5.090
 1992SOL    HW1 6875   2.416   6.643   5.027
 1992SOL    HW2 6876   2.320   6.766   5.075
 1993SOL     OW 6877   3.635   3.860   5.400
 1993SOL    HW1 6878   3.601   3.778   5.444
 1993SOL    HW2 6879   3.733   3.850   5.381
 1994SOL     OW 6880   6.864   1.890   1.676
 1994SOL    HW1 6881   6.795   1.818   1.667
 1994SOL    HW2 6882   6.943   1.854   1.726
 1995SOL     OW 6883   6.071   1.789   1.571
 1995SOL    HW1 6884   6.097   1.862   1.508
 1995SOL    HW2 6885   6.086   1.700   1.527
 1996SOL     OW 6886   3.609   3.519   0.099
 1996SOL    HW1 6887   3.567   3.517   0.009
 1996SOL    HW2 6888   3.593   3.607   0.143
 1997SOL     OW 6889   6.010   0.941   5.479
 1997SOL    HW1 6890   6.086   0.901   5.429
 1997SOL    HW2 6891   5.925   0.894   5.454
 1998SOL     OW 6892   2.831   4.056   6.496
 1998SOL    HW1 6893   2.924   4.084   6.517
 1998SOL    HW2 6894   2.787   4.123   6.437
 1999SOL     OW 6895   2.431   6.993   2.276
 1999SOL    HW1 6896   2.493   0.049   2.276
 1999SOL    HW2 6897   2.343   7.020   2.238
 2000SOL     OW 6898   4.267   1.139   5.038
 2000SOL    HW1 6899   4.311   1.228   5.031
 2000SOL    HW2 6900   4.256   1.099   4.947
 2001SOL     OW 6901   3.553   1.959   1.027
 2001SOL    HW1 6902   3.505   1.901   0.960
 2001SOL    HW2 6903   3.557   1.912   1.115
 2002SOL     OW 6904   1.931   6.406   6.055
 2002SOL    HW1 6905   1.868   6.419   5.978
 2002SOL    HW2 6906   1.940   6.491   6.106
 2003SOL     OW 6907   5.366   0.311   3.397
 2003SOL    HW1 6908   5.424   0.368   3.340
 2003SOL    HW2 6909   5.283   0.287   3.348
 2004SOL     OW 6910   3.764   1.168   5.088
 2004SOL    HW1 6911   3.782   1.266   5.082
 2004SOL    HW2 6912   3.701   1.141   5.015
 2005SOL     OW 6913   2.442   6.095   6.280
 2005SOL    HW1 6914   2.409   6.176   6.231
 2005SOL    HW2 6915   2.482   6.124   6.367
 2006SOL     OW 6916   4.673   4.352   3.652
 2006SOL    HW1 6917   4.649   4.429   3.711
 2006SOL    HW2 6918   4.692   4.272   3.708
 2007SOL     OW 6919   5.092   5.224   6.801
 2007SOL    HW1 6920   5.029   5.301   6.795
 2007SOL    HW2 6921   5.128   5.218   6.894
 2008SOL     OW 6922   6.654   6.373   3.711
 2008SOL    HW1 6923   6.643   6.472   3.718
 2008SOL    HW2 6924   6.611   6.341   3.627
 2009SOL     OW 6925   0.194   0.404   1.730
 2009SOL    HW1 6926   0.269   0.376   1.790
 2009SOL    HW2 6927   0.216   0.381   1.635
 2010SOL     OW 6928   0.838   0.852   0.588
 2010SOL    HW1 6929   0.778   0.782   0.627
 2010SOL    HW2 6930   0.862   0.827   0.494
 2011SOL     OW 6931   6.536   2.297   4.959
 2011SOL    HW1 6932   6.448   2.320   4.918
 2011SOL    HW2 6933   6.545   2.342   5.047
 2012SOL     OW 6934   1.351   4.016   2.070
 2012SOL    HW1 6935   1.295   3.944   2.110
 2012SOL    HW2 6936   1.292   4.092   2.041
 2013SOL     OW 6937   5.681   1.964   2.974
 2013SOL    HW1 6938   5.627   1.895   3.022
 2013SOL    HW2 6939   5.656   1.966   2.877
 2014SOL     OW 6940   1.422   5.907   3.779
 2014SOL    HW1 6941   1.517   5.878   3.770
 2014SOL    HW2 6942   1.393   5.899   3.874
 2015SOL     OW 6943   3.620   0.553   0.245
 2015SOL    HW1 6944   3.619   0.580   0.341
 2015SOL    HW2 6945   3.661   0.626   0.190
 2016SOL     OW 6946   1.218   5.579   4.294
 2016SOL    HW1 6947   1.195   5.658   4.238
 2016SOL    HW2 6948   1.210   5.495   4.240
 2017SOL     OW 6949   2.359   5.695   3.484
 2017SOL    HW1 6950   2.337   5.766   3.417
 2017SOL    HW2 6951   2.285   5.690   3.552
 2018SOL     OW 6952   0.051   5.644   5.054
 2018SOL    HW1 6953   0.126   5.700   5.088
 2018SOL    HW2 6954   0.029   5.573   5.120
 2019SOL     OW 6955   5.464   3.011   0.725
 2019SOL    HW1 6956   5.378   3.058   0.748
 2019SOL    HW2 6957   5.498   2.962   0.804
 2020SOL     OW 6958   1.875   5.184   4.340
 2020SOL    HW1 6959   1.971   5.164   4.360
 2020SOL    HW2 6960   1.868   5.274   4.297
 2021SOL     OW 6961   1.598   0.721   2.205
 2021SOL    HW1 6962   1.533   0.756   2.272
 2021SOL    HW2 6963   1.687   0.763   2.220
 2022SOL     OW 6964   2.316   3.535   1.613
 2022SOL    HW1 6965   2.264   3.594   1.675
 2022SOL    HW2 6966   2.356   3.459   1.665
 2023SOL     OW 6967   6.752   0.734   6.889
 2023SOL    HW1 6968   6.691   0.810   6.864
 2023SOL    HW2 6969   6.702   0.669   6.946
 2024SOL     OW 6970   6.384   0.572   3.619
 2024SOL    HW1 6971   6.291   0.550   3.589
 2024SOL    HW2 6972   6.447   0.502   3.587
 2025SOL     OW 6973   0.897   2.359   1.167
 2025SOL    HW1 6974   0.855   2.438   1.122
 2025SOL    HW2 6975   0.981   2.387   1.213
 2026SOL     OW 6976   2.517   2.436   5.881
 2026SOL    HW1 6977   2.448   2.373   5.917
 2026SOL    HW2 6978   2.472   2.521   5.852
 2027SOL     OW 6979   0.528   0.866   2.197
 2027SOL    HW1 6980   0.549   0.958   2.164
 2027SOL    HW2 6981   0.612   0.811   2.197
 2028SOL     OW 6982   3.700   1.635   0.613
 2028SOL    HW1 6983   3.766   1.678   0.675
 2028SOL    HW2 6984   3.616   1.689   0.611
 2029SOL     OW 6985   1.353   0.841   6.415
 2029SOL    HW1 6986   1.448   0.870   6.416
 2029SOL    HW2 6987   1.327   0.809   6.506
 2030SOL     OW 6988   2.270   2.027   3.689
 2030SOL    HW1 6989   2.326   1.998   3.611
 2030SOL    HW2 6990   2.219   1.949   3.724
 2031SOL     OW 6991   5.436   5.998   2.234
 2031SOL    HW1 6992   5.458   5.903   2.258
 2031SOL    HW2 6993   5.381   6.039   2.307
 2032SOL     OW 6994   5.072   6.178   0.794
 2032SOL    HW1 6995   5.157   6.150   0.750
 2032SOL    HW2 6996   4.999   6.113   0.772
 2033SOL     OW 6997   4.480   4.626   6.396
 2033SOL    HW1 6998   4.463   4.548   6.455
 2033SOL    HW2 6999   4.468   4.711   6.449
 2034SOL     OW 7000   2.079   5.974   3.248
 2034SOL    HW1 7001   2.020   5.930   3.316
 2034SOL    HW2 7002   2.043   5.957   3.157
 2035SOL     OW 7003   0.046   1.652   2.411
 2035SOL    HW1 7004   6.989   1.616   2.364
 2035SOL    HW2 7005   0.021   1.733   2.464
 2036SOL     OW 7006   0.630   5.233   0.779
 2036SOL    HW1 7007   0.697   5.308   0.772
 2036SOL    HW2 7008   0.540   5.271   0.798
 2037SOL     OW 7009   6.770   2.378   5.709
 2037SOL    HW1 7010   6.716   2.294   5.706
 2037SOL    HW2 7011   6.711   2.456   5.729
 2038SOL     OW 7012   0.860   1.717   5.384
 2038SOL    HW1 7013   0.907   1.631   5.363
 2038SOL    HW2 7014   0.772   1.698   5.426
 2039SOL     OW 7015   6.875   5.795   3.940
 2039SOL    HW1 7016   6.785   5.753   3.951
 2039SOL    HW2 7017   6.906   5.784   3.845
 2040SOL     OW 7018   3.761   3.465   4.616
 2040SOL    HW1 7019   3.756   3.528   4.539
 2040SOL    HW2 7020   3.818   3.505   4.688
 2041SOL     OW 7021   5.462   4.471   6.033
 2041SOL    HW1 7022   5.508   4.411   6.098
 2041SOL    HW2 7023   5.467   4.565   6.066
 2042SOL     OW 7024   5.209   5.290   1.245
 2042SOL    HW1 7025   5.239   5.385   1.238
 2042SOL    HW2 7026   5.265   5.242   1.312
 2043SOL     OW 7027   6.115   5.219   2.633
 2043SOL    HW1 7028   6.187   5.285   2.612
 2043SOL    HW2 7029   6.026   5.263   2.620
 2044SOL     OW 7030   5.793   6.832   2.227
 2044SOL    HW1 7031   5.790   6.743   2.272
 2044SOL    HW2 7032   5.760   6.902   2.290
 2045SOL     OW 7033   2.250   4.568   5.904
 2045SOL    HW1 7034   2.193   4.513   5.843
 2045SOL    HW2 7035   2.231   4.665   5.890
 2046SOL     OW 7036   0.095   0.177   4.338
 2046SOL    HW1 7037   0.006   0.200   4.378
 2046SOL    HW2 7038   0.168   0.205   4.401
 2047SOL     OW 7039   4.701   2.150   1.431
 2047SOL    HW1 7040   4.669   2.224   1.489
 2047SOL    HW2 7041   4.783   2.179   1.382
 2048SOL     OW 7042   3.616   0.054   0.263
 2048SOL    HW1 7043   3.713   0.065   0.244
 2048SOL    HW2 7044   3.602   0.038   0.360
 2049SOL     OW 7045   4.609   1.742   6.613
 2049SOL    HW1 7046   4.707   1.732   6.632
 2049SOL    HW2 7047   4.582   1.836   6.630
 2050SOL     OW 7048   6.151   2.698   3.795
 2050SOL    HW1 7049   6.239   2.674   3.753
 2050SOL    HW2 7050   6.163   2.778   3.853
 2051SOL     OW 7051   0.779   5.031   6.950
 2051SOL    HW1 7052   0.838   4.993   6.878
 2051SOL    HW2 7053   0.786   4.973   0.008
 2052SOL     OW 7054   0.537   3.047   6.992
 2052SOL    HW1 7055   0.500   2.992   0.044
 2052SOL    HW2 7056   0.635   3.028   6.982
 2053SOL     OW 7057   6.150   0.375   0.549
 2053SOL    HW1 7058   6.063   0.326   0.544
 2053SOL    HW2 7059   6.212   0.328   0.611
 2054SOL     OW 7060   6.157   2.901   0.691
 2054SOL    HW1 7061   6.232   2.967   0.685
 2054SOL    HW2 7062   6.193   2.814   0.725
 2055SOL     OW 7063   5.461   2.492   3.201
 2055SOL    HW1 7064   5.504   2.402   3.197
 2055SOL    HW2 7065   5.474   2.532   3.292
 2056SOL     OW 7066   2.277   1.351   3.077
 2056SOL    HW1 7067   2.181   1.369   3.055
 2056SOL    HW2 7068   2.334   1.378   3.000
 2057SOL     OW 7069   5.740   2.023   3.750
 2057SOL    HW1 7070   5.709   2.117   3.763
 2057SOL    HW2 7071   5.690   1.963   3.812
 2058SOL     OW 7072   0.594   1.908   3.177
 2058SOL    HW1 7073   0.571   1.983   3.115
 2058SOL    HW2 7074   0.576   1.935   3.271
 2059SOL     OW 7075   2.426   0.507   6.935
 2059SOL    HW1 7076   2.511   0.496   6.882
 2059SOL    HW2 7077   2.439   0.469   0.003
 2060SOL     OW 7078   0.131   4.412   2.012
 2060SOL    HW1 7079   0.149   4.314   2.001
 2060SOL    HW2 7080   0.187   4.463   1.946
 2061SOL     OW 7081   6.697   1.240   2.287
 2061SOL    HW1 7082   6.683   1.203   2.379
 2061SOL    HW2 7083   6.783   1.291   2.284
 2062SOL     OW 7084   4.617   0.041   2.463
 2062SOL    HW1 7085   4.639   0.136   2.486
 2062SOL    HW2 7086   4.677   7.003   2.514
 2063SOL     OW 7087   1.463   1.815   6.217
 2063SOL    HW1 7088   1.408   1.796   6.136
 2063SOL    HW2 7089   1.464   1.913   6.235
 2064SOL     OW 7090   0.929   2.328   5.572
 2064SOL    HW1 7091   1.004   2.282   5.524
 2064SOL    HW2 7092   0.940   2.315   5.671
 2065SOL     OW 7093   5.783   3.323   2.250
 2065SOL    HW1 7094   5.842   3.263   2.196
 2065SOL    HW2 7095   5.719   3.370   2.190
 2066SOL     OW 7096   0.644   5.447   4.225
 2066SOL    HW1 7097   0.633   5.353   4.191
 2066SOL    HW2 7098   0.586   5.509   4.171
 2067SOL     OW 7099   6.575   6.758   0.490
 2067SOL    HW1 7100   6.492   6.741   0.543
 2067SOL    HW2 7101   6.558   6.740   0.393
 2068SOL     OW 7102   2.321   1.203   5.343
 2068SOL    HW1 7103   2.388   1.218   5.270
 2068SOL    HW2 7104   2.367   1.197   5.431
 2069SOL     OW 7105   0.807   2.764   2.396
 2069SOL    HW1 7106   0.766   2.732   2.311
 2069SOL    HW2 7107   0.775   2.707   2.472
 2070SOL     OW 7108   1.139   0.366   2.349
 2070SOL    HW1 7109   1.128   0.459   2.314
 2070SOL    HW2 7110   1.108   0.301   2.280
 2071SOL     OW 7111   1.049   6.101   4.087
 2071SOL    HW1 7112   1.066   6.063   4.178
 2071SOL    HW2 7113   0.964   6.063   4.050
 2072SOL     OW 7114   4.817   5.916   2.262
 2072SOL    HW1 7115   4.880   5.839   2.272
 2072SOL    HW2 7116   4.746   5.893   2.195
 2073SOL     OW 7117   4.020   0.423   4.625
 2073SOL    HW1 7118   4.012   0.443   4.527
 2073SOL    HW2 7119   4.037   0.507   4.675
 2074SOL     OW 7120   0.024   2.290   6.986
 2074SOL    HW1 7121   0.040   2.192   6.974
 2074SOL    HW2 7122   0.063   2.339   6.908
 2075SOL     OW 7123   5.014   3.407   1.205
 2075SOL    HW1 7124   4.930   3.354   1.189
 2075SOL    HW2 7125   5.041   3.396   1.301
 2076SOL     OW 7126   5.842   6.357   0.145
 2076SOL    HW1 7127   5.752   6.337   0.106
 2076SOL    HW2 7128   5.834   6.366   0.244
 2077SOL     OW 7129   5.497   2.295   2.156
 2077SOL    HW1 7130   5.551   2.342   2.226
 2077SOL    HW2 7131   5.481   2.200   2.184
 2078SOL     OW 7132   2.976   5.860   6.263
 2078SOL    HW1 7133   3.022   5.776   6.293
 2078SOL    HW2 7134   2.957   5.917   6.342
 2079SOL     OW 7135   5.541   0.861   3.611
 2079SOL    HW1 7136   5.553   0.762   3.615
 2079SOL    HW2 7137   5.445   0.882   3.589
 2080SOL     OW 7138   2.472   1.971   4.952
 2080SOL    HW1 7139   2.569   1.978   4.929
 2080SOL    HW2 7140   2.437   2.062   4.975
 2081SOL     OW 7141   1.151   6.137   5.666
 2081SOL    HW1 7142   1.212   6.216   5.675
 2081SOL    HW2 7143   1.165   6.093   5.578
 2082SOL     OW 7144   5.957   0.743   1.643
 2082SOL    HW1 7145   5.964   0.774   1.548
 2082SOL    HW2 7146   5.867   0.704   1.660
 2083SOL     OW 7147   4.162   5.407   6.822
 2083SOL    HW1 7148   4.085   5.357   6.782
 2083SOL    HW2 7149   4.135   5.502   6.838
 2084SOL     OW 7150   6.919   2.425   3.165
 2084SOL    HW1 7151   6.883   2.504   3.115
 2084SOL    HW2 7152   6.845   2.383   3.218
 2085SOL     OW 7153   5.336   0.952   6.404
 2085SOL    HW1 7154   5.351   1.022   6.474
 2085SOL    HW2 7155   5.237   0.937   6.393
 2086SOL     OW 7156   2.917   5.180   6.572
 2086SOL    HW1 7157   2.877   5.238   6.501
 2086SOL    HW2 7158   2.988   5.122   6.533
 2087SOL     OW 7159   4.845   6.492   2.352
 2087SOL    HW1 7160   4.746   6.496   2.364
 2087SOL    HW2 7161   4.880   6.584   2.330
 2088SOL     OW 7162   3.179   5.810   0.654
 2088SOL    HW1 7163   3.101   5.873   0.645
 2088SOL    HW2 7164   3.159   5.743   0.726
 2089SOL     OW 7165   4.888   1.516   0.083
 2089SOL    HW1 7166   4.835   1.467   0.013
 2089SOL    HW2 7167   4.984   1.489   0.077
 2090SOL     OW 7168   3.911   3.791   4.270
 2090SOL    HW1 7169   3.962   3.847   4.336
 2090SOL    HW2 7170   3.951   3.700   4.266
 2091SOL     OW 7171   0.508   5.919   0.151
 2091SOL    HW1 7172   0.508   5.954   0.244
 2091SOL    HW2 7173   0.602   5.917   0.116
 2092SOL     OW 7174   5.488   5.981   0.517
 2092SOL    HW1 7175   5.489   6.020   0.609
 2092SOL    HW2 7176   5.565   5.918   0.508
 2093SOL     OW 7177   1.469   2.061   1.837
 2093SOL    HW1 7178   1.552   2.112   1.862
 2093SOL    HW2 7179   1.397   2.126   1.813
 2094SOL     OW 7180   5.985   0.684   1.918
 2094SOL    HW1 7181   5.903   0.629   1.933
 2094SOL    HW2 7182   5.981   0.727   1.828
 2095SOL     OW 7183   5.160   6.855   3.583
 2095SOL    HW1 7184   5.145   6.764   3.622
 2095SOL    HW2 7185   5.226   6.849   3.509
 2096SOL     OW 7186   5.087   3.687   3.026
 2096SOL    HW1 7187   5.177   3.658   3.059
 2096SOL    HW2 7188   5.016   3.626   3.064
 2097SOL     OW 7189   0.788   2.939   6.383
 2097SOL    HW1 7190   0.822   2.907   6.472
 2097SOL    HW2 7191   0.727   2.870   6.344
 2098SOL     OW 7192   4.123   6.514   3.951
 2098SOL    HW1 7193   4.141   6.483   4.045
 2098SOL    HW2 7194   4.131   6.437   3.889
 2099SOL     OW 7195   2.823   0.760   4.787
 2099SOL    HW1 7196   2.755   0.818   4.742
 2099SOL    HW2 7197   2.911   0.771   4.741
 2100SOL     OW 7198   3.510   3.499   6.575
 2100SOL    HW1 7199   3.583   3.448   6.530
 2100SOL    HW2 7200   3.467   3.560   6.509
 2101SOL     OW 7201   0.635   6.670   2.178
 2101SOL    HW1 7202   0.720   6.677   2.230
 2101SOL    HW2 7203   0.577   6.750   2.197
 2102SOL     OW 7204   0.282   5.127   2.200
 2102SOL    HW1 7205   0.259   5.133   2.298
 2102SOL    HW2 7206   0.209   5.078   2.152
 2103SOL     OW 7207   2.737   3.976   0.009
 2103SOL    HW1 7208   2.679   4.047   6.990
 2103SOL    HW2 7209   2.751   3.999   0.106
 2104SOL     OW 7210   1.689   3.464   6.519
 2104SOL    HW1 7211   1.781   3.502   6.512
 2104SOL    HW2 7212   1.694   3.364   6.518
 2105SOL     OW 7213   5.554   5.207   2.961
 2105SOL    HW1 7214   5.489   5.142   3.002
 2105SOL    HW2 7215   5.505   5.266   2.897
 2106SOL     OW 7216   4.173   5.211   0.043
 2106SOL    HW1 7217   4.251   5.198   0.104
 2106SOL    HW2 7218   4.195   5.281   6.998
 2107SOL     OW 7219   3.926   3.413   5.883
 2107SOL    HW1 7220   3.855   3.429   5.814
 2107SOL    HW2 7221   4.000   3.361   5.841
 2108SOL     OW 7222   6.286   5.940   5.455
 2108SOL    HW1 7223   6.240   5.933   5.366
 2108SOL    HW2 7224   6.383   5.918   5.444
 2109SOL     OW 7225   4.865   6.910   3.210
 2109SOL    HW1 7226   4.780   6.948   3.174
 2109SOL    HW2 7227   4.863   6.911   3.310
 2110SOL     OW 7228   2.650   4.049   6.756
 2110SOL    HW1 7229   2.584   4.103   6.809
 2110SOL    HW2 7230   2.723   4.109   6.723
 2111SOL     OW 7231   0.914   2.166   6.113
 2111SOL    HW1 7232   0.907   2.067   6.121
 2111SOL    HW2 7233   0.922   2.206   6.204
 2112SOL     OW 7234   4.426   2.036   1.705
 2112SOL    HW1 7235   4.390   2.064   1.794
 2112SOL    HW2 7236   4.452   2.116   1.652
 2113SOL     OW 7237   1.375   7.008   3.537
 2113SOL    HW1 7238   1.308   0.030   3.597
 2113SOL    HW2 7239   1.328   6.942   3.478
 2114SOL     OW 7240   1.461   3.398   0.752
 2114SOL    HW1 7241   1.368   3.372   0.781
 2114SOL    HW2 7242   1.528   3.340   0.799
 2115SOL     OW 7243   1.991   4.181   3.092
 2115SOL    HW1 7244   1.939   4.114   3.039
 2115SOL    HW2 7245   1.951   4.272   3.080
 2116SOL     OW 7246   6.350   3.860   2.903
 2116SOL    HW1 7247   6.420   3.931   2.908
 2116SOL    HW2 7248   6.275   3.892   2.845
 2117SOL     OW 7249   0.193   5.010   1.950
 2117SOL    HW1 7250   0.216   5.071   1.873
 2117SOL    HW2 7251   0.269   4.948   1.968
 2118SOL     OW 7252   0.190   3.443   2.506
 2118SOL    HW1 7253   0.173   3.373   2.436
 2118SOL    HW2 7254   0.274   3.421   2.555
 2119SOL     OW 7255   2.217   6.009   1.175
 2119SOL    HW1 7256   2.163   5.975   1.098
 2119SOL    HW2 7257   2.158   6.060   1.238
 2120SOL     OW 7258   6.408   5.043   2.609
 2120SOL    HW1 7259   6.325   5.094   2.634
 2120SOL    HW2 7260   6.406   4.953   2.652
 2121SOL     OW 7261   0.743   4.915   4.938
 2121SOL    HW1 7262   0.824   4.968   4.966
 2121SOL    HW2 7263   0.687   4.970   4.876
 2122SOL     OW 7264   6.308   4.515   5.212
 2122SOL    HW1 7265   6.289   4.528   5.310
 2122SOL    HW2 7266   6.361   4.593   5.179
 2123SOL     OW 7267   0.483   4.345   2.837
 2123SOL    HW1 7268   0.485   4.266   2.899
 2123SOL    HW2 7269   0.389   4.365   2.811
 2124SOL     OW 7270   1.821   1.613   1.058
 2124SOL    HW1 7271   1.899   1.572   1.010
 2124SOL    HW2 7272   1.737   1.597   1.007
 2125SOL     OW 7273   1.418   1.043   0.368
 2125SOL    HW1 7274   1.455   1.124   0.413
 2125SOL    HW2 7275   1.443   1.045   0.271
 2126SOL     OW 7276   2.729   0.969   0.549
 2126SOL    HW1 7277   2.753   0.883   0.594
 2126SOL    HW2 7278   2.634   0.965   0.518
 2127SOL     OW 7279   6.067   2.714   4.514
 2127SOL    HW1 7280   5.973   2.734   4.540
 2127SOL    HW2 7281   6.130   2.759   4.578
 2128SOL     OW 7282   0.104   4.240   4.769
 2128SOL    HW1 7283   0.105   4.264   4.866
 2128SOL    HW2 7284   0.098   4.323   4.714
 2129SOL     OW 7285   4.560   2.808   5.565
 2129SOL    HW1 7286   4.501   2.856   5.500
 2129SOL    HW2 7287   4.630   2.871   5.599
 2130SOL     OW 7288   4.541   6.846   2.277
 2130SOL    HW1 7289   4.554   6.895   2.363
 2130SOL    HW2 7290   4.447   6.813   2.271
 2131SOL     OW 7291   0.180   1.188   0.748
 2131SOL    HW1 7292   0.193   1.122   0.822
 2131SOL    HW2 7293   0.192   1.142   0.660
 2132SOL     OW 7294   3.909   3.191   0.733
 2132SOL    HW1 7295   3.988   3.217   0.677
 2132SOL    HW2 7296   3.827   3.238   0.701
 2133SOL     OW 7297   3.003   2.524   5.421
 2133SOL    HW1 7298   3.087   2.480   5.391
 2133SOL    HW2 7299   2.925   2.486   5.371
 2134SOL     OW 7300   6.743   2.171   0.886
 2134SOL    HW1 7301   6.758   2.073   0.899
 2134SOL    HW2 7302   6.694   2.186   0.800
 2135SOL     OW 7303   0.087   4.451   4.594
 2135SOL    HW1 7304   0.076   4.392   4.514
 2135SOL    HW2 7305   0.146   4.528   4.571
 2136SOL     OW 7306   2.724   5.311   1.906
 2136SOL    HW1 7307   2.683   5.296   1.996
 2136SOL    HW2 7308   2.821   5.291   1.909
 2137SOL     OW 7309   3.413   5.133   4.692
 2137SOL    HW1 7310   3.405   5.143   4.593
 2137SOL    HW2 7311   3.437   5.221   4.733
 2138SOL     OW 7312   6.155   0.662   3.103
 2138SOL    HW1 7313   6.217   0.621   3.037
 2138SOL    HW2 7314   6.206   0.724   3.163
 2139SOL     OW 7315   3.447   0.481   4.685
 2139SOL    HW1 7316   3.412   0.574   4.697
 2139SOL    HW2 7317   3.446   0.456   4.588
 2140SOL     OW 7318   3.586   0.513   4.915
 2140SOL    HW1 7319   3.522   0.503   4.992
 2140SOL    HW2 7320   3.535   0.508   4.829
 2141SOL     OW 7321   6.098   4.066   2.383
 2141SOL    HW1 7322   6.080   4.029   2.475
 2141SOL    HW2 7323   6.121   3.991   2.321
 2142SOL     OW 7324   1.402   2.432   3.474
 2142SOL    HW1 7325   1.336   2.357   3.462
 2142SOL    HW2 7326   1.355   2.519   3.461
 2143SOL     OW 7327   2.092   5.795   0.970
 2143SOL    HW1 7328   2.013   5.770   0.913
 2143SOL    HW2 7329   2.136   5.876   0.932
 2144SOL     OW 7330   0.556   4.840   4.386
 2144SOL    HW1 7331   0.639   4.798   4.422
 2144SOL    HW2 7332   0.576   4.886   4.300
 2145SOL     OW 7333   4.168   6.855   4.127
 2145SOL    HW1 7334   4.201   6.772   4.081
 2145SOL    HW2 7335   4.164   6.930   4.061
 2146SOL     OW 7336   1.882   2.116   0.328
 2146SOL    HW1 7337   1.866   2.191   0.391
 2146SOL    HW2 7338   1.805   2.051   0.334
 2147SOL     OW 7339   6.700   1.910   5.892
 2147SOL    HW1 7340   6.629   1.891   5.824
 2147SOL    HW2 7341   6.683   1.855   5.974
 2148SOL     OW 7342   0.387   3.219   6.467
 2148SOL    HW1 7343   0.379   3.299   6.408
 2148SOL    HW2 7344   0.482   3.188   6.470
 2149SOL     OW 7345   1.244   1.074   0.588
 2149SOL    HW1 7346   1.268   1.160   0.633
 2149SOL    HW2 7347   1.312   1.053   0.517
 2150SOL     OW 7348   2.597   2.646   1.681
 2150SOL    HW1 7349   2.622   2.602   1.595
 2150SOL    HW2 7350   2.506   2.686   1.673
 2151SOL     OW 7351   0.626   6.401   6.790
 2151SOL    HW1 7352   0.606   6.391   6.692
 2151SOL    HW2 7353   0.687   6.479   6.804
 2152SOL     OW 7354   3.689   5.491   2.146
 2152SOL    HW1 7355   3.602   5.482   2.098
 2152SOL    HW2 7356   3.714   5.587   2.154
 2153SOL     OW 7357   4.728   1.141   2.432
 2153SOL    HW1 7358   4.636   1.174   2.454
 2153SOL    HW2 7359   4.735   1.124   2.333
 2154SOL     OW 7360   2.513   6.615   3.410
 2154SOL    HW1 7361   2.559   6.530   3.383
 2154SOL    HW2 7362   2.494   6.613   3.508
 2155SOL     OW 7363   4.259   6.934   1.089
 2155SOL    HW1 7364   4.306   6.855   1.049
 2155SOL    HW2 7365   4.321   7.012   1.092
 2156SOL     OW 7366   6.480   0.684   4.161
 2156SOL    HW1 7367   6.383   0.707   4.167
 2156SOL    HW2 7368   6.514   0.704   4.069
 2157SOL     OW 7369   4.401   5.982   3.929
 2157SOL    HW1 7370   4.443   6.072   3.942
 2157SOL    HW2 7371   4.384   5.940   4.019
 2158SOL     OW 7372   4.270   0.025   0.810
 2158SOL    HW1 7373   4.258   6.951   0.832
 2158SOL    HW2 7374   4.216   0.080   0.874
 2159SOL     OW 7375   1.395   0.465   5.326
 2159SOL    HW1 7376   1.316   0.443   5.383
 2159SOL    HW2 7377   1.474   0.484   5.384
 2160SOL     OW 7378   4.842   5.312   0.118
 2160SOL    HW1 7379   4.942   5.316   0.107
 2160SOL    HW2 7380   4.807   5.231   0.072
 2161SOL     OW 7381   0.352   3.992   2.714
 2161SOL    HW1 7382   0.422   4.007   2.644
 2161SOL    HW2 7383   0.329   4.080   2.757
 2162SOL     OW 7384   2.709   6.834   3.141
 2162SOL    HW1 7385   2.683   6.763   3.207
 2162SOL    HW2 7386   2.635   6.901   3.133
 2163SOL     OW 7387   1.771   3.431   0.451
 2163SOL    HW1 7388   1.792   3.368   0.376
 2163SOL    HW2 7389   1.672   3.431   0.468
 2164SOL     OW 7390   3.077   2.409   6.778
 2164SOL    HW1 7391   3.129   2.493   6.794
 2164SOL    HW2 7392   3.025   2.386   6.859
 2165SOL     OW 7393   0.763   1.648   4.375
 2165SOL    HW1 7394   0.741   1.743   4.357
 2165SOL    HW2 7395   0.861   1.632   4.358
 2166SOL     OW 7396   0.558   4.221   4.221
 2166SOL    HW1 7397   0.591   4.300   4.273
 2166SOL    HW2 7398   0.468   4.194   4.255
 2167SOL     OW 7399   1.258   2.656   3.590
 2167SOL    HW1 7400   1.209   2.732   3.633
 2167SOL    HW2 7401   1.258   2.577   3.650
 2168SOL     OW 7402   0.845   1.999   3.049
 2168SOL    HW1 7403   0.853   1.967   2.954
 2168SOL    HW2 7404   0.811   1.925   3.107
 2169SOL     OW 7405   0.462   0.539   1.097
 2169SOL    HW1 7406   0.392   0.541   1.025
 2169SOL    HW2 7407   0.426   0.496   1.179
 2170SOL     OW 7408   0.377   4.081   5.047
 2170SOL    HW1 7409   0.318   4.074   5.128
 2170SOL    HW2 7410   0.427   4.168   5.051
 2171SOL     OW 7411   0.507   5.469   1.210
 2171SOL    HW1 7412   0.500   5.370   1.222
 2171SOL    HW2 7413   0.417   5.506   1.187
 2172SOL     OW 7414   1.021   1.879   5.559
 2172SOL    HW1 7415   0.949   1.848   5.497
 2172SOL    HW2 7416   1.091   1.808   5.566
 2173SOL     OW 7417   5.807   0.013   5.545
 2173SOL    HW1 7418   5.819   7.022   5.644
 2173SOL    HW2 7419   5.734   6.977   5.512
 2174SOL     OW 7420   0.406   6.263   5.288
 2174SOL    HW1 7421   0.449   6.301   5.371
 2174SOL    HW2 7422   0.412   6.164   5.290
 2175SOL     OW 7423   1.944   2.915   4.949
 2175SOL    HW1 7424   1.943   2.893   4.851
 2175SOL    HW2 7425   1.853   2.944   4.978
 2176SOL     OW 7426   4.726   2.458   1.339
 2176SOL    HW1 7427   4.812   2.507   1.353
 2176SOL    HW2 7428   4.657   2.520   1.304
 2177SOL     OW 7429   6.439   0.355   2.756
 2177SOL    HW1 7430   6.381   0.432   2.783
 2177SOL    HW2 7431   6.422   0.278   2.817
 2178SOL     OW 7432   1.175   0.962   1.828
 2178SOL    HW1 7433   1.169   1.062   1.828
 2178SOL    HW2 7434   1.262   0.933   1.789
 2179SOL     OW 7435   1.981   4.078   6.563
 2179SOL    HW1 7436   2.077   4.061   6.584
 2179SOL    HW2 7437   1.924   4.013   6.613
 2180SOL     OW 7438   1.750   3.770   2.017
 2180SOL    HW1 7439   1.837   3.725   2.035
 2180SOL    HW2 7440   1.703   3.723   1.942
 2181SOL     OW 7441   4.747   4.948   4.586
 2181SOL    HW1 7442   4.693   5.032   4.589
 2181SOL    HW2 7443   4.778   4.925   4.679
 2182SOL     OW 7444   0.692   4.676   3.537
 2182SOL    HW1 7445   0.688   4.651   3.441
 2182SOL    HW2 7446   0.616   4.632   3.586
 2183SOL     OW 7447   2.540   3.986   0.375
 2183SOL    HW1 7448   2.462   4.047   0.362
 2183SOL    HW2 7449   2.507   3.892   0.384
 2184SOL     OW 7450   5.263   0.239   0.243
 2184SOL    HW1 7451   5.175   0.208   0.207
 2184SOL    HW2 7452   5.279   0.196   0.333
 2185SOL     OW 7453   0.908   0.987   6.607
 2185SOL    HW1 7454   0.880   1.069   6.557
 2185SOL    HW2 7455   0.949   0.922   6.544
 2186SOL     OW 7456   6.147   5.178   5.442
 2186SOL    HW1 7457   6.210   5.207   5.514
 2186SOL    HW2 7458   6.184   5.204   5.353
 2187SOL     OW 7459   0.119   5.607   2.606
 2187SOL    HW1 7460   0.080   5.575   2.693
 2187SOL    HW2 7461   0.142   5.704   2.615
 2188SOL     OW 7462   2.151   5.182   6.157
 2188SOL    HW1 7463   2.221   5.111   6.151
 2188SOL    HW2 7464   2.170   5.253   6.089
 2189SOL     OW 7465   2.493   1.172   2.427
 2189SOL    HW1 7466   2.583   1.150   2.388
 2189SOL    HW2 7467   2.443   1.230   2.363
 2190SOL     OW 7468   6.995   3.436   2.143
 2190SOL    HW1 7469   7.007   3.519   2.089
 2190SOL    HW2 7470   6.905   3.437   2.187
 2191SOL     OW 7471   2.723   1.444   5.210
 2191SOL    HW1 7472   2.704   1.391   5.293
 2191SOL    HW2 7473   2.811   1.416   5.172
 2192SOL     OW 7474   5.748   0.046   2.362
 2192SOL    HW1 7475   5.749   0.132   2.311
 2192SOL    HW2 7476   5.672   0.046   2.426
 2193SOL     OW 7477   6.145   6.858   6.090
 2193SOL    HW1 7478   6.231   6.909   6.087
 2193SOL    HW2 7479   6.084   6.899   6.159
 2194SOL     OW 7480   0.807   3.978   5.545
 2194SOL    HW1 7481   0.826   3.962   5.642
 2194SOL    HW2 7482   0.858   4.057   5.512
 2195SOL     OW 7483   6.709   6.044   5.031
 2195SOL    HW1 7484   6.765   6.048   5.114
 2195SOL    HW2 7485   6.612   6.050   5.056
 2196SOL     OW 7486   3.325   6.620   4.981
 2196SOL    HW1 7487   3.339   6.682   5.057
 2196SOL    HW2 7488   3.365   6.659   4.898
 2197SOL     OW 7489   2.982   3.139   6.012
 2197SOL    HW1 7490   3.020   3.195   6.086
 2197SOL    HW2 7491   2.944   3.199   5.941
 2198SOL     OW 7492   6.349   6.609   1.022
 2198SOL    HW1 7493   6.291   6.652   0.953
 2198SOL    HW2 7494   6.438   6.654   1.023
 2199SOL     OW 7495   5.139   0.063   4.840
 2199SOL    HW1 7496   5.056   0.109   4.870
 2199SOL    HW2 7497   5.155   0.085   4.743
 2200SOL     OW 7498   3.150   1.286   3.650
 2200SOL    HW1 7499   3.111   1.318   3.563
 2200SOL    HW2 7500   3.246   1.261   3.637
 2201SOL     OW 7501   6.160   3.265   3.214
 2201SOL    HW1 7502   6.103   3.248   3.134
 2201SOL    HW2 7503   6.109   3.319   3.281
 2202SOL     OW 7504   2.992   6.009   2.686
 2202SOL    HW1 7505   2.928   5.966   2.622
 2202SOL    HW2 7506   3.035   5.940   2.743
 2203SOL     OW 7507   2.707   3.358   1.570
 2203SOL    HW1 7508   2.721   3.265   1.603
 2203SOL    HW2 7509   2.610   3.372   1.552
 2204SOL     OW 7510   4.508   2.837   1.010
 2204SOL    HW1 7511   4.582   2.779   0.977
 2204SOL    HW2 7512   4.421   2.789   1.003
 2205SOL     OW 7513   1.365   0.032   0.031
 2205SOL    HW1 7514   1.429   6.978   0.020
 2205SOL    HW2 7515   1.353   0.052   0.128
 2206SOL     OW 7516   2.253   4.712   6.315
 2206SOL    HW1 7517   2.156   4.695   6.299
 2206SOL    HW2 7518   2.302   4.625   6.317
 2207SOL     OW 7519   3.360   5.426   0.156
 2207SOL    HW1 7520   3.394   5.518   0.173
 2207SOL    HW2 7521   3.278   5.410   0.211
 2208SOL     OW 7522   1.073   5.547   3.426
 2208SOL    HW1 7523   1.094   5.454   3.459
 2208SOL    HW2 7524   1.151   5.607   3.444
 2209SOL     OW 7525   2.539   6.065   5.099
 2209SOL    HW1 7526   2.558   5.968   5.087
 2209SOL    HW2 7527   2.603   6.104   5.165
 2210SOL     OW 7528   6.829   5.755   2.997
 2210SOL    HW1 7529   6.903   5.721   3.055
 2210SOL    HW2 7530   6.741   5.725   3.034
 2211SOL     OW 7531   6.203   0.756   0.787
 2211SOL    HW1 7532   6.176   0.852   0.788
 2211SOL    HW2 7533   6.173   0.714   0.701
 2212SOL     OW 7534   1.835   5.752   6.663
 2212SOL    HW1 7535   1.783   5.723   6.742
 2212SOL    HW2 7536   1.903   5.820   6.691
 2213SOL     OW 7537   4.681   2.555   5.450
 2213SOL    HW1 7538   4.712   2.628   5.512
 2213SOL    HW2 7539   4.758   2.496   5.427
 2214SOL     OW 7540   3.363   2.932   5.161
 2214SOL    HW1 7541   3.314   2.899   5.241
 2214SOL    HW2 7542   3.298   2.950   5.087
 2215SOL     OW 7543   5.497   1.641   6.624
 2215SOL    HW1 7544   5.587   1.610   6.593
 2215SOL    HW2 7545   5.453   1.568   6.676
 2216SOL     OW 7546   0.422   6.915   6.226
 2216SOL    HW1 7547   0.388   6.960   6.308
 2216SOL    HW2 7548   0.345   6.885   6.170
 2217SOL     OW 7549   4.345   0.369   3.386
 2217SOL    HW1 7550   4.421   0.407   3.333
 2217SOL    HW2 7551   4.378   0.296   3.445
 2218SOL     OW 7552   6.972   5.286   6.607
 2218SOL    HW1 7553   6.997   5.359   6.670
 2218SOL    HW2 7554   0.032   5.249   6.565
 2219SOL     OW 7555   6.098   2.199   1.270
 2219SOL    HW1 7556   6.057   2.270   1.214
 2219SOL    HW2 7557   6.054   2.111   1.250
 2220SOL     OW 7558   2.019   5.863   5.849
 2220SOL    HW1 7559   1.984   5.957   5.856
 2220SOL    HW2 7560   1.968   5.804   5.913
 2221SOL     OW 7561   6.664   1.708   4.969
 2221SOL    HW1 7562   6.602   1.734   4.895
 2221SOL    HW2 7563   6.691   1.789   5.021
 2222SOL     OW 7564   5.990   6.931   0.850
 2222SOL    HW1 7565   5.958   6.862   0.785
 2222SOL    HW2 7566   5.913   6.966   0.903
 2223SOL     OW 7567   6.320   1.498   6.114
 2223SOL    HW1 7568   6.279   1.528   6.201
 2223SOL    HW2 7569   6.345   1.579   6.061
 2224SOL     OW 7570   5.872   3.389   1.952
 2224SOL    HW1 7571   5.920   3.393   1.864
 2224SOL    HW2 7572   5.887   3.299   1.993
 2225SOL     OW 7573   0.292   6.806   3.155
 2225SOL    HW1 7574   0.259   6.872   3.222
 2225SOL    HW2 7575   0.231   6.807   3.075
 2226SOL     OW 7576   3.752   5.515   0.568
 2226SOL    HW1 7577   3.835   5.505   0.512
 2226SOL    HW2 7578   3.686   5.446   0.541
 2227SOL     OW 7579   4.684   2.589   1.577
 2227SOL    HW1 7580   4.727   2.540   1.653
 2227SOL    HW2 7581   4.689   2.533   1.494
 2228SOL     OW 7582   4.667   5.475   0.230
 2228SOL    HW1 7583   4.707   5.525   0.307
 2228SOL    HW2 7584   4.737   5.416   0.189
 2229SOL     OW 7585   4.100   3.693   4.645
 2229SOL    HW1 7586   4.111   3.673   4.742
 2229SOL    HW2 7587   4.116   3.610   4.591
 2230SOL     OW 7588   5.409   5.923   1.335
 2230SOL    HW1 7589   5.316   5.902   1.364
 2230SOL    HW2 7590   5.469   5.846   1.357
 2231SOL     OW 7591   0.854   0.019   6.767
 2231SOL    HW1 7592   0.923   0.055   6.830
 2231SOL    HW2 7593   0.831   6.948   6.793
 2232SOL     OW 7594   0.574   1.339   4.890
 2232SOL    HW1 7595   0.485   1.345   4.845
 2232SOL    HW2 7596   0.596   1.427   4.932
 2233SOL     OW 7597   2.630   2.902   0.882
 2233SOL    HW1 7598   2.724   2.889   0.851
 2233SOL    HW2 7599   2.585   2.971   0.825
 2234SOL     OW 7600   3.570   1.245   0.565
 2234SOL    HW1 7601   3.496   1.282   0.622
 2234SOL    HW2 7602   3.596   1.313   0.497
 2235SOL     OW 7603   2.709   0.219   2.403
 2235SOL    HW1 7604   2.647   0.236   2.479
 2235SOL    HW2 7605   2.671   0.257   2.319
 2236SOL     OW 7606   1.809   3.547   5.735
 2236SOL    HW1 7607   1.896   3.596   5.737
 2236SOL    HW2 7608   1.766   3.558   5.645
 2237SOL     OW 7609   5.854   4.395   4.777
 2237SOL    HW1 7610   5.950   4.405   4.750
 2237SOL    HW2 7611   5.837   4.301   4.805
 2238SOL     OW 7612   4.545   4.690   2.488
 2238SOL    HW1 7613   4.527   4.602   2.445
 2238SOL    HW2 7614   4.498   4.695   2.576
 2239SOL     OW 7615   4.653   5.707   3.875
 2239SOL    HW1 7616   4.728   5.769   3.895
 2239SOL    HW2 7617   4.566   5.755   3.886
 2240SOL     OW 7618   3.506   5.587   2.414
 2240SOL    HW1 7619   3.531   5.494   2.441
 2240SOL    HW2 7620   3.590   5.640   2.398
 2241SOL     OW 7621   6.870   6.686   2.121
 2241SOL    HW1 7622   6.949   6.650   2.170
 2241SOL    HW2 7623   6.822   6.752   2.179
 2242SOL     OW 7624   5.354   3.060   2.820
 2242SOL    HW1 7625   5.278   3.124   2.829
 2242SOL    HW2 7626   5.361   3.030   2.725
 2243SOL     OW 7627   1.969   6.844   0.222
 2243SOL    HW1 7628   2.055   6.794   0.209
 2243SOL    HW2 7629   1.979   6.911   0.295
 2244SOL     OW 7630   2.465   0.098   1.307
 2244SOL    HW1 7631   2.426   0.185   1.277
 2244SOL    HW2 7632   2.563   0.109   1.324
 2245SOL     OW 7633   0.198   1.447   1.198
 2245SOL    HW1 7634   0.110   1.490   1.177
 2245SOL    HW2 7635   0.193   1.401   1.286
 2246SOL     OW 7636   1.769   0.652   4.246
 2246SOL    HW1 7637   1.844   0.687   4.301
 2246SOL    HW2 7638   1.802   0.631   4.154
 2247SOL     OW 7639   3.051   3.155   2.689
 2247SOL    HW1 7640   3.118   3.221   2.655
 2247SOL    HW2 7641   3.096   3.067   2.704
 2248SOL     OW 7642   6.266   4.222   4.277
 2248SOL    HW1 7643   6.232   4.278   4.201
 2248SOL    HW2 7644   6.224   4.253   4.363
 2249SOL     OW 7645   4.664   6.931   3.762
 2249SOL    HW1 7646   4.586   6.878   3.795
 2249SOL    HW2 7647   4.638   6.982   3.681
 2250SOL     OW 7648   3.132   3.843   5.400
 2250SOL    HW1 7649   3.107   3.761   5.349
 2250SOL    HW2 7650   3.228   3.864   5.385
 2251SOL     OW 7651   5.351   0.164   6.067
 2251SOL    HW1 7652   5.415   0.241   6.063
 2251SOL    HW2 7653   5.331   0.143   6.163
 2252SOL     OW 7654   4.879   1.760   2.890
 2252SOL    HW1 7655   4.818   1.791   2.817
 2252SOL    HW2 7656   4.972   1.753   2.854
 2253SOL     OW 7657   0.239   3.964   0.297
 2253SOL    HW1 7658   0.160   4.015   0.332
 2253SOL    HW2 7659   0.209   3.874   0.265
 2254SOL     OW 7660   3.773   3.098   3.922
 2254SOL    HW1 7661   3.803   3.125   4.014
 2254SOL    HW2 7662   3.699   3.031   3.930
 2255SOL     OW 7663   3.226   3.963   5.747
 2255SOL    HW1 7664   3.271   4.012   5.673
 2255SOL    HW2 7665   3.144   3.917   5.713
 2256SOL     OW 7666   4.842   6.736   1.728
 2256SOL    HW1 7667   4.883   6.782   1.807
 2256SOL    HW2 7668   4.766   6.790   1.694
 2257SOL     OW 7669   0.865   0.911   5.086
 2257SOL    HW1 7670   0.844   0.826   5.134
 2257SOL    HW2 7671   0.878   0.891   4.988
 2258SOL     OW 7672   1.887   5.508   4.401
 2258SOL    HW1 7673   1.811   5.536   4.459
 2258SOL    HW2 7674   1.960   5.470   4.458
 2259SOL     OW 7675   5.489   2.843   5.328
 2259SOL    HW1 7676   5.429   2.801   5.396
 2259SOL    HW2 7677   5.447   2.928   5.296
 2260SOL     OW 7678   0.284   3.488   1.492
 2260SOL    HW1 7679   0.255   3.583   1.482
 2260SOL    HW2 7680   0.279   3.461   1.588
 2261SOL     OW 7681   6.534   5.020   0.383
 2261SOL    HW1 7682   6.598   4.963   0.435
 2261SOL    HW2 7683   6.586   5.083   0.324
 2262SOL     OW 7684   6.199   6.882   3.311
 2262SOL    HW1 7685   6.127   6.912   3.249
 2262SOL    HW2 7686   6.168   6.891   3.405
 2263SOL     OW 7687   2.249   6.290   0.292
 2263SOL    HW1 7688   2.201   6.221   0.346
 2263SOL    HW2 7689   2.221   6.381   0.322
 2264SOL     OW 7690   2.950   6.652   6.430
 2264SOL    HW1 7691   2.967   6.586   6.504
 2264SOL    HW2 7692   2.964   6.607   6.342
 2265SOL     OW 7693   2.103   0.597   4.248
 2265SOL    HW1 7694   2.045   0.590   4.329
 2265SOL    HW2 7695   2.147   0.686   4.247
 2266SOL     OW 7696   5.161   2.118   6.328
 2266SOL    HW1 7697   5.222   2.196   6.345
 2266SOL    HW2 7698   5.141   2.072   6.414
 2267SOL     OW 7699   4.683   2.942   5.229
 2267SOL    HW1 7700   4.748   2.933   5.305
 2267SOL    HW2 7701   4.590   2.939   5.266
 2268SOL     OW 7702   6.152   4.003   6.398
 2268SOL    HW1 7703   6.125   4.029   6.491
 2268SOL    HW2 7704   6.180   4.084   6.348
 2269SOL     OW 7705   0.877   3.400   5.252
 2269SOL    HW1 7706   0.966   3.409   5.207
 2269SOL    HW2 7707   0.829   3.321   5.215
 2270SOL     OW 7708   4.123   2.855   6.671
 2270SOL    HW1 7709   4.140   2.780   6.607
 2270SOL    HW2 7710   4.193   2.925   6.660
 2271SOL     OW 7711   5.687   4.543   0.188
 2271SOL    HW1 7712   5.621   4.468   0.188
 2271SOL    HW2 7713   5.779   4.507   0.204
 2272SOL     OW 7714   6.163   1.139   6.847
 2272SOL    HW1 7715   6.246   1.101   6.806
 2272SOL    HW2 7716   6.168   1.130   6.946
 2273SOL     OW 7717   1.259   2.227   1.681
 2273SOL    HW1 7718   1.168   2.251   1.649
 2273SOL    HW2 7719   1.317   2.308   1.680
 2274SOL     OW 7720   0.432   1.668   6.578
 2274SOL    HW1 7721   0.493   1.645   6.653
 2274SOL    HW2 7722   0.485   1.694   6.498
 2275SOL     OW 7723   5.798   6.985   3.048
 2275SOL    HW1 7724   5.853   6.901   3.052
 2275SOL    HW2 7725   5.706   6.963   3.014
 2276SOL     OW 7726   1.696   5.602   1.832
 2276SOL    HW1 7727   1.706   5.524   1.894
 2276SOL    HW2 7728   1.607   5.645   1.846
 2277SOL     OW 7729   3.558   4.068   4.962
 2277SOL    HW1 7730   3.534   3.971   4.964
 2277SOL    HW2 7731   3.490   4.119   4.910
 2278SOL     OW 7732   6.457   2.697   3.714
 2278SOL    HW1 7733   6.514   2.642   3.652
 2278SOL    HW2 7734   6.444   2.788   3.674
 2279SOL     OW 7735   5.952   0.487   5.099
 2279SOL    HW1 7736   5.928   0.537   5.182
 2279SOL    HW2 7737   6.051   0.473   5.096
 2280SOL     OW 7738   6.773   6.919   4.489
 2280SOL    HW1 7739   6.829   6.987   4.536
 2280SOL    HW2 7740   6.721   6.962   4.416
 2281SOL     OW 7741   3.016   0.715   1.723
 2281SOL    HW1 7742   3.064   0.676   1.802
 2281SOL    HW2 7743   3.015   0.815   1.732
 2282SOL     OW 7744   5.637   6.237   5.680
 2282SOL    HW1 7745   5.660   6.140   5.695
 2282SOL    HW2 7746   5.577   6.269   5.753
 2283SOL     OW 7747   1.795   0.397   2.025
 2283SOL    HW1 7748   1.864   0.465   2.050
 2283SOL    HW2 7749   1.753   0.423   1.938
 2284SOL     OW 7750   1.061   3.549   6.308
 2284SOL    HW1 7751   1.140   3.566   6.368
 2284SOL    HW2 7752   1.093   3.506   6.223
 2285SOL     OW 7753   1.046   3.218   0.418
 2285SOL    HW1 7754   1.044   3.132   0.467
 2285SOL    HW2 7755   1.067   3.292   0.482
 2286SOL     OW 7756   5.219   0.447   3.622
 2286SOL    HW1 7757   5.232   0.544   3.645
 2286SOL    HW2 7758   5.256   0.430   3.530
 2287SOL     OW 7759   1.947   0.797   3.595
 2287SOL    HW1 7760   1.903   0.838   3.675
 2287SOL    HW2 7761   2.004   0.865   3.550
 2288SOL     OW 7762   6.738   5.098   3.929
 2288SOL    HW1 7763   6.644   5.112   3.962
 2288SOL    HW2 7764   6.735   5.062   3.836
 2289SOL     OW 7765   0.168   5.257   0.858
 2289SOL    HW1 7766   0.080   5.221   0.886
 2289SOL    HW2 7767   0.163   5.285   0.762
 2290SOL     OW 7768   0.637   3.703   1.536
 2290SOL    HW1 7769   0.555   3.758   1.550
 2290SOL    HW2 7770   0.712   3.762   1.508
 2291SOL     OW 7771   2.711   2.418   5.679
 2291SOL    HW1 7772   2.664   2.452   5.598
 2291SOL    HW2 7773   2.644   2.397   5.750
 2292SOL     OW 7774   1.561   1.733   4.683
 2292SOL    HW1 7775   1.477   1.774   4.718
 2292SOL    HW2 7776   1.543   1.691   4.593
 2293SOL     OW 7777   5.150   6.167   1.828
 2293SOL    HW1 7778   5.110   6.201   1.743
 2293SOL    HW2 7779   5.089   6.099   1.868
 2294SOL     OW 7780   3.079   0.461   6.891
 2294SOL    HW1 7781   2.985   0.449   6.861
 2294SOL    HW2 7782   3.089   0.427   6.985
 2295SOL     OW 7783   0.279   1.552   2.558
 2295SOL    HW1 7784   0.197   1.581   2.509
 2295SOL    HW2 7785   0.357   1.606   2.527
 2296SOL     OW 7786   3.450   5.821   0.722
 2296SOL    HW1 7787   3.361   5.801   0.679
 2296SOL    HW2 7788   3.435   5.873   0.806
 2297SOL     OW 7789   3.747   4.264   5.319
 2297SOL    HW1 7790   3.747   4.237   5.415
 2297SOL    HW2 7791   3.830   4.230   5.275
 2298SOL     OW 7792   3.969   2.650   1.648
 2298SOL    HW1 7793   3.964   2.658   1.548
 2298SOL    HW2 7794   4.063   2.663   1.678
 2299SOL     OW 7795   5.114   0.595   6.795
 2299SOL    HW1 7796   5.192   0.533   6.786
 2299SOL    HW2 7797   5.074   0.584   6.886
 2300SOL     OW 7798   2.426   5.268   1.520
 2300SOL    HW1 7799   2.468   5.242   1.433
 2300SOL    HW2 7800   2.487   5.243   1.595
 2301SOL     OW 7801   3.125   3.160   3.504
 2301SOL    HW1 7802   3.065   3.187   3.428
 2301SOL    HW2 7803   3.163   3.069   3.485
 2302SOL     OW 7804   3.212   0.151   2.074
 2302SOL    HW1 7805   3.288   0.106   2.028
 2302SOL    HW2 7806   3.211   0.248   2.049
 2303SOL     OW 7807   1.744   3.364   6.166
 2303SOL    HW1 7808   1.827   3.311   6.179
 2303SOL    HW2 7809   1.763   3.461   6.183
 2304SOL     OW 7810   2.988   0.388   3.236
 2304SOL    HW1 7811   2.905   0.440   3.260
 2304SOL    HW2 7812   2.969   0.290   3.245
 2305SOL     OW 7813   3.298   5.929   3.328
 2305SOL    HW1 7814   3.213   5.982   3.331
 2305SOL    HW2 7815   3.376   5.991   3.319
 2306SOL     OW 7816   1.945   5.604   1.738
 2306SOL    HW1 7817   1.961   5.526   1.677
 2306SOL    HW2 7818   1.855   5.596   1.779
 2307SOL     OW 7819   2.369   4.400   2.647
 2307SOL    HW1 7820   2.419   4.483   2.669
 2307SOL    HW2 7821   2.340   4.402   2.551
 2308SOL     OW 7822   1.636   6.676   6.765
 2308SOL    HW1 7823   1.717   6.685   6.824
 2308SOL    HW2 7824   1.663   6.636   6.678
 2309SOL     OW 7825   2.762   0.092   0.145
 2309SOL    HW1 7826   2.671   0.110   0.109
 2309SOL    HW2 7827   2.830   0.135   0.086
 2310SOL     OW 7828   6.070   6.274   1.841
 2310SOL    HW1 7829   6.109   6.352   1.890
 2310SOL    HW2 7830   6.143   6.220   1.800
 2311SOL     OW 7831   2.886   6.601   2.255
 2311SOL    HW1 7832   2.875   6.651   2.341
 2311SOL    HW2 7833   2.844   6.653   2.181
 2312SOL     OW 7834   3.486   6.761   3.603
 2312SOL    HW1 7835   3.468   6.735   3.508
 2312SOL    HW2 7836   3.584   6.755   3.621
 2313SOL     OW 7837   4.837   5.608   2.493
 2313SOL    HW1 7838   4.890   5.625   2.410
 2313SOL    HW2 7839   4.841   5.688   2.552
 2314SOL     OW 7840   5.900   0.869   4.345
 2314SOL    HW1 7841   5.928   0.944   4.406
 2314SOL    HW2 7842   5.860   0.795   4.399
 2315SOL     OW 7843   5.053   3.480   4.915
 2315SOL    HW1 7844   4.967   3.479   4.966
 2315SOL    HW2 7845   5.120   3.535   4.966
 2316SOL     OW 7846   3.020   1.184   5.153
 2316SOL    HW1 7847   2.974   1.272   5.159
 2316SOL    HW2 7848   3.093   1.189   5.084
 2317SOL     OW 7849   6.557   6.289   3.466
 2317SOL    HW1 7850   6.458   6.296   3.475
 2317SOL    HW2 7851   6.591   6.364   3.409
 2318SOL     OW 7852   2.089   3.405   4.500
 2318SOL    HW1 7853   2.144   3.396   4.417
 2318SOL    HW2 7854   2.106   3.326   4.559
 2319SOL     OW 7855   3.206   5.726   5.136
 2319SOL    HW1 7856   3.232   5.751   5.042
 2319SOL    HW2 7857   3.107   5.735   5.146
 2320SOL     OW 7858   1.128   2.621   5.122
 2320SOL    HW1 7859   1.111   2.537   5.173
 2320SOL    HW2 7860   1.044   2.676   5.121
 2321SOL     OW 7861   1.893   5.472   0.032
 2321SOL    HW1 7862   1.846   5.385   0.047
 2321SOL    HW2 7863   1.990   5.456   0.016
 2322SOL     OW 7864   1.990   4.237   2.659
 2322SOL    HW1 7865   1.992   4.315   2.596
 2322SOL    HW2 7866   2.084   4.208   2.680
 2323SOL     OW 7867   3.551   4.804   1.639
 2323SOL    HW1 7868   3.576   4.729   1.701
 2323SOL    HW2 7869   3.460   4.838   1.663
 2324SOL     OW 7870   6.783   6.392   1.190
 2324SOL    HW1 7871   6.836   6.308   1.174
 2324SOL    HW2 7872   6.825   6.468   1.142
 2325SOL     OW 7873   0.395   4.218   1.120
 2325SOL    HW1 7874   0.354   4.218   1.211
 2325SOL    HW2 7875   0.494   4.233   1.128
 2326SOL     OW 7876   2.021   6.612   6.627
 2326SOL    HW1 7877   1.975   6.686   6.676
 2326SOL    HW2 7878   2.058   6.547   6.694
 2327SOL     OW 7879   0.205   1.576   2.816
 2327SOL    HW1 7880   0.249   1.546   2.732
 2327SOL    HW2 7881   0.274   1.607   2.881
 2328SOL     OW 7882   1.524   1.669   2.831
 2328SOL    HW1 7883   1.579   1.587   2.819
 2328SOL    HW2 7884   1.524   1.696   2.928
 2329SOL     OW 7885   0.969   4.375   5.232
 2329SOL    HW1 7886   0.918   4.307   5.180
 2329SOL    HW2 7887   1.059   4.389   5.190
 2330SOL     OW 7888   0.140   2.689   0.970
 2330SOL    HW1 7889   0.186   2.601   0.987
 2330SOL    HW2 7890   0.102   2.689   0.878
 2331SOL     OW 7891   3.797   4.836   0.208
 2331SOL    HW1 7892   3.828   4.745   0.180
 2331SOL    HW2 7893   3.828   4.904   0.141
 2332SOL     OW 7894   6.882   6.855   5.720
 2332SOL    HW1 7895   6.900   6.779   5.656
 2332SOL    HW2 7896   6.809   6.913   5.683
 2333SOL     OW 7897   0.062   4.190   3.459
 2333SOL    HW1 7898   0.153   4.160   3.433
 2333SOL    HW2 7899   0.040   4.156   3.551
 2334SOL     OW 7900   2.141   1.219   6.562
 2334SOL    HW1 7901   2.168   1.227   6.466
 2334SOL    HW2 7902   2.125   1.310   6.601
 2335SOL     OW 7903   6.035   0.935   4.089
 2335SOL    HW1 7904   5.974   0.965   4.016
 2335SOL    HW2 7905   5.986   0.933   4.176
 2336SOL     OW 7906   3.893   1.570   4.763
 2336SOL    HW1 7907   3.970   1.531   4.713
 2336SOL    HW2 7908   3.886   1.668   4.742
 2337SOL     OW 7909   3.970   0.300   1.344
 2337SOL    HW1 7910   3.931   0.324   1.433
 2337SOL    HW2 7911   3.945   0.206   1.321
 2338SOL     OW 7912   0.359   2.917   4.579
 2338SOL    HW1 7913   0.321   2.885   4.492
 2338SOL    HW2 7914   0.297   2.893   4.653
 2339SOL     OW 7915   3.363   4.178   3.382
 2339SOL    HW1 7916   3.348   4.187   3.283
 2339SOL    HW2 7917   3.458   4.201   3.403
 2340SOL     OW 7918   6.761   4.308   6.248
 2340SOL    HW1 7919   6.805   4.309   6.158
 2340SOL    HW2 7920   6.829   4.292   6.319
 2341SOL     OW 7921   2.962   4.770   2.147
 2341SOL    HW1 7922   2.941   4.688   2.094
 2341SOL    HW2 7923   3.055   4.799   2.129
 2342SOL     OW 7924   1.164   6.616   5.439
 2342SOL    HW1 7925   1.087   6.613   5.375
 2342SOL    HW2 7926   1.141   6.678   5.514
 2343SOL     OW 7927   1.755   5.153   2.655
 2343SOL    HW1 7928   1.676   5.098   2.627
 2343SOL    HW2 7929   1.835   5.126   2.601
 2344SOL     OW 7930   0.771   5.521   6.969
 2344SOL    HW1 7931   0.713   5.470   0.010
 2344SOL    HW2 7932   0.713   5.577   6.909
 2345SOL     OW 7933   2.822   5.782   5.267
 2345SOL    HW1 7934   2.735   5.746   5.233
 2345SOL    HW2 7935   2.840   5.747   5.359
 2346SOL     OW 7936   3.076   3.475   5.482
 2346SOL    HW1 7937   3.042   3.381   5.490
 2346SOL    HW2 7938   3.050   3.512   5.393
 2347SOL     OW 7939   2.943   2.371   1.175
 2347SOL    HW1 7940   2.961   2.419   1.261
 2347SOL    HW2 7941   3.014   2.394   1.108
 2348SOL     OW 7942   2.086   6.359   3.352
 2348SOL    HW1 7943   2.037   6.363   3.265
 2348SOL    HW2 7944   2.119   6.451   3.375
 2349SOL     OW 7945   1.320   5.173   5.846
 2349SOL    HW1 7946   1.336   5.153   5.749
 2349SOL    HW2 7947   1.407   5.167   5.896
 2350SOL     OW 7948   6.533   5.994   6.120
 2350SOL    HW1 7949   6.623   6.035   6.135
 2350SOL    HW2 7950   6.466   6.037   6.179
 2351SOL     OW 7951   2.876   5.177   4.421
 2351SOL    HW1 7952   2.891   5.261   4.472
 2351SOL    HW2 7953   2.950   5.112   4.440
 2352SOL     OW 7954   0.633   3.938   2.578
 2352SOL    HW1 7955   0.701   3.965   2.510
 2352SOL    HW2 7956   0.678   3.901   2.658
 2353SOL     OW 7957   3.429   5.397   4.727
 2353SOL    HW1 7958   3.441   5.465   4.800
 2353SOL    HW2 7959   3.517   5.382   4.682
 2354SOL     OW 7960   2.922   1.873   5.512
 2354SOL    HW1 7961   2.917   1.773   5.512
 2354SOL    HW2 7962   3.018   1.902   5.510
 2355SOL     OW 7963   1.968   0.009   6.228
 2355SOL    HW1 7964   2.062   7.007   6.254
 2355SOL    HW2 7965   1.971   0.082   6.160
 2356SOL     OW 7966   1.505   3.173   6.588
 2356SOL    HW1 7967   1.604   3.162   6.584
 2356SOL    HW2 7968   1.469   3.128   6.670
 2357SOL     OW 7969   4.191   6.928   2.701
 2357SOL    HW1 7970   4.239   6.928   2.788
 2357SOL    HW2 7971   4.092   6.919   2.717
 2358SOL     OW 7972   3.646   5.401   5.188
 2358SOL    HW1 7973   3.622   5.314   5.230
 2358SOL    HW2 7974   3.745   5.416   5.197
 2359SOL     OW 7975   6.749   1.105   5.278
 2359SOL    HW1 7976   6.786   1.186   5.323
 2359SOL    HW2 7977   6.651   1.097   5.299
 2360SOL     OW 7978   5.541   3.438   0.091
 2360SOL    HW1 7979   5.548   3.459   7.016
 2360SOL    HW2 7980   5.466   3.490   0.131
 2361SOL     OW 7981   2.364   0.846   5.347
 2361SOL    HW1 7982   2.386   0.749   5.357
 2361SOL    HW2 7983   2.416   0.884   5.271
 2362SOL     OW 7984   2.458   6.161   4.160
 2362SOL    HW1 7985   2.365   6.131   4.142
 2362SOL    HW2 7986   2.456   6.248   4.209
 2363SOL     OW 7987   4.614   2.017   5.074
 2363SOL    HW1 7988   4.626   2.069   4.990
 2363SOL    HW2 7989   4.700   1.971   5.097
 2364SOL     OW 7990   0.585   2.256   2.571
 2364SOL    HW1 7991   0.622   2.308   2.494
 2364SOL    HW2 7992   0.509   2.199   2.539
 2365SOL     OW 7993   6.360   2.392   6.552
 2365SOL    HW1 7994   6.418   2.404   6.633
 2365SOL    HW2 7995   6.272   2.354   6.579
 2366SOL     OW 7996   2.846   5.555   6.180
 2366SOL    HW1 7997   2.769   5.595   6.130
 2366SOL    HW2 7998   2.895   5.628   6.229
 2367SOL     OW 7999   2.721   3.865   1.083
 2367SOL    HW1 8000   2.785   3.942   1.083
 2367SOL    HW2 8001   2.697   3.842   1.177
 2368SOL     OW 8002   4.285   0.411   4.542
 2368SOL    HW1 8003   4.291   0.508   4.564
 2368SOL    HW2 8004   4.190   0.382   4.544
 2369SOL     OW 8005   1.758   0.815   5.264
 2369SOL    HW1 8006   1.675   0.828   5.211
 2369SOL    HW2 8007   1.743   0.847   5.358
 2370SOL     OW 8008   4.798   3.186   6.732
 2370SOL    HW1 8009   4.765   3.240   6.809
 2370SOL    HW2 8010   4.770   3.230   6.647
 2371SOL     OW 8011   0.867   6.564   1.607
 2371SOL    HW1 8012   0.789   6.604   1.655
 2371SOL    HW2 8013   0.951   6.606   1.641
 2372SOL     OW 8014   0.300   2.522   2.056
 2372SOL    HW1 8015   0.301   2.620   2.036
 2372SOL    HW2 8016   0.291   2.509   2.155
 2373SOL     OW 8017   0.981   2.238   6.552
 2373SOL    HW1 8018   0.953   2.249   6.648
 2373SOL    HW2 8019   1.073   2.198   6.549
 2374SOL     OW 8020   6.172   2.077   3.547
 2374SOL    HW1 8021   6.131   2.052   3.459
 2374SOL    HW2 8022   6.103   2.070   3.619
 2375SOL     OW 8023   3.243   6.443   5.187
 2375SOL    HW1 8024   3.176   6.495   5.240
 2375SOL    HW2 8025   3.254   6.484   5.097
 2376SOL     OW 8026   6.767   2.413   4.522
 2376SOL    HW1 8027   6.754   2.369   4.433
 2376SOL    HW2 8028   6.861   2.447   4.529
 2377SOL     OW 8029   3.879   4.005   3.259
 2377SOL    HW1 8030   3.904   3.975   3.351
 2377SOL    HW2 8031   3.946   3.970   3.193
 2378SOL     OW 8032   4.817   1.474   0.773
 2378SOL    HW1 8033   4.749   1.469   0.700
 2378SOL    HW2 8034   4.840   1.382   0.803
 2379SOL     OW 8035   6.027   1.596   0.242
 2379SOL    HW1 8036   6.039   1.582   0.340
 2379SOL    HW2 8037   6.052   1.689   0.218
 2380SOL     OW 8038   0.555   1.511   6.824
 2380SOL    HW1 8039   0.634   1.470   6.871
 2380SOL    HW2 8040   0.476   1.450   6.833
 2381SOL     OW 8041   2.058   4.696   4.537
 2381SOL    HW1 8042   2.015   4.782   4.567
 2381SOL    HW2 8043   2.051   4.628   4.610
 2382SOL     OW 8044   1.786   3.936   4.366
 2382SOL    HW1 8045   1.860   3.992   4.402
 2382SOL    HW2 8046   1.778   3.950   4.267
 2383SOL     OW 8047   4.935   6.272   1.205
 2383SOL    HW1 8048   4.846   6.307   1.234
 2383SOL    HW2 8049   4.926   6.176   1.180
 2384SOL     OW 8050   5.890   1.040   3.241
 2384SOL    HW1 8051   5.869   1.113   3.176
 2384SOL    HW2 8052   5.822   1.041   3.315
 2385SOL     OW 8053   1.271   0.055   0.291
 2385SOL    HW1 8054   1.175   0.080   0.276
 2385SOL    HW2 8055   1.297   0.076   0.385
 2386SOL     OW 8056   6.250   5.677   4.396
 2386SOL    HW1 8057   6.172   5.687   4.335
 2386SOL    HW2 8058   6.289   5.585   4.386
 2387SOL     OW 8059   1.402   2.250   3.781
 2387SOL    HW1 8060   1.455   2.166   3.775
 2387SOL    HW2 8061   1.323   2.244   3.720
 2388SOL     OW 8062   1.000   2.274   4.527
 2388SOL    HW1 8063   1.056   2.319   4.457
 2388SOL    HW2 8064   0.908   2.313   4.525
 2389SOL     OW 8065   4.752   4.139   2.991
 2389SOL    HW1 8066   4.691   4.185   3.055
 2389SOL    HW2 8067   4.777   4.049   3.028
 2390SOL     OW 8068   3.936   3.342   3.413
 2390SOL    HW1 8069   3.903   3.313   3.323
 2390SOL    HW2 8070   3.944   3.263   3.473
 2391SOL     OW 8071   4.768   3.979   5.990
 2391SOL    HW1 8072   4.821   3.952   5.910
 2391SOL    HW2 8073   4.685   3.923   5.996
 2392SOL     OW 8074   4.703   6.422   5.492
 2392SOL    HW1 8075   4.750   6.351   5.438
 2392SOL    HW2 8076   4.768   6.463   5.555
 2393SOL     OW 8077   5.071   3.628   5.801
 2393SOL    HW1 8078   5.158   3.645   5.848
 2393SOL    HW2 8079   5.011   3.707   5.813
 2394SOL     OW 8080   1.390   3.707   4.760
 2394SOL    HW1 8081   1.418   3.613   4.781
 2394SOL    HW2 8082   1.468   3.757   4.722
 2395SOL     OW 8083   5.503   2.627   5.958
 2395SOL    HW1 8084   5.519   2.686   5.879
 2395SOL    HW2 8085   5.406   2.607   5.965
 2396SOL     OW 8086   3.574   5.445   1.421
 2396SOL    HW1 8087   3.508   5.480   1.488
 2396SOL    HW2 8088   3.551   5.351   1.397
 2397SOL     OW 8089   6.447   3.973   5.779
 2397SOL    HW1 8090   6.347   3.964   5.788
 2397SOL    HW2 8091   6.471   3.966   5.682
 2398SOL     OW 8092   2.866   3.777   6.898
 2398SOL    HW1 8093   2.802   3.706   6.869
 2398SOL    HW2 8094   2.821   3.838   6.964
 2399SOL     OW 8095   4.805   1.340   1.633
 2399SOL    HW1 8096   4.747   1.303   1.561
 2399SOL    HW2 8097   4.901   1.329   1.608
 2400SOL     OW 8098   3.380   3.812   0.816
 2400SOL    HW1 8099   3.368   3.869   0.734
 2400SOL    HW2 8100   3.419   3.724   0.790
 2401SOL     OW 8101   4.800   6.293   6.500
 2401SOL    HW1 8102   4.892   6.255   6.502
 2401SOL    HW2 8103   4.733   6.219   6.491
 2402SOL     OW 8104   6.865   0.800   3.980
 2402SOL    HW1 8105   6.861   0.781   3.882
 2402SOL    HW2 8106   6.811   0.882   4.000
 2403SOL     OW 8107   2.375   2.274   6.690
 2403SOL    HW1 8108   2.352   2.360   6.644
 2403SOL    HW2 8109   2.462   2.283   6.737
 2404SOL     OW 8110   3.026   1.222   1.107
 2404SOL    HW1 8111   2.948   1.280   1.084
 2404SOL    HW2 8112   3.010   1.178   1.195
 2405SOL     OW 8113   3.540   3.507   2.431
 2405SOL    HW1 8114   3.508   3.413   2.443
 2405SOL    HW2 8115   3.637   3.513   2.453
 2406SOL     OW 8116   2.656   6.976   2.008
 2406SOL    HW1 8117   2.748   6.995   2.044
 2406SOL    HW2 8118   2.588   7.017   2.067
 2407SOL     OW 8119   5.781   1.948   2.517
 2407SOL    HW1 8120   5.706   2.013   2.503
 2407SOL    HW2 8121   5.772   1.906   2.607
 2408SOL     OW 8122   4.489   4.843   3.062
 2408SOL    HW1 8123   4.582   4.825   3.028
 2408SOL    HW2 8124   4.453   4.761   3.106
 2409SOL     OW 8125   1.890   4.676   2.294
 2409SOL    HW1 8126   1.884   4.725   2.381
 2409SOL    HW2 8127   1.956   4.722   2.234
 2410SOL     OW 8128   4.029   3.372   5.481
 2410SOL    HW1 8129   3.993   3.442   5.544
 2410SOL    HW2 8130   4.123   3.351   5.506
 2411SOL     OW 8131   4.408   5.909   5.045
 2411SOL    HW1 8132   4.435   5.813   5.060
 2411SOL    HW2 8133   4.460   5.968   5.107
 2412SOL     OW 8134   4.930   5.018   0.798
 2412SOL    HW1 8135   4.981   5.039   0.714
 2412SOL    HW2 8136   4.990   5.033   0.877
 2413SOL     OW 8137   5.786   1.539   0.695
 2413SOL    HW1 8138   5.699   1.492   0.710
 2413SOL    HW2 8139   5.799   1.608   0.766
 2414SOL     OW 8140   4.745   4.558   2.703
 2414SOL    HW1 8141   4.743   4.507   2.789
 2414SOL    HW2 8142   4.651   4.573   2.671
 2415SOL     OW 8143   6.308   0.578   2.902
 2415SOL    HW1 8144   6.298   0.660   2.846
 2415SOL    HW2 8145   6.397   0.579   2.946
 2416SOL     OW 8146   4.796   2.277   5.386
 2416SOL    HW1 8147   4.877   2.323   5.422
 2416SOL    HW2 8148   4.792   2.184   5.422
 2417SOL     OW 8149   4.076   3.513   5.260
 2417SOL    HW1 8150   4.072   3.448   5.184
 2417SOL    HW2 8151   4.088   3.463   5.346
 2418SOL     OW 8152   3.277   3.035   4.699
 2418SOL    HW1 8153   3.259   3.005   4.606
 2418SOL    HW2 8154   3.226   3.119   4.718
 2419SOL     OW 8155   6.854   6.913   4.857
 2419SOL    HW1 8156   6.897   6.946   4.773
 2419SOL    HW2 8157   6.898   6.956   4.936
 2420SOL     OW 8158   3.143   0.742   2.741
 2420SOL    HW1 8159   3.085   0.661   2.751
 2420SOL    HW2 8160   3.208   0.728   2.667
 2421SOL     OW 8161   2.130   2.542   4.870
 2421SOL    HW1 8162   2.039   2.583   4.874
 2421SOL    HW2 8163   2.139   2.472   4.941
 2422SOL     OW 8164   5.621   1.650   1.064
 2422SOL    HW1 8165   5.566   1.732   1.079
 2422SOL    HW2 8166   5.604   1.585   1.138
 2423SOL     OW 8167   1.510   5.674   2.730
 2423SOL    HW1 8168   1.469   5.738   2.665
 2423SOL    HW2 8169   1.564   5.606   2.681
 2424SOL     OW 8170   5.968   6.979   6.260
 2424SOL    HW1 8171   5.894   7.021   6.208
 2424SOL    HW2 8172   5.938   6.890   6.295
 2425SOL     OW 8173   5.760   0.843   4.053
 2425SOL    HW1 8174   5.759   0.745   4.030
 2425SOL    HW2 8175   5.801   0.855   4.144
 2426SOL     OW 8176   0.903   5.992   4.926
 2426SOL    HW1 8177   0.813   6.011   4.965
 2426SOL    HW2 8178   0.897   5.911   4.868
 2427SOL     OW 8179   5.499   5.760   5.539
 2427SOL    HW1 8180   5.484   5.857   5.520
 2427SOL    HW2 8181   5.496   5.708   5.454
 2428SOL     OW 8182   7.010   0.493   2.237
 2428SOL    HW1 8183   6.940   0.522   2.303
 2428SOL    HW2 8184   0.057   0.440   2.285
 2429SOL     OW 8185   5.752   5.716   3.178
 2429SOL    HW1 8186   5.726   5.691   3.085
 2429SOL    HW2 8187   5.746   5.815   3.188
 2430SOL     OW 8188   6.118   1.103   1.641
 2430SOL    HW1 8189   6.150   1.099   1.547
 2430SOL    HW2 8190   6.184   1.057   1.701
 2431SOL     OW 8191   3.830   0.970   1.673
 2431SOL    HW1 8192   3.749   1.029   1.673
 2431SOL    HW2 8193   3.872   0.970   1.764
 2432SOL     OW 8194   3.361   6.388   2.780
 2432SOL    HW1 8195   3.296   6.342   2.841
 2432SOL    HW2 8196   3.454   6.369   2.810
 2433SOL     OW 8197   4.032   1.878   0.482
 2433SOL    HW1 8198   4.075   1.922   0.562
 2433SOL    HW2 8199   3.956   1.934   0.450
 2434SOL     OW 8200   3.927   1.184   6.056
 2434SOL    HW1 8201   3.940   1.120   6.132
 2434SOL    HW2 8202   3.926   1.134   5.970
 2435SOL     OW 8203   4.864   5.204   5.737
 2435SOL    HW1 8204   4.934   5.163   5.678
 2435SOL    HW2 8205   4.907   5.249   5.815
 2436SOL     OW 8206   1.532   5.262   0.356
 2436SOL    HW1 8207   1.556   5.202   0.281
 2436SOL    HW2 8208   1.613   5.314   0.384
 2437SOL     OW 8209   5.411   6.442   6.721
 2437SOL    HW1 8210   5.480   6.373   6.744
 2437SOL    HW2 8211   5.416   6.463   6.623
 2438SOL     OW 8212   2.897   1.407   6.510
 2438SOL    HW1 8213   2.829   1.406   6.437
 2438SOL    HW2 8214   2.988   1.396   6.470
 2439SOL     OW 8215   0.411   4.747   6.413
 2439SOL    HW1 8216   0.491   4.714   6.462
 2439SOL    HW2 8217   0.437   4.773   6.320
 2440SOL     OW 8218   4.573   6.179   5.897
 2440SOL    HW1 8219   4.530   6.228   5.973
 2440SOL    HW2 8220   4.632   6.241   5.846
 2441SOL     OW 8221   0.132   2.029   6.975
 2441SOL    HW1 8222   0.073   1.998   0.026
 2441SOL    HW2 8223   0.192   1.954   6.946
 2442SOL     OW 8224   0.922   3.874   5.807
 2442SOL    HW1 8225   0.855   3.898   5.878
 2442SOL    HW2 8226   0.970   3.790   5.833
 2443SOL     OW 8227   3.744   4.997   5.962
 2443SOL    HW1 8228   3.703   4.906   5.958
 2443SOL    HW2 8229   3.679   5.064   5.926
 2444SOL     OW 8230   2.612   4.671   6.630
 2444SOL    HW1 8231   2.621   4.572   6.615
 2444SOL    HW2 8232   2.596   4.689   6.727
 2445SOL     OW 8233   0.039   1.661   1.014
 2445SOL    HW1 8234   0.024   1.669   0.915
 2445SOL    HW2 8235   0.121   1.712   1.040
 2446SOL     OW 8236   6.429   4.406   4.043
 2446SOL    HW1 8237   6.490   4.346   4.094
 2446SOL    HW2 8238   6.335   4.386   4.067
 2447SOL     OW 8239   2.365   2.869   0.054
 2447SOL    HW1 8240   2.460   2.864   0.024
 2447SOL    HW2 8241   2.326   2.957   0.027
 2448SOL     OW 8242   0.113   0.719   4.634
 2448SOL    HW1 8243   0.083   0.815   4.637
 2448SOL    HW2 8244   0.100   0.677   4.723
 2449SOL     OW 8245   6.853   4.402   0.391
 2449SOL    HW1 8246   6.754   4.387   0.387
 2449SOL    HW2 8247   6.899   4.343   0.325
 2450SOL     OW 8248   2.477   4.628   2.782
 2450SOL    HW1 8249   2.542   4.630   2.706
 2450SOL    HW2 8250   2.483   4.714   2.832
 2451SOL     OW 8251   1.480   0.030   4.314
 2451SOL    HW1 8252   1.514   6.964   4.285
 2451SOL    HW2 8253   1.432   0.074   4.237
 2452SOL     OW 8254   1.795   3.741   2.991
 2452SOL    HW1 8255   1.890   3.718   2.967
 2452SOL    HW2 8256   1.736   3.663   2.970
 2453SOL     OW 8257   6.452   4.815   1.237
 2453SOL    HW1 8258   6.547   4.828   1.210
 2453SOL    HW2 8259   6.445   4.814   1.337
 2454SOL     OW 8260   3.576   0.856   1.859
 2454SOL    HW1 8261   3.650   0.830   1.921
 2454SOL    HW2 8262   3.579   0.955   1.843
 2455SOL     OW 8263   5.021   5.487   0.559
 2455SOL    HW1 8264   5.043   5.391   0.577
 2455SOL    HW2 8265   5.000   5.499   0.461
 2456SOL     OW 8266   5.114   6.593   1.689
 2456SOL    HW1 8267   5.032   6.638   1.725
 2456SOL    HW2 8268   5.180   6.579   1.763
 2457SOL     OW 8269   5.421   6.402   0.307
 2457SOL    HW1 8270   5.375   6.344   0.241
 2457SOL    HW2 8271   5.481   6.346   0.364
 2458SOL     OW 8272   2.341   5.378   3.084
 2458SOL    HW1 8273   2.276   5.306   3.063
 2458SOL    HW2 8274   2.424   5.366   3.029
 2459SOL     OW 8275   1.571   6.998   0.568
 2459SOL    HW1 8276   1.648   6.935   0.561
 2459SOL    HW2 8277   1.604   0.068   0.583
 2460SOL     OW 8278   2.332   6.288   2.415
 2460SOL    HW1 8279   2.249   6.299   2.360
 2460SOL    HW2 8280   2.310   6.302   2.511
 2461SOL     OW 8281   5.642   0.400   2.328
 2461SOL    HW1 8282   5.713   0.368   2.266
 2461SOL    HW2 8283   5.582   0.465   2.281
 2462SOL     OW 8284   1.985   5.452   0.543
 2462SOL    HW1 8285   2.063   5.515   0.536
 2462SOL    HW2 8286   1.953   5.430   0.451
 2463SOL     OW 8287   0.119   1.939   3.459
 2463SOL    HW1 8288   0.135   1.841   3.442
 2463SOL    HW2 8289   0.128   1.989   3.373
 2464SOL     OW 8290   0.794   4.112   0.909
 2464SOL    HW1 8291   0.775   4.109   0.811
 2464SOL    HW2 8292   0.738   4.184   0.952
 2465SOL     OW 8293   6.643   5.862   2.009
 2465SOL    HW1 8294   6.669   5.781   2.061
 2465SOL    HW2 8295   6.658   5.845   1.912
 2466SOL     OW 8296   4.271   1.532   2.971
 2466SOL    HW1 8297   4.301   1.458   3.032
 2466SOL    HW2 8298   4.179   1.511   2.937
 2467SOL     OW 8299   6.671   0.689   5.883
 2467SOL    HW1 8300   6.602   0.710   5.952
 2467SOL    HW2 8301   6.718   0.774   5.858
 2468SOL     OW 8302   6.895   6.255   2.131
 2468SOL    HW1 8303   6.856   6.335   2.086
 2468SOL    HW2 8304   6.836   6.227   2.207
 2469SOL     OW 8305   2.980   3.869   5.631
 2469SOL    HW1 8306   2.896   3.922   5.620
 2469SOL    HW2 8307   3.024   3.857   5.542
 2470SOL     OW 8308   2.814   3.892   6.040
 2470SOL    HW1 8309   2.718   3.879   6.065
 2470SOL    HW2 8310   2.870   3.898   6.122
 2471SOL     OW 8311   0.662   6.281   2.549
 2471SOL    HW1 8312   0.594   6.344   2.512
 2471SOL    HW2 8313   0.645   6.189   2.515
 2472SOL     OW 8314   5.474   2.120   4.026
 2472SOL    HW1 8315   5.434   2.065   3.952
 2472SOL    HW2 8316   5.556   2.167   3.992
 2473SOL     OW 8317   1.080   5.463   4.578
 2473SOL    HW1 8318   1.126   5.551   4.570
 2473SOL    HW2 8319   0.989   5.468   4.536
 2474SOL     OW 8320   0.063   5.464   5.269
 2474SOL    HW1 8321   0.053   5.439   5.365
 2474SOL    HW2 8322   0.150   5.431   5.234
 2475SOL     OW 8323   4.473   2.498   0.362
 2475SOL    HW1 8324   4.539   2.439   0.316
 2475SOL    HW2 8325   4.460   2.581   0.309
 2476SOL     OW 8326   1.143   1.613   4.071
 2476SOL    HW1 8327   1.051   1.609   4.032
 2476SOL    HW2 8328   1.139   1.582   4.166
 2477SOL     OW 8329   5.589   6.259   1.287
 2477SOL    HW1 8330   5.665   6.202   1.253
 2477SOL    HW2 8331   5.528   6.281   1.211
 2478SOL     OW 8332   6.407   6.548   2.893
 2478SOL    HW1 8333   6.464   6.468   2.877
 2478SOL    HW2 8334   6.346   6.563   2.814
 2479SOL     OW 8335   6.869   2.411   0.779
 2479SOL    HW1 8336   6.832   2.319   0.788
 2479SOL    HW2 8337   6.879   2.452   0.869
 2480SOL     OW 8338   6.689   3.642   1.750
 2480SOL    HW1 8339   6.644   3.664   1.663
 2480SOL    HW2 8340   6.719   3.727   1.794
 2481SOL     OW 8341   4.371   5.516   1.731
 2481SOL    HW1 8342   4.420   5.524   1.817
 2481SOL    HW2 8343   4.319   5.599   1.714
 2482SOL     OW 8344   5.173   3.256   5.051
 2482SOL    HW1 8345   5.175   3.177   4.990
 2482SOL    HW2 8346   5.119   3.329   5.009
 2483SOL     OW 8347   0.964   0.970   0.166
 2483SOL    HW1 8348   0.876   0.981   0.212
 2483SOL    HW2 8349   1.029   1.037   0.201
 2484SOL     OW 8350   2.783   1.189   0.696
 2484SOL    HW1 8351   2.755   1.118   0.632
 2484SOL    HW2 8352   2.742   1.277   0.670
 2485SOL     OW 8353   0.181   5.143   2.498
 2485SOL    HW1 8354   0.085   5.146   2.470
 2485SOL    HW2 8355   0.190   5.178   2.591
 2486SOL     OW 8356   1.921   5.666   3.130
 2486SOL    HW1 8357   1.937   5.740   3.065
 2486SOL    HW2 8358   1.917   5.703   3.223
 2487SOL     OW 8359   4.045   0.276   0.448
 2487SOL    HW1 8360   4.002   0.287   0.538
 2487SOL    HW2 8361   4.095   0.359   0.425
 2488SOL     OW 8362   2.677   4.323   1.358
 2488SOL    HW1 8363   2.584   4.358   1.349
 2488SOL    HW2 8364   2.701   4.270   1.276
 2489SOL     OW 8365   1.605   5.463   5.367
 2489SOL    HW1 8366   1.686   5.420   5.406
 2489SOL    HW2 8367   1.632   5.529   5.297
 2490SOL     OW 8368   6.297   4.025   1.184
 2490SOL    HW1 8369   6.289   3.930   1.154
 2490SOL    HW2 8370   6.315   4.084   1.105
 2491SOL     OW 8371   2.900   4.983   3.129
 2491SOL    HW1 8372   2.907   4.945   3.221
 2491SOL    HW2 8373   2.979   4.953   3.075
 2492SOL     OW 8374   4.783   3.026   6.391
 2492SOL    HW1 8375   4.712   2.981   6.447
 2492SOL    HW2 8376   4.850   2.957   6.363
 2493SOL     OW 8377   5.865   1.916   3.173
 2493SOL    HW1 8378   5.830   1.944   3.084
 2493SOL    HW2 8379   5.907   1.825   3.166
 2494SOL     OW 8380   4.965   2.618   2.145
 2494SOL    HW1 8381   4.956   2.522   2.169
 2494SOL    HW2 8382   5.060   2.646   2.158
 2495SOL     OW 8383   5.683   1.010   5.077
 2495SOL    HW1 8384   5.669   1.091   5.134
 2495SOL    HW2 8385   5.639   1.024   4.988
 2496SOL     OW 8386   1.019   5.493   0.035
 2496SOL    HW1 8387   0.927   5.514   0.002
 2496SOL    HW2 8388   1.032   5.394   0.036
 2497SOL     OW 8389   6.816   1.729   6.708
 2497SOL    HW1 8390   6.897   1.762   6.755
 2497SOL    HW2 8391   6.749   1.804   6.701
 2498SOL     OW 8392   1.721   2.916   3.862
 2498SOL    HW1 8393   1.819   2.919   3.879
 2498SOL    HW2 8394   1.671   2.936   3.946
 2499SOL     OW 8395   5.157   0.639   4.583
 2499SOL    HW1 8396   5.133   0.640   4.680
 2499SOL    HW2 8397   5.095   0.699   4.532
 2500SOL     OW 8398   4.601   3.123   6.187
 2500SOL    HW1 8399   4.535   3.053   6.159
 2500SOL    HW2 8400   4.690   3.080   6.204
 2501SOL     OW 8401   6.204   4.532   0.322
 2501SOL    HW1 8402   6.125   4.473   0.304
 2501SOL    HW2 8403   6.178   4.603   0.388
 2502SOL     OW 8404   2.009   6.936   2.726
 2502SOL    HW1 8405   2.105   6.948   2.752
 2502SOL    HW2 8406   2.004   6.868   2.652
 2503SOL     OW 8407   3.994   5.027   5.752
 2503SOL    HW1 8408   3.972   5.037   5.655
 2503SOL    HW2 8409   3.918   4.982   5.799
 2504SOL     OW 8410   1.932   4.972   4.593
 2504SOL    HW1 8411   1.896   4.947   4.503
 2504SOL    HW2 8412   1.920   5.070   4.607
 2505SOL     OW 8413   4.639   5.544   4.312
 2505SOL    HW1 8414   4.653   5.640   4.288
 2505SOL    HW2 8415   4.696   5.486   4.253
 2506SOL     OW 8416   6.157   2.732   6.186
 2506SOL    HW1 8417   6.230   2.798   6.205
 2506SOL    HW2 8418   6.150   2.718   6.087
 2507SOL     OW 8419   6.317   5.876   0.815
 2507SOL    HW1 8420   6.331   5.897   0.718
 2507SOL    HW2 8421   6.265   5.950   0.858
 2508SOL     OW 8422   2.498   2.116   2.158
 2508SOL    HW1 8423   2.569   2.168   2.206
 2508SOL    HW2 8424   2.466   2.169   2.080
 2509SOL     OW 8425   5.192   2.422   3.206
 2509SOL    HW1 8426   5.291   2.425   3.216
 2509SOL    HW2 8427   5.169   2.384   3.116
 2510SOL     OW 8428   3.147   5.313   0.495
 2510SOL    HW1 8429   3.177   5.339   0.403
 2510SOL    HW2 8430   3.203   5.236   0.527
 2511SOL     OW 8431   1.237   0.757   5.304
 2511SOL    HW1 8432   1.249   0.699   5.223
 2511SOL    HW2 8433   1.280   0.713   5.383
 2512SOL     OW 8434   4.826   3.823   4.714
 2512SOL    HW1 8435   4.821   3.777   4.625
 2512SOL    HW2 8436   4.742   3.805   4.765
 2513SOL     OW 8437   0.806   2.864   6.686
 2513SOL    HW1 8438   0.833   2.809   6.765
 2513SOL    HW2 8439   0.729   2.819   6.639
 2514SOL     OW 8440   1.265   1.084   4.298
 2514SOL    HW1 8441   1.252   0.996   4.344
 2514SOL    HW2 8442   1.216   1.155   4.349
 2515SOL     OW 8443   0.867   5.638   0.654
 2515SOL    HW1 8444   0.957   5.641   0.611
 2515SOL    HW2 8445   0.825   5.729   0.650
 2516SOL     OW 8446   5.791   6.807   3.743
 2516SOL    HW1 8447   5.834   6.718   3.761
 2516SOL    HW2 8448   5.829   6.875   3.806
 2517SOL     OW 8449   2.091   4.790   0.403
 2517SOL    HW1 8450   2.171   4.824   0.453
 2517SOL    HW2 8451   2.114   4.703   0.359
 2518SOL     OW 8452   2.524   2.959   6.476
 2518SOL    HW1 8453   2.594   2.951   6.547
 2518SOL    HW2 8454   2.564   2.998   6.394
 2519SOL     OW 8455   4.646   4.885   4.951
 2519SOL    HW1 8456   4.606   4.807   4.904
 2519SOL    HW2 8457   4.612   4.889   5.045
 2520SOL     OW 8458   2.320   3.726   1.154
 2520SOL    HW1 8459   2.365   3.676   1.228
 2520SOL    HW2 8460   2.382   3.735   1.077
 2521SOL     OW 8461   6.067   0.321   5.727
 2521SOL    HW1 8462   6.093   0.226   5.710
 2521SOL    HW2 8463   6.128   0.381   5.675
 2522SOL     OW 8464   0.922   3.395   4.580
 2522SOL    HW1 8465   0.868   3.314   4.557
 2522SOL    HW2 8466   0.898   3.426   4.672
 2523SOL     OW 8467   0.437   4.165   0.291
 2523SOL    HW1 8468   0.399   4.257   0.286
 2523SOL    HW2 8469   0.363   4.099   0.308
 2524SOL     OW 8470   1.343   6.842   3.876
 2524SOL    HW1 8471   1.433   6.800   3.889
 2524SOL    HW2 8472   1.306   6.815   3.787
 2525SOL     OW 8473   0.938   3.610   3.420
 2525SOL    HW1 8474   1.013   3.674   3.405
 2525SOL    HW2 8475   0.919   3.562   3.334
 2526SOL     OW 8476   0.047   1.656   4.040
 2526SOL    HW1 8477   0.049   1.748   4.001
 2526SOL    HW2 8478   0.135   1.635   4.082
 2527SOL     OW 8479   5.611   6.191   4.424
 2527SOL    HW1 8480   5.534   6.233   4.472
 2527SOL    HW2 8481   5.689   6.183   4.486
 2528SOL     OW 8482   6.240   5.326   0.795
 2528SOL    HW1 8483   6.166   5.391   0.808
 2528SOL    HW2 8484   6.277   5.335   0.702
 2529SOL     OW 8485   5.303   4.673   4.693
 2529SOL    HW1 8486   5.286   4.753   4.636
 2529SOL    HW2 8487   5.223   4.654   4.750
 2530SOL     OW 8488   1.050   0.616   3.496
 2530SOL    HW1 8489   1.088   0.650   3.411
 2530SOL    HW2 8490   1.123   0.604   3.564
 2531SOL     OW 8491   3.960   0.925   5.887
 2531SOL    HW1 8492   4.040   0.936   5.829
 2531SOL    HW2 8493   3.990   0.901   5.980
 2532SOL     OW 8494   1.156   5.079   6.782
 2532SOL    HW1 8495   1.068   5.044   6.749
 2532SOL    HW2 8496   1.145   5.115   6.875
 2533SOL     OW 8497   5.774   6.594   5.860
 2533SOL    HW1 8498   5.865   6.627   5.836
 2533SOL    HW2 8499   5.717   6.671   5.889
 2534SOL     OW 8500   1.394   0.920   3.521
 2534SOL    HW1 8501   1.306   0.907   3.567
 2534SOL    HW2 8502   1.449   0.987   3.571
 2535SOL     OW 8503   2.177   0.985   3.956
 2535SOL    HW1 8504   2.231   0.926   3.896
 2535SOL    HW2 8505   2.083   0.953   3.958
 2536SOL     OW 8506   5.703   1.465   4.215
 2536SOL    HW1 8507   5.731   1.514   4.133
 2536SOL    HW2 8508   5.782   1.418   4.255
 2537SOL     OW 8509   5.279   5.509   1.575
 2537SOL    HW1 8510   5.198   5.487   1.629
 2537SOL    HW2 8511   5.318   5.596   1.607
 2538SOL     OW 8512   1.845   4.913   4.342
 2538SOL    HW1 8513   1.838   5.012   4.332
 2538SOL    HW2 8514   1.874   4.873   4.254
 2539SOL     OW 8515   4.227   0.199   5.591
 2539SOL    HW1 8516   4.146   0.144   5.573
 2539SOL    HW2 8517   4.243   0.261   5.514
 2540SOL     OW 8518   5.521   1.441   2.194
 2540SOL    HW1 8519   5.553   1.522   2.242
 2540SOL    HW2 8520   5.580   1.363   2.215
 2541SOL     OW 8521   1.237   6.419   6.319
 2541SOL    HW1 8522   1.333   6.405   6.344
 2541SOL    HW2 8523   1.232   6.467   6.232
 2542SOL     OW 8524   3.549   1.819   4.348
 2542SOL    HW1 8525   3.605   1.836   4.430
 2542SOL    HW2 8526   3.460   1.781   4.376
 2543SOL     OW 8527   0.780   1.194   2.870
 2543SOL    HW1 8528   0.861   1.139   2.892
 2543SOL    HW2 8529   0.781   1.278   2.925
 2544SOL     OW 8530   6.373   5.425   1.061
 2544SOL    HW1 8531   6.367   5.369   0.979
 2544SOL    HW2 8532   6.333   5.515   1.043
 2545SOL     OW 8533   0.625   1.665   1.528
 2545SOL    HW1 8534   0.543   1.626   1.570
 2545SOL    HW2 8535   0.627   1.642   1.431
 2546SOL     OW 8536   6.851   3.913   2.001
 2546SOL    HW1 8537   6.758   3.893   2.033
 2546SOL    HW2 8538   6.912   3.922   2.080
 2547SOL     OW 8539   5.638   4.014   0.717
 2547SOL    HW1 8540   5.599   4.005   0.809
 2547SOL    HW2 8541   5.667   4.108   0.702
 2548SOL     OW 8542   0.211   6.671   5.594
 2548SOL    HW1 8543   0.229   6.694   5.690
 2548SOL    HW2 8544   0.113   6.655   5.582
 2549SOL     OW 8545   2.485   1.945   0.908
 2549SOL    HW1 8546   2.476   1.961   0.809
 2549SOL    HW2 8547   2.543   1.865   0.924
 2550SOL     OW 8548   4.574   0.013   6.528
 2550SOL    HW1 8549   4.657   0.048   6.570
 2550SOL    HW2 8550   4.505   0.086   6.525
 2551SOL     OW 8551   2.756   5.441   6.863
 2551SOL    HW1 8552   2.746   5.350   6.825
 2551SOL    HW2 8553   2.843   5.447   6.913
 2552SOL     OW 8554   1.852   6.366   0.575
 2552SOL    HW1 8555   1.874   6.363   0.478
 2552SOL    HW2 8556   1.877   6.455   0.613
 2553SOL     OW 8557   4.277   1.637   6.707
 2553SOL    HW1 8558   4.184   1.673   6.704
 2553SOL    HW2 8559   4.341   1.712   6.725
 2554SOL     OW 8560   1.910   5.695   1.184
 2554SOL    HW1 8561   1.972   5.741   1.121
 2554SOL    HW2 8562   1.954   5.687   1.274
 2555SOL     OW 8563   5.940   6.053   5.343
 2555SOL    HW1 8564   5.862   5.991   5.356
 2555SOL    HW2 8565   6.017   6.002   5.305
 2556SOL     OW 8566   3.331   6.713   1.407
 2556SOL    HW1 8567   3.291   6.764   1.331
 2556SOL    HW2 8568   3.408   6.659   1.374
 2557SOL     OW 8569   3.865   0.292   0.207
 2557SOL    HW1 8570   3.926   0.315   0.282
 2557SOL    HW2 8571   3.794   0.362   0.199
 2558SOL     OW 8572   5.765   4.638   6.991
 2558SOL    HW1 8573   5.847   4.589   6.963
 2558SOL    HW2 8574   5.739   4.608   0.060
 2559SOL     OW 8575   1.096   3.483   4.039
 2559SOL    HW1 8576   1.066   3.392   4.011
 2559SOL    HW2 8577   1.022   3.549   4.023
 2560SOL     OW 8578   4.789   2.439   3.161
 2560SOL    HW1 8579   4.832   2.440   3.071
 2560SOL    HW2 8580   4.699   2.481   3.156
 2561SOL     OW 8581   3.551   0.583   4.260
 2561SOL    HW1 8582   3.628   0.615   4.205
 2561SOL    HW2 8583   3.479   0.653   4.259
 2562SOL     OW 8584   3.094   6.973   3.294
 2562SOL    HW1 8585   3.139   6.932   3.374
 2562SOL    HW2 8586   3.033   0.024   3.325
 2563SOL     OW 8587   2.757   1.325   0.129
 2563SOL    HW1 8588   2.728   1.231   0.146
 2563SOL    HW2 8589   2.857   1.328   0.125
 2564SOL     OW 8590   1.549   1.225   0.551
 2564SOL    HW1 8591   1.501   1.230   0.639
 2564SOL    HW2 8592   1.625   1.290   0.551
 2565SOL     OW 8593   1.223   2.104   6.543
 2565SOL    HW1 8594   1.263   2.038   6.479
 2565SOL    HW2 8595   1.289   2.177   6.561
 2566SOL     OW 8596   3.002   0.757   0.862
 2566SOL    HW1 8597   3.094   0.742   0.826
 2566SOL    HW2 8598   2.977   0.854   0.851
 2567SOL     OW 8599   1.739   7.015   6.691
 2567SOL    HW1 8600   1.717   0.073   6.745
 2567SOL    HW2 8601   1.656   6.977   6.652
 2568SOL     OW 8602   2.762   6.152   1.043
 2568SOL    HW1 8603   2.690   6.187   0.982
 2568SOL    HW2 8604   2.726   6.145   1.136
 2569SOL     OW 8605   1.283   1.255   0.951
 2569SOL    HW1 8606   1.206   1.210   0.906
 2569SOL    HW2 8607   1.271   1.354   0.946
 2570SOL     OW 8608   5.103   6.161   0.181
 2570SOL    HW1 8609   5.033   6.096   0.211
 2570SOL    HW2 8610   5.101   6.242   0.240
 2571SOL     OW 8611   4.122   3.430   4.566
 2571SOL    HW1 8612   4.155   3.344   4.527
 2571SOL    HW2 8613   4.141   3.432   4.664
 2572SOL     OW 8614   2.040   6.106   1.356
 2572SOL    HW1 8615   1.966   6.047   1.387
 2572SOL    HW2 8616   2.107   6.117   1.430
 2573SOL     OW 8617   6.876   2.351   3.902
 2573SOL    HW1 8618   6.826   2.431   3.869
 2573SOL    HW2 8619   6.839   2.268   3.860
 2574SOL     OW 8620   6.982   4.023   1.468
 2574SOL    HW1 8621   6.887   4.026   1.437
 2574SOL    HW2 8622   0.013   3.969   1.403
 2575SOL     OW 8623   5.864   3.841   0.727
 2575SOL    HW1 8624   5.887   3.808   0.636
 2575SOL    HW2 8625   5.779   3.893   0.724
 2576SOL     OW 8626   2.198   6.677   2.845
 2576SOL    HW1 8627   2.157   6.652   2.757
 2576SOL    HW2 8628   2.150   6.755   2.884
 2577SOL     OW 8629   2.695   6.733   2.838
 2577SOL    HW1 8630   2.695   6.789   2.921
 2577SOL    HW2 8631   2.621   6.762   2.778
 2578SOL     OW 8632   4.754   2.716   4.091
 2578SOL    HW1 8633   4.673   2.723   4.032
 2578SOL    HW2 8634   4.790   2.623   4.086
 2579SOL     OW 8635   0.604   2.363   6.669
 2579SOL    HW1 8636   0.648   2.296   6.728
 2579SOL    HW2 8637   0.538   2.318   6.609
 2580SOL     OW 8638   1.989   2.425   6.364
 2580SOL    HW1 8639   2.043   2.449   6.284
 2580SOL    HW2 8640   2.007   2.492   6.437
 2581SOL     OW 8641   5.551   5.754   2.266
 2581SOL    HW1 8642   5.633   5.747   2.322
 2581SOL    HW2 8643   5.575   5.745   2.169
 2582SOL     OW 8644   0.961   5.382   2.890
 2582SOL    HW1 8645   1.010   5.461   2.855
 2582SOL    HW2 8646   0.944   5.393   2.988
 2583SOL     OW 8647   0.920   0.129   0.791
 2583SOL    HW1 8648   0.902   0.033   0.770
 2583SOL    HW2 8649   1.005   0.137   0.843
 2584SOL     OW 8650   3.496   6.071   0.956
 2584SOL    HW1 8651   3.481   6.160   0.998
 2584SOL    HW2 8652   3.408   6.024   0.946
 2585SOL     OW 8653   2.944   6.942   0.983
 2585SOL    HW1 8654   2.848   6.919   0.995
 2585SOL    HW2 8655   2.962   0.009   1.022
 2586SOL     OW 8656   5.928   1.751   4.427
 2586SOL    HW1 8657   6.022   1.782   4.425
 2586SOL    HW2 8658   5.888   1.760   4.335
 2587SOL     OW 8659   6.133   6.567   4.408
 2587SOL    HW1 8660   6.104   6.615   4.491
 2587SOL    HW2 8661   6.079   6.484   4.396
 2588SOL     OW 8662   5.787   0.504   1.959
 2588SOL    HW1 8663   5.763   0.502   2.056
 2588SOL    HW2 8664   5.728   0.440   1.909
 2589SOL     OW 8665   6.141   0.051   5.732
 2589SOL    HW1 8666   6.105   6.982   5.719
 2589SOL    HW2 8667   6.197   0.055   5.815
 2590SOL     OW 8668   4.092   6.523   2.774
 2590SOL    HW1 8669   4.022   6.452   2.772
 2590SOL    HW2 8670   4.149   6.517   2.692
 2591SOL     OW 8671   5.206   5.908   1.519
 2591SOL    HW1 8672   5.214   6.002   1.553
 2591SOL    HW2 8673   5.110   5.882   1.515
 2592SOL     OW 8674   3.051   5.596   1.440
 2592SOL    HW1 8675   2.993   5.521   1.470
 2592SOL    HW2 8676   3.124   5.561   1.382
 2593SOL     OW 8677   3.916   6.309   2.797
 2593SOL    HW1 8678   3.939   6.283   2.891
 2593SOL    HW2 8679   3.934   6.231   2.736
 2594SOL     OW 8680   6.934   0.327   6.865
 2594SOL    HW1 8681   6.879   0.300   6.944
 2594SOL    HW2 8682   6.876   0.331   6.784
 2595SOL     OW 8683   6.614   3.417   4.763
 2595SOL    HW1 8684   6.710   3.428   4.738
 2595SOL    HW2 8685   6.559   3.409   4.680
 2596SOL     OW 8686   3.868   2.151   2.223
 2596SOL    HW1 8687   3.851   2.172   2.320
 2596SOL    HW2 8688   3.783   2.160   2.172
 2597SOL     OW 8689   2.980   3.311   1.636
 2597SOL    HW1 8690   2.978   3.242   1.708
 2597SOL    HW2 8691   2.886   3.340   1.616
 2598SOL     OW 8692   6.937   2.782   3.595
 2598SOL    HW1 8693   6.898   2.776   3.503
 2598SOL    HW2 8694   6.944   2.878   3.622
 2599SOL     OW 8695   4.101   5.726   0.084
 2599SOL    HW1 8696   4.096   5.821   0.114
 2599SOL    HW2 8697   4.152   5.672   0.151
 2600SOL     OW 8698   5.817   3.801   4.359
 2600SOL    HW1 8699   5.870   3.742   4.419
 2600SOL    HW2 8700   5.722   3.803   4.390
 2601SOL     OW 8701   3.376   3.424   6.034
 2601SOL    HW1 8702   3.472   3.451   6.025
 2601SOL    HW2 8703   3.353   3.411   6.130
 2602SOL     OW 8704   0.031   4.722   4.687
 2602SOL    HW1 8705   0.079   4.781   4.622
 2602SOL    HW2 8706   7.018   4.642   4.639
 2603SOL     OW 8707   2.214   2.257   0.870
 2603SOL    HW1 8708   2.146   2.250   0.942
 2603SOL    HW2 8709   2.306   2.250   0.910
 2604SOL     OW 8710   5.226   0.539   1.099
 2604SOL    HW1 8711   5.320   0.551   1.068
 2604SOL    HW2 8712   5.171   0.497   1.027
 2605SOL     OW 8713   3.979   4.836   3.975
 2605SOL    HW1 8714   4.030   4.755   3.944
 2605SOL    HW2 8715   4.001   4.853   4.071
 2606SOL     OW 8716   6.078   4.226   1.217
 2606SOL    HW1 8717   6.173   4.196   1.210
 2606SOL    HW2 8718   6.056   4.283   1.139
 2607SOL     OW 8719   1.361   0.872   2.813
 2607SOL    HW1 8720   1.368   0.906   2.907
 2607SOL    HW2 8721   1.333   0.776   2.814
 2608SOL     OW 8722   5.490   0.477   1.558
 2608SOL    HW1 8723   5.482   0.383   1.524
 2608SOL    HW2 8724   5.406   0.502   1.607
 2609SOL     OW 8725   0.570   1.998   2.720
 2609SOL    HW1 8726   0.470   1.997   2.731
 2609SOL    HW2 8727   0.603   2.092   2.721
 2610SOL     OW 8728   6.575   5.684   4.978
 2610SOL    HW1 8729   6.583   5.589   4.948
 2610SOL    HW2 8730   6.666   5.727   4.978
 2611SOL     OW 8731   5.355   6.647   1.281
 2611SOL    HW1 8732   5.274   6.637   1.338
 2611SOL    HW2 8733   5.369   6.743   1.260
 2612SOL     OW 8734   5.177   6.508   3.953
 2612SOL    HW1 8735   5.271   6.478   3.963
 2612SOL    HW2 8736   5.170   6.605   3.977
 2613SOL     OW 8737   3.593   6.955   2.095
 2613SOL    HW1 8738   3.499   6.954   2.131
 2613SOL    HW2 8739   3.656   6.925   2.167
 2614SOL     OW 8740   6.051   6.574   5.734
 2614SOL    HW1 8741   6.030   6.519   5.653
 2614SOL    HW2 8742   6.073   6.513   5.810
 2615SOL     OW 8743   5.396   5.578   3.262
 2615SOL    HW1 8744   5.482   5.625   3.241
 2615SOL    HW2 8745   5.368   5.522   3.184
 2616SOL     OW 8746   3.864   2.954   2.773
 2616SOL    HW1 8747   3.866   2.933   2.675
 2616SOL    HW2 8748   3.916   3.037   2.790
 2617SOL     OW 8749   3.832   5.414   0.810
 2617SOL    HW1 8750   3.809   5.470   0.731
 2617SOL    HW2 8751   3.906   5.457   0.862
 2618SOL     OW 8752   0.216   0.355   1.451
 2618SOL    HW1 8753   0.135   0.336   1.395
 2618SOL    HW2 8754   0.299   0.335   1.398
 2619SOL     OW 8755   4.163   1.735   2.104
 2619SOL    HW1 8756   4.084   1.770   2.154
 2619SOL    HW2 8757   4.200   1.807   2.045
 2620SOL     OW 8758   1.318   4.716   3.324
 2620SOL    HW1 8759   1.302   4.808   3.359
 2620SOL    HW2 8760   1.281   4.649   3.388
 2621SOL     OW 8761   0.660   5.786   4.023
 2621SOL    HW1 8762   0.740   5.739   3.985
 2621SOL    HW2 8763   0.651   5.876   3.980
 2622SOL     OW 8764   1.874   3.616   6.246
 2622SOL    HW1 8765   1.907   3.695   6.194
 2622SOL    HW2 8766   1.943   3.543   6.244
 2623SOL     OW 8767   3.539   1.484   4.461
 2623SOL    HW1 8768   3.596   1.560   4.493
 2623SOL    HW2 8769   3.595   1.420   4.408
 2624SOL     OW 8770   5.927   2.557   3.000
 2624SOL    HW1 8771   5.839   2.590   3.035
 2624SOL    HW2 8772   5.937   2.582   2.904
 2625SOL     OW 8773   2.568   2.751   5.611
 2625SOL    HW1 8774   2.502   2.695   5.661
 2625SOL    HW2 8775   2.532   2.770   5.519
 2626SOL     OW 8776   1.477   6.348   3.711
 2626SOL    HW1 8777   1.387   6.306   3.720
 2626SOL    HW2 8778   1.543   6.298   3.768
 2627SOL     OW 8779   0.349   0.575   4.577
 2627SOL    HW1 8780   0.268   0.630   4.597
 2627SOL    HW2 8781   0.414   0.582   4.653
 2628SOL     OW 8782   3.876   6.471   6.671
 2628SOL    HW1 8783   3.858   6.570   6.663
 2628SOL    HW2 8784   3.817   6.432   6.741
 2629SOL     OW 8785   3.672   4.320   1.544
 2629SOL    HW1 8786   3.576   4.313   1.570
 2629SOL    HW2 8787   3.692   4.255   1.471
 2630SOL     OW 8788   3.689   1.597   2.468
 2630SOL    HW1 8789   3.665   1.656   2.545
 2630SOL    HW2 8790   3.613   1.534   2.449
 2631SOL     OW 8791   4.812   6.623   4.585
 2631SOL    HW1 8792   4.873   6.688   4.539
 2631SOL    HW2 8793   4.816   6.638   4.684
 2632SOL     OW 8794   3.411   1.978   6.920
 2632SOL    HW1 8795   3.329   2.034   6.930
 2632SOL    HW2 8796   3.492   2.036   6.932
 2633SOL     OW 8797   6.219   2.567   6.775
 2633SOL    HW1 8798   6.150   2.571   6.704
 2633SOL    HW2 8799   6.310   2.563   6.734
 2634SOL     OW 8800   2.193   4.248   1.675
 2634SOL    HW1 8801   2.093   4.244   1.666
 2634SOL    HW2 8802   2.226   4.162   1.713
 2635SOL     OW 8803   5.673   5.681   4.480
 2635SOL    HW1 8804   5.582   5.721   4.474
 2635SOL    HW2 8805   5.674   5.591   4.437
 2636SOL     OW 8806   5.572   6.889   5.777
 2636SOL    HW1 8807   5.492   6.926   5.731
 2636SOL    HW2 8808   5.546   6.856   5.868
 2637SOL     OW 8809   5.431   0.069   3.587
 2637SOL    HW1 8810   5.520   0.092   3.625
 2637SOL    HW2 8811   5.394   0.148   3.538
 2638SOL     OW 8812   5.196   6.306   1.317
 2638SOL    HW1 8813   5.240   6.375   1.374
 2638SOL    HW2 8814   5.102   6.332   1.299
 2639SOL     OW 8815   5.917   6.685   1.936
 2639SOL    HW1 8816   5.946   6.678   1.841
 2639SOL    HW2 8817   5.974   6.752   1.983
 2640SOL     OW 8818   0.407   6.452   5.074
 2640SOL    HW1 8819   0.394   6.366   5.124
 2640SOL    HW2 8820   0.483   6.442   5.009
 2641SOL     OW 8821   5.006   3.871   6.893
 2641SOL    HW1 8822   5.071   3.796   6.900
 2641SOL    HW2 8823   4.920   3.845   6.937
 2642SOL     OW 8824   4.927   0.461   4.337
 2642SOL    HW1 8825   4.858   0.515   4.385
 2642SOL    HW2 8826   4.888   0.373   4.311
 2643SOL     OW 8827   0.295   6.157   3.114
 2643SOL    HW1 8828   0.291   6.071   3.064
 2643SOL    HW2 8829   0.207   6.204   3.108
 2644SOL     OW 8830   1.390   5.064   5.605
 2644SOL    HW1 8831   1.421   4.982   5.652
 2644SOL    HW2 8832   1.339   5.039   5.523
 2645SOL     OW 8833   5.155   6.526   5.824
 2645SOL    HW1 8834   5.186   6.510   5.917
 2645SOL    HW2 8835   5.233   6.527   5.762
 2646SOL     OW 8836   6.949   0.552   6.097
 2646SOL    HW1 8837   6.899   0.539   6.182
 2646SOL    HW2 8838   0.019   0.584   6.117
 2647SOL     OW 8839   4.841   1.222   0.928
 2647SOL    HW1 8840   4.826   1.151   0.860
 2647SOL    HW2 8841   4.902   1.188   1.000
 2648SOL     OW 8842   6.547   0.084   2.571
 2648SOL    HW1 8843   6.558   0.048   2.664
 2648SOL    HW2 8844   6.519   0.011   2.509
 2649SOL     OW 8845   3.511   1.149   5.919
 2649SOL    HW1 8846   3.573   1.077   5.888
 2649SOL    HW2 8847   3.526   1.232   5.864
 2650SOL     OW 8848   0.440   5.177   3.542
 2650SOL    HW1 8849   0.451   5.250   3.609
 2650SOL    HW2 8850   0.509   5.106   3.557
 2651SOL     OW 8851   0.438   1.299   1.517
 2651SOL    HW1 8852   0.528   1.322   1.480
 2651SOL    HW2 8853   0.445   1.281   1.615
 2652SOL     OW 8854   3.332   3.281   3.302
 2652SOL    HW1 8855   3.279   3.268   3.386
 2652SOL    HW2 8856   3.283   3.342   3.240
 2653SOL     OW 8857   5.585   6.762   6.001
 2653SOL    HW1 8858   5.599   6.694   6.073
 2653SOL    HW2 8859   5.536   6.841   6.039
 2654SOL     OW 8860   5.258   2.442   5.880
 2654SOL    HW1 8861   5.198   2.456   5.959
 2654SOL    HW2 8862   5.320   2.366   5.898
 2655SOL     OW 8863   4.180   6.313   4.408
 2655SOL    HW1 8864   4.279   6.300   4.401
 2655SOL    HW2 8865   4.162   6.390   4.470
 2656SOL     OW 8866   5.508   4.572   4.064
 2656SOL    HW1 8867   5.429   4.614   4.021
 2656SOL    HW2 8868   5.494   4.567   4.163
 2657SOL     OW 8869   1.939   4.333   6.827
 2657SOL    HW1 8870   1.995   4.408   6.794
 2657SOL    HW2 8871   1.872   4.308   6.757
 2658SOL     OW 8872   6.117   4.472   6.289
 2658SOL    HW1 8873   6.172   4.534   6.345
 2658SOL    HW2 8874   6.065   4.526   6.223
 2659SOL     OW 8875   6.746   2.378   4.811
 2659SOL    HW1 8876   6.726   2.385   4.713
 2659SOL    HW2 8877   6.664   2.350   4.860
 2660SOL     OW 8878   6.369   2.609   2.120
 2660SOL    HW1 8879   6.434   2.569   2.056
 2660SOL    HW2 8880   6.371   2.708   2.111
 2661SOL     OW 8881   3.250   5.834   1.364
 2661SOL    HW1 8882   3.160   5.843   1.406
 2661SOL    HW2 8883   3.241   5.789   1.275
 2662SOL     OW 8884   4.661   6.317   4.842
 2662SOL    HW1 8885   4.731   6.293   4.909
 2662SOL    HW2 8886   4.699   6.308   4.750
 2663SOL     OW 8887   1.870   4.945   1.366
 2663SOL    HW1 8888   1.932   5.008   1.413
 2663SOL    HW2 8889   1.905   4.852   1.373
 2664SOL     OW 8890   3.760   4.049   2.985
 2664SOL    HW1 8891   3.669   4.085   2.963
 2664SOL    HW2 8892   3.784   4.075   3.079
 2665SOL     OW 8893   3.510   1.719   4.827
 2665SOL    HW1 8894   3.529   1.805   4.779
 2665SOL    HW2 8895   3.582   1.653   4.807
 2666SOL     OW 8896   4.866   4.705   0.871
 2666SOL    HW1 8897   4.934   4.773   0.843
 2666SOL    HW2 8898   4.886   4.618   0.825
 2667SOL     OW 8899   1.898   6.162   5.585
 2667SOL    HW1 8900   1.879   6.066   5.563
 2667SOL    HW2 8901   1.874   6.180   5.681
 2668SOL     OW 8902   6.810   3.366   4.358
 2668SOL    HW1 8903   6.871   3.370   4.436
 2668SOL    HW2 8904   6.826   3.445   4.299
 2669SOL     OW 8905   3.838   5.100   5.530
 2669SOL    HW1 8906   3.752   5.139   5.562
 2669SOL    HW2 8907   3.820   5.040   5.451
 2670SOL     OW 8908   0.105   0.923   6.865
 2670SOL    HW1 8909   0.053   0.875   6.794
 2670SOL    HW2 8910   0.188   0.872   6.886
 2671SOL     OW 8911   2.455   3.897   6.598
 2671SOL    HW1 8912   2.514   3.948   6.660
 2671SOL    HW2 8913   2.493   3.899   6.505
 2672SOL     OW 8914   1.851   5.688   0.187
 2672SOL    HW1 8915   1.847   5.616   0.118
 2672SOL    HW2 8916   1.946   5.710   0.208
 2673SOL     OW 8917   4.237   2.306   3.046
 2673SOL    HW1 8918   4.145   2.279   3.076
 2673SOL    HW2 8919   4.243   2.406   3.046
 2674SOL     OW 8920   1.083   4.856   4.461
 2674SOL    HW1 8921   0.992   4.890   4.436
 2674SOL    HW2 8922   1.091   4.760   4.434
 2675SOL     OW 8923   0.473   4.272   5.776
 2675SOL    HW1 8924   0.439   4.185   5.810
 2675SOL    HW2 8925   0.539   4.256   5.703
 2676SOL     OW 8926   5.101   1.816   2.732
 2676SOL    HW1 8927   5.061   1.883   2.669
 2676SOL    HW2 8928   5.177   1.770   2.686
 2677SOL     OW 8929   1.891   4.712   1.741
 2677SOL    HW1 8930   1.848   4.743   1.826
 2677SOL    HW2 8931   1.990   4.711   1.753
 2678SOL     OW 8932   1.379   4.879   6.715
 2678SOL    HW1 8933   1.315   4.920   6.781
 2678SOL    HW2 8934   1.334   4.803   6.668
 2679SOL     OW 8935   3.529   5.109   0.924
 2679SOL    HW1 8936   3.600   5.134   0.990
 2679SOL    HW2 8937   3.451   5.069   0.973
 2680SOL     OW 8938   1.810   1.817   0.535
 2680SOL    HW1 8939   1.881   1.764   0.583
 2680SOL    HW2 8940   1.773   1.762   0.460
 2681SOL     OW 8941   1.339   3.162   4.153
 2681SOL    HW1 8942   1.392   3.246   4.135
 2681SOL    HW2 8943   1.252   3.186   4.195
 2682SOL     OW 8944   5.497   2.826   2.212
 2682SOL    HW1 8945   5.423   2.784   2.264
 2682SOL    HW2 8946   5.541   2.758   2.154
 2683SOL     OW 8947   0.556   4.852   1.202
 2683SOL    HW1 8948   0.630   4.796   1.239
 2683SOL    HW2 8949   0.483   4.860   1.270
 2684SOL     OW 8950   4.114   6.225   2.606
 2684SOL    HW1 8951   4.066   6.158   2.549
 2684SOL    HW2 8952   4.177   6.177   2.668
 2685SOL     OW 8953   5.246   6.404   4.480
 2685SOL    HW1 8954   5.212   6.316   4.445
 2685SOL    HW2 8955   5.311   6.387   4.554
 2686SOL     OW 8956   2.345   2.218   4.252
 2686SOL    HW1 8957   2.412   2.152   4.285
 2686SOL    HW2 8958   2.387   2.276   4.182
 2687SOL     OW 8959   4.007   4.901   2.508
 2687SOL    HW1 8960   4.023   4.834   2.579
 2687SOL    HW2 8961   3.946   4.972   2.542
 2688SOL     OW 8962   4.224   5.168   5.934
 2688SOL    HW1 8963   4.209   5.070   5.917
 2688SOL    HW2 8964   4.155   5.220   5.885
 2689SOL     OW 8965   1.327   1.910   3.668
 2689SOL    HW1 8966   1.353   1.815   3.654
 2689SOL    HW2 8967   1.407   1.962   3.698
 2690SOL     OW 8968   4.007   3.179   3.810
 2690SOL    HW1 8969   3.928   3.145   3.861
 2690SOL    HW2 8970   4.078   3.208   3.875
 2691SOL     OW 8971   1.322   5.682   2.115
 2691SOL    HW1 8972   1.352   5.647   2.204
 2691SOL    HW2 8973   1.244   5.743   2.129
 2692SOL     OW 8974   7.018   5.116   3.942
 2692SOL    HW1 8975   6.919   5.127   3.936
 2692SOL    HW2 8976   0.034   5.119   3.850
 2693SOL     OW 8977   1.966   3.692   3.618
 2693SOL    HW1 8978   2.017   3.671   3.701
 2693SOL    HW2 8979   1.992   3.783   3.585
 2694SOL     OW 8980   3.009   0.135   2.756
 2694SOL    HW1 8981   3.072   0.181   2.819
 2694SOL    HW2 8982   2.997   0.192   2.675
 2695SOL     OW 8983   4.799   2.363   2.218
 2695SOL    HW1 8984   4.702   2.384   2.208
 2695SOL    HW2 8985   4.831   2.310   2.139
 2696SOL     OW 8986   3.726   3.784   5.705
 2696SOL    HW1 8987   3.776   3.869   5.718
 2696SOL    HW2 8988   3.630   3.796   5.731
 2697SOL     OW 8989   4.217   2.120   3.813
 2697SOL    HW1 8990   4.307   2.119   3.855
 2697SOL    HW2 8991   4.147   2.105   3.883
 2698SOL     OW 8992   1.166   4.678   1.123
 2698SOL    HW1 8993   1.168   4.593   1.175
 2698SOL    HW2 8994   1.211   4.750   1.175
 2699SOL     OW 8995   3.649   5.249   0.688
 2699SOL    HW1 8996   3.587   5.195   0.745
 2699SOL    HW2 8997   3.698   5.314   0.745
 2700SOL     OW 8998   2.095   3.353   2.803
 2700SOL    HW1 8999   2.138   3.289   2.867
 2700SOL    HW2 9000   2.070   3.437   2.851
 2701SOL     OW 9001   3.595   0.389   6.867
 2701SOL    HW1 9002   3.567   0.306   6.914
 2701SOL    HW2 9003   3.552   0.468   6.910
 2702SOL     OW 9004   6.768   1.555   3.105
 2702SOL    HW1 9005   6.809   1.624   3.165
 2702SOL    HW2 9006   6.719   1.489   3.161
 2703SOL     OW 9007   2.598   1.717   2.667
 2703SOL    HW1 9008   2.678   1.701   2.723
 2703SOL    HW2 9009   2.610   1.802   2.615
 2704SOL     OW 9010   2.179   5.537   2.067
 2704SOL    HW1 9011   2.102   5.600   2.060
 2704SOL    HW2 9012   2.254   5.581   2.116
 2705SOL     OW 9013   6.949   5.667   3.698
 2705SOL    HW1 9014   6.855   5.693   3.676
 2705SOL    HW2 9015   6.957   5.567   3.697
 2706SOL     OW 9016   6.575   1.379   1.791
 2706SOL    HW1 9017   6.641   1.315   1.751
 2706SOL    HW2 9018   6.567   1.361   1.889
 2707SOL     OW 9019   2.105   1.697   6.694
 2707SOL    HW1 9020   2.173   1.757   6.651
 2707SOL    HW2 9021   2.051   1.751   6.759
 2708SOL     OW 9022   2.314   2.901   1.821
 2708SOL    HW1 9023   2.298   2.808   1.855
 2708SOL    HW2 9024   2.321   2.964   1.898
 2709SOL     OW 9025   4.933   5.812   1.535
 2709SOL    HW1 9026   4.847   5.862   1.540
 2709SOL    HW2 9027   4.955   5.774   1.625
 2710SOL     OW 9028   6.996   3.396   2.656
 2710SOL    HW1 9029   0.047   3.403   2.589
 2710SOL    HW2 9030   6.941   3.480   2.655
 2711SOL     OW 9031   1.471   6.976   2.093
 2711SOL    HW1 9032   1.527   0.003   2.159
 2711SOL    HW2 9033   1.494   7.007   2.001
 2712SOL     OW 9034   2.952   4.834   0.322
 2712SOL    HW1 9035   2.942   4.814   0.420
 2712SOL    HW2 9036   2.925   4.754   0.269
 2713SOL     OW 9037   2.201   3.040   4.902
 2713SOL    HW1 9038   2.287   3.021   4.950
 2713SOL    HW2 9039   2.133   2.972   4.929
 2714SOL     OW 9040   5.712   1.745   6.314
 2714SOL    HW1 9041   5.685   1.839   6.335
 2714SOL    HW2 9042   5.778   1.745   6.239
 2715SOL     OW 9043   5.700   1.135   0.228
 2715SOL    HW1 9044   5.739   1.062   0.173
 2715SOL    HW2 9045   5.738   1.223   0.199
 2716SOL     OW 9046   6.857   5.211   1.398
 2716SOL    HW1 9047   6.812   5.172   1.478
 2716SOL    HW2 9048   6.806   5.187   1.316
 2717SOL     OW 9049   0.826   6.253   2.176
 2717SOL    HW1 9050   0.798   6.177   2.234
 2717SOL    HW2 9051   0.852   6.331   2.233
 2718SOL     OW 9052   1.743   3.667   4.362
 2718SOL    HW1 9053   1.815   3.613   4.407
 2718SOL    HW2 9054   1.774   3.762   4.353
 2719SOL     OW 9055   4.503   4.966   2.449
 2719SOL    HW1 9056   4.569   5.018   2.396
 2719SOL    HW2 9057   4.530   4.870   2.453
 2720SOL     OW 9058   1.880   6.282   3.984
 2720SOL    HW1 9059   1.925   6.248   4.067
 2720SOL    HW2 9060   1.939   6.264   3.905
 2721SOL     OW 9061   2.605   0.107   4.320
 2721SOL    HW1 9062   2.536   0.106   4.392
 2721SOL    HW2 9063   2.696   0.112   4.362
 2722SOL     OW 9064   0.453   5.334   3.054
 2722SOL    HW1 9065   0.517   5.337   3.131
 2722SOL    HW2 9066   0.427   5.239   3.036
 2723SOL     OW 9067   2.085   1.369   5.455
 2723SOL    HW1 9068   2.102   1.385   5.552
 2723SOL    HW2 9069   2.144   1.428   5.400
 2724SOL     OW 9070   3.660   5.151   6.385
 2724SOL    HW1 9071   3.586   5.216   6.369
 2724SOL    HW2 9072   3.637   5.063   6.342
 2725SOL     OW 9073   4.903   4.617   3.108
 2725SOL    HW1 9074   4.995   4.636   3.074
 2725SOL    HW2 9075   4.900   4.634   3.206
 2726SOL     OW 9076   5.142   4.489   1.890
 2726SOL    HW1 9077   5.054   4.526   1.919
 2726SOL    HW2 9078   5.203   4.564   1.865
 2727SOL     OW 9079   0.764   5.171   2.552
 2727SOL    HW1 9080   0.744   5.073   2.558
 2727SOL    HW2 9081   0.712   5.221   2.621
 2728SOL     OW 9082   3.057   0.123   5.013
 2728SOL    HW1 9083   3.139   0.074   5.044
 2728SOL    HW2 9084   3.068   0.221   5.029
 2729SOL     OW 9085   6.742   5.251   3.271
 2729SOL    HW1 9086   6.687   5.272   3.352
 2729SOL    HW2 9087   6.776   5.157   3.277
 2730SOL     OW 9088   2.497   7.005   6.979
 2730SOL    HW1 9089   2.408   0.019   7.006
 2730SOL    HW2 9090   2.532   0.034   6.901
 2731SOL     OW 9091   2.803   3.846   1.649
 2731SOL    HW1 9092   2.849   3.808   1.729
 2731SOL    HW2 9093   2.743   3.921   1.676
 2732SOL     OW 9094   5.953   3.072   2.470
 2732SOL    HW1 9095   5.863   3.112   2.485
 2732SOL    HW2 9096   6.024   3.140   2.490
 2733SOL     OW 9097   0.800   6.903   5.827
 2733SOL    HW1 9098   0.737   6.826   5.815
 2733SOL    HW2 9099   0.777   6.975   5.762
 2734SOL     OW 9100   1.692   6.861   3.717
 2734SOL    HW1 9101   1.676   6.884   3.813
 2734SOL    HW2 9102   1.657   6.769   3.699
 2735SOL     OW 9103   1.193   4.050   2.894
 2735SOL    HW1 9104   1.156   4.139   2.922
 2735SOL    HW2 9105   1.186   4.042   2.794
 2736SOL     OW 9106   4.885   0.568   5.806
 2736SOL    HW1 9107   4.938   0.564   5.891
 2736SOL    HW2 9108   4.787   0.574   5.829
 2737SOL     OW 9109   3.729   3.368   6.473
 2737SOL    HW1 9110   3.792   3.370   6.551
 2737SOL    HW2 9111   3.778   3.396   6.390
 2738SOL     OW 9112   5.095   5.375   3.890
 2738SOL    HW1 9113   5.027   5.317   3.934
 2738SOL    HW2 9114   5.187   5.341   3.911
 2739SOL     OW 9115   5.455   4.578   0.879
 2739SOL    HW1 9116   5.364   4.568   0.917
 2739SOL    HW2 9117   5.519   4.604   0.952
 2740SOL     OW 9118   6.204   2.339   2.715
 2740SOL    HW1 9119   6.202   2.250   2.668
 2740SOL    HW2 9120   6.213   2.412   2.647
 2741SOL     OW 9121   6.983   2.135   5.707
 2741SOL    HW1 9122   0.048   2.121   5.663
 2741SOL    HW2 9123   6.969   2.064   5.777
 2742SOL     OW 9124   1.596   5.560   6.281
 2742SOL    HW1 9125   1.660   5.486   6.263
 2742SOL    HW2 9126   1.502   5.527   6.270
 2743SOL     OW 9127   5.165   5.027   1.462
 2743SOL    HW1 9128   5.145   4.973   1.380
 2743SOL    HW2 9129   5.218   4.971   1.527
 2744SOL     OW 9130   4.176   2.153   6.661
 2744SOL    HW1 9131   4.268   2.129   6.694
 2744SOL    HW2 9132   4.150   2.091   6.587
 2745SOL     OW 9133   2.131   6.674   0.997
 2745SOL    HW1 9134   2.057   6.608   0.992
 2745SOL    HW2 9135   2.177   6.667   1.086
 2746SOL     OW 9136   1.876   2.621   4.896
 2746SOL    HW1 9137   1.890   2.672   4.981
 2746SOL    HW2 9138   1.861   2.685   4.821
 2747SOL     OW 9139   6.180   5.538   4.742
 2747SOL    HW1 9140   6.087   5.515   4.713
 2747SOL    HW2 9141   6.245   5.476   4.698
 2748SOL     OW 9142   3.936   1.556   3.585
 2748SOL    HW1 9143   3.936   1.560   3.485
 2748SOL    HW2 9144   3.892   1.472   3.615
 2749SOL     OW 9145   5.123   4.412   4.069
 2749SOL    HW1 9146   5.127   4.444   4.164
 2749SOL    HW2 9147   5.030   4.425   4.033
 2750SOL     OW 9148   0.520   5.773   2.055
 2750SOL    HW1 9149   0.612   5.783   2.016
 2750SOL    HW2 9150   0.508   5.839   2.129
 2751SOL     OW 9151   1.965   0.160   0.209
 2751SOL    HW1 9152   2.020   0.146   0.292
 2751SOL    HW2 9153   1.876   0.117   0.220
 2752SOL     OW 9154   5.486   6.161   4.982
 2752SOL    HW1 9155   5.557   6.093   4.999
 2752SOL    HW2 9156   5.476   6.220   5.062
 2753SOL     OW 9157   3.591   5.899   6.383
 2753SOL    HW1 9158   3.662   5.939   6.441
 2753SOL    HW2 9159   3.634   5.848   6.308
 2754SOL     OW 9160   0.676   0.105   4.420
 2754SOL    HW1 9161   0.581   0.100   4.451
 2754SOL    HW2 9162   0.705   0.201   4.418
 2755SOL     OW 9163   3.053   6.149   2.314
 2755SOL    HW1 9164   3.070   6.237   2.358
 2755SOL    HW2 9165   3.132   6.089   2.328
 2756SOL     OW 9166   5.466   3.325   5.052
 2756SOL    HW1 9167   5.376   3.331   5.008
 2756SOL    HW2 9168   5.515   3.247   5.016
 2757SOL     OW 9169   4.539   1.753   7.021
 2757SOL    HW1 9170   4.455   1.718   0.042
 2757SOL    HW2 9171   4.616   1.695   0.023
 2758SOL     OW 9172   5.340   4.928   3.249
 2758SOL    HW1 9173   5.301   4.992   3.315
 2758SOL    HW2 9174   5.435   4.909   3.273
 2759SOL     OW 9175   3.654   4.294   6.189
 2759SOL    HW1 9176   3.631   4.391   6.190
 2759SOL    HW2 9177   3.620   4.252   6.105
 2760SOL     OW 9178   5.613   6.220   3.613
 2760SOL    HW1 9179   5.649   6.138   3.567
 2760SOL    HW2 9180   5.586   6.287   3.544
 2761SOL     OW 9181   1.867   3.979   2.652
 2761SOL    HW1 9182   1.827   3.974   2.744
 2761SOL    HW2 9183   1.891   4.074   2.632
 2762SOL     OW 9184   1.697   2.234   6.858
 2762SOL    HW1 9185   1.728   2.302   6.792
 2762SOL    HW2 9186   1.738   2.252   6.947
 2763SOL     OW 9187   4.668   1.281   5.914
 2763SOL    HW1 9188   4.719   1.367   5.917
 2763SOL    HW2 9189   4.607   1.275   5.993
 2764SOL     OW 9190   0.718   4.068   1.750
 2764SOL    HW1 9191   0.685   4.126   1.675
 2764SOL    HW2 9192   0.818   4.064   1.747
 2765SOL     OW 9193   6.069   6.692   0.033
 2765SOL    HW1 9194   6.146   6.734   0.083
 2765SOL    HW2 9195   6.000   6.762   0.015
 2766SOL     OW 9196   5.043   1.351   6.723
 2766SOL    HW1 9197   4.969   1.335   6.657
 2766SOL    HW2 9198   5.077   1.263   6.756
 2767SOL     OW 9199   5.687   4.957   6.163
 2767SOL    HW1 9200   5.707   4.956   6.261
 2767SOL    HW2 9201   5.770   4.982   6.113
 2768SOL     OW 9202   4.287   0.371   1.110
 2768SOL    HW1 9203   4.301   0.468   1.089
 2768SOL    HW2 9204   4.271   0.360   1.208
 2769SOL     OW 9205   1.545   4.189   5.737
 2769SOL    HW1 9206   1.479   4.174   5.663
 2769SOL    HW2 9207   1.637   4.196   5.699
 2770SOL     OW 9208   2.887   6.812   6.654
 2770SOL    HW1 9209   2.922   6.755   6.580
 2770SOL    HW2 9210   2.842   6.892   6.615
 2771SOL     OW 9211   4.502   0.199   5.036
 2771SOL    HW1 9212   4.475   0.225   4.943
 2771SOL    HW2 9213   4.480   0.102   5.051
 2772SOL     OW 9214   4.108   0.683   2.917
 2772SOL    HW1 9215   4.186   0.742   2.938
 2772SOL    HW2 9216   4.113   0.654   2.821
 2773SOL     OW 9217   6.949   3.003   4.346
 2773SOL    HW1 9218   0.017   3.040   4.361
 2773SOL    HW2 9219   6.912   3.037   4.259
 2774SOL     OW 9220   5.093   1.796   3.232
 2774SOL    HW1 9221   5.137   1.823   3.146
 2774SOL    HW2 9222   5.044   1.874   3.271
 2775SOL     OW 9223   0.290   3.961   4.767
 2775SOL    HW1 9224   0.254   4.054   4.757
 2775SOL    HW2 9225   0.276   3.930   4.861
 2776SOL     OW 9226   4.906   4.885   5.956
 2776SOL    HW1 9227   4.911   4.788   5.982
 2776SOL    HW2 9228   4.972   4.903   5.883
 2777SOL     OW 9229   3.281   2.234   5.873
 2777SOL    HW1 9230   3.365   2.181   5.885
 2777SOL    HW2 9231   3.246   2.220   5.780
 2778SOL     OW 9232   2.510   6.116   6.537
 2778SOL    HW1 9233   2.505   6.169   6.621
 2778SOL    HW2 9234   2.525   6.019   6.559
 2779SOL     OW 9235   6.002   6.043   2.345
 2779SOL    HW1 9236   5.984   6.051   2.247
 2779SOL    HW2 9237   6.018   6.134   2.383
 2780SOL     OW 9238   0.049   0.986   6.190
 2780SOL    HW1 9239   0.118   0.969   6.120
 2780SOL    HW2 9240   0.032   1.084   6.197
 2781SOL     OW 9241   6.681   0.455   2.646
 2781SOL    HW1 9242   6.599   0.419   2.690
 2781SOL    HW2 9243   6.664   0.547   2.612
 2782SOL     OW 9244   4.357   1.084   6.841
 2782SOL    HW1 9245   4.274   1.100   6.788
 2782SOL    HW2 9246   4.348   1.127   6.931
 2783SOL     OW 9247   5.642   3.449   2.069
 2783SOL    HW1 9248   5.719   3.449   2.004
 2783SOL    HW2 9249   5.581   3.373   2.048
 2784SOL     OW 9250   1.938   1.865   0.911
 2784SOL    HW1 9251   1.881   1.835   0.987
 2784SOL    HW2 9252   2.033   1.872   0.941
 2785SOL     OW 9253   5.299   2.697   1.460
 2785SOL    HW1 9254   5.302   2.788   1.501
 2785SOL    HW2 9255   5.386   2.650   1.476
 2786SOL     OW 9256   6.894   5.531   0.229
 2786SOL    HW1 9257   6.977   5.579   0.260
 2786SOL    HW2 9258   6.899   5.435   0.255
 2787SOL     OW 9259   6.028   5.395   5.911
 2787SOL    HW1 9260   6.076   5.455   5.847
 2787SOL    HW2 9261   6.095   5.351   5.971
 2788SOL     OW 9262   3.598   6.315   5.577
 2788SOL    HW1 9263   3.639   6.223   5.577
 2788SOL    HW2 9264   3.528   6.320   5.506
 2789SOL     OW 9265   0.011   2.411   4.825
 2789SOL    HW1 9266   6.942   2.378   4.805
 2789SOL    HW2 9267   0.015   2.510   4.811
 2790SOL     OW 9268   2.220   5.593   0.520
 2790SOL    HW1 9269   2.301   5.618   0.468
 2790SOL    HW2 9270   2.183   5.675   0.565
 2791SOL     OW 9271   6.692   3.416   3.017
 2791SOL    HW1 9272   6.598   3.418   2.984
 2791SOL    HW2 9273   6.696   3.454   3.110
 2792SOL     OW 9274   3.302   1.255   4.944
 2792SOL    HW1 9275   3.300   1.325   5.016
 2792SOL    HW2 9276   3.397   1.228   4.927
 2793SOL     OW 9277   3.506   4.488   1.136
 2793SOL    HW1 9278   3.550   4.493   1.226
 2793SOL    HW2 9279   3.568   4.524   1.066
 2794SOL     OW 9280   0.038   1.489   6.072
 2794SOL    HW1 9281   0.107   1.487   6.145
 2794SOL    HW2 9282   6.976   1.448   6.106
 2795SOL     OW 9283   0.815   4.536   1.682
 2795SOL    HW1 9284   0.891   4.544   1.617
 2795SOL    HW2 9285   0.757   4.617   1.676
 2796SOL     OW 9286   0.860   5.924   5.794
 2796SOL    HW1 9287   0.909   5.894   5.713
 2796SOL    HW2 9288   0.770   5.880   5.797
 2797SOL     OW 9289   5.071   6.561   4.206
 2797SOL    HW1 9290   5.116   6.645   4.175
 2797SOL    HW2 9291   5.032   6.514   4.128
 2798SOL     OW 9292   6.163   6.352   2.239
 2798SOL    HW1 9293   6.115   6.415   2.177
 2798SOL    HW2 9294   6.244   6.315   2.193
 2799SOL     OW 9295   3.908   6.345   4.752
 2799SOL    HW1 9296   3.969   6.266   4.761
 2799SOL    HW2 9297   3.914   6.381   4.659
 2800SOL     OW 9298   5.972   0.945   6.789
 2800SOL    HW1 9299   5.979   0.942   6.689
 2800SOL    HW2 9300   6.031   1.018   6.823
 2801SOL     OW 9301   0.438   5.206   5.910
 2801SOL    HW1 9302   0.357   5.223   5.966
 2801SOL    HW2 9303   0.511   5.269   5.939
 2802SOL     OW 9304   6.428   6.046   5.110
 2802SOL    HW1 9305   6.366   6.017   5.038
 2802SOL    HW2 9306   6.378   6.096   5.181
 2803SOL     OW 9307   3.356   3.327   6.296
 2803SOL    HW1 9308   3.438   3.270   6.304
 2803SOL    HW2 9309   3.275   3.272   6.318
 2804SOL     OW 9310   0.556   2.969   4.274
 2804SOL    HW1 9311   0.520   2.880   4.245
 2804SOL    HW2 9312   0.647   2.956   4.315
 2805SOL     OW 9313   4.436   3.581   1.566
 2805SOL    HW1 9314   4.350   3.534   1.585
 2805SOL    HW2 9315   4.418   3.678   1.550
 2806SOL     OW 9316   0.771   4.713   5.641
 2806SOL    HW1 9317   0.859   4.725   5.687
 2806SOL    HW2 9318   0.776   4.751   5.549
 2807SOL     OW 9319   2.809   0.141   3.176
 2807SOL    HW1 9320   2.777   0.049   3.156
 2807SOL    HW2 9321   2.779   0.203   3.104
 2808SOL     OW 9322   6.024   5.608   0.622
 2808SOL    HW1 9323   6.019   5.707   0.614
 2808SOL    HW2 9324   5.971   5.565   0.549
 2809SOL     OW 9325   6.441   4.861   2.146
 2809SOL    HW1 9326   6.390   4.934   2.192
 2809SOL    HW2 9327   6.457   4.886   2.051
 2810SOL     OW 9328   2.384   5.353   3.638
 2810SOL    HW1 9329   2.477   5.331   3.610
 2810SOL    HW2 9330   2.324   5.354   3.558
 2811SOL     OW 9331   0.769   0.181   2.478
 2811SOL    HW1 9332   0.670   0.180   2.483
 2811SOL    HW2 9333   0.798   0.207   2.386
 2812SOL     OW 9334   0.534   3.378   0.981
 2812SOL    HW1 9335   0.449   3.385   1.033
 2812SOL    HW2 9336   0.513   3.358   0.885
 2813SOL     OW 9337   0.569   2.105   1.476
 2813SOL    HW1 9338   0.581   2.038   1.403
 2813SOL    HW2 9339   0.477   2.143   1.472
 2814SOL     OW 9340   2.074   3.691   0.282
 2814SOL    HW1 9341   2.111   3.737   0.202
 2814SOL    HW2 9342   2.031   3.757   0.343
 2815SOL     OW 9343   0.577   5.871   5.155
 2815SOL    HW1 9344   0.674   5.847   5.160
 2815SOL    HW2 9345   0.557   5.913   5.066
 2816SOL     OW 9346   0.161   6.243   5.595
 2816SOL    HW1 9347   0.235   6.293   5.550
 2816SOL    HW2 9348   0.114   6.186   5.528
 2817SOL     OW 9349   3.747   0.814   2.069
 2817SOL    HW1 9350   3.836   0.820   2.114
 2817SOL    HW2 9351   3.722   0.718   2.056
 2818SOL     OW 9352   1.608   0.973   1.423
 2818SOL    HW1 9353   1.522   0.924   1.410
 2818SOL    HW2 9354   1.654   0.985   1.335
 2819SOL     OW 9355   0.485   0.178   0.949
 2819SOL    HW1 9356   0.399   0.209   0.990
 2819SOL    HW2 9357   0.489   0.208   0.854
 2820SOL     OW 9358   1.336   2.486   1.619
 2820SOL    HW1 9359   1.385   2.571   1.634
 2820SOL    HW2 9360   1.277   2.495   1.539
 2821SOL     OW 9361   3.223   4.557   6.589
 2821SOL    HW1 9362   3.230   4.560   6.489
 2821SOL    HW2 9363   3.314   4.564   6.629
 2822SOL     OW 9364   4.672   2.581   0.552
 2822SOL    HW1 9365   4.641   2.510   0.615
 2822SOL    HW2 9366   4.616   2.578   0.468
 2823SOL     OW 9367   4.808   1.932   0.574
 2823SOL    HW1 9368   4.759   1.943   0.488
 2823SOL    HW2 9369   4.889   1.992   0.573
 2824SOL     OW 9370   1.143   3.561   5.331
 2824SOL    HW1 9371   1.070   3.617   5.370
 2824SOL    HW2 9372   1.198   3.521   5.405
 2825SOL     OW 9373   5.254   1.422   6.396
 2825SOL    HW1 9374   5.156   1.419   6.418
 2825SOL    HW2 9375   5.294   1.505   6.435
 2826SOL     OW 9376   1.521   3.975   6.520
 2826SOL    HW1 9377   1.536   3.978   6.619
 2826SOL    HW2 9378   1.604   3.944   6.474
 2827SOL     OW 9379   0.069   0.803   6.400
 2827SOL    HW1 9380   0.045   0.870   6.329
 2827SOL    HW2 9381   0.116   0.725   6.358
 2828SOL     OW 9382   1.472   3.936   0.707
 2828SOL    HW1 9383   1.389   3.974   0.665
 2828SOL    HW2 9384   1.474   3.837   0.692
 2829SOL     OW 9385   3.638   4.091   3.407
 2829SOL    HW1 9386   3.573   4.015   3.402
 2829SOL    HW2 9387   3.717   4.072   3.348
 2830SOL     OW 9388   3.556   5.465   5.844
 2830SOL    HW1 9389   3.493   5.500   5.914
 2830SOL    HW2 9390   3.643   5.514   5.849
 2831SOL     OW 9391   6.308   2.070   1.627
 2831SOL    HW1 9392   6.265   2.019   1.701
 2831SOL    HW2 9393   6.399   2.100   1.655
 2832SOL     OW 9394   0.708   3.082   1.136
 2832SOL    HW1 9395   0.619   3.126   1.146
 2832SOL    HW2 9396   0.780   3.142   1.171
 2833SOL     OW 9397   1.990   2.120   1.708
 2833SOL    HW1 9398   1.988   2.198   1.645
 2833SOL    HW2 9399   2.039   2.044   1.666
 2834SOL     OW 9400   4.346   6.217   4.812
 2834SOL    HW1 9401   4.316   6.177   4.725
 2834SOL    HW2 9402   4.445   6.208   4.820
 2835SOL     OW 9403   1.259   6.752   0.609
 2835SOL    HW1 9404   1.170   6.782   0.644
 2835SOL    HW2 9405   1.328   6.760   0.681
 2836SOL     OW 9406   3.614   5.952   3.594
 2836SOL    HW1 9407   3.551   5.891   3.546
 2836SOL    HW2 9408   3.698   5.903   3.616
 2837SOL     OW 9409   5.465   3.953   2.249
 2837SOL    HW1 9410   5.427   3.904   2.170
 2837SOL    HW2 9411   5.416   4.039   2.262
 2838SOL     OW 9412   4.875   3.746   6.112
 2838SOL    HW1 9413   4.965   3.750   6.155
 2838SOL    HW2 9414   4.873   3.809   6.034
 2839SOL     OW 9415   5.946   3.178   5.043
 2839SOL    HW1 9416   6.033   3.226   5.058
 2839SOL    HW2 9417   5.964   3.079   5.040
 2840SOL     OW 9418   0.291   5.881   2.956
 2840SOL    HW1 9419   0.239   5.809   2.909
 2840SOL    HW2 9420   0.348   5.840   3.027
 2841SOL     OW 9421   5.730   2.493   1.690
 2841SOL    HW1 9422   5.712   2.580   1.735
 2841SOL    HW2 9423   5.791   2.438   1.747
 2842SOL     OW 9424   1.750   6.533   3.933
 2842SOL    HW1 9425   1.739   6.552   4.030
 2842SOL    HW2 9426   1.747   6.434   3.918
 2843SOL     OW 9427   2.245   2.819   3.721
 2843SOL    HW1 9428   2.245   2.854   3.814
 2843SOL    HW2 9429   2.156   2.779   3.700
 2844SOL     OW 9430   4.814   4.310   0.956
 2844SOL    HW1 9431   4.753   4.357   1.020
 2844SOL    HW2 9432   4.909   4.322   0.987
 2845SOL     OW 9433   3.910   2.209   2.843
 2845SOL    HW1 9434   3.990   2.239   2.792
 2845SOL    HW2 9435   3.852   2.153   2.785
 2846SOL     OW 9436   4.865   0.612   0.632
 2846SOL    HW1 9437   4.814   0.695   0.610
 2846SOL    HW2 9438   4.807   0.551   0.686
 2847SOL     OW 9439   4.797   4.191   2.463
 2847SOL    HW1 9440   4.803   4.149   2.554
 2847SOL    HW2 9441   4.822   4.288   2.470
 2848SOL     OW 9442   0.607   3.137   4.730
 2848SOL    HW1 9443   0.650   3.049   4.748
 2848SOL    HW2 9444   0.658   3.209   4.778
 2849SOL     OW 9445   3.978   0.244   2.597
 2849SOL    HW1 9446   4.061   0.188   2.599
 2849SOL    HW2 9447   3.984   0.310   2.522
 2850SOL     OW 9448   2.483   0.002   2.719
 2850SOL    HW1 9449   2.582   0.015   2.727
 2850SOL    HW2 9450   2.462   6.927   2.729
 2851SOL     OW 9451   4.181   3.092   0.910
 2851SOL    HW1 9452   4.166   3.101   1.008
 2851SOL    HW2 9453   4.096   3.064   0.865
 2852SOL     OW 9454   6.696   4.313   5.870
 2852SOL    HW1 9455   6.604   4.277   5.888
 2852SOL    HW2 9456   6.699   4.410   5.894
 2853SOL     OW 9457   0.773   3.851   7.019
 2853SOL    HW1 9458   0.701   3.893   0.051
 2853SOL    HW2 9459   0.761   3.876   6.923
 2854SOL     OW 9460   3.574   1.605   5.928
 2854SOL    HW1 9461   3.502   1.565   5.872
 2854SOL    HW2 9462   3.660   1.557   5.910
 2855SOL     OW 9463   1.714   1.429   4.330
 2855SOL    HW1 9464   1.691   1.484   4.410
 2855SOL    HW2 9465   1.639   1.365   4.311
 2856SOL     OW 9466   1.095   4.446   3.253
 2856SOL    HW1 9467   1.050   4.359   3.235
 2856SOL    HW2 9468   1.165   4.434   3.324
 2857SOL     OW 9469   6.938   3.179   0.756
 2857SOL    HW1 9470   6.987   3.209   0.838
 2857SOL    HW2 9471   6.870   3.110   0.781
 2858SOL     OW 9472   4.392   4.582   3.219
 2858SOL    HW1 9473   4.431   4.526   3.292
 2858SOL    HW2 9474   4.402   4.534   3.132
 2859SOL     OW 9475   5.495   4.793   1.842
 2859SOL    HW1 9476   5.535   4.833   1.925
 2859SOL    HW2 9477   5.562   4.732   1.799
 2860SOL     OW 9478   1.312   5.965   1.472
 2860SOL    HW1 9479   1.327   6.053   1.517
 2860SOL    HW2 9480   1.308   5.979   1.373
 2861SOL     OW 9481   4.398   4.784   6.674
 2861SOL    HW1 9482   4.422   4.750   6.765
 2861SOL    HW2 9483   4.432   4.878   6.663
 2862SOL     OW 9484   4.665   3.021   1.314
 2862SOL    HW1 9485   4.752   3.056   1.281
 2862SOL    HW2 9486   4.669   3.008   1.413
 2863SOL     OW 9487   5.901   0.157   5.293
 2863SOL    HW1 9488   5.845   0.153   5.375
 2863SOL    HW2 9489   5.982   0.212   5.310
 2864SOL     OW 9490   3.658   3.468   0.421
 2864SOL    HW1 9491   3.702   3.505   0.339
 2864SOL    HW2 9492   3.720   3.477   0.499
 2865SOL     OW 9493   5.490   5.950   4.424
 2865SOL    HW1 9494   5.392   5.965   4.411
 2865SOL    HW2 9495   5.538   6.038   4.415
 2866SOL     OW 9496   4.609   4.094   6.667
 2866SOL    HW1 9497   4.628   4.006   6.625
 2866SOL    HW2 9498   4.616   4.167   6.599
 2867SOL     OW 9499   5.720   6.554   2.084
 2867SOL    HW1 9500   5.721   6.559   2.184
 2867SOL    HW2 9501   5.804   6.594   2.048
 2868SOL     OW 9502   1.702   0.732   5.881
 2868SOL    HW1 9503   1.629   0.755   5.817
 2868SOL    HW2 9504   1.708   0.633   5.891
 2869SOL     OW 9505   5.277   5.679   3.733
 2869SOL    HW1 9506   5.214   5.648   3.804
 2869SOL    HW2 9507   5.274   5.614   3.656
 2870SOL     OW 9508   0.693   1.432   1.716
 2870SOL    HW1 9509   0.598   1.460   1.702
 2870SOL    HW2 9510   0.751   1.513   1.729
 2871SOL     OW 9511   5.973   1.709   1.179
 2871SOL    HW1 9512   5.914   1.631   1.159
 2871SOL    HW2 9513   6.045   1.681   1.243
 2872SOL     OW 9514   2.380   2.015   2.362
 2872SOL    HW1 9515   2.432   2.054   2.285
 2872SOL    HW2 9516   2.292   2.063   2.369
 2873SOL     OW 9517   0.702   6.548   1.360
 2873SOL    HW1 9518   0.615   6.507   1.386
 2873SOL    HW2 9519   0.769   6.535   1.433
 2874SOL     OW 9520   1.834   0.654   3.238
 2874SOL    HW1 9521   1.767   0.690   3.173
 2874SOL    HW2 9522   1.924   0.650   3.195
 2875SOL     OW 9523   3.080   6.901   2.747
 2875SOL    HW1 9524   3.043   6.993   2.762
 2875SOL    HW2 9525   3.180   6.904   2.751
 2876SOL     OW 9526   1.248   6.186   2.252
 2876SOL    HW1 9527   1.207   6.276   2.263
 2876SOL    HW2 9528   1.312   6.187   2.176
 2877SOL     OW 9529   1.583   0.996   5.727
 2877SOL    HW1 9530   1.518   1.024   5.797
 2877SOL    HW2 9531   1.653   1.067   5.716
 2878SOL     OW 9532   3.839   3.422   4.888
 2878SOL    HW1 9533   3.911   3.395   4.951
 2878SOL    HW2 9534   3.777   3.345   4.874
 2879SOL     OW 9535   4.272   4.896   6.200
 2879SOL    HW1 9536   4.301   4.880   6.105
 2879SOL    HW2 9537   4.329   4.967   6.240
 2880SOL     OW 9538   1.523   1.523   4.862
 2880SOL    HW1 9539   1.556   1.598   4.805
 2880SOL    HW2 9540   1.482   1.561   4.945
 2881SOL     OW 9541   3.908   6.325   0.015
 2881SOL    HW1 9542   3.839   6.375   0.067
 2881SOL    HW2 9543   3.879   6.230   0.004
 2882SOL     OW 9544   4.384   5.978   0.563
 2882SOL    HW1 9545   4.360   5.905   0.627
 2882SOL    HW2 9546   4.344   6.064   0.595
 2883SOL     OW 9547   6.205   6.504   3.753
 2883SOL    HW1 9548   6.196   6.433   3.823
 2883SOL    HW2 9549   6.129   6.569   3.761
 2884SOL     OW 9550   0.062   5.273   2.983
 2884SOL    HW1 9551   7.012   5.330   2.945
 2884SOL    HW2 9552   0.139   5.271   2.920
 2885SOL     OW 9553   0.954   3.434   2.892
 2885SOL    HW1 9554   1.048   3.404   2.874
 2885SOL    HW2 9555   0.891   3.359   2.870
 2886SOL     OW 9556   2.818   4.750   6.181
 2886SOL    HW1 9557   2.741   4.686   6.182
 2886SOL    HW2 9558   2.900   4.703   6.148
 2887SOL     OW 9559   1.261   6.263   3.994
 2887SOL    HW1 9560   1.262   6.233   3.899
 2887SOL    HW2 9561   1.189   6.214   4.044
 2888SOL     OW 9562   6.497   6.331   0.846
 2888SOL    HW1 9563   6.496   6.340   0.945
 2888SOL    HW2 9564   6.421   6.382   0.807
 2889SOL     OW 9565   3.180   6.392   3.297
 2889SOL    HW1 9566   3.274   6.402   3.329
 2889SOL    HW2 9567   3.142   6.482   3.275
 2890SOL     OW 9568   1.737   0.183   0.894
 2890SOL    HW1 9569   1.820   0.128   0.897
 2890SOL    HW2 9570   1.695   0.176   0.804
 2891SOL     OW 9571   0.278   3.229   3.683
 2891SOL    HW1 9572   0.259   3.132   3.670
 2891SOL    HW2 9573   0.326   3.265   3.603
 2892SOL     OW 9574   6.686   4.010   1.349
 2892SOL    HW1 9575   6.636   3.924   1.357
 2892SOL    HW2 9576   6.714   4.025   1.255
 2893SOL     OW 9577   7.004   4.880   4.349
 2893SOL    HW1 9578   6.965   4.950   4.409
 2893SOL    HW2 9579   0.071   4.852   4.385
 2894SOL     OW 9580   1.114   4.929   1.731
 2894SOL    HW1 9581   1.135   5.011   1.784
 2894SOL    HW2 9582   1.187   4.912   1.665
 2895SOL     OW 9583   3.965   6.644   6.200
 2895SOL    HW1 9584   4.006   6.661   6.111
 2895SOL    HW2 9585   3.867   6.667   6.197
 2896SOL     OW 9586   5.457   6.293   4.659
 2896SOL    HW1 9587   5.518   6.360   4.702
 2896SOL    HW2 9588   5.406   6.244   4.729
 2897SOL     OW 9589   3.803   5.054   2.609
 2897SOL    HW1 9590   3.784   5.031   2.704
 2897SOL    HW2 9591   3.759   4.987   2.549
 2898SOL     OW 9592   5.805   4.117   2.899
 2898SOL    HW1 9593   5.873   4.190   2.901
 2898SOL    HW2 9594   5.819   4.061   2.817
 2899SOL     OW 9595   6.794   3.108   1.143
 2899SOL    HW1 9596   6.839   3.193   1.169
 2899SOL    HW2 9597   6.705   3.102   1.187
 2900SOL     OW 9598   3.246   3.547   0.249
 2900SOL    HW1 9599   3.171   3.591   0.200
 2900SOL    HW2 9600   3.324   3.610   0.255
 2901SOL     OW 9601   1.479   3.427   3.225
 2901SOL    HW1 9602   1.507   3.368   3.301
 2901SOL    HW2 9603   1.549   3.495   3.208
 2902SOL     OW 9604   1.320   5.898   4.055
 2902SOL    HW1 9605   1.240   5.951   4.083
 2902SOL    HW2 9606   1.390   5.903   4.126
 2903SOL     OW 9607   4.225   5.851   0.976
 2903SOL    HW1 9608   4.216   5.950   0.974
 2903SOL    HW2 9609   4.160   5.813   1.042
 2904SOL     OW 9610   2.542   4.423   5.228
 2904SOL    HW1 9611   2.615   4.478   5.269
 2904SOL    HW2 9612   2.527   4.454   5.134
 2905SOL     OW 9613   0.768   4.408   1.918
 2905SOL    HW1 9614   0.777   4.454   1.830
 2905SOL    HW2 9615   0.695   4.340   1.913
 2906SOL     OW 9616   5.897   5.955   3.455
 2906SOL    HW1 9617   5.954   5.875   3.476
 2906SOL    HW2 9618   5.944   6.038   3.485
 2907SOL     OW 9619   0.907   0.464   3.717
 2907SOL    HW1 9620   0.963   0.517   3.652
 2907SOL    HW2 9621   0.811   0.474   3.693
 2908SOL     OW 9622   4.455   0.077   2.757
 2908SOL    HW1 9623   4.398   0.129   2.820
 2908SOL    HW2 9624   4.484   7.015   2.801
 2909SOL     OW 9625   1.135   5.911   2.234
 2909SOL    HW1 9626   1.137   6.007   2.264
 2909SOL    HW2 9627   1.041   5.877   2.242
 2910SOL     OW 9628   0.066   0.533   3.716
 2910SOL    HW1 9629   0.095   0.458   3.657
 2910SOL    HW2 9630   0.080   0.620   3.669
 2911SOL     OW 9631   6.552   4.238   4.203
 2911SOL    HW1 9632   6.624   4.273   4.264
 2911SOL    HW2 9633   6.476   4.202   4.259
 2912SOL     OW 9634   6.801   6.593   0.633
 2912SOL    HW1 9635   6.865   6.570   0.559
 2912SOL    HW2 9636   6.728   6.651   0.597
 2913SOL     OW 9637   2.099   5.809   0.610
 2913SOL    HW1 9638   2.008   5.822   0.571
 2913SOL    HW2 9639   2.123   5.888   0.666
 2914SOL     OW 9640   5.273   5.073   0.377
 2914SOL    HW1 9641   5.319   5.013   0.442
 2914SOL    HW2 9642   5.278   5.168   0.409
 2915SOL     OW 9643   3.055   1.288   3.392
 2915SOL    HW1 9644   2.968   1.327   3.362
 2915SOL    HW2 9645   3.129   1.325   3.336
 2916SOL     OW 9646   1.464   6.215   0.490
 2916SOL    HW1 9647   1.423   6.125   0.504
 2916SOL    HW2 9648   1.412   6.265   0.422
 2917SOL     OW 9649   2.406   6.662   3.155
 2917SOL    HW1 9650   2.438   6.626   3.243
 2917SOL    HW2 9651   2.340   6.736   3.171
 2918SOL     OW 9652   6.100   3.668   1.124
 2918SOL    HW1 9653   6.022   3.717   1.085
 2918SOL    HW2 9654   6.184   3.720   1.106
 2919SOL     OW 9655   1.140   6.021   4.618
 2919SOL    HW1 9656   1.077   6.097   4.604
 2919SOL    HW2 9657   1.207   6.046   4.687
 2920SOL     OW 9658   1.498   1.439   1.555
 2920SOL    HW1 9659   1.482   1.363   1.492
 2920SOL    HW2 9660   1.411   1.486   1.572
 2921SOL     OW 9661   0.473   6.952   5.813
 2921SOL    HW1 9662   0.443   6.992   5.726
 2921SOL    HW2 9663   0.523   7.021   5.866
 2922SOL     OW 9664   3.728   0.769   3.101
 2922SOL    HW1 9665   3.800   0.838   3.106
 2922SOL    HW2 9666   3.763   0.688   3.054
 2923SOL     OW 9667   6.145   5.024   5.002
 2923SOL    HW1 9668   6.053   5.004   5.037
 2923SOL    HW2 9669   6.194   4.938   4.986
 2924SOL     OW 9670   6.705   2.882   5.413
 2924SOL    HW1 9671   6.628   2.926   5.367
 2924SOL    HW2 9672   6.768   2.951   5.448
 2925SOL     OW 9673   5.312   0.350   5.750
 2925SOL    HW1 9674   5.260   0.272   5.784
 2925SOL    HW2 9675   5.328   0.339   5.652
 2926SOL     OW 9676   0.426   1.638   4.477
 2926SOL    HW1 9677   0.438   1.681   4.388
 2926SOL    HW2 9678   0.367   1.696   4.534
 2927SOL     OW 9679   1.606   2.858   1.464
 2927SOL    HW1 9680   1.690   2.889   1.509
 2927SOL    HW2 9681   1.576   2.927   1.398
 2928SOL     OW 9682   6.696   2.192   0.068
 2928SOL    HW1 9683   6.690   2.289   0.092
 2928SOL    HW2 9684   6.774   2.151   0.116
 2929SOL     OW 9685   1.833   2.267   4.631
 2929SOL    HW1 9686   1.890   2.321   4.569
 2929SOL    HW2 9687   1.776   2.328   4.686
 2930SOL     OW 9688   0.265   5.376   5.094
 2930SOL    HW1 9689   0.323   5.456   5.085
 2930SOL    HW2 9690   0.233   5.347   5.004
 2931SOL     OW 9691   4.418   4.058   5.890
 2931SOL    HW1 9692   4.385   4.150   5.914
 2931SOL    HW2 9693   4.390   3.994   5.962
 2932SOL     OW 9694   6.574   5.699   0.725
 2932SOL    HW1 9695   6.632   5.778   0.745
 2932SOL    HW2 9696   6.478   5.727   0.726
 2933SOL     OW 9697   1.393   0.219   0.847
 2933SOL    HW1 9698   1.357   0.272   0.924
 2933SOL    HW2 9699   1.411   0.125   0.877
 2934SOL     OW 9700   3.816   3.783   0.267
 2934SOL    HW1 9701   3.767   3.825   0.190
 2934SOL    HW2 9702   3.898   3.737   0.233
 2935SOL     OW 9703   0.174   2.601   6.410
 2935SOL    HW1 9704   0.120   2.667   6.462
 2935SOL    HW2 9705   0.262   2.643   6.384
 2936SOL     OW 9706   4.873   7.019   0.811
 2936SOL    HW1 9707   4.884   0.091   0.782
 2936SOL    HW2 9708   4.801   7.014   0.881
 2937SOL     OW 9709   4.425   5.559   2.253
 2937SOL    HW1 9710   4.332   5.563   2.290
 2937SOL    HW2 9711   4.467   5.650   2.262
 2938SOL     OW 9712   6.662   5.632   6.631
 2938SOL    HW1 9713   6.564   5.629   6.611
 2938SOL    HW2 9714   6.695   5.726   6.620
 2939SOL     OW 9715   0.181   5.810   1.525
 2939SOL    HW1 9716   0.226   5.743   1.465
 2939SOL    HW2 9717   0.091   5.777   1.550
 2940SOL     OW 9718   5.358   5.898   3.594
 2940SOL    HW1 9719   5.331   5.821   3.652
 2940SOL    HW2 9720   5.313   5.890   3.505
 2941SOL     OW 9721   2.056   3.322   3.819
 2941SOL    HW1 9722   1.971   3.285   3.782
 2941SOL    HW2 9723   2.064   3.297   3.916
 2942SOL     OW 9724   3.368   1.413   0.716
 2942SOL    HW1 9725   3.437   1.446   0.781
 2942SOL    HW2 9726   3.327   1.491   0.670
 2943SOL     OW 9727   5.674   4.136   3.511
 2943SOL    HW1 9728   5.751   4.179   3.464
 2943SOL    HW2 9729   5.621   4.082   3.446
 2944SOL     OW 9730   1.967   5.760   3.845
 2944SOL    HW1 9731   1.869   5.738   3.841
 2944SOL    HW2 9732   2.007   5.749   3.754
 2945SOL     OW 9733   5.414   4.294   1.496
 2945SOL    HW1 9734   5.371   4.333   1.577
 2945SOL    HW2 9735   5.514   4.305   1.502
 2946SOL     OW 9736   3.061   3.991   6.202
 2946SOL    HW1 9737   3.111   4.031   6.279
 2946SOL    HW2 9738   3.118   3.922   6.158
 2947SOL     OW 9739   5.836   6.650   0.866
 2947SOL    HW1 9740   5.895   6.671   0.944
 2947SOL    HW2 9741   5.759   6.594   0.897
 2948SOL     OW 9742   5.818   3.948   2.659
 2948SOL    HW1 9743   5.756   4.000   2.601
 2948SOL    HW2 9744   5.808   3.850   2.640
 2949SOL     OW 9745   1.599   0.177   1.141
 2949SOL    HW1 9746   1.508   0.218   1.145
 2949SOL    HW2 9747   1.641   0.199   1.053
 2950SOL     OW 9748   4.909   4.420   2.543
 2950SOL    HW1 9749   4.853   4.479   2.600
 2950SOL    HW2 9750   5.005   4.447   2.552
 2951SOL     OW 9751   5.654   1.355   1.360
 2951SOL    HW1 9752   5.576   1.336   1.420
 2951SOL    HW2 9753   5.725   1.285   1.374
 2952SOL     OW 9754   5.893   1.289   4.296
 2952SOL    HW1 9755   5.980   1.242   4.281
 2952SOL    HW2 9756   5.834   1.234   4.355
 2953SOL     OW 9757   1.206   5.931   3.424
 2953SOL    HW1 9758   1.255   5.966   3.344
 2953SOL    HW2 9759   1.246   5.843   3.452
 2954SOL     OW 9760   0.106   4.792   6.157
 2954SOL    HW1 9761   0.093   4.855   6.233
 2954SOL    HW2 9762   0.118   4.699   6.193
 2955SOL     OW 9763   2.101   3.864   6.842
 2955SOL    HW1 9764   2.023   3.802   6.838
 2955SOL    HW2 9765   2.180   3.821   6.798
 2956SOL     OW 9766   6.399   4.301   3.397
 2956SOL    HW1 9767   6.348   4.368   3.452
 2956SOL    HW2 9768   6.447   4.238   3.458
 2957SOL     OW 9769   2.995   5.518   1.769
 2957SOL    HW1 9770   3.070   5.581   1.752
 2957SOL    HW2 9771   2.934   5.516   1.690
 2958SOL     OW 9772   2.174   4.827   3.402
 2958SOL    HW1 9773   2.119   4.908   3.384
 2958SOL    HW2 9774   2.209   4.790   3.316
 2959SOL     OW 9775   6.393   1.990   2.763
 2959SOL    HW1 9776   6.480   2.005   2.716
 2959SOL    HW2 9777   6.380   2.062   2.832
 2960SOL     OW 9778   4.498   0.619   0.601
 2960SOL    HW1 9779   4.525   0.523   0.610
 2960SOL    HW2 9780   4.580   0.676   0.598
 2961SOL     OW 9781   5.462   3.933   2.754
 2961SOL    HW1 9782   5.481   3.920   2.657
 2961SOL    HW2 9783   5.375   3.889   2.777
 2962SOL     OW 9784   6.748   6.437   2.610
 2962SOL    HW1 9785   6.694   6.490   2.545
 2962SOL    HW2 9786   6.775   6.496   2.687
 2963SOL     OW 9787   1.963   1.378   5.050
 2963SOL    HW1 9788   1.925   1.287   5.064
 2963SOL    HW2 9789   1.924   1.441   5.118
 2964SOL     OW 9790   1.017   2.880   6.928
 2964SOL    HW1 9791   1.034   2.932   6.845
 2964SOL    HW2 9792   1.092   2.815   6.943
 2965SOL     OW 9793   0.282   0.411   5.214
 2965SOL    HW1 9794   0.362   0.402   5.274
 2965SOL    HW2 9795   0.201   0.429   5.268
 2966SOL     OW 9796   4.300   5.692   3.609
 2966SOL    HW1 9797   4.384   5.738   3.579
 2966SOL    HW2 9798   4.238   5.760   3.649
 2967SOL     OW 9799   6.262   0.891   5.696
 2967SOL    HW1 9800   6.346   0.941   5.715
 2967SOL    HW2 9801   6.277   0.794   5.711
 2968SOL     OW 9802   1.538   2.067   0.920
 2968SOL    HW1 9803   1.468   2.001   0.948
 2968SOL    HW2 9804   1.495   2.146   0.877
 2969SOL     OW 9805   5.816   3.300   4.279
 2969SOL    HW1 9806   5.748   3.356   4.327
 2969SOL    HW2 9807   5.907   3.317   4.319
 2970SOL     OW 9808   2.434   2.574   4.421
 2970SOL    HW1 9809   2.362   2.506   4.437
 2970SOL    HW2 9810   2.393   2.658   4.385
 2971SOL     OW 9811   5.643   3.851   6.561
 2971SOL    HW1 9812   5.594   3.933   6.531
 2971SOL    HW2 9813   5.742   3.865   6.549
 2972SOL     OW 9814   5.586   4.842   6.893
 2972SOL    HW1 9815   5.489   4.819   6.896
 2972SOL    HW2 9816   5.640   4.766   6.928
 2973SOL     OW 9817   5.000   0.042   2.205
 2973SOL    HW1 9818   5.074   0.102   2.236
 2973SOL    HW2 9819   4.914   0.093   2.205
 2974SOL     OW 9820   5.025   5.634   3.419
 2974SOL    HW1 9821   5.032   5.595   3.511
 2974SOL    HW2 9822   5.018   5.560   3.352
 2975SOL     OW 9823   4.503   4.839   4.197
 2975SOL    HW1 9824   4.574   4.818   4.265
 2975SOL    HW2 9825   4.422   4.784   4.215
 2976SOL     OW 9826   4.676   2.243   1.966
 2976SOL    HW1 9827   4.698   2.178   1.894
 2976SOL    HW2 9828   4.579   2.235   1.990
 2977SOL     OW 9829   1.160   0.618   1.744
 2977SOL    HW1 9830   1.080   0.673   1.768
 2977SOL    HW2 9831   1.150   0.584   1.650
 2978SOL     OW 9832   4.237   4.634   5.995
 2978SOL    HW1 9833   4.286   4.658   6.079
 2978SOL    HW2 9834   4.165   4.701   5.978
 2979SOL     OW 9835   2.606   1.230   4.400
 2979SOL    HW1 9836   2.542   1.188   4.463
 2979SOL    HW2 9837   2.697   1.191   4.414
 2980SOL     OW 9838   3.901   3.811   6.090
 2980SOL    HW1 9839   3.805   3.838   6.079
 2980SOL    HW2 9840   3.949   3.826   6.004
 2981SOL     OW 9841   1.751   1.247   0.782
 2981SOL    HW1 9842   1.663   1.200   0.790
 2981SOL    HW2 9843   1.818   1.185   0.739
 2982SOL     OW 9844   0.796   0.521   1.819
 2982SOL    HW1 9845   0.774   0.460   1.742
 2982SOL    HW2 9846   0.857   0.593   1.788
 2983SOL     OW 9847   6.246   3.207   6.704
 2983SOL    HW1 9848   6.160   3.220   6.753
 2983SOL    HW2 9849   6.228   3.194   6.606
 2984SOL     OW 9850   6.920   5.019   0.417
 2984SOL    HW1 9851   6.826   4.996   0.442
 2984SOL    HW2 9852   6.981   4.945   0.447
 2985SOL     OW 9853   0.251   0.397   4.921
 2985SOL    HW1 9854   0.167   0.452   4.910
 2985SOL    HW2 9855   0.274   0.392   5.018
 2986SOL     OW 9856   3.729   4.131   2.696
 2986SOL    HW1 9857   3.773   4.095   2.613
 2986SOL    HW2 9858   3.796   4.133   2.771
 2987SOL     OW 9859   1.099   1.273   4.421
 2987SOL    HW1 9860   1.017   1.316   4.383
 2987SOL    HW2 9861   1.101   1.286   4.520
 2988SOL     OW 9862   0.553   1.783   0.257
 2988SOL    HW1 9863   0.551   1.703   0.197
 2988SOL    HW2 9864   0.618   1.850   0.221
 2989SOL     OW 9865   5.287   3.257   4.405
 2989SOL    HW1 9866   5.208   3.224   4.353
 2989SOL    HW2 9867   5.286   3.216   4.496
 2990SOL     OW 9868   4.848   1.674   4.437
 2990SOL    HW1 9869   4.839   1.695   4.339
 2990SOL    HW2 9870   4.944   1.655   4.458
 2991SOL     OW 9871   5.475   3.339   0.670
 2991SOL    HW1 9872   5.513   3.247   0.654
 2991SOL    HW2 9873   5.532   3.387   0.737
 2992SOL     OW 9874   0.252   3.216   5.666
 2992SOL    HW1 9875   0.298   3.127   5.674
 2992SOL    HW2 9876   0.311   3.280   5.616
 2993SOL     OW 9877   1.301   4.523   0.327
 2993SOL    HW1 9878   1.290   4.478   0.238
 2993SOL    HW2 9879   1.228   4.590   0.340
 2994SOL     OW 9880   4.804   6.843   0.247
 2994SOL    HW1 9881   4.737   6.916   0.256
 2994SOL    HW2 9882   4.894   6.876   0.277
 2995SOL     OW 9883   5.056   6.902   0.318
 2995SOL    HW1 9884   5.033   6.890   0.415
 2995SOL    HW2 9885   5.142   6.856   0.298
 2996SOL     OW 9886   0.649   1.724   4.710
 2996SOL    HW1 9887   0.681   1.702   4.617
 2996SOL    HW2 9888   0.551   1.706   4.716
 2997SOL     OW 9889   5.045   0.579   3.980
 2997SOL    HW1 9890   4.949   0.606   3.981
 2997SOL    HW2 9891   5.089   0.614   3.897
 2998SOL     OW 9892   2.474   1.428   2.916
 2998SOL    HW1 9893   2.535   1.508   2.918
 2998SOL    HW2 9894   2.486   1.380   2.829
 2999SOL     OW 9895   2.960   4.181   0.549
 2999SOL    HW1 9896   2.940   4.256   0.487
 2999SOL    HW2 9897   2.957   4.214   0.643
 3000SOL     OW 9898   3.112   3.768   5.083
 3000SOL    HW1 9899   3.174   3.734   5.012
 3000SOL    HW2 9900   3.100   3.866   5.073
 3001SOL     OW 9901   6.449   1.690   6.361
 3001SOL    HW1 9902   6.486   1.749   6.433
 3001SOL    HW2 9903   6.352   1.676   6.376
 3002SOL     OW 9904   2.375   0.915   1.826
 3002SOL    HW1 9905   2.449   0.962   1.875
 3002SOL    HW2 9906   2.339   0.841   1.884
 3003SOL     OW 9907   1.117   6.133   0.415
 3003SOL    HW1 9908   1.137   6.059   0.352
 3003SOL    HW2 9909   1.044   6.104   0.478
 3004SOL     OW 9910   2.785   5.605   4.465
 3004SOL    HW1 9911   2.743   5.516   4.482
 3004SOL    HW2 9912   2.723   5.661   4.410
 3005SOL     OW 9913   0.991   2.533   5.389
 3005SOL    HW1 9914   0.952   2.495   5.305
 3005SOL    HW2 9915   0.971   2.471   5.465
 3006SOL     OW 9916   5.326   1.803   5.110
 3006SOL    HW1 9917   5.331   1.749   5.194
 3006SOL    HW2 9918   5.418   1.814   5.073
 3007SOL     OW 9919   5.435   5.292   6.766
 3007SOL    HW1 9920   5.417   5.309   6.669
 3007SOL    HW2 9921   5.356   5.321   6.820
 3008SOL     OW 9922   4.473   2.311   5.651
 3008SOL    HW1 9923   4.490   2.408   5.667
 3008SOL    HW2 9924   4.428   2.299   5.562
 3009SOL     OW 9925   0.450   3.072   2.470
 3009SOL    HW1 9926   0.450   3.172   2.472
 3009SOL    HW2 9927   0.539   3.038   2.500
 3010SOL     OW 9928   4.279   6.151   6.091
 3010SOL    HW1 9929   4.358   6.211   6.080
 3010SOL    HW2 9930   4.220   6.186   6.163
 3011SOL     OW 9931   6.045   0.229   1.060
 3011SOL    HW1 9932   6.087   0.320   1.062
 3011SOL    HW2 9933   6.047   0.195   0.966
 3012SOL     OW 9934   2.794   2.976   6.117
 3012SOL    HW1 9935   2.810   2.900   6.053
 3012SOL    HW2 9936   2.850   3.055   6.090
 3013SOL     OW 9937   0.707   5.801   4.343
 3013SOL    HW1 9938   0.649   5.834   4.269
 3013SOL    HW2 9939   0.703   5.702   4.348
 3014SOL     OW 9940   4.817   0.745   5.380
 3014SOL    HW1 9941   4.867   0.817   5.332
 3014SOL    HW2 9942   4.871   0.714   5.459
 3015SOL     OW 9943   1.206   1.142   0.236
 3015SOL    HW1 9944   1.202   1.070   0.306
 3015SOL    HW2 9945   1.288   1.197   0.251
 3016SOL     OW 9946   2.947   6.384   4.902
 3016SOL    HW1 9947   2.852   6.398   4.874
 3016SOL    HW2 9948   2.991   6.473   4.914
 3017SOL     OW 9949   6.309   5.843   1.761
 3017SOL    HW1 9950   6.274   5.837   1.854
 3017SOL    HW2 9951   6.240   5.807   1.697
 3018SOL     OW 9952   3.313   0.254   7.022
 3018SOL    HW1 9953   3.399   0.214   6.990
 3018SOL    HW2 9954   3.332   0.337   0.051
 3019SOL     OW 9955   1.652   0.110   5.979
 3019SOL    HW1 9956   1.664   0.014   6.003
 3019SOL    HW2 9957   1.681   0.167   6.056
 3020SOL     OW 9958   4.924   3.542   0.260
 3020SOL    HW1 9959   4.977   3.516   0.180
 3020SOL    HW2 9960   4.910   3.642   0.261
 3021SOL     OW 9961   3.925   6.634   4.658
 3021SOL    HW1 9962   3.900   6.714   4.604
 3021SOL    HW2 9963   4.001   6.586   4.615
 3022SOL     OW 9964   4.511   6.198   3.624
 3022SOL    HW1 9965   4.415   6.172   3.615
 3022SOL    HW2 9966   4.569   6.117   3.617
 3023SOL     OW 9967   3.990   6.736   2.934
 3023SOL    HW1 9968   3.920   6.687   2.986
 3023SOL    HW2 9969   4.034   6.672   2.870
 3024SOL     OW 9970   0.243   6.099   6.385
 3024SOL    HW1 9971   0.319   6.095   6.451
 3024SOL    HW2 9972   0.268   6.161   6.310
 3025SOL     OW 9973   3.821   5.742   0.938
 3025SOL    HW1 9974   3.828   5.828   0.887
 3025SOL    HW2 9975   3.733   5.698   0.917
 3026SOL     OW 9976   5.988   1.305   0.660
 3026SOL    HW1 9977   5.914   1.325   0.724
 3026SOL    HW2 9978   6.016   1.390   0.614
 3027SOL     OW 9979   4.933   1.247   1.351
 3027SOL    HW1 9980   4.857   1.200   1.307
 3027SOL    HW2 9981   5.017   1.230   1.300
 3028SOL     OW 9982   2.669   4.530   6.244
 3028SOL    HW1 9983   2.625   4.497   6.327
 3028SOL    HW2 9984   2.682   4.453   6.181
 3029SOL     OW 9985   0.780   1.948   4.366
 3029SOL    HW1 9986   0.868   1.963   4.320
 3029SOL    HW2 9987   0.742   2.036   4.393
 3030SOL     OW 9988   1.389   3.555   1.176
 3030SOL    HW1 9989   1.292   3.566   1.197
 3030SOL    HW2 9990   1.426   3.641   1.141
 3031SOL     OW 9991   1.222   5.953   1.182
 3031SOL    HW1 9992   1.149   5.894   1.148
 3031SOL    HW2 9993   1.309   5.926   1.140
 3032SOL     OW 9994   1.529   0.597   2.748
 3032SOL    HW1 9995   1.564   0.681   2.706
 3032SOL    HW2 9996   1.469   0.550   2.683
 3033SOL     OW 9997   6.830   2.282   4.156
 3033SOL    HW1 9998   6.844   2.320   4.064
 3033SOL    HW2 9999   6.915   2.290   4.209
 3034SOL     OW10000   0.746   5.516   3.926
 3034SOL    HW110001   0.825   5.532   3.985
 3034SOL    HW210002   0.761   5.433   3.872
 3035SOL     OW10003   1.392   2.852   6.409
 3035SOL    HW110004   1.439   2.777   6.364
 3035SOL    HW210005   1.414   2.938   6.363
 3036SOL     OW10006   2.562   2.257   6.451
 3036SOL    HW110007   2.507   2.274   6.370
 3036SOL    HW210008   2.603   2.342   6.483
 3037SOL     OW10009   0.473   5.351   6.361
 3037SOL    HW110010   0.390   5.300   6.381
 3037SOL    HW210011   0.487   5.420   6.432
 3038SOL     OW10012   5.161   4.703   6.480
 3038SOL    HW110013   5.237   4.731   6.421
 3038SOL    HW210014   5.103   4.783   6.499
 3039SOL     OW10015   6.501   4.243   6.912
 3039SOL    HW110016   6.437   4.166   6.914
 3039SOL    HW210017   6.588   4.216   6.955
 3040SOL     OW10018   4.033   4.390   6.237
 3040SOL    HW110019   4.086   4.323   6.289
 3040SOL    HW210020   4.077   4.480   6.245
 3041SOL     OW10021   2.290   4.341   4.867
 3041SOL    HW110022   2.213   4.329   4.805
 3041SOL    HW210023   2.290   4.268   4.935
 3042SOL     OW10024   6.943   4.992   2.865
 3042SOL    HW110025   0.017   4.972   2.854
 3042SOL    HW210026   6.892   4.954   2.787
 3043SOL     OW10027   2.960   4.690   0.558
 3043SOL    HW110028   2.936   4.593   0.545
 3043SOL    HW210029   2.879   4.740   0.589
 3044SOL     OW10030   2.957   3.606   5.260
 3044SOL    HW110031   3.005   3.656   5.188
 3044SOL    HW210032   2.902   3.533   5.219
 3045SOL     OW10033   5.004   1.304   2.231
 3045SOL    HW110034   4.988   1.316   2.329
 3045SOL    HW210035   4.922   1.266   2.188
 3046SOL     OW10036   5.585   5.454   0.648
 3046SOL    HW110037   5.655   5.384   0.633
 3046SOL    HW210038   5.629   5.540   0.674
 3047SOL     OW10039   6.379   0.681   6.445
 3047SOL    HW110040   6.330   0.741   6.382
 3047SOL    HW210041   6.313   0.634   6.504
 3048SOL     OW10042   4.008   3.634   1.331
 3048SOL    HW110043   4.016   3.623   1.430
 3048SOL    HW210044   4.017   3.731   1.308
 3049SOL     OW10045   1.201   0.356   4.402
 3049SOL    HW110046   1.117   0.324   4.445
 3049SOL    HW210047   1.180   0.432   4.340
 3050SOL     OW10048   2.994   2.656   1.349
 3050SOL    HW110049   2.955   2.738   1.390
 3050SOL    HW210050   2.947   2.575   1.384
 3051SOL     OW10051   2.283   6.854   4.610
 3051SOL    HW110052   2.245   6.904   4.688
 3051SOL    HW210053   2.332   6.773   4.644
 3052SOL     OW10054   6.097   6.176   2.654
 3052SOL    HW110055   6.178   6.212   2.608
 3052SOL    HW210056   6.115   6.166   2.752
 3053SOL     OW10057   1.618   4.305   0.402
 3053SOL    HW110058   1.590   4.352   0.486
 3053SOL    HW210059   1.713   4.275   0.410
 3054SOL     OW10060   5.746   1.439   2.696
 3054SOL    HW110061   5.749   1.477   2.788
 3054SOL    HW210062   5.651   1.430   2.666
 3055SOL     OW10063   6.132   5.707   6.509
 3055SOL    HW110064   6.217   5.656   6.525
 3055SOL    HW210065   6.115   5.712   6.411
 3056SOL     OW10066   5.142   1.718   6.027
 3056SOL    HW110067   5.086   1.666   6.091
 3056SOL    HW210068   5.155   1.811   6.062
 3057SOL     OW10069   6.533   5.677   3.178
 3057SOL    HW110070   6.612   5.702   3.235
 3057SOL    HW210071   6.521   5.578   3.181
 3058SOL     OW10072   6.311   4.403   0.015
 3058SOL    HW110073   6.345   4.488   0.055
 3058SOL    HW210074   6.388   4.353   6.997
 3059SOL     OW10075   2.509   2.483   4.661
 3059SOL    HW110076   2.489   2.537   4.579
 3059SOL    HW210077   2.444   2.408   4.667
 3060SOL     OW10078   4.596   5.216   5.381
 3060SOL    HW110079   4.595   5.314   5.360
 3060SOL    HW210080   4.528   5.196   5.451
 3061SOL     OW10081   5.028   4.738   5.018
 3061SOL    HW110082   5.007   4.668   4.950
 3061SOL    HW210083   5.013   4.829   4.979
 3062SOL     OW10084   4.856   3.970   1.507
 3062SOL    HW110085   4.900   3.958   1.418
 3062SOL    HW210086   4.921   3.951   1.580
 3063SOL     OW10087   6.958   4.548   1.337
 3063SOL    HW110088   6.939   4.487   1.414
 3063SOL    HW210089   6.906   4.518   1.257
 3064SOL     OW10090   4.015   1.765   6.752
 3064SOL    HW110091   3.966   1.827   6.690
 3064SOL    HW210092   3.990   1.786   6.846
 3065SOL     OW10093   1.059   0.678   6.735
 3065SOL    HW110094   1.047   0.740   6.657
 3065SOL    HW210095   1.021   0.588   6.712
 3066SOL     OW10096   5.390   6.074   6.238
 3066SOL    HW110097   5.345   5.995   6.198
 3066SOL    HW210098   5.488   6.055   6.249
 3067SOL     OW10099   2.635   2.584   6.944
 3067SOL    HW110100   2.695   2.545   7.013
 3067SOL    HW210101   2.653   2.540   6.856
 3068SOL     OW10102   0.607   0.926   1.045
 3068SOL    HW110103   0.569   0.939   0.953
 3068SOL    HW210104   0.669   0.848   1.045
 3069SOL     OW10105   5.147   0.227   2.430
 3069SOL    HW110106   5.217   0.219   2.360
 3069SOL    HW210107   5.186   0.273   2.511
 3070SOL     OW10108   2.833   1.559   1.042
 3070SOL    HW110109   2.891   1.609   1.107
 3070SOL    HW210110   2.791   1.481   1.087
 3071SOL     OW10111   0.220   3.023   3.392
 3071SOL    HW110112   0.213   2.996   3.488
 3071SOL    HW210113   0.128   3.035   3.355
 3072SOL     OW10114   2.463   6.636   6.533
 3072SOL    HW110115   2.392   6.656   6.466
 3072SOL    HW210116   2.459   6.704   6.607
 3073SOL     OW10117   6.149   4.695   0.583
 3073SOL    HW110118   6.077   4.706   0.651
 3073SOL    HW210119   6.175   4.784   0.546
 3074SOL     OW10120   2.023   3.664   1.366
 3074SOL    HW110121   2.090   3.723   1.321
 3074SOL    HW210122   2.023   3.574   1.322
 3075SOL     OW10123   2.014   5.033   3.341
 3075SOL    HW110124   2.026   5.090   3.423
 3075SOL    HW210125   1.969   5.086   3.269
 3076SOL     OW10126   6.796   0.475   4.767
 3076SOL    HW110127   6.744   0.516   4.842
 3076SOL    HW210128   6.748   0.394   4.734
 3077SOL     OW10129   6.437   4.298   1.922
 3077SOL    HW110130   6.478   4.366   1.861
 3077SOL    HW210131   6.510   4.250   1.971
 3078SOL     OW10132   6.554   2.841   1.663
 3078SOL    HW110133   6.652   2.820   1.672
 3078SOL    HW210134   6.500   2.764   1.696
 3079SOL     OW10135   2.219   3.163   5.242
 3079SOL    HW110136   2.274   3.216   5.306
 3079SOL    HW210137   2.275   3.136   5.164
 3080SOL     OW10138   4.376   5.116   1.118
 3080SOL    HW110139   4.472   5.087   1.111
 3080SOL    HW210140   4.352   5.125   1.215
 3081SOL     OW10141   1.730   3.977   0.545
 3081SOL    HW110142   1.647   3.967   0.601
 3081SOL    HW210143   1.764   3.886   0.520
 3082SOL     OW10144   4.012   5.032   4.862
 3082SOL    HW110145   4.016   4.946   4.811
 3082SOL    HW210146   4.070   5.100   4.817
 3083SOL     OW10147   2.272   5.636   2.511
 3083SOL    HW110148   2.342   5.683   2.565
 3083SOL    HW210149   2.221   5.573   2.569
 3084SOL     OW10150   0.935   3.489   3.681
 3084SOL    HW110151   0.933   3.545   3.598
 3084SOL    HW210152   0.943   3.549   3.761
 3085SOL     OW10153   4.622   4.833   0.828
 3085SOL    HW110154   4.584   4.800   0.741
 3085SOL    HW210155   4.702   4.779   0.853
 3086SOL     OW10156   6.146   1.265   6.467
 3086SOL    HW110157   6.220   1.251   6.402
 3086SOL    HW210158   6.176   1.328   6.539
 3087SOL     OW10159   2.998   6.600   1.824
 3087SOL    HW110160   2.962   6.552   1.743
 3087SOL    HW210161   2.924   6.613   1.889
 3088SOL     OW10162   0.880   2.758   5.095
 3088SOL    HW110163   0.814   2.833   5.090
 3088SOL    HW210164   0.886   2.713   5.006
 3089SOL     OW10165   5.071   6.983   5.145
 3089SOL    HW110166   5.027   6.917   5.084
 3089SOL    HW210167   5.147   0.005   5.098
 3090SOL     OW10168   0.967   2.203   1.607
 3090SOL    HW110169   0.949   2.207   1.509
 3090SOL    HW210170   0.915   2.127   1.647
 3091SOL     OW10171   1.299   1.987   0.479
 3091SOL    HW110172   1.199   1.986   0.476
 3091SOL    HW210173   1.333   1.893   0.472
 3092SOL     OW10174   6.541   6.722   2.689
 3092SOL    HW110175   6.466   6.757   2.745
 3092SOL    HW210176   6.609   6.679   2.748
 3093SOL     OW10177   5.573   5.330   6.383
 3093SOL    HW110178   5.629   5.388   6.324
 3093SOL    HW210179   5.631   5.262   6.427
 3094SOL     OW10180   2.618   1.447   5.927
 3094SOL    HW110181   2.635   1.362   5.877
 3094SOL    HW210182   2.558   1.506   5.872
 3095SOL     OW10183   1.929   3.498   5.175
 3095SOL    HW110184   1.978   3.465   5.256
 3095SOL    HW210185   1.980   3.474   5.093
 3096SOL     OW10186   0.580   3.478   4.387
 3096SOL    HW110187   0.627   3.395   4.358
 3096SOL    HW210188   0.564   3.475   4.486
 3097SOL     OW10189   5.354   3.054   6.667
 3097SOL    HW110190   5.260   3.036   6.697
 3097SOL    HW210191   5.401   2.967   6.650
 3098SOL     OW10192   1.752   1.761   1.798
 3098SOL    HW110193   1.662   1.781   1.761
 3098SOL    HW210194   1.781   1.835   1.859
 3099SOL     OW10195   0.567   5.999   3.826
 3099SOL    HW110196   0.547   6.052   3.744
 3099SOL    HW210197   0.484   5.952   3.857
 3100SOL     OW10198   6.446   5.547   2.328
 3100SOL    HW110199   6.486   5.629   2.371
 3100SOL    HW210200   6.347   5.559   2.321
 3101SOL     OW10201   4.098   6.634   5.906
 3101SOL    HW110202   4.096   6.652   5.808
 3101SOL    HW210203   4.140   6.545   5.922
 3102SOL     OW10204   0.402   4.731   0.775
 3102SOL    HW110205   0.480   4.756   0.832
 3102SOL    HW210206   0.360   4.814   0.737
 3103SOL     OW10207   3.300   0.486   1.033
 3103SOL    HW110208   3.336   0.509   1.123
 3103SOL    HW210209   3.293   0.569   0.977
 3104SOL     OW10210   4.752   0.404   6.185
 3104SOL    HW110211   4.710   0.447   6.105
 3104SOL    HW210212   4.851   0.402   6.174
 3105SOL     OW10213   5.277   3.213   0.146
 3105SOL    HW110214   5.218   3.148   0.098
 3105SOL    HW210215   5.329   3.165   0.217
 3106SOL     OW10216   5.963   0.789   4.956
 3106SOL    HW110217   5.985   0.884   4.975
 3106SOL    HW210218   5.874   0.766   4.997
 3107SOL     OW10219   4.158   0.999   5.469
 3107SOL    HW110220   4.202   0.953   5.547
 3107SOL    HW210221   4.143   1.095   5.491
 3108SOL     OW10222   2.045   4.048   4.416
 3108SOL    HW110223   2.130   4.069   4.369
 3108SOL    HW210224   2.060   3.973   4.480
 3109SOL     OW10225   6.713   6.666   3.767
 3109SOL    HW110226   6.770   6.622   3.836
 3109SOL    HW210227   6.772   6.716   3.703
 3110SOL     OW10228   1.841   4.445   3.798
 3110SOL    HW110229   1.764   4.475   3.742
 3110SOL    HW210230   1.876   4.358   3.763
 3111SOL     OW10231   6.283   4.410   4.960
 3111SOL    HW110232   6.282   4.435   5.057
 3111SOL    HW210233   6.333   4.479   4.908
 3112SOL     OW10234   3.394   2.355   0.053
 3112SOL    HW110235   3.408   2.433   0.115
 3112SOL    HW210236   3.454   2.364   6.997
 3113SOL     OW10237   1.838   5.373   3.627
 3113SOL    HW110238   1.816   5.457   3.675
 3113SOL    HW210239   1.807   5.380   3.532
 3114SOL     OW10240   4.035   1.435   6.896
 3114SOL    HW110241   3.992   1.368   6.956
 3114SOL    HW210242   3.977   1.516   6.889
 3115SOL     OW10243   4.133   4.736   5.514
 3115SOL    HW110244   4.144   4.656   5.573
 3115SOL    HW210245   4.123   4.706   5.419
 3116SOL     OW10246   0.453   2.191   0.634
 3116SOL    HW110247   0.379   2.256   0.646
 3116SOL    HW210248   0.417   2.104   0.601
 3117SOL     OW10249   5.085   1.949   5.404
 3117SOL    HW110250   5.124   2.010   5.472
 3117SOL    HW210251   5.097   1.988   5.313
 3118SOL     OW10252   2.002   1.210   2.864
 3118SOL    HW110253   2.006   1.172   2.957
 3118SOL    HW210254   2.021   1.308   2.868
 3119SOL     OW10255   4.076   3.571   6.092
 3119SOL    HW110256   4.039   3.663   6.081
 3119SOL    HW210257   4.050   3.515   6.013
 3120SOL     OW10258   2.516   6.984   5.035
 3120SOL    HW110259   2.555   0.025   4.969
 3120SOL    HW210260   2.464   0.012   5.104
 3121SOL     OW10261   5.178   1.613   4.544
 3121SOL    HW110262   5.195   1.703   4.584
 3121SOL    HW210263   5.246   1.594   4.474
 3122SOL     OW10264   4.187   5.239   4.454
 3122SOL    HW110265   4.190   5.315   4.520
 3122SOL    HW210266   4.245   5.261   4.376
 3123SOL     OW10267   2.480   2.082   3.334
 3123SOL    HW110268   2.555   2.111   3.393
 3123SOL    HW210269   2.439   1.999   3.369
 3124SOL     OW10270   5.230   6.774   4.152
 3124SOL    HW110271   5.308   6.803   4.097
 3124SOL    HW210272   5.186   6.854   4.192
 3125SOL     OW10273   1.616   2.678   4.616
 3125SOL    HW110274   1.530   2.729   4.608
 3125SOL    HW210275   1.599   2.589   4.657
 3126SOL     OW10276   5.333   5.218   4.406
 3126SOL    HW110277   5.322   5.294   4.341
 3126SOL    HW210278   5.298   5.134   4.364
 3127SOL     OW10279   0.597   1.846   4.025
 3127SOL    HW110280   0.539   1.922   3.995
 3127SOL    HW210281   0.576   1.823   4.120
 3128SOL     OW10282   4.580   0.278   0.100
 3128SOL    HW110283   4.641   0.326   0.163
 3128SOL    HW210284   4.633   0.208   0.050
 3129SOL     OW10285   4.539   3.525   0.890
 3129SOL    HW110286   4.483   3.450   0.927
 3129SOL    HW210287   4.606   3.553   0.959
 3130SOL     OW10288   1.297   4.508   1.606
 3130SOL    HW110289   1.338   4.598   1.591
 3130SOL    HW210290   1.368   4.438   1.598
 3131SOL     OW10291   6.633   4.126   2.335
 3131SOL    HW110292   6.727   4.095   2.348
 3131SOL    HW210293   6.625   4.173   2.248
 3132SOL     OW10294   3.947   4.300   0.230
 3132SOL    HW110295   3.923   4.221   0.287
 3132SOL    HW210296   4.026   4.277   0.174
 3133SOL     OW10297   4.204   0.622   3.536
 3133SOL    HW110298   4.114   0.594   3.504
 3133SOL    HW210299   4.273   0.559   3.500
 3134SOL     OW10300   3.648   5.351   2.488
 3134SOL    HW110301   3.679   5.277   2.429
 3134SOL    HW210302   3.707   5.357   2.568
 3135SOL     OW10303   5.676   6.575   6.200
 3135SOL    HW110304   5.650   6.560   6.296
 3135SOL    HW210305   5.775   6.573   6.192
 3136SOL     OW10306   6.067   1.159   2.651
 3136SOL    HW110307   6.039   1.077   2.601
 3136SOL    HW210308   6.017   1.164   2.738
 3137SOL     OW10309   6.538   6.980   0.253
 3137SOL    HW110310   6.497   6.983   0.344
 3137SOL    HW210311   6.542   6.885   0.222
 3138SOL     OW10312   5.313   4.993   4.218
 3138SOL    HW110313   5.406   4.980   4.251
 3138SOL    HW210314   5.311   4.989   4.118
 3139SOL     OW10315   2.563   5.765   1.148
 3139SOL    HW110316   2.533   5.840   1.206
 3139SOL    HW210317   2.486   5.702   1.134
 3140SOL     OW10318   6.538   6.439   5.993
 3140SOL    HW110319   6.561   6.512   5.929
 3140SOL    HW210320   6.527   6.353   5.943
 3141SOL     OW10321   6.995   2.705   6.639
 3141SOL    HW110322   0.040   2.762   6.685
 3141SOL    HW210323   6.940   2.656   6.706
 3142SOL     OW10324   5.394   0.794   2.287
 3142SOL    HW110325   5.372   0.891   2.277
 3142SOL    HW210326   5.490   0.783   2.312
 3143SOL     OW10327   6.284   1.150   0.112
 3143SOL    HW110328   6.324   1.141   0.203
 3143SOL    HW210329   6.257   1.245   0.096
 3144SOL     OW10330   4.150   4.200   6.395
 3144SOL    HW110331   4.099   4.119   6.370
 3144SOL    HW210332   4.243   4.194   6.358
 3145SOL     OW10333   1.582   5.874   1.468
 3145SOL    HW110334   1.588   5.801   1.400
 3145SOL    HW210335   1.487   5.905   1.475
 3146SOL     OW10336   0.616   1.010   5.421
 3146SOL    HW110337   0.576   0.941   5.481
 3146SOL    HW210338   0.556   1.025   5.342
 3147SOL     OW10339   4.105   5.068   6.677
 3147SOL    HW110340   4.051   5.136   6.726
 3147SOL    HW210341   4.198   5.065   6.713
 3148SOL     OW10342   0.686   5.288   2.810
 3148SOL    HW110343   0.663   5.259   2.904
 3148SOL    HW210344   0.778   5.326   2.809
 3149SOL     OW10345   2.951   1.514   0.795
 3149SOL    HW110346   2.988   1.432   0.751
 3149SOL    HW210347   2.927   1.493   0.890
 3150SOL     OW10348   6.679   6.613   5.012
 3150SOL    HW110349   6.617   6.552   5.060
 3150SOL    HW210350   6.630   6.659   4.938
 3151SOL     OW10351   5.745   2.022   6.278
 3151SOL    HW110352   5.787   2.021   6.187
 3151SOL    HW210353   5.741   2.116   6.312
 3152SOL     OW10354   1.497   3.484   6.305
 3152SOL    HW110355   1.535   3.410   6.249
 3152SOL    HW210356   1.547   3.489   6.391
 3153SOL     OW10357   6.655   5.464   0.892
 3153SOL    HW110358   6.603   5.543   0.860
 3153SOL    HW210359   6.604   5.380   0.875
 3154SOL     OW10360   5.699   1.596   1.484
 3154SOL    HW110361   5.654   1.665   1.427
 3154SOL    HW210362   5.719   1.515   1.429
 3155SOL     OW10363   0.072   4.763   0.156
 3155SOL    HW110364   0.094   4.860   0.169
 3155SOL    HW210365   0.012   4.752   0.077
 3156SOL     OW10366   3.648   4.179   2.027
 3156SOL    HW110367   3.712   4.161   2.102
 3156SOL    HW210368   3.621   4.275   2.028
 3157SOL     OW10369   0.623   1.698   5.518
 3157SOL    HW110370   0.624   1.603   5.549
 3157SOL    HW210371   0.595   1.758   5.593
 3158SOL     OW10372   3.064   1.533   5.467
 3158SOL    HW110373   3.087   1.445   5.507
 3158SOL    HW210374   3.102   1.538   5.374
 3159SOL     OW10375   5.339   6.843   0.247
 3159SOL    HW110376   5.415   6.845   0.182
 3159SOL    HW210377   5.350   6.765   0.309
 3160SOL     OW10378   2.413   6.814   6.109
 3160SOL    HW110379   2.433   6.735   6.051
 3160SOL    HW210380   2.458   6.895   6.071
 3161SOL     OW10381   1.824   2.814   3.127
 3161SOL    HW110382   1.726   2.800   3.141
 3161SOL    HW210383   1.843   2.912   3.120
 3162SOL     OW10384   1.844   5.841   0.515
 3162SOL    HW110385   1.804   5.757   0.552
 3162SOL    HW210386   1.779   5.884   0.453
 3163SOL     OW10387   4.648   3.722   0.210
 3163SOL    HW110388   4.565   3.772   0.233
 3163SOL    HW210389   4.723   3.754   0.266
 3164SOL     OW10390   2.781   5.408   3.627
 3164SOL    HW110391   2.716   5.437   3.558
 3164SOL    HW210392   2.869   5.386   3.583
 3165SOL     OW10393   0.979   5.224   7.018
 3165SOL    HW110394   0.893   5.173   7.019
 3165SOL    HW210395   1.051   5.167   0.035
 3166SOL     OW10396   4.043   0.973   5.113
 3166SOL    HW110397   4.121   1.032   5.094
 3166SOL    HW210398   4.049   0.939   5.207
 3167SOL     OW10399   4.461   4.282   0.798
 3167SOL    HW110400   4.506   4.200   0.834
 3167SOL    HW210401   4.405   4.323   0.869
 3168SOL     OW10402   4.424   2.077   0.645
 3168SOL    HW110403   4.440   2.104   0.550
 3168SOL    HW210404   4.331   2.101   0.671
 3169SOL     OW10405   1.048   4.867   2.382
 3169SOL    HW110406   1.140   4.883   2.418
 3169SOL    HW210407   1.053   4.797   2.311
 3170SOL     OW10408   4.021   5.689   2.986
 3170SOL    HW110409   3.954   5.735   2.927
 3170SOL    HW210410   4.064   5.757   3.046
 3171SOL     OW10411   5.649   2.688   3.010
 3171SOL    HW110412   5.569   2.691   3.069
 3171SOL    HW210413   5.620   2.696   2.914
 3172SOL     OW10414   0.055   5.050   0.142
 3172SOL    HW110415   0.009   5.065   0.230
 3172SOL    HW210416   0.130   5.115   0.131
 3173SOL     OW10417   3.276   1.209   6.926
 3173SOL    HW110418   3.259   1.240   6.832
 3173SOL    HW210419   3.227   1.269   6.990
 3174SOL     OW10420   2.398   3.677   5.948
 3174SOL    HW110421   2.398   3.649   5.852
 3174SOL    HW210422   2.313   3.647   5.992
 3175SOL     OW10423   6.497   0.946   3.453
 3175SOL    HW110424   6.415   0.904   3.491
 3175SOL    HW210425   6.571   0.942   3.520
 3176SOL     OW10426   0.504   4.321   5.083
 3176SOL    HW110427   0.537   4.327   5.178
 3176SOL    HW210428   0.582   4.302   5.023
 3177SOL     OW10429   5.871   3.726   3.325
 3177SOL    HW110430   5.797   3.706   3.389
 3177SOL    HW210431   5.939   3.783   3.369
 3178SOL     OW10432   6.310   1.275   0.483
 3178SOL    HW110433   6.381   1.279   0.553
 3178SOL    HW210434   6.286   1.180   0.465
 3179SOL     OW10435   0.819   1.823   2.052
 3179SOL    HW110436   0.879   1.903   2.056
 3179SOL    HW210437   0.848   1.757   2.121
 3180SOL     OW10438   6.557   5.999   6.483
 3180SOL    HW110439   6.467   5.995   6.527
 3180SOL    HW210440   6.589   6.093   6.481
 3181SOL     OW10441   0.761   1.295   4.716
 3181SOL    HW110442   0.704   1.315   4.796
 3181SOL    HW210443   0.731   1.352   4.639
 3182SOL     OW10444   2.608   0.340   0.051
 3182SOL    HW110445   2.568   0.290   0.127
 3182SOL    HW210446   2.681   0.400   0.085
 3183SOL     OW10447   4.710   4.369   2.183
 3183SOL    HW110448   4.799   4.409   2.163
 3183SOL    HW210449   4.673   4.328   2.100
 3184SOL     OW10450   0.682   2.213   4.261
 3184SOL    HW110451   0.666   2.312   4.255
 3184SOL    HW210452   0.595   2.165   4.270
 3185SOL     OW10453   0.070   6.507   5.975
 3185SOL    HW110454   0.042   6.479   5.883
 3185SOL    HW210455   0.166   6.483   5.989
 3186SOL     OW10456   1.058   1.186   6.231
 3186SOL    HW110457   1.036   1.242   6.150
 3186SOL    HW210458   1.144   1.139   6.216
 3187SOL     OW10459   3.968   6.005   2.484
 3187SOL    HW110460   4.039   5.937   2.465
 3187SOL    HW210461   3.892   5.992   2.421
 3188SOL     OW10462   2.213   4.818   5.825
 3188SOL    HW110463   2.281   4.870   5.773
 3188SOL    HW210464   2.158   4.763   5.762
 3189SOL     OW10465   2.425   1.413   0.294
 3189SOL    HW110466   2.335   1.455   0.299
 3189SOL    HW210467   2.444   1.384   0.200
 3190SOL     OW10468   6.933   6.115   4.837
 3190SOL    HW110469   6.904   6.144   4.746
 3190SOL    HW210470   6.859   6.129   4.903
 3191SOL     OW10471   5.013   5.669   2.261
 3191SOL    HW110472   5.016   5.603   2.186
 3191SOL    HW210473   5.100   5.719   2.265
 3192SOL     OW10474   6.479   2.447   1.426
 3192SOL    HW110475   6.560   2.399   1.394
 3192SOL    HW210476   6.405   2.381   1.442
 3193SOL     OW10477   4.568   0.847   5.166
 3193SOL    HW110478   4.493   0.827   5.228
 3193SOL    HW210479   4.641   0.893   5.216
 3194SOL     OW10480   1.567   1.100   5.383
 3194SOL    HW110481   1.599   1.190   5.354
 3194SOL    HW210482   1.549   1.044   5.302
 3195SOL     OW10483   0.358   1.045   1.829
 3195SOL    HW110484   0.335   0.971   1.892
 3195SOL    HW210485   0.456   1.041   1.808
 3196SOL     OW10486   6.809   0.581   5.448
 3196SOL    HW110487   6.905   0.553   5.454
 3196SOL    HW210488   6.792   0.623   5.359
 3197SOL     OW10489   2.488   0.045   6.062
 3197SOL    HW110490   2.493   0.074   5.966
 3197SOL    HW210491   2.514   0.121   6.122
 3198SOL     OW10492   6.774   2.591   3.770
 3198SOL    HW110493   6.712   2.545   3.706
 3198SOL    HW210494   6.817   2.669   3.725
 3199SOL     OW10495   5.722   4.571   2.990
 3199SOL    HW110496   5.643   4.608   2.942
 3199SOL    HW210497   5.802   4.628   2.970
 3200SOL     OW10498   5.992   3.354   3.990
 3200SOL    HW110499   5.927   3.303   3.934
 3200SOL    HW210500   5.984   3.326   4.085
 3201SOL     OW10501   6.331   4.437   2.747
 3201SOL    HW110502   6.261   4.386   2.797
 3201SOL    HW210503   6.289   4.488   2.672
 3202SOL     OW10504   0.972   4.960   0.508
 3202SOL    HW110505   1.046   4.940   0.443
 3202SOL    HW210506   0.979   4.898   0.586
 3203SOL     OW10507   4.363   6.972   1.738
 3203SOL    HW110508   4.350   0.017   1.810
 3203SOL    HW210509   4.291   6.981   1.669
 3204SOL     OW10510   2.935   1.232   3.784
 3204SOL    HW110511   2.891   1.316   3.814
 3204SOL    HW210512   3.008   1.253   3.719
 3205SOL     OW10513   5.742   3.488   5.679
 3205SOL    HW110514   5.674   3.550   5.640
 3205SOL    HW210515   5.739   3.495   5.779
 3206SOL     OW10516   2.399   2.830   1.572
 3206SOL    HW110517   2.436   2.911   1.527
 3206SOL    HW210518   2.371   2.854   1.665
 3207SOL     OW10519   0.666   0.551   5.574
 3207SOL    HW110520   0.723   0.470   5.559
 3207SOL    HW210521   0.671   0.579   5.669
 3208SOL     OW10522   6.134   5.862   5.227
 3208SOL    HW110523   6.145   5.764   5.244
 3208SOL    HW210524   6.156   5.882   5.132
 3209SOL     OW10525   4.756   5.493   6.145
 3209SOL    HW110526   4.686   5.557   6.175
 3209SOL    HW210527   4.725   5.399   6.163
 3210SOL     OW10528   0.414   5.318   1.531
 3210SOL    HW110529   0.431   5.256   1.455
 3210SOL    HW210530   0.497   5.371   1.550
 3211SOL     OW10531   1.471   5.715   0.732
 3211SOL    HW110532   1.526   5.729   0.814
 3211SOL    HW210533   1.530   5.682   0.658
 3212SOL     OW10534   3.366   6.964   2.508
 3212SOL    HW110535   3.289   0.004   2.503
 3212SOL    HW210536   3.365   6.918   2.598
 3213SOL     OW10537   2.273   0.913   6.255
 3213SOL    HW110538   2.224   0.922   6.342
 3213SOL    HW210539   2.214   0.868   6.188
 3214SOL     OW10540   3.881   0.379   3.175
 3214SOL    HW110541   3.828   0.301   3.143
 3214SOL    HW210542   3.873   0.454   3.110
 3215SOL     OW10543   1.063   3.428   0.590
 3215SOL    HW110544   0.977   3.412   0.638
 3215SOL    HW210545   1.119   3.492   0.642
 3216SOL     OW10546   5.225   4.578   1.040
 3216SOL    HW110547   5.160   4.569   0.965
 3216SOL    HW210548   5.233   4.492   1.089
 3217SOL     OW10549   6.893   4.774   3.043
 3217SOL    HW110550   6.912   4.859   2.994
 3217SOL    HW210551   6.799   4.777   3.078
 3218SOL     OW10552   6.590   2.058   3.151
 3218SOL    HW110553   6.577   1.998   3.230
 3218SOL    HW210554   6.661   2.021   3.092
 3219SOL     OW10555   6.986   0.682   5.099
 3219SOL    HW110556   0.047   0.686   5.154
 3219SOL    HW210557   6.907   0.697   5.158
 3220SOL     OW10558   6.953   5.796   6.813
 3220SOL    HW110559   6.998   5.842   6.737
 3220SOL    HW210560   6.883   5.856   6.852
 3221SOL     OW10561   3.948   0.403   2.263
 3221SOL    HW110562   4.043   0.413   2.234
 3221SOL    HW210563   3.929   0.468   2.336
 3222SOL     OW10564   2.944   1.572   2.993
 3222SOL    HW110565   2.919   1.651   3.049
 3222SOL    HW210566   3.003   1.511   3.045
 3223SOL     OW10567   1.828   6.863   0.675
 3223SOL    HW110568   1.831   6.913   0.762
 3223SOL    HW210569   1.908   6.888   0.620
 3224SOL     OW10570   4.712   2.717   5.070
 3224SOL    HW110571   4.687   2.798   5.123
 3224SOL    HW210572   4.811   2.704   5.073
 3225SOL     OW10573   4.006   1.040   3.950
 3225SOL    HW110574   3.975   1.124   3.994
 3225SOL    HW210575   3.975   1.039   3.855
 3226SOL     OW10576   1.054   0.222   2.140
 3226SOL    HW110577   1.079   0.292   2.074
 3226SOL    HW210578   1.062   0.132   2.097
 3227SOL     OW10579   4.020   2.392   6.365
 3227SOL    HW110580   4.059   2.306   6.333
 3227SOL    HW210581   4.062   2.468   6.314
 3228SOL     OW10582   0.839   3.986   0.629
 3228SOL    HW110583   0.914   3.935   0.586
 3228SOL    HW210584   0.785   4.031   0.558
 3229SOL     OW10585   2.633   0.903   6.035
 3229SOL    HW110586   2.635   0.815   5.989
 3229SOL    HW210587   2.566   0.963   5.991
 3230SOL     OW10588   2.833   5.531   5.766
 3230SOL    HW110589   2.876   5.537   5.857
 3230SOL    HW210590   2.859   5.445   5.723
 3231SOL     OW10591   3.420   0.975   2.718
 3231SOL    HW110592   3.501   0.917   2.725
 3231SOL    HW210593   3.338   0.919   2.727
 3232SOL     OW10594   4.354   5.797   4.178
 3232SOL    HW110595   4.278   5.738   4.149
 3232SOL    HW210596   4.336   5.831   4.270
 3233SOL     OW10597   0.359   2.342   6.960
 3233SOL    HW110598   0.402   2.431   6.977
 3233SOL    HW210599   0.391   2.277   0.005
 3234SOL     OW10600   1.987   3.239   0.896
 3234SOL    HW110601   1.952   3.283   0.979
 3234SOL    HW210602   1.990   3.306   0.822
 3235SOL     OW10603   6.609   5.496   1.958
 3235SOL    HW110604   6.672   5.537   2.024
 3235SOL    HW210605   6.515   5.502   1.992
 3236SOL     OW10606   2.514   4.209   0.636
 3236SOL    HW110607   2.422   4.234   0.668
 3236SOL    HW210608   2.514   4.113   0.607
 3237SOL     OW10609   6.469   1.614   4.400
 3237SOL    HW110610   6.412   1.593   4.321
 3237SOL    HW210611   6.537   1.542   4.412
 3238SOL     OW10612   6.019   4.997   0.473
 3238SOL    HW110613   6.103   4.998   0.419
 3238SOL    HW210614   6.012   5.083   0.524
 3239SOL     OW10615   0.162   0.244   3.978
 3239SOL    HW110616   0.186   0.338   4.001
 3239SOL    HW210617   0.246   0.189   3.968
 3240SOL     OW10618   0.210   0.336   6.343
 3240SOL    HW110619   0.144   0.294   6.280
 3240SOL    HW210620   0.295   0.354   6.295
 3241SOL     OW10621   4.807   1.639   6.116
 3241SOL    HW110622   4.715   1.671   6.094
 3241SOL    HW210623   4.801   1.550   6.161
 3242SOL     OW10624   5.083   4.107   5.749
 3242SOL    HW110625   5.172   4.122   5.706
 3242SOL    HW210626   5.044   4.195   5.776
 3243SOL     OW10627   4.115   5.478   6.293
 3243SOL    HW110628   4.106   5.383   6.263
 3243SOL    HW210629   4.089   5.540   6.219
 3244SOL     OW10630   5.989   6.189   6.817
 3244SOL    HW110631   5.963   6.278   6.855
 3244SOL    HW210632   5.910   6.146   6.773
 3245SOL     OW10633   4.508   2.192   4.206
 3245SOL    HW110634   4.588   2.246   4.178
 3245SOL    HW210635   4.434   2.253   4.232
 3246SOL     OW10636   0.136   6.808   2.210
 3246SOL    HW110637   0.097   6.724   2.246
 3246SOL    HW210638   0.172   6.792   2.119
 3247SOL     OW10639   0.213   4.217   2.842
 3247SOL    HW110640   0.131   4.233   2.786
 3247SOL    HW210641   0.187   4.165   2.923
 3248SOL     OW10642   5.458   2.233   2.885
 3248SOL    HW110643   5.538   2.291   2.869
 3248SOL    HW210644   5.453   2.210   2.982
 3249SOL     OW10645   3.798   3.409   3.821
 3249SOL    HW110646   3.853   3.346   3.766
 3249SOL    HW210647   3.712   3.365   3.845
 3250SOL     OW10648   5.062   5.893   2.938
 3250SOL    HW110649   5.045   5.807   2.986
 3250SOL    HW210650   5.040   5.969   2.998
 3251SOL     OW10651   2.407   0.683   4.681
 3251SOL    HW110652   2.363   0.641   4.760
 3251SOL    HW210653   2.381   0.779   4.675
 3252SOL     OW10654   2.718   1.198   3.491
 3252SOL    HW110655   2.753   1.230   3.403
 3252SOL    HW210656   2.709   1.099   3.490
 3253SOL     OW10657   5.875   3.331   1.262
 3253SOL    HW110658   5.829   3.403   1.211
 3253SOL    HW210659   5.970   3.325   1.233
 3254SOL     OW10660   5.260   0.474   0.379
 3254SOL    HW110661   5.279   0.555   0.323
 3254SOL    HW210662   5.284   0.392   0.327
 3255SOL     OW10663   5.644   5.438   1.000
 3255SOL    HW110664   5.730   5.488   0.993
 3255SOL    HW210665   5.600   5.435   0.910
 3256SOL     OW10666   4.475   2.012   1.286
 3256SOL    HW110667   4.421   2.062   1.218
 3256SOL    HW210668   4.551   2.069   1.317
 3257SOL     OW10669   2.956   2.198   2.279
 3257SOL    HW110670   2.965   2.102   2.251
 3257SOL    HW210671   2.946   2.255   2.198
 3258SOL     OW10672   3.651   5.457   3.558
 3258SOL    HW110673   3.647   5.445   3.658
 3258SOL    HW210674   3.707   5.384   3.518
 3259SOL     OW10675   5.584   4.882   4.297
 3259SOL    HW110676   5.654   4.832   4.348
 3259SOL    HW210677   5.624   4.919   4.213
 3260SOL     OW10678   1.651   4.502   2.232
 3260SOL    HW110679   1.741   4.537   2.254
 3260SOL    HW210680   1.638   4.413   2.275
 3261SOL     OW10681   5.670   0.889   2.934
 3261SOL    HW110682   5.653   0.805   2.882
 3261SOL    HW210683   5.760   0.884   2.978
 3262SOL     OW10684   3.952   1.998   2.552
 3262SOL    HW110685   4.025   2.067   2.549
 3262SOL    HW210686   3.869   2.036   2.511
 3263SOL     OW10687   2.683   0.842   3.332
 3263SOL    HW110688   2.676   0.804   3.240
 3263SOL    HW210689   2.592   0.873   3.363
 3264SOL     OW10690   1.981   5.036   0.351
 3264SOL    HW110691   1.992   4.940   0.379
 3264SOL    HW210692   1.972   5.041   0.251
 3265SOL     OW10693   6.108   6.140   5.591
 3265SOL    HW110694   6.034   6.072   5.584
 3265SOL    HW210695   6.190   6.104   5.548
 3266SOL     OW10696   2.869   4.426   0.386
 3266SOL    HW110697   2.834   4.425   0.480
 3266SOL    HW210698   2.810   4.370   0.327
 3267SOL     OW10699   4.027   0.955   1.482
 3267SOL    HW110700   4.091   0.936   1.556
 3267SOL    HW210701   3.936   0.970   1.519
 3268SOL     OW10702   0.768   4.783   1.405
 3268SOL    HW110703   0.739   4.764   1.499
 3268SOL    HW210704   0.810   4.874   1.402
 3269SOL     OW10705   0.347   5.313   1.994
 3269SOL    HW110706   0.289   5.246   2.041
 3269SOL    HW210707   0.367   5.389   2.056
 3270SOL     OW10708   0.714   2.846   5.590
 3270SOL    HW110709   0.679   2.768   5.643
 3270SOL    HW210710   0.803   2.822   5.551
 3271SOL     OW10711   0.001   3.314   1.655
 3271SOL    HW110712   6.945   3.272   1.698
 3271SOL    HW210713   0.050   3.370   1.722
 3272SOL     OW10714   4.123   5.996   0.152
 3272SOL    HW110715   4.063   6.035   0.222
 3272SOL    HW210716   4.211   6.044   0.154
 3273SOL     OW10717   4.684   3.816   6.316
 3273SOL    HW110718   4.597   3.786   6.276
 3273SOL    HW210719   4.755   3.813   6.245
 3274SOL     OW10720   6.377   1.041   6.726
 3274SOL    HW110721   6.445   1.104   6.688
 3274SOL    HW210722   6.409   0.947   6.718
 3275SOL     OW10723   4.785   0.621   1.261
 3275SOL    HW110724   4.692   0.644   1.234
 3275SOL    HW210725   4.831   0.703   1.296
 3276SOL     OW10726   4.548   6.638   0.178
 3276SOL    HW110727   4.492   6.670   0.101
 3276SOL    HW210728   4.591   6.551   0.153
 3277SOL     OW10729   3.058   1.396   1.784
 3277SOL    HW110730   2.962   1.368   1.791
 3277SOL    HW210731   3.065   1.495   1.797
 3278SOL     OW10732   0.013   0.421   6.493
 3278SOL    HW110733   0.044   0.484   6.564
 3278SOL    HW210734   0.089   0.402   6.430
 3279SOL     OW10735   4.436   6.575   1.516
 3279SOL    HW110736   4.451   6.670   1.489
 3279SOL    HW210737   4.338   6.560   1.531
 3280SOL     OW10738   5.761   3.817   4.076
 3280SOL    HW110739   5.768   3.728   4.031
 3280SOL    HW210740   5.783   3.808   4.173
 3281SOL     OW10741   6.872   4.817   1.395
 3281SOL    HW110742   6.950   4.850   1.448
 3281SOL    HW210743   6.888   4.722   1.367
 3282SOL     OW10744   0.586   3.847   5.452
 3282SOL    HW110745   0.663   3.904   5.482
 3282SOL    HW210746   0.608   3.751   5.466
 3283SOL     OW10747   3.404   1.303   1.523
 3283SOL    HW110748   3.433   1.393   1.491
 3283SOL    HW210749   3.483   1.242   1.527
 3284SOL     OW10750   1.653   5.570   4.793
 3284SOL    HW110751   1.660   5.662   4.832
 3284SOL    HW210752   1.677   5.574   4.696
 3285SOL     OW10753   5.294   1.236   4.737
 3285SOL    HW110754   5.272   1.334   4.741
 3285SOL    HW210755   5.340   1.208   4.821
 3286SOL     OW10756   3.315   1.777   1.924
 3286SOL    HW110757   3.234   1.800   1.979
 3286SOL    HW210758   3.393   1.830   1.956
 3287SOL     OW10759   1.232   0.030   6.371
 3287SOL    HW110760   1.161   6.989   6.342
 3287SOL    HW210761   1.322   7.011   6.358
 3288SOL     OW10762   1.676   6.674   0.512
 3288SOL    HW110763   1.703   6.741   0.581
 3288SOL    HW210764   1.757   6.643   0.461
 3289SOL     OW10765   3.209   1.758   6.800
 3289SOL    HW110766   3.276   1.820   6.841
 3289SOL    HW210767   3.255   1.695   6.738
 3290SOL     OW10768   6.386   5.324   0.519
 3290SOL    HW110769   6.435   5.240   0.540
 3290SOL    HW210770   6.451   5.401   0.520
 3291SOL     OW10771   4.333   0.192   6.492
 3291SOL    HW110772   4.322   0.284   6.529
 3291SOL    HW210773   4.319   0.195   6.393
 3292SOL     OW10774   0.621   1.572   0.852
 3292SOL    HW110775   0.685   1.639   0.890
 3292SOL    HW210776   0.546   1.619   0.806
 3293SOL     OW10777   7.010   4.532   2.885
 3293SOL    HW110778   6.984   4.623   2.919
 3293SOL    HW210779   6.940   4.466   2.910
 3294SOL     OW10780   5.564   2.120   5.546
 3294SOL    HW110781   5.582   2.099   5.450
 3294SOL    HW210782   5.493   2.189   5.552
 3295SOL     OW10783   1.607   3.209   0.927
 3295SOL    HW110784   1.704   3.215   0.906
 3295SOL    HW210785   1.579   3.112   0.925
 3296SOL     OW10786   6.634   6.970   5.653
 3296SOL    HW110787   6.628   0.042   5.623
 3296SOL    HW210788   6.557   6.919   5.615
 3297SOL     OW10789   3.181   1.923   5.467
 3297SOL    HW110790   3.220   1.866   5.395
 3297SOL    HW210791   3.156   2.012   5.430
 3298SOL     OW10792   6.345   3.636   5.222
 3298SOL    HW110793   6.391   3.570   5.162
 3298SOL    HW210794   6.407   3.711   5.244
 3299SOL     OW10795   3.996   4.961   3.341
 3299SOL    HW110796   4.072   4.914   3.296
 3299SOL    HW210797   4.033   5.022   3.411
 3300SOL     OW10798   2.623   0.011   5.460
 3300SOL    HW110799   2.664   0.034   5.372
 3300SOL    HW210800   2.531   0.051   5.465
 3301SOL     OW10801   1.378   3.065   2.711
 3301SOL    HW110802   1.469   3.085   2.747
 3301SOL    HW210803   1.348   2.975   2.743
 3302SOL     OW10804   1.268   4.638   6.607
 3302SOL    HW110805   1.236   4.563   6.664
 3302SOL    HW210806   1.233   4.627   6.514
 3303SOL     OW10807   3.602   2.886   0.500
 3303SOL    HW110808   3.677   2.894   0.566
 3303SOL    HW210809   3.540   2.964   0.511
 3304SOL     OW10810   2.042   4.552   6.671
 3304SOL    HW110811   1.975   4.625   6.661
 3304SOL    HW210812   2.075   4.524   6.581
 3305SOL     OW10813   3.484   0.709   0.861
 3305SOL    HW110814   3.413   0.745   0.921
 3305SOL    HW210815   3.536   0.638   0.909
 3306SOL     OW10816   1.499   6.149   6.668
 3306SOL    HW110817   1.497   6.202   6.583
 3306SOL    HW210818   1.587   6.163   6.714
 3307SOL     OW10819   1.275   7.010   6.030
 3307SOL    HW110820   1.276   0.078   5.989
 3307SOL    HW210821   1.181   6.987   6.057
 3308SOL     OW10822   4.038   4.585   1.189
 3308SOL    HW110823   4.006   4.589   1.284
 3308SOL    HW210824   4.055   4.677   1.156
 3309SOL     OW10825   5.257   4.612   3.900
 3309SOL    HW110826   5.189   4.679   3.929
 3309SOL    HW210827   5.244   4.527   3.953
 3310SOL     OW10828   0.852   4.806   4.735
 3310SOL    HW110829   0.791   4.831   4.810
 3310SOL    HW210830   0.883   4.888   4.688
 3311SOL     OW10831   3.771   3.569   1.191
 3311SOL    HW110832   3.857   3.579   1.242
 3311SOL    HW210833   3.715   3.651   1.203
 3312SOL     OW10834   4.503   2.573   5.709
 3312SOL    HW110835   4.538   2.598   5.799
 3312SOL    HW210836   4.516   2.649   5.646
 3313SOL     OW10837   0.634   0.660   3.413
 3313SOL    HW110838   0.675   0.739   3.460
 3313SOL    HW210839   0.700   0.623   3.348
 3314SOL     OW10840   2.158   0.215   2.969
 3314SOL    HW110841   2.076   0.223   2.912
 3314SOL    HW210842   2.226   0.281   2.940
 3315SOL     OW10843   0.544   4.735   4.915
 3315SOL    HW110844   0.474   4.806   4.923
 3315SOL    HW210845   0.630   4.770   4.951
 3316SOL     OW10846   3.416   0.695   6.095
 3316SOL    HW110847   3.323   0.674   6.067
 3316SOL    HW210848   3.451   0.622   6.153
 3317SOL     OW10849   5.850   2.185   2.074
 3317SOL    HW110850   5.918   2.156   2.141
 3317SOL    HW210851   5.774   2.229   2.121
 3318SOL     OW10852   2.868   1.885   6.564
 3318SOL    HW110853   2.774   1.917   6.553
 3318SOL    HW210854   2.930   1.948   6.518
 3319SOL     OW10855   6.993   6.979   2.661
 3319SOL    HW110856   7.008   0.052   2.685
 3319SOL    HW210857   0.058   6.931   2.662
 3320SOL     OW10858   6.436   1.036   0.374
 3320SOL    HW110859   6.505   1.099   0.339
 3320SOL    HW210860   6.433   1.043   0.474
 3321SOL     OW10861   5.532   1.501   0.857
 3321SOL    HW110862   5.454   1.536   0.806
 3321SOL    HW210863   5.547   1.558   0.938
 3322SOL     OW10864   6.585   3.532   0.845
 3322SOL    HW110865   6.658   3.480   0.800
 3322SOL    HW210866   6.590   3.627   0.817
 3323SOL     OW10867   2.857   1.924   1.821
 3323SOL    HW110868   2.799   1.985   1.875
 3323SOL    HW210869   2.931   1.888   1.879
 3324SOL     OW10870   4.815   5.711   5.910
 3324SOL    HW110871   4.787   5.615   5.909
 3324SOL    HW210872   4.738   5.769   5.939
 3325SOL     OW10873   1.052   3.302   6.620
 3325SOL    HW110874   1.020   3.208   6.633
 3325SOL    HW210875   1.152   3.302   6.609
 3326SOL     OW10876   5.203   0.896   2.908
 3326SOL    HW110877   5.152   0.948   2.976
 3326SOL    HW210878   5.142   0.869   2.833
 3327SOL     OW10879   1.780   6.029   1.431
 3327SOL    HW110880   1.744   6.123   1.432
 3327SOL    HW210881   1.713   5.967   1.472
 3328SOL     OW10882   3.700   2.120   1.301
 3328SOL    HW110883   3.679   2.022   1.308
 3328SOL    HW210884   3.618   2.170   1.274
 3329SOL     OW10885   6.019   6.916   5.189
 3329SOL    HW110886   6.024   6.868   5.277
 3329SOL    HW210887   6.012   7.014   5.205
 3330SOL     OW10888   0.177   3.318   2.266
 3330SOL    HW110889   0.178   3.219   2.254
 3330SOL    HW210890   0.111   3.359   2.203
 3331SOL     OW10891   1.889   2.414   1.259
 3331SOL    HW110892   1.810   2.406   1.320
 3331SOL    HW210893   1.887   2.503   1.214
 3332SOL     OW10894   5.426   5.328   0.463
 3332SOL    HW110895   5.489   5.258   0.431
 3332SOL    HW210896   5.473   5.391   0.524
 3333SOL     OW10897   4.207   5.132   6.412
 3333SOL    HW110898   4.131   5.109   6.473
 3333SOL    HW210899   4.172   5.146   6.319
 3334SOL     OW10900   3.636   3.404   1.493
 3334SOL    HW110901   3.582   3.440   1.416
 3334SOL    HW210902   3.593   3.431   1.579
 3335SOL     OW10903   5.031   5.141   5.534
 3335SOL    HW110904   4.940   5.115   5.502
 3335SOL    HW210905   5.086   5.171   5.455
 3336SOL     OW10906   3.020   5.532   5.961
 3336SOL    HW110907   3.033   5.485   6.049
 3336SOL    HW210908   3.033   5.630   5.973
 3337SOL     OW10909   3.931   2.281   1.416
 3337SOL    HW110910   3.846   2.243   1.379
 3337SOL    HW210911   3.917   2.309   1.511
 3338SOL     OW10912   6.585   4.178   1.539
 3338SOL    HW110913   6.612   4.136   1.625
 3338SOL    HW210914   6.614   4.121   1.463
 3339SOL     OW10915   6.922   6.169   6.779
 3339SOL    HW110916   6.856   6.136   6.847
 3339SOL    HW210917   6.886   6.250   6.733
 3340SOL     OW10918   3.429   6.803   1.760
 3340SOL    HW110919   3.401   6.874   1.696
 3340SOL    HW210920   3.406   6.713   1.722
 3341SOL     OW10921   0.210   0.059   2.873
 3341SOL    HW110922   0.303   0.072   2.906
 3341SOL    HW210923   0.185   0.136   2.814
 3342SOL     OW10924   2.143   0.085   3.682
 3342SOL    HW110925   2.158   0.127   3.772
 3342SOL    HW210926   2.176   7.013   3.684
 3343SOL     OW10927   4.827   3.102   0.876
 3343SOL    HW110928   4.814   3.012   0.834
 3343SOL    HW210929   4.753   3.163   0.850
 3344SOL     OW10930   5.202   3.625   5.086
 3344SOL    HW110931   5.246   3.679   5.014
 3344SOL    HW210932   5.126   3.677   5.125
 3345SOL     OW10933   2.742   3.558   6.022
 3345SOL    HW110934   2.736   3.607   5.934
 3345SOL    HW210935   2.823   3.589   6.071
 3346SOL     OW10936   0.496   1.459   2.359
 3346SOL    HW110937   0.507   1.516   2.440
 3346SOL    HW210938   0.586   1.425   2.330
 3347SOL     OW10939   6.976   4.391   3.724
 3347SOL    HW110940   7.019   4.378   3.635
 3347SOL    HW210941   6.924   4.476   3.725
 3348SOL     OW10942   3.551   3.299   3.840
 3348SOL    HW110943   3.501   3.384   3.827
 3348SOL    HW210944   3.517   3.252   3.921
 3349SOL     OW10945   6.881   4.625   4.422
 3349SOL    HW110946   6.929   4.703   4.381
 3349SOL    HW210947   6.935   4.542   4.407
 3350SOL     OW10948   2.007   1.268   6.847
 3350SOL    HW110949   1.934   1.229   6.789
 3350SOL    HW210950   2.055   1.195   6.894
 3351SOL     OW10951   5.865   0.455   1.260
 3351SOL    HW110952   5.881   0.525   1.190
 3351SOL    HW210953   5.952   0.426   1.298
 3352SOL     OW10954   1.027   4.129   0.332
 3352SOL    HW110955   1.038   4.217   0.380
 3352SOL    HW210956   0.933   4.119   0.302
 3353SOL     OW10957   1.547   0.261   0.389
 3353SOL    HW110958   1.492   0.298   0.463
 3353SOL    HW210959   1.511   0.294   0.301
 3354SOL     OW10960   6.432   1.952   3.362
 3354SOL    HW110961   6.418   1.874   3.422
 3354SOL    HW210962   6.377   2.029   3.394
 3355SOL     OW10963   0.002   2.183   0.992
 3355SOL    HW110964   6.926   2.185   0.980
 3355SOL    HW210965   0.031   2.091   1.017
 3356SOL     OW10966   2.920   3.167   0.355
 3356SOL    HW110967   2.883   3.219   0.278
 3356SOL    HW210968   2.960   3.231   0.421
 3357SOL     OW10969   2.025   4.996   1.088
 3357SOL    HW110970   1.958   4.964   1.154
 3357SOL    HW210971   2.070   5.078   1.123
 3358SOL     OW10972   5.293   6.285   2.114
 3358SOL    HW110973   5.266   6.312   2.021
 3358SOL    HW210974   5.263   6.191   2.131
 3359SOL     OW10975   0.509   0.423   2.999
 3359SOL    HW110976   0.509   0.516   3.036
 3359SOL    HW210977   0.420   0.405   2.957
 3360SOL     OW10978   0.243   1.090   0.498
 3360SOL    HW110979   0.279   1.115   0.408
 3360SOL    HW210980   0.216   0.994   0.497
 3361SOL     OW10981   6.399   5.730   2.938
 3361SOL    HW110982   6.307   5.695   2.956
 3361SOL    HW210983   6.454   5.723   3.021
 3362SOL     OW10984   2.979   1.455   5.074
 3362SOL    HW110985   3.053   1.490   5.131
 3362SOL    HW210986   3.004   1.463   4.977
 3363SOL     OW10987   0.880   1.391   6.675
 3363SOL    HW110988   0.837   1.370   6.763
 3363SOL    HW210989   0.879   1.309   6.617
 3364SOL     OW10990   1.114   5.958   6.149
 3364SOL    HW110991   1.020   5.970   6.183
 3364SOL    HW210992   1.113   5.953   6.049
 3365SOL     OW10993   0.530   2.049   4.523
 3365SOL    HW110994   0.491   2.031   4.614
 3365SOL    HW210995   0.466   2.105   4.470
 3366SOL     OW10996   5.945   1.066   4.990
 3366SOL    HW110997   5.860   1.045   5.038
 3366SOL    HW210998   5.940   1.159   4.953
 3367SOL     OW10999   1.833   2.445   1.654
 3367SOL    HW111000   1.768   2.464   1.727
 3367SOL    HW211001   1.924   2.428   1.692
 3368SOL     OW11002   6.498   5.153   6.210
 3368SOL    HW111003   6.554   5.081   6.169
 3368SOL    HW211004   6.556   5.229   6.239
 3369SOL     OW11005   3.405   1.051   0.408
 3369SOL    HW111006   3.474   1.094   0.465
 3369SOL    HW211007   3.402   0.953   0.428
 3370SOL     OW11008   6.562   6.995   4.953
 3370SOL    HW111009   6.594   0.047   5.011
 3370SOL    HW211010   6.641   6.943   4.920
 3371SOL     OW11011   1.237   3.973   2.489
 3371SOL    HW111012   1.150   3.963   2.536
 3371SOL    HW211013   1.277   3.882   2.473
 3372SOL     OW11014   0.158   1.286   2.204
 3372SOL    HW111015   0.133   1.212   2.141
 3372SOL    HW211016   0.165   1.249   2.297
 3373SOL     OW11017   6.269   1.149   4.124
 3373SOL    HW111018   6.188   1.092   4.110
 3373SOL    HW211019   6.344   1.092   4.158
 3374SOL     OW11020   3.854   5.921   5.275
 3374SOL    HW111021   3.830   5.961   5.363
 3374SOL    HW211022   3.859   5.993   5.205
 3375SOL     OW11023   4.572   4.622   4.927
 3375SOL    HW111024   4.645   4.583   4.984
 3375SOL    HW211025   4.486   4.622   4.978
 3376SOL     OW11026   3.843   2.955   2.488
 3376SOL    HW111027   3.749   2.982   2.506
 3376SOL    HW211028   3.848   2.911   2.398
 3377SOL     OW11029   1.295   6.177   5.063
 3377SOL    HW111030   1.272   6.122   4.983
 3377SOL    HW211031   1.241   6.261   5.063
 3378SOL     OW11032   6.822   1.400   1.114
 3378SOL    HW111033   6.797   1.329   1.180
 3378SOL    HW211034   6.904   1.373   1.064
 3379SOL     OW11035   0.364   4.504   6.188
 3379SOL    HW111036   0.267   4.515   6.212
 3379SOL    HW211037   0.377   4.529   6.092
 3380SOL     OW11038   6.679   4.979   6.093
 3380SOL    HW111039   6.662   4.884   6.119
 3380SOL    HW211040   6.653   4.992   5.997
 3381SOL     OW11041   2.501   2.140   0.358
 3381SOL    HW111042   2.410   2.126   0.318
 3381SOL    HW211043   2.504   2.229   0.403
 3382SOL     OW11044   0.136   1.461   0.024
 3382SOL    HW111045   0.235   1.471   0.037
 3382SOL    HW211046   0.113   1.364   0.018
 3383SOL     OW11047   6.147   4.723   2.800
 3383SOL    HW111048   6.144   4.790   2.726
 3383SOL    HW211049   6.231   4.737   2.853
 3384SOL     OW11050   3.532   3.188   4.820
 3384SOL    HW111051   3.491   3.277   4.842
 3384SOL    HW211052   3.459   3.121   4.805
 3385SOL     OW11053   6.324   4.067   3.954
 3385SOL    HW111054   6.417   4.103   3.947
 3385SOL    HW211055   6.300   4.054   4.050
 3386SOL     OW11056   5.957   3.923   5.049
 3386SOL    HW111057   5.914   3.935   5.139
 3386SOL    HW211058   5.925   3.838   5.008
 3387SOL     OW11059   2.532   2.464   2.356
 3387SOL    HW111060   2.539   2.441   2.453
 3387SOL    HW211061   2.591   2.403   2.302
 3388SOL     OW11062   5.625   3.208   0.956
 3388SOL    HW111063   5.715   3.181   0.991
 3388SOL    HW211064   5.611   3.306   0.971
 3389SOL     OW11065   4.686   4.200   4.153
 3389SOL    HW111066   4.691   4.114   4.204
 3389SOL    HW211067   4.743   4.268   4.199
 3390SOL     OW11068   5.082   2.998   5.900
 3390SOL    HW111069   5.075   3.093   5.868
 3390SOL    HW211070   5.177   2.977   5.922
 3391SOL     OW11071   4.388   1.388   5.016
 3391SOL    HW111072   4.292   1.414   5.021
 3391SOL    HW211073   4.439   1.458   4.965
 3392SOL     OW11074   1.877   1.041   4.113
 3392SOL    HW111075   1.925   0.964   4.071
 3392SOL    HW211076   1.943   1.103   4.155
 3393SOL     OW11077   6.355   6.674   0.627
 3393SOL    HW111078   6.314   6.588   0.660
 3393SOL    HW211079   6.283   6.742   0.617
 3394SOL     OW11080   5.813   3.099   1.121
 3394SOL    HW111081   5.731   3.055   1.156
 3394SOL    HW211082   5.849   3.161   1.190
 3395SOL     OW11083   6.438   3.515   3.853
 3395SOL    HW111084   6.395   3.435   3.895
 3395SOL    HW211085   6.397   3.598   3.891
 3396SOL     OW11086   0.618   3.204   3.629
 3396SOL    HW111087   0.562   3.144   3.570
 3396SOL    HW211088   0.686   3.149   3.677
 3397SOL     OW11089   3.854   0.821   5.347
 3397SOL    HW111090   3.926   0.806   5.414
 3397SOL    HW211091   3.860   0.752   5.275
 3398SOL     OW11092   1.073   0.195   4.121
 3398SOL    HW111093   1.021   0.266   4.073
 3398SOL    HW211094   1.090   0.118   4.060
 3399SOL     OW11095   4.268   4.661   4.147
 3399SOL    HW111096   4.270   4.660   4.047
 3399SOL    HW211097   4.196   4.723   4.178
 3400SOL     OW11098   4.643   2.128   6.219
 3400SOL    HW111099   4.706   2.051   6.210
 3400SOL    HW211100   4.582   2.130   6.139
 3401SOL     OW11101   6.961   4.072   0.922
 3401SOL    HW111102   0.009   4.007   0.894
 3401SOL    HW211103   6.955   4.146   0.854
 3402SOL     OW11104   5.575   5.644   1.465
 3402SOL    HW111105   5.503   5.675   1.527
 3402SOL    HW211106   5.627   5.570   1.508
 3403SOL     OW11107   4.033   0.484   5.011
 3403SOL    HW111108   4.032   0.525   4.920
 3403SOL    HW211109   4.084   0.398   5.008
 3404SOL     OW11110   4.458   1.742   0.307
 3404SOL    HW111111   4.447   1.647   0.277
 3404SOL    HW211112   4.373   1.792   0.292
 3405SOL     OW11113   6.625   3.653   5.792
 3405SOL    HW111114   6.674   3.685   5.710
 3405SOL    HW211115   6.562   3.725   5.823
 3406SOL     OW11116   2.173   4.756   1.876
 3406SOL    HW111117   2.187   4.664   1.910
 3406SOL    HW211118   2.242   4.777   1.806
 3407SOL     OW11119   1.440   5.644   1.834
 3407SOL    HW111120   1.379   5.706   1.785
 3407SOL    HW211121   1.434   5.662   1.932
 3408SOL     OW11122   4.735   4.176   3.861
 3408SOL    HW111123   4.810   4.112   3.841
 3408SOL    HW211124   4.712   4.170   3.958
 3409SOL     OW11125   4.052   6.952   5.985
 3409SOL    HW111126   3.991   6.873   5.990
 3409SOL    HW211127   4.061   6.982   5.890
 3410SOL     OW11128   6.019   5.667   6.988
 3410SOL    HW111129   6.067   5.683   6.901
 3410SOL    HW211130   6.058   5.728   0.035
 3411SOL     OW11131   6.064   2.525   2.054
 3411SOL    HW111132   6.059   2.453   2.123
 3411SOL    HW211133   6.152   2.571   2.060
 3412SOL     OW11134   4.051   3.350   0.162
 3412SOL    HW111135   4.121   3.422   0.153
 3412SOL    HW211136   3.964   3.384   0.127
 3413SOL     OW11137   4.065   1.233   2.606
 3413SOL    HW111138   3.984   1.289   2.623
 3413SOL    HW211139   4.087   1.235   2.508
 3414SOL     OW11140   3.236   1.659   4.812
 3414SOL    HW111141   3.331   1.689   4.811
 3414SOL    HW211142   3.227   1.576   4.757
 3415SOL     OW11143   1.194   4.741   4.099
 3415SOL    HW111144   1.203   4.827   4.150
 3415SOL    HW211145   1.179   4.666   4.162
 3416SOL     OW11146   0.126   4.387   6.069
 3416SOL    HW111147   0.151   4.382   5.972
 3416SOL    HW211148   0.079   4.304   6.096
 3417SOL     OW11149   6.384   6.006   2.792
 3417SOL    HW111150   6.397   5.913   2.827
 3417SOL    HW211151   6.332   6.059   2.859
 3418SOL     OW11152   4.280   0.818   4.039
 3418SOL    HW111153   4.271   0.830   3.940
 3418SOL    HW211154   4.190   0.804   4.079
 3419SOL     OW11155   3.874   5.107   6.178
 3419SOL    HW111156   3.825   5.143   6.257
 3419SOL    HW211157   3.810   5.059   6.118
 3420SOL     OW11158   5.257   1.686   3.437
 3420SOL    HW111159   5.182   1.716   3.379
 3420SOL    HW211160   5.343   1.697   3.388
 3421SOL     OW11161   6.573   0.578   5.633
 3421SOL    HW111162   6.623   0.631   5.701
 3421SOL    HW211163   6.637   0.538   5.567
 3422SOL     OW11164   3.592   0.269   1.104
 3422SOL    HW111165   3.611   0.348   1.046
 3422SOL    HW211166   3.658   0.197   1.086
 3423SOL     OW11167   1.922   0.859   0.047
 3423SOL    HW111168   1.994   0.892   0.108
 3423SOL    HW211169   1.956   0.781   7.017
 3424SOL     OW11170   3.895   0.537   2.498
 3424SOL    HW111171   3.817   0.528   2.561
 3424SOL    HW211172   3.974   0.573   2.547
 3425SOL     OW11173   4.856   3.983   2.294
 3425SOL    HW111174   4.825   4.054   2.357
 3425SOL    HW211175   4.864   4.020   2.202
 3426SOL     OW11176   3.438   3.728   0.201
 3426SOL    HW111177   3.482   3.777   0.277
 3426SOL    HW211178   3.435   3.787   0.120
 3427SOL     OW11179   6.552   6.689   0.239
 3427SOL    HW111180   6.650   6.692   0.220
 3427SOL    HW211181   6.523   6.594   0.253
 3428SOL     OW11182   4.097   5.191   2.165
 3428SOL    HW111183   4.080   5.286   2.139
 3428SOL    HW211184   4.023   5.133   2.130
 3429SOL     OW11185   0.953   2.260   6.850
 3429SOL    HW111186   0.861   2.223   6.861
 3429SOL    HW211187   1.018   2.200   6.896
 3430SOL     OW11188   1.489   6.352   6.483
 3430SOL    HW111189   1.549   6.348   6.402
 3430SOL    HW211190   1.490   6.444   6.521
 3431SOL     OW11191   2.313   6.937   1.168
 3431SOL    HW111192   2.369   6.993   1.229
 3431SOL    HW211193   2.345   6.842   1.172
 3432SOL     OW11194   2.745   2.414   5.378
 3432SOL    HW111195   2.759   2.356   5.298
 3432SOL    HW211196   2.657   2.392   5.420
 3433SOL     OW11197   2.239   0.987   6.878
 3433SOL    HW111198   2.260   0.893   6.851
 3433SOL    HW211199   2.324   1.037   6.893
 3434SOL     OW11200   3.457   2.664   0.475
 3434SOL    HW111201   3.513   2.746   0.472
 3434SOL    HW211202   3.442   2.637   0.570
 3435SOL     OW11203   6.725   2.409   1.312
 3435SOL    HW111204   6.798   2.464   1.353
 3435SOL    HW211205   6.755   2.314   1.305
 3436SOL     OW11206   4.674   6.839   5.413
 3436SOL    HW111207   4.574   6.837   5.420
 3436SOL    HW211208   4.713   6.855   5.504
 3437SOL     OW11209   4.323   0.749   6.452
 3437SOL    HW111210   4.332   0.763   6.354
 3437SOL    HW211211   4.394   0.801   6.500
 3438SOL     OW11212   1.384   3.120   6.324
 3438SOL    HW111213   1.452   3.154   6.259
 3438SOL    HW211214   1.402   3.158   6.415
 3439SOL     OW11215   2.685   0.181   4.824
 3439SOL    HW111216   2.675   0.280   4.820
 3439SOL    HW211217   2.719   0.147   4.736
 3440SOL     OW11218   4.723   3.324   1.572
 3440SOL    HW111219   4.696   3.406   1.623
 3440SOL    HW211220   4.690   3.330   1.478
 3441SOL     OW11221   4.921   0.536   3.086
 3441SOL    HW111222   4.874   0.620   3.113
 3441SOL    HW211223   4.882   0.459   3.136
 3442SOL     OW11224   2.327   4.668   3.579
 3442SOL    HW111225   2.306   4.764   3.561
 3442SOL    HW211226   2.259   4.630   3.641
 3443SOL     OW11227   5.493   1.134   3.274
 3443SOL    HW111228   5.413   1.154   3.331
 3443SOL    HW211229   5.471   1.057   3.214
 3444SOL     OW11230   5.145   5.542   6.619
 3444SOL    HW111231   5.214   5.485   6.575
 3444SOL    HW211232   5.066   5.551   6.559
 3445SOL     OW11233   6.300   3.948   4.241
 3445SOL    HW111234   6.283   4.043   4.268
 3445SOL    HW211235   6.222   3.891   4.268
 3446SOL     OW11236   5.025   0.583   2.824
 3446SOL    HW111237   5.082   0.502   2.808
 3446SOL    HW211238   4.990   0.580   2.918
 3447SOL     OW11239   5.296   5.062   0.108
 3447SOL    HW111240   5.267   4.970   0.083
 3447SOL    HW211241   5.290   5.073   0.207
 3448SOL     OW11242   3.734   6.671   1.034
 3448SOL    HW111243   3.751   6.575   1.055
 3448SOL    HW211244   3.821   6.717   1.014
 3449SOL     OW11245   6.360   6.284   2.628
 3449SOL    HW111246   6.426   6.252   2.697
 3449SOL    HW211247   6.397   6.366   2.583
 3450SOL     OW11248   0.841   2.471   0.720
 3450SOL    HW111249   0.793   2.553   0.690
 3450SOL    HW211250   0.791   2.390   0.689
 3451SOL     OW11251   0.833   5.309   3.768
 3451SOL    HW111252   0.845   5.235   3.834
 3451SOL    HW211253   0.922   5.333   3.729
 3452SOL     OW11254   6.575   0.970   6.955
 3452SOL    HW111255   6.508   1.035   6.918
 3452SOL    HW211256   6.527   0.900   7.008
 3453SOL     OW11257   5.762   5.873   5.434
 3453SOL    HW111258   5.774   5.773   5.430
 3453SOL    HW211259   5.692   5.900   5.367
 3454SOL     OW11260   2.141   0.941   6.528
 3454SOL    HW111261   2.063   0.919   6.587
 3454SOL    HW211262   2.177   1.031   6.551
 3455SOL     OW11263   1.329   2.629   4.577
 3455SOL    HW111264   1.357   2.565   4.506
 3455SOL    HW211265   1.265   2.696   4.539
 3456SOL     OW11266   5.949   5.727   2.070
 3456SOL    HW111267   5.912   5.738   2.163
 3456SOL    HW211268   5.907   5.647   2.028
 3457SOL     OW11269   2.708   5.134   4.201
 3457SOL    HW111270   2.770   5.146   4.278
 3457SOL    HW211271   2.673   5.040   4.201
 3458SOL     OW11272   5.400   6.647   6.932
 3458SOL    HW111273   5.378   6.604   6.845
 3458SOL    HW211274   5.345   6.606   7.005
 3459SOL     OW11275   0.366   3.671   3.199
 3459SOL    HW111276   0.397   3.696   3.108
 3459SOL    HW211277   0.438   3.691   3.266
 3460SOL     OW11278   3.470   3.577   0.739
 3460SOL    HW111279   3.372   3.577   0.722
 3460SOL    HW211280   3.489   3.530   0.825
 3461SOL     OW11281   4.095   5.364   4.709
 3461SOL    HW111282   4.125   5.454   4.739
 3461SOL    HW211283   3.999   5.350   4.733
 3462SOL     OW11284   6.142   3.287   2.521
 3462SOL    HW111285   6.225   3.330   2.556
 3462SOL    HW211286   6.064   3.347   2.537
 3463SOL     OW11287   0.789   3.219   2.849
 3463SOL    HW111288   0.755   3.182   2.936
 3463SOL    HW211289   0.713   3.258   2.797
 3464SOL     OW11290   5.623   2.453   6.814
 3464SOL    HW111291   5.707   2.483   6.860
 3464SOL    HW211292   5.573   2.391   6.874
 3465SOL     OW11293   1.618   3.291   2.047
 3465SOL    HW111294   1.521   3.318   2.045
 3465SOL    HW211295   1.675   3.372   2.036
 3466SOL     OW11296   5.424   5.350   5.667
 3466SOL    HW111297   5.389   5.257   5.675
 3466SOL    HW211298   5.409   5.399   5.753
 3467SOL     OW11299   2.963   1.718   0.629
 3467SOL    HW111300   2.941   1.647   0.696
 3467SOL    HW211301   2.929   1.690   0.539
 3468SOL     OW11302   5.546   1.911   2.716
 3468SOL    HW111303   5.469   1.974   2.728
 3468SOL    HW211304   5.512   1.819   2.696
 3469SOL     OW11305   5.091   0.910   6.106
 3469SOL    HW111306   5.190   0.897   6.113
 3469SOL    HW211307   5.071   1.003   6.077
 3470SOL     OW11308   0.505   2.354   2.025
 3470SOL    HW111309   0.437   2.426   2.038
 3470SOL    HW211310   0.480   2.275   2.081
 3471SOL     OW11311   4.960   4.627   3.691
 3471SOL    HW111312   4.923   4.559   3.754
 3471SOL    HW211313   5.059   4.631   3.699
 3472SOL     OW11314   3.656   1.194   2.434
 3472SOL    HW111315   3.714   1.128   2.386
 3472SOL    HW211316   3.581   1.145   2.479
 3473SOL     OW11317   6.840   3.315   3.616
 3473SOL    HW111318   6.853   3.384   3.544
 3473SOL    HW211319   6.905   3.332   3.690
 3474SOL     OW11320   0.592   4.467   3.706
 3474SOL    HW111321   0.671   4.424   3.662
 3474SOL    HW211322   0.609   4.474   3.804
 3475SOL     OW11323   0.830   4.700   3.982
 3475SOL    HW111324   0.884   4.616   3.995
 3475SOL    HW211325   0.889   4.780   3.995
 3476SOL     OW11326   0.965   1.497   3.199
 3476SOL    HW111327   1.061   1.517   3.219
 3476SOL    HW211328   0.921   1.578   3.161
 3477SOL     OW11329   0.726   3.473   0.284
 3477SOL    HW111330   0.758   3.506   0.195
 3477SOL    HW211331   0.684   3.548   0.335
 3478SOL     OW11332   3.080   6.893   6.848
 3478SOL    HW111333   2.991   6.861   6.815
 3478SOL    HW211334   3.066   6.966   6.914
 3479SOL     OW11335   0.965   1.541   3.673
 3479SOL    HW111336   0.920   1.628   3.650
 3479SOL    HW211337   0.949   1.475   3.599
 3480SOL     OW11338   0.859   6.030   6.165
 3480SOL    HW111339   0.780   5.968   6.170
 3480SOL    HW211340   0.859   6.076   6.076
 3481SOL     OW11341   5.350   0.733   0.822
 3481SOL    HW111342   5.386   0.669   0.890
 3481SOL    HW211343   5.290   0.683   0.759
 3482SOL     OW11344   6.234   1.843   2.635
 3482SOL    HW111345   6.288   1.896   2.700
 3482SOL    HW211346   6.206   1.757   2.678
 3483SOL     OW11347   5.522   2.231   3.185
 3483SOL    HW111348   5.446   2.167   3.193
 3483SOL    HW211349   5.607   2.185   3.209
 3484SOL     OW11350   1.510   3.327   6.922
 3484SOL    HW111351   1.517   3.407   6.982
 3484SOL    HW211352   1.423   3.280   6.939
 3485SOL     OW11353   1.007   2.142   5.106
 3485SOL    HW111354   0.981   2.091   5.023
 3485SOL    HW211355   1.068   2.087   5.162
 3486SOL     OW11356   1.845   0.087   3.752
 3486SOL    HW111357   1.865   0.127   3.662
 3486SOL    HW211358   1.765   0.134   3.791
 3487SOL     OW11359   6.456   3.004   0.106
 3487SOL    HW111360   6.547   3.043   0.121
 3487SOL    HW211361   6.439   2.932   0.173
 3488SOL     OW11362   5.575   0.986   4.789
 3488SOL    HW111363   5.556   1.030   4.702
 3488SOL    HW211364   5.629   0.903   4.774
 3489SOL     OW11365   3.315   0.265   1.764
 3489SOL    HW111366   3.300   0.171   1.733
 3489SOL    HW211367   3.333   0.323   1.685
 3490SOL     OW11368   3.316   4.983   1.667
 3490SOL    HW111369   3.294   5.074   1.632
 3490SOL    HW211370   3.255   4.962   1.743
 3491SOL     OW11371   3.859   3.247   6.099
 3491SOL    HW111372   3.882   3.310   6.025
 3491SOL    HW211373   3.777   3.195   6.076
 3492SOL     OW11374   6.291   4.225   1.598
 3492SOL    HW111375   6.390   4.233   1.591
 3492SOL    HW211376   6.267   4.189   1.688
 3493SOL     OW11377   6.387   3.702   4.125
 3493SOL    HW111378   6.384   3.781   4.187
 3493SOL    HW211379   6.315   3.712   4.056
 3494SOL     OW11380   2.401   1.233   1.891
 3494SOL    HW111381   2.454   1.155   1.924
 3494SOL    HW211382   2.461   1.311   1.878
 3495SOL     OW11383   1.061   3.848   2.679
 3495SOL    HW111384   1.001   3.928   2.680
 3495SOL    HW211385   1.033   3.786   2.606
 3496SOL     OW11386   5.577   5.180   1.220
 3496SOL    HW111387   5.611   5.127   1.297
 3496SOL    HW211388   5.499   5.235   1.249
 3497SOL     OW11389   2.878   0.994   3.891
 3497SOL    HW111390   2.902   1.072   3.833
 3497SOL    HW211391   2.782   0.970   3.878
 3498SOL     OW11392   2.885   1.299   2.504
 3498SOL    HW111393   2.969   1.350   2.524
 3498SOL    HW211394   2.862   1.242   2.583
 3499SOL     OW11395   6.392   4.756   4.462
 3499SOL    HW111396   6.490   4.771   4.476
 3499SOL    HW211397   6.371   4.659   4.477
 3500SOL     OW11398   1.944   3.022   3.407
 3500SOL    HW111399   1.947   2.989   3.502
 3500SOL    HW211400   2.000   3.104   3.398
 3501SOL     OW11401   3.177   0.258   6.407
 3501SOL    HW111402   3.148   0.187   6.471
 3501SOL    HW211403   3.276   0.272   6.416
 3502SOL     OW11404   6.534   3.056   1.268
 3502SOL    HW111405   6.482   2.971   1.265
 3502SOL    HW211406   6.480   3.130   1.227
 3503SOL     OW11407   0.341   6.431   5.569
 3503SOL    HW111408   0.262   6.492   5.562
 3503SOL    HW211409   0.425   6.485   5.576
 3504SOL     OW11410   2.098   1.228   2.237
 3504SOL    HW111411   2.052   1.274   2.161
 3504SOL    HW211412   2.036   1.224   2.316
 3505SOL     OW11413   5.463   5.016   4.795
 3505SOL    HW111414   5.511   5.019   4.707
 3505SOL    HW211415   5.429   5.108   4.818
 3506SOL     OW11416   5.734   4.567   4.972
 3506SOL    HW111417   5.748   4.480   4.925
 3506SOL    HW211418   5.675   4.626   4.916
 3507SOL     OW11419   2.424   0.160   0.195
 3507SOL    HW111420   2.369   0.158   0.111
 3507SOL    HW211421   2.421   0.070   0.238
 3508SOL     OW11422   2.942   2.269   6.257
 3508SOL    HW111423   2.910   2.194   6.199
 3508SOL    HW211424   2.968   2.233   6.347
 3509SOL     OW11425   5.880   6.889   6.886
 3509SOL    HW111426   5.934   6.844   6.815
 3509SOL    HW211427   5.786   6.854   6.882
 3510SOL     OW11428   1.435   0.580   1.746
 3510SOL    HW111429   1.341   0.610   1.735
 3510SOL    HW211430   1.476   0.626   1.825
 3511SOL     OW11431   1.821   4.317   1.687
 3511SOL    HW111432   1.862   4.371   1.760
 3511SOL    HW211433   1.722   4.311   1.702
 3512SOL     OW11434   0.782   3.926   1.196
 3512SOL    HW111435   0.817   3.882   1.113
 3512SOL    HW211436   0.682   3.930   1.192
 3513SOL     OW11437   5.932   1.992   1.170
 3513SOL    HW111438   5.954   1.895   1.177
 3513SOL    HW211439   5.866   2.007   1.097
 3514SOL     OW11440   6.183   0.715   2.114
 3514SOL    HW111441   6.140   0.776   2.181
 3514SOL    HW211442   6.129   0.715   2.030
 3515SOL     OW11443   5.707   6.443   3.115
 3515SOL    HW111444   5.744   6.471   3.027
 3515SOL    HW211445   5.698   6.522   3.175
 3516SOL     OW11446   4.524   5.891   1.507
 3516SOL    HW111447   4.584   5.864   1.582
 3516SOL    HW211448   4.510   5.990   1.509
 3517SOL     OW11449   0.282   1.781   1.063
 3517SOL    HW111450   0.252   1.822   1.150
 3517SOL    HW211451   0.357   1.835   1.025
 3518SOL     OW11452   5.064   2.402   5.103
 3518SOL    HW111453   5.130   2.469   5.137
 3518SOL    HW211454   5.058   2.409   5.004
 3519SOL     OW11455   1.958   0.758   5.631
 3519SOL    HW111456   1.954   0.830   5.701
 3519SOL    HW211457   2.054   0.739   5.609
 3520SOL     OW11458   3.017   6.793   0.470
 3520SOL    HW111459   2.995   6.834   0.558
 3520SOL    HW211460   3.111   6.759   0.472
 3521SOL     OW11461   4.372   2.752   0.269
 3521SOL    HW111462   4.322   2.838   0.279
 3521SOL    HW211463   4.470   2.767   0.280
 3522SOL     OW11464   6.437   5.617   6.826
 3522SOL    HW111465   6.412   5.521   6.819
 3522SOL    HW211466   6.531   5.624   6.862
 3523SOL     OW11467   2.050   4.677   5.176
 3523SOL    HW111468   1.971   4.712   5.126
 3523SOL    HW211469   2.128   4.668   5.114
 3524SOL     OW11470   5.087   1.904   1.829
 3524SOL    HW111471   5.180   1.868   1.817
 3524SOL    HW211472   5.080   1.994   1.784
 3525SOL     OW11473   6.420   3.390   4.354
 3525SOL    HW111474   6.458   3.335   4.279
 3525SOL    HW211475   6.389   3.329   4.427
 3526SOL     OW11476   2.063   0.043   3.216
 3526SOL    HW111477   1.979   0.053   3.163
 3526SOL    HW211478   2.127   0.115   3.191
 3527SOL     OW11479   5.472   3.364   6.520
 3527SOL    HW111480   5.471   3.459   6.488
 3527SOL    HW211481   5.379   3.327   6.517
 3528SOL     OW11482   2.174   6.239   5.260
 3528SOL    HW111483   2.156   6.331   5.227
 3528SOL    HW211484   2.243   6.196   5.201
 3529SOL     OW11485   4.041   6.347   1.012
 3529SOL    HW111486   3.943   6.366   1.025
 3529SOL    HW211487   4.095   6.409   1.069
 3530SOL     OW11488   6.776   5.106   1.918
 3530SOL    HW111489   6.788   5.106   1.818
 3530SOL    HW211490   6.735   5.193   1.946
 3531SOL     OW11491   5.241   2.792   0.624
 3531SOL    HW111492   5.333   2.828   0.635
 3531SOL    HW211493   5.181   2.831   0.695
 3532SOL     OW11494   2.813   0.682   1.445
 3532SOL    HW111495   2.810   0.772   1.401
 3532SOL    HW211496   2.842   0.613   1.379
 3533SOL     OW11497   0.591   0.818   2.733
 3533SOL    HW111498   0.632   0.822   2.824
 3533SOL    HW211499   0.533   0.899   2.719
 3534SOL     OW11500   0.749   2.143   1.048
 3534SOL    HW111501   0.799   2.223   1.081
 3534SOL    HW211502   0.669   2.172   0.996
 3535SOL     OW11503   2.181   5.417   6.306
 3535SOL    HW111504   2.175   5.330   6.257
 3535SOL    HW211505   2.256   5.412   6.373
 3536SOL     OW11506   3.389   2.076   3.111
 3536SOL    HW111507   3.356   2.142   3.043
 3536SOL    HW211508   3.336   1.992   3.105
 3537SOL     OW11509   2.053   5.284   2.068
 3537SOL    HW111510   2.068   5.382   2.080
 3537SOL    HW211511   2.090   5.256   1.979
 3538SOL     OW11512   2.380   5.749   5.636
 3538SOL    HW111513   2.455   5.687   5.656
 3538SOL    HW211514   2.352   5.797   5.719
 3539SOL     OW11515   3.398   3.657   5.196
 3539SOL    HW111516   3.474   3.668   5.260
 3539SOL    HW211517   3.376   3.745   5.154
 3540SOL     OW11518   2.265   2.361   4.452
 3540SOL    HW111519   2.271   2.299   4.374
 3540SOL    HW211520   2.278   2.309   4.537
 3541SOL     OW11521   2.918   2.596   5.693
 3541SOL    HW111522   2.834   2.543   5.709
 3541SOL    HW211523   2.947   2.584   5.598
 3542SOL     OW11524   1.276   4.942   2.915
 3542SOL    HW111525   1.247   4.995   2.835
 3542SOL    HW211526   1.376   4.929   2.913
 3543SOL     OW11527   6.678   2.516   4.208
 3543SOL    HW111528   6.619   2.531   4.128
 3543SOL    HW211529   6.744   2.444   4.186
 3544SOL     OW11530   1.704   4.254   6.281
 3544SOL    HW111531   1.664   4.181   6.225
 3544SOL    HW211532   1.800   4.234   6.299
 3545SOL     OW11533   3.798   6.128   6.887
 3545SOL    HW111534   3.776   6.203   6.824
 3545SOL    HW211535   3.817   6.045   6.835
 3546SOL     OW11536   0.783   4.766   3.129
 3546SOL    HW111537   0.813   4.861   3.123
 3546SOL    HW211538   0.858   4.705   3.103
 3547SOL     OW11539   5.431   4.535   3.693
 3547SOL    HW111540   5.440   4.598   3.616
 3547SOL    HW211541   5.403   4.586   3.775
 3548SOL     OW11542   5.832   1.532   5.968
 3548SOL    HW111543   5.770   1.479   5.910
 3548SOL    HW211544   5.911   1.562   5.915
 3549SOL     OW11545   6.677   4.693   4.850
 3549SOL    HW111546   6.705   4.788   4.858
 3549SOL    HW211547   6.739   4.635   4.903
 3550SOL     OW11548   5.344   2.710   2.409
 3550SOL    HW111549   5.325   2.775   2.483
 3550SOL    HW211550   5.320   2.617   2.440
 3551SOL     OW11551   4.275   6.099   2.787
 3551SOL    HW111552   4.307   6.173   2.846
 3551SOL    HW211553   4.213   6.040   2.837
 3552SOL     OW11554   5.263   5.923   1.997
 3552SOL    HW111555   5.164   5.937   1.998
 3552SOL    HW211556   5.298   5.929   2.091
 3553SOL     OW11557   5.875   2.934   1.375
 3553SOL    HW111558   5.871   3.025   1.417
 3553SOL    HW211559   5.857   2.941   1.277
 3554SOL     OW11560   3.802   3.279   1.131
 3554SOL    HW111561   3.870   3.314   1.065
 3554SOL    HW211562   3.746   3.355   1.164
 3555SOL     OW11563   1.072   3.194   3.106
 3555SOL    HW111564   1.042   3.289   3.093
 3555SOL    HW211565   1.022   3.154   3.182
 3556SOL     OW11566   3.862   0.840   4.749
 3556SOL    HW111567   3.805   0.805   4.823
 3556SOL    HW211568   3.887   0.935   4.768
 3557SOL     OW11569   0.755   0.723   3.887
 3557SOL    HW111570   0.660   0.749   3.866
 3557SOL    HW211571   0.805   0.803   3.919
 3558SOL     OW11572   0.648   6.064   1.434
 3558SOL    HW111573   0.692   6.053   1.523
 3558SOL    HW211574   0.567   6.006   1.429
 3559SOL     OW11575   6.996   0.013   4.631
 3559SOL    HW111576   6.986   0.105   4.669
 3559SOL    HW211577   0.070   7.015   4.620
 3560SOL     OW11578   1.541   5.310   0.662
 3560SOL    HW111579   1.443   5.303   0.638
 3560SOL    HW211580   1.580   5.218   0.667
 3561SOL     OW11581   4.381   5.110   5.660
 3561SOL    HW111582   4.329   5.045   5.606
 3561SOL    HW211583   4.479   5.088   5.653
 3562SOL     OW11584   4.594   1.044   4.341
 3562SOL    HW111585   4.677   0.989   4.335
 3562SOL    HW211586   4.516   0.992   4.307
 3563SOL     OW11587   5.520   0.825   1.460
 3563SOL    HW111588   5.610   0.842   1.420
 3563SOL    HW211589   5.462   0.776   1.395
 3564SOL     OW11590   1.335   4.804   3.873
 3564SOL    HW111591   1.369   4.898   3.875
 3564SOL    HW211592   1.285   4.785   3.957
 3565SOL     OW11593   3.812   6.790   4.453
 3565SOL    HW111594   3.846   6.884   4.456
 3565SOL    HW211595   3.860   6.739   4.382
 3566SOL     OW11596   0.212   3.231   6.200
 3566SOL    HW111597   0.237   3.234   6.103
 3566SOL    HW211598   0.266   3.299   6.250
 3567SOL     OW11599   1.437   2.425   0.108
 3567SOL    HW111600   1.442   2.351   0.041
 3567SOL    HW211601   1.454   2.512   0.064
 3568SOL     OW11602   5.351   5.010   2.986
 3568SOL    HW111603   5.317   4.993   3.078
 3568SOL    HW211604   5.276   5.002   2.921
 3569SOL     OW11605   2.905   2.802   5.431
 3569SOL    HW111606   2.823   2.779   5.379
 3569SOL    HW211607   2.979   2.739   5.406
 3570SOL     OW11608   5.321   0.315   5.091
 3570SOL    HW111609   5.314   0.289   5.187
 3570SOL    HW211610   5.371   0.244   5.041
 3571SOL     OW11611   1.548   0.846   4.901
 3571SOL    HW111612   1.512   0.930   4.860
 3571SOL    HW211613   1.642   0.832   4.871
 3572SOL     OW11614   5.343   3.401   2.748
 3572SOL    HW111615   5.262   3.451   2.717
 3572SOL    HW211616   5.347   3.402   2.847
 3573SOL     OW11617   6.522   4.441   2.364
 3573SOL    HW111618   6.590   4.455   2.436
 3573SOL    HW211619   6.453   4.375   2.395
 3574SOL     OW11620   1.876   3.329   0.206
 3574SOL    HW111621   1.967   3.310   0.170
 3574SOL    HW211622   1.810   3.267   0.164
 3575SOL     OW11623   4.971   5.726   1.863
 3575SOL    HW111624   5.066   5.695   1.872
 3575SOL    HW211625   4.915   5.680   1.932
 3576SOL     OW11626   0.088   2.249   0.244
 3576SOL    HW111627   0.097   2.290   0.153
 3576SOL    HW211628   0.011   2.290   0.292
 3577SOL     OW11629   2.657   2.992   5.666
 3577SOL    HW111630   2.754   2.990   5.644
 3577SOL    HW211631   2.618   2.900   5.655
 3578SOL     OW11632   4.220   2.701   1.107
 3578SOL    HW111633   4.146   2.742   1.055
 3578SOL    HW211634   4.259   2.769   1.169
 3579SOL     OW11635   7.004   3.036   3.275
 3579SOL    HW111636   7.011   3.031   3.175
 3579SOL    HW211637   6.909   3.050   3.301
 3580SOL     OW11638   6.764   4.076   1.088
 3580SOL    HW111639   6.700   4.150   1.067
 3580SOL    HW211640   6.844   4.084   1.028
 3581SOL     OW11641   0.670   6.448   3.180
 3581SOL    HW111642   0.657   6.465   3.277
 3581SOL    HW211643   0.658   6.533   3.128
 3582SOL     OW11644   3.117   5.077   5.633
 3582SOL    HW111645   3.217   5.085   5.628
 3582SOL    HW211646   3.075   5.143   5.571
 3583SOL     OW11647   1.584   4.234   0.033
 3583SOL    HW111648   1.519   4.220   0.108
 3583SOL    HW211649   1.654   4.300   0.061
 3584SOL     OW11650   5.688   5.061   5.773
 3584SOL    HW111651   5.738   5.147   5.775
 3584SOL    HW211652   5.605   5.070   5.828
 3585SOL     OW11653   3.380   2.135   4.578
 3585SOL    HW111654   3.293   2.107   4.620
 3585SOL    HW211655   3.363   2.201   4.506
 3586SOL     OW11656   6.513   2.671   4.570
 3586SOL    HW111657   6.589   2.658   4.505
 3586SOL    HW211658   6.476   2.582   4.597
 3587SOL     OW11659   3.260   5.287   6.454
 3587SOL    HW111660   3.250   5.314   6.550
 3587SOL    HW211661   3.357   5.286   6.430
 3588SOL     OW11662   6.748   4.285   4.372
 3588SOL    HW111663   6.737   4.344   4.452
 3588SOL    HW211664   6.794   4.200   4.399
 3589SOL     OW11665   6.465   0.106   6.258
 3589SOL    HW111666   6.441   0.013   6.285
 3589SOL    HW211667   6.557   0.106   6.217
 3590SOL     OW11668   0.375   3.640   0.865
 3590SOL    HW111669   0.406   3.640   0.770
 3590SOL    HW211670   0.407   3.722   0.911
 3591SOL     OW11671   5.637   2.978   0.525
 3591SOL    HW111672   5.723   3.009   0.564
 3591SOL    HW211673   5.567   2.975   0.597
 3592SOL     OW11674   0.364   0.195   2.404
 3592SOL    HW111675   0.433   0.198   2.476
 3592SOL    HW211676   0.306   0.115   2.416
 3593SOL     OW11677   0.529   4.579   5.553
 3593SOL    HW111678   0.621   4.617   5.558
 3593SOL    HW211679   0.462   4.652   5.554
 3594SOL     OW11680   4.626   6.818   5.057
 3594SOL    HW111681   4.666   6.753   5.121
 3594SOL    HW211682   4.574   6.887   5.108
 3595SOL     OW11683   6.248   6.220   0.252
 3595SOL    HW111684   6.199   6.288   0.198
 3595SOL    HW211685   6.286   6.149   0.192
 3596SOL     OW11686   4.310   2.401   3.398
 3596SOL    HW111687   4.214   2.393   3.372
 3596SOL    HW211688   4.324   2.359   3.488
 3597SOL     OW11689   2.167   3.701   5.456
 3597SOL    HW111690   2.218   3.732   5.375
 3597SOL    HW211691   2.083   3.756   5.464
 3598SOL     OW11692   2.133   6.444   5.706
 3598SOL    HW111693   2.161   6.457   5.611
 3598SOL    HW211694   2.089   6.355   5.716
 3599SOL     OW11695   4.802   1.891   6.226
 3599SOL    HW111696   4.794   1.888   6.325
 3599SOL    HW211697   4.805   1.798   6.190
 3600SOL     OW11698   1.741   3.762   1.296
 3600SOL    HW111699   1.783   3.680   1.336
 3600SOL    HW211700   1.796   3.842   1.319
 3601SOL     OW11701   5.545   1.871   5.362
 3601SOL    HW111702   5.587   1.859   5.453
 3601SOL    HW211703   5.457   1.825   5.360
 3602SOL     OW11704   2.281   2.508   1.635
 3602SOL    HW111705   2.330   2.435   1.588
 3602SOL    HW211706   2.296   2.595   1.587
 3603SOL     OW11707   3.613   0.867   6.253
 3603SOL    HW111708   3.702   0.836   6.286
 3603SOL    HW211709   3.587   0.814   6.172
 3604SOL     OW11710   6.325   0.841   3.610
 3604SOL    HW111711   6.364   0.868   3.698
 3604SOL    HW211712   6.350   0.746   3.591
 3605SOL     OW11713   0.981   4.922   3.989
 3605SOL    HW111714   1.078   4.926   4.012
 3605SOL    HW211715   0.964   4.973   3.905
 3606SOL     OW11716   1.743   6.282   1.713
 3606SOL    HW111717   1.814   6.348   1.689
 3606SOL    HW211718   1.704   6.306   1.802
 3607SOL     OW11719   4.938   2.510   2.621
 3607SOL    HW111720   4.900   2.597   2.587
 3607SOL    HW211721   4.977   2.459   2.545
 3608SOL     OW11722   4.846   1.774   4.122
 3608SOL    HW111723   4.819   1.868   4.102
 3608SOL    HW211724   4.935   1.755   4.080
 3609SOL     OW11725   2.447   6.657   4.650
 3609SOL    HW111726   2.477   6.628   4.741
 3609SOL    HW211727   2.521   6.640   4.584
 3610SOL     OW11728   2.122   0.311   5.437
 3610SOL    HW111729   2.108   0.347   5.529
 3610SOL    HW211730   2.104   0.383   5.370
 3611SOL     OW11731   4.499   4.512   4.122
 3611SOL    HW111732   4.431   4.584   4.133
 3611SOL    HW211733   4.488   4.444   4.194
 3612SOL     OW11734   6.450   1.559   6.790
 3612SOL    HW111735   6.418   1.480   6.843
 3612SOL    HW211736   6.540   1.586   6.822
 3613SOL     OW11737   4.674   5.340   2.034
 3613SOL    HW111738   4.666   5.293   1.946
 3613SOL    HW211739   4.673   5.272   2.108
 3614SOL     OW11740   3.371   3.266   6.653
 3614SOL    HW111741   3.357   3.271   6.752
 3614SOL    HW211742   3.414   3.350   6.621
 3615SOL     OW11743   5.977   3.398   5.565
 3615SOL    HW111744   5.894   3.409   5.621
 3615SOL    HW211745   6.057   3.413   5.623
 3616SOL     OW11746   1.669   2.040   5.937
 3616SOL    HW111747   1.623   2.060   5.850
 3616SOL    HW211748   1.701   2.125   5.978
 3617SOL     OW11749   4.585   6.765   5.918
 3617SOL    HW111750   4.583   6.765   6.018
 3617SOL    HW211751   4.491   6.766   5.882
 3618SOL     OW11752   2.092   3.832   5.009
 3618SOL    HW111753   2.159   3.901   4.980
 3618SOL    HW211754   2.003   3.876   5.019
 3619SOL     OW11755   5.413   3.548   0.473
 3619SOL    HW111756   5.467   3.623   0.510
 3619SOL    HW211757   5.436   3.463   0.521
 3620SOL     OW11758   6.401   5.953   4.382
 3620SOL    HW111759   6.366   6.047   4.385
 3620SOL    HW211760   6.360   5.900   4.456
 3621SOL     OW11761   3.853   3.158   4.187
 3621SOL    HW111762   3.810   3.240   4.223
 3621SOL    HW211763   3.833   3.080   4.246
 3622SOL     OW11764   0.807   0.747   1.109
 3622SOL    HW111765   0.766   0.658   1.128
 3622SOL    HW211766   0.890   0.734   1.054
 3623SOL     OW11767   0.756   5.498   5.080
 3623SOL    HW111768   0.749   5.455   4.990
 3623SOL    HW211769   0.675   5.476   5.134
 3624SOL     OW11770   1.617   0.187   1.468
 3624SOL    HW111771   1.709   0.188   1.507
 3624SOL    HW211772   1.554   0.146   1.533
 3625SOL     OW11773   6.866   3.013   6.958
 3625SOL    HW111774   6.834   2.989   6.866
 3625SOL    HW211775   6.810   3.087   6.994
 3626SOL     OW11776   0.436   3.817   4.517
 3626SOL    HW111777   0.379   3.758   4.574
 3626SOL    HW211778   0.492   3.876   4.575
 3627SOL     OW11779   4.872   2.812   1.586
 3627SOL    HW111780   4.793   2.872   1.597
 3627SOL    HW211781   4.841   2.721   1.558
 3628SOL     OW11782   1.271   1.894   1.928
 3628SOL    HW111783   1.291   1.797   1.944
 3628SOL    HW211784   1.343   1.933   1.870
 3629SOL     OW11785   1.275   0.596   3.676
 3629SOL    HW111786   1.319   0.646   3.750
 3629SOL    HW211787   1.293   0.498   3.686
 3630SOL     OW11788   6.829   2.660   3.029
 3630SOL    HW111789   6.741   2.634   2.990
 3630SOL    HW211790   6.883   2.708   2.961
 3631SOL     OW11791   2.231   6.860   3.107
 3631SOL    HW111792   2.250   6.877   3.010
 3631SOL    HW211793   2.153   6.916   3.135
 3632SOL     OW11794   4.346   3.998   0.942
 3632SOL    HW111795   4.286   3.971   0.867
 3632SOL    HW211796   4.441   3.999   0.909
 3633SOL     OW11797   3.379   2.656   5.640
 3633SOL    HW111798   3.357   2.611   5.554
 3633SOL    HW211799   3.326   2.615   5.714
 3634SOL     OW11800   2.567   6.307   5.885
 3634SOL    HW111801   2.501   6.341   5.817
 3634SOL    HW211802   2.550   6.210   5.903
 3635SOL     OW11803   2.601   1.101   1.386
 3635SOL    HW111804   2.554   1.096   1.298
 3635SOL    HW211805   2.538   1.134   1.456
 3636SOL     OW11806   6.876   5.372   0.596
 3636SOL    HW111807   6.783   5.389   0.630
 3636SOL    HW211808   6.873   5.347   0.500
 3637SOL     OW11809   1.039   3.201   0.142
 3637SOL    HW111810   0.984   3.283   0.125
 3637SOL    HW211811   1.050   3.187   0.240
 3638SOL     OW11812   6.741   3.999   2.779
 3638SOL    HW111813   6.765   3.928   2.845
 3638SOL    HW211814   6.646   4.028   2.795
 3639SOL     OW11815   3.812   3.990   5.115
 3639SOL    HW111816   3.723   4.036   5.113
 3639SOL    HW211817   3.835   3.958   5.024
 3640SOL     OW11818   5.437   3.003   0.326
 3640SOL    HW111819   5.456   2.933   0.258
 3640SOL    HW211820   5.492   2.987   0.408
 3641SOL     OW11821   6.008   3.790   1.388
 3641SOL    HW111822   5.952   3.749   1.460
 3641SOL    HW211823   6.020   3.723   1.314
 3642SOL     OW11824   5.713   2.511   6.550
 3642SOL    HW111825   5.675   2.488   6.640
 3642SOL    HW211826   5.669   2.594   6.516
 3643SOL     OW11827   4.297   6.430   6.424
 3643SOL    HW111828   4.203   6.464   6.424
 3643SOL    HW211829   4.309   6.364   6.498
 3644SOL     OW11830   2.659   0.842   1.640
 3644SOL    HW111831   2.574   0.792   1.659
 3644SOL    HW211832   2.721   0.783   1.588
 3645SOL     OW11833   1.320   3.639   4.000
 3645SOL    HW111834   1.373   3.614   4.081
 3645SOL    HW211835   1.234   3.588   4.000
 3646SOL     OW11836   3.014   4.882   4.571
 3646SOL    HW111837   3.070   4.929   4.502
 3646SOL    HW211838   3.046   4.908   4.662
 3647SOL     OW11839   2.409   6.817   6.731
 3647SOL    HW111840   2.316   6.854   6.733
 3647SOL    HW211841   2.469   6.874   6.786
 3648SOL     OW11842   4.938   6.170   3.403
 3648SOL    HW111843   4.960   6.165   3.306
 3648SOL    HW211844   5.010   6.127   3.456
 3649SOL     OW11845   5.450   3.766   6.862
 3649SOL    HW111846   5.469   3.818   6.946
 3649SOL    HW211847   5.485   3.817   6.783
 3650SOL     OW11848   4.879   3.837   0.353
 3650SOL    HW111849   4.941   3.899   0.304
 3650SOL    HW211850   4.834   3.886   0.427
 3651SOL     OW11851   1.982   2.286   5.458
 3651SOL    HW111852   2.002   2.265   5.362
 3651SOL    HW211853   1.926   2.369   5.462
 3652SOL     OW11854   5.324   1.090   2.323
 3652SOL    HW111855   5.409   1.075   2.373
 3652SOL    HW211856   5.253   1.119   2.387
 3653SOL     OW11857   0.716   0.587   2.409
 3653SOL    HW111858   0.713   0.580   2.509
 3653SOL    HW211859   0.764   0.670   2.383
 3654SOL     OW11860   4.886   6.015   1.119
 3654SOL    HW111861   4.835   5.948   1.064
 3654SOL    HW211862   4.976   5.977   1.142
 3655SOL     OW11863   2.959   1.177   4.081
 3655SOL    HW111864   3.000   1.116   4.149
 3655SOL    HW211865   2.907   1.122   4.016
 3656SOL     OW11866   0.881   5.831   2.194
 3656SOL    HW111867   0.862   5.773   2.115
 3656SOL    HW211868   0.803   5.891   2.211
 3657SOL     OW11869   4.564   5.991   5.433
 3657SOL    HW111870   4.660   5.999   5.459
 3657SOL    HW211871   4.506   6.027   5.506
 3658SOL     OW11872   1.644   5.566   6.565
 3658SOL    HW111873   1.726   5.623   6.567
 3658SOL    HW211874   1.627   5.536   6.471
 3659SOL     OW11875   0.192   1.435   6.290
 3659SOL    HW111876   0.285   1.428   6.325
 3659SOL    HW211877   0.139   1.356   6.320
 3660SOL     OW11878   5.675   5.948   5.680
 3660SOL    HW111879   5.705   5.906   5.594
 3660SOL    HW211880   5.704   5.890   5.757
 3661SOL     OW11881   7.016   0.969   4.620
 3661SOL    HW111882   7.016   0.977   4.719
 3661SOL    HW211883   7.008   1.059   4.578
 3662SOL     OW11884   3.944   0.751   5.646
 3662SOL    HW111885   3.987   0.784   5.730
 3662SOL    HW211886   3.847   0.775   5.646
 3663SOL     OW11887   2.207   2.659   0.172
 3663SOL    HW111888   2.170   2.684   0.261
 3663SOL    HW211889   2.267   2.731   0.139
 3664SOL     OW11890   4.548   1.592   2.303
 3664SOL    HW111891   4.571   1.689   2.298
 3664SOL    HW211892   4.591   1.543   2.228
 3665SOL     OW11893   0.645   6.540   5.546
 3665SOL    HW111894   0.653   6.565   5.450
 3665SOL    HW211895   0.734   6.549   5.591
 3666SOL     OW11896   1.541   2.268   3.203
 3666SOL    HW111897   1.479   2.304   3.272
 3666SOL    HW211898   1.492   2.255   3.117
 3667SOL     OW11899   1.275   1.864   2.675
 3667SOL    HW111900   1.246   1.785   2.728
 3667SOL    HW211901   1.362   1.845   2.630
 3668SOL     OW11902   1.125   0.390   1.934
 3668SOL    HW111903   1.207   0.422   1.982
 3668SOL    HW211904   1.123   0.429   1.842
 3669SOL     OW11905   6.254   2.281   4.442
 3669SOL    HW111906   6.285   2.280   4.347
 3669SOL    HW211907   6.264   2.373   4.479
 3670SOL     OW11908   3.604   5.084   1.612
 3670SOL    HW111909   3.540   5.007   1.603
 3670SOL    HW211910   3.566   5.150   1.677
 3671SOL     OW11911   6.473   0.680   3.098
 3671SOL    HW111912   6.503   0.646   3.187
 3671SOL    HW211913   6.500   0.776   3.088
 3672SOL     OW11914   5.247   1.291   2.072
 3672SOL    HW111915   5.165   1.280   2.129
 3672SOL    HW211916   5.310   1.354   2.117
 3673SOL     OW11917   5.031   5.935   0.442
 3673SOL    HW111918   5.052   5.873   0.366
 3673SOL    HW211919   4.932   5.943   0.451
 3674SOL     OW11920   1.669   6.089   6.043
 3674SOL    HW111921   1.587   6.033   6.034
 3674SOL    HW211922   1.737   6.041   6.097
 3675SOL     OW11923   0.559   2.087   3.856
 3675SOL    HW111924   0.485   2.129   3.802
 3675SOL    HW211925   0.647   2.107   3.813
 3676SOL     OW11926   4.564   2.585   3.088
 3676SOL    HW111927   4.576   2.621   2.995
 3676SOL    HW211928   4.501   2.508   3.086
 3677SOL     OW11929   1.757   1.022   4.357
 3677SOL    HW111930   1.812   1.035   4.275
 3677SOL    HW211931   1.809   0.968   4.423
 3678SOL     OW11932   1.201   0.352   3.842
 3678SOL    HW111933   1.120   0.398   3.877
 3678SOL    HW211934   1.174   0.282   3.776
 3679SOL     OW11935   5.412   0.410   2.982
 3679SOL    HW111936   5.507   0.436   3.000
 3679SOL    HW211937   5.354   0.492   2.985
 3680SOL     OW11938   4.804   1.152   3.166
 3680SOL    HW111939   4.729   1.094   3.197
 3680SOL    HW211940   4.776   1.203   3.085
 3681SOL     OW11941   1.332   0.585   5.103
 3681SOL    HW111942   1.377   0.527   5.171
 3681SOL    HW211943   1.389   0.589   5.021
 3682SOL     OW11944   5.302   2.740   1.110
 3682SOL    HW111945   5.219   2.738   1.053
 3682SOL    HW211946   5.375   2.786   1.060
 3683SOL     OW11947   0.279   0.352   4.437
 3683SOL    HW111948   0.328   0.420   4.493
 3683SOL    HW211949   0.205   0.397   4.388
 3684SOL     OW11950   2.121   6.861   5.656
 3684SOL    HW111951   2.146   6.954   5.630
 3684SOL    HW211952   2.201   6.815   5.697
 3685SOL     OW11953   2.437   5.941   5.450
 3685SOL    HW111954   2.450   5.852   5.494
 3685SOL    HW211955   2.354   5.985   5.486
 3686SOL     OW11956   6.475   3.706   3.637
 3686SOL    HW111957   6.555   3.692   3.578
 3686SOL    HW211958   6.467   3.629   3.700
 3687SOL     OW11959   4.861   6.407   3.526
 3687SOL    HW111960   4.820   6.383   3.614
 3687SOL    HW211961   4.890   6.324   3.479
 3688SOL     OW11962   6.058   3.053   0.379
 3688SOL    HW111963   6.097   3.044   0.287
 3688SOL    HW211964   5.999   3.134   0.383
 3689SOL     OW11965   2.354   1.494   4.929
 3689SOL    HW111966   2.313   1.505   5.020
 3689SOL    HW211967   2.447   1.458   4.938
 3690SOL     OW11968   4.941   5.440   1.046
 3690SOL    HW111969   4.946   5.499   0.966
 3690SOL    HW211970   4.857   5.459   1.097
 3691SOL     OW11971   3.028   1.777   6.199
 3691SOL    HW111972   3.011   1.871   6.227
 3691SOL    HW211973   2.954   1.718   6.232
 3692SOL     OW11974   6.871   3.959   5.896
 3692SOL    HW111975   6.798   3.929   5.834
 3692SOL    HW211976   6.941   3.887   5.901
 3693SOL     OW11977   0.524   1.692   2.523
 3693SOL    HW111978   0.611   1.740   2.527
 3693SOL    HW211979   0.449   1.758   2.518
 3694SOL     OW11980   0.975   0.727   1.510
 3694SOL    HW111981   0.967   0.779   1.595
 3694SOL    HW211982   0.883   0.699   1.480
 3695SOL     OW11983   6.672   2.526   2.316
 3695SOL    HW111984   6.694   2.454   2.250
 3695SOL    HW211985   6.749   2.540   2.377
 3696SOL     OW11986   4.962   0.941   4.785
 3696SOL    HW111987   4.881   0.929   4.842
 3696SOL    HW211988   5.030   0.872   4.808
 3697SOL     OW11989   6.644   6.105   3.290
 3697SOL    HW111990   6.718   6.047   3.324
 3697SOL    HW211991   6.613   6.166   3.363
 3698SOL     OW11992   1.647   0.774   3.510
 3698SOL    HW111993   1.576   0.843   3.501
 3698SOL    HW211994   1.718   0.790   3.442
 3699SOL     OW11995   2.667   2.073   4.121
 3699SOL    HW111996   2.608   2.051   4.043
 3699SOL    HW211997   2.710   2.162   4.106
 3700SOL     OW11998   1.865   5.191   4.950
 3700SOL    HW111999   1.897   5.271   5.002
 3700SOL    HW212000   1.870   5.211   4.852
 3701SOL     OW12001   0.985   6.662   2.710
 3701SOL    HW112002   1.084   6.660   2.697
 3701SOL    HW212003   0.939   6.661   2.621
 3702SOL     OW12004   5.711   5.612   4.127
 3702SOL    HW112005   5.690   5.595   4.030
 3702SOL    HW212006   5.752   5.702   4.137
 3703SOL     OW12007   1.034   1.334   5.966
 3703SOL    HW112008   0.980   1.391   5.904
 3703SOL    HW212009   1.130   1.361   5.961
 3704SOL     OW12010   5.936   2.829   0.887
 3704SOL    HW112011   5.941   2.841   0.986
 3704SOL    HW212012   6.019   2.865   0.844
 3705SOL     OW12013   5.090   5.003   3.748
 3705SOL    HW112014   5.083   4.921   3.804
 3705SOL    HW212015   5.055   5.082   3.799
 3706SOL     OW12016   1.030   3.776   0.912
 3706SOL    HW112017   0.979   3.858   0.886
 3706SOL    HW212018   0.975   3.721   0.975
 3707SOL     OW12019   3.238   4.928   3.723
 3707SOL    HW112020   3.252   5.007   3.664
 3707SOL    HW212021   3.325   4.905   3.768
 3708SOL     OW12022   3.563   6.688   1.242
 3708SOL    HW112023   3.623   6.700   1.162
 3708SOL    HW212024   3.578   6.763   1.306
 3709SOL     OW12025   2.056   0.592   1.713
 3709SOL    HW112026   1.976   0.652   1.713
 3709SOL    HW212027   2.047   0.524   1.786
 3710SOL     OW12028   0.566   5.404   5.240
 3710SOL    HW112029   0.522   5.316   5.257
 3710SOL    HW212030   0.589   5.448   5.327
 3711SOL     OW12031   1.806   6.390   5.430
 3711SOL    HW112032   1.847   6.325   5.494
 3711SOL    HW212033   1.721   6.353   5.394
 3712SOL     OW12034   2.505   5.661   6.373
 3712SOL    HW112035   2.493   5.614   6.286
 3712SOL    HW212036   2.538   5.596   6.442
 3713SOL     OW12037   6.954   6.509   4.594
 3713SOL    HW112038   6.984   6.555   4.678
 3713SOL    HW212039   6.855   6.516   4.587
 3714SOL     OW12040   1.022   4.858   0.238
 3714SOL    HW112041   1.055   4.826   0.149
 3714SOL    HW212042   0.942   4.916   0.225
 3715SOL     OW12043   0.119   6.090   3.718
 3715SOL    HW112044   0.131   6.095   3.818
 3715SOL    HW212045   0.045   6.152   3.691
 3716SOL     OW12046   6.399   5.588   4.088
 3716SOL    HW112047   6.302   5.592   4.065
 3716SOL    HW212048   6.446   5.529   4.022
 3717SOL     OW12049   4.813   1.081   0.680
 3717SOL    HW112050   4.743   1.097   0.610
 3717SOL    HW212051   4.903   1.105   0.643
 3718SOL     OW12052   0.495   6.862   6.535
 3718SOL    HW112053   0.434   6.936   6.506
 3718SOL    HW212054   0.449   6.806   6.604
 3719SOL     OW12055   3.971   3.216   6.407
 3719SOL    HW112056   3.923   3.231   6.321
 3719SOL    HW212057   3.944   3.127   6.445
 3720SOL     OW12058   6.132   3.390   1.180
 3720SOL    HW112059   6.132   3.488   1.159
 3720SOL    HW212060   6.144   3.377   1.279
 3721SOL     OW12061   6.391   5.346   6.858
 3721SOL    HW112062   6.463   5.276   6.860
 3721SOL    HW212063   6.310   5.311   6.905
 3722SOL     OW12064   4.627   6.918   1.685
 3722SOL    HW112065   4.663   7.003   1.722
 3722SOL    HW212066   4.528   6.915   1.698
 3723SOL     OW12067   4.483   5.381   0.415
 3723SOL    HW112068   4.526   5.346   0.498
 3723SOL    HW212069   4.551   5.386   0.342
 3724SOL     OW12070   1.688   5.152   5.236
 3724SOL    HW112071   1.667   5.124   5.330
 3724SOL    HW212072   1.753   5.088   5.196
 3725SOL     OW12073   0.442   6.175   0.058
 3725SOL    HW112074   0.458   6.084   0.096
 3725SOL    HW212075   0.421   6.239   0.131
 3726SOL     OW12076   5.073   4.666   4.454
 3726SOL    HW112077   5.134   4.593   4.423
 3726SOL    HW212078   5.063   4.734   4.382
 3727SOL     OW12079   0.360   3.104   4.142
 3727SOL    HW112080   0.428   3.071   4.208
 3727SOL    HW212081   0.341   3.200   4.160
 3728SOL     OW12082   3.212   3.531   0.745
 3728SOL    HW112083   3.143   3.590   0.703
 3728SOL    HW212084   3.183   3.436   0.738
 3729SOL     OW12085   0.303   0.393   5.651
 3729SOL    HW112086   0.234   0.466   5.652
 3729SOL    HW212087   0.383   0.423   5.600
 3730SOL     OW12088   4.312   6.840   5.875
 3730SOL    HW112089   4.257   6.895   5.813
 3730SOL    HW212090   4.253   6.801   5.945
 3731SOL     OW12091   0.440   1.357   6.417
 3731SOL    HW112092   0.456   1.455   6.428
 3731SOL    HW212093   0.527   1.308   6.412
 3732SOL     OW12094   2.239   1.609   0.323
 3732SOL    HW112095   2.279   1.678   0.384
 3732SOL    HW212096   2.225   1.650   0.232
 3733SOL     OW12097   1.744   2.757   3.615
 3733SOL    HW112098   1.705   2.669   3.584
 3733SOL    HW212099   1.713   2.776   3.708
 3734SOL     OW12100   3.884   0.397   1.592
 3734SOL    HW112101   3.892   0.488   1.632
 3734SOL    HW212102   3.788   0.370   1.589
 3735SOL     OW12103   4.017   6.659   2.276
 3735SOL    HW112104   3.971   6.691   2.358
 3735SOL    HW212105   4.116   6.666   2.289
 3736SOL     OW12106   6.519   1.186   0.947
 3736SOL    HW112107   6.614   1.186   0.917
 3736SOL    HW212108   6.506   1.114   1.015
 3737SOL     OW12109   6.486   2.468   3.439
 3737SOL    HW112110   6.530   2.400   3.381
 3737SOL    HW212111   6.466   2.550   3.385
 3738SOL     OW12112   6.729   5.912   0.800
 3738SOL    HW112113   6.701   6.004   0.826
 3738SOL    HW212114   6.807   5.884   0.856
 3739SOL     OW12115   2.931   4.765   1.752
 3739SOL    HW112116   2.973   4.709   1.681
 3739SOL    HW212117   2.914   4.709   1.833
 3740SOL     OW12118   5.759   5.880   6.547
 3740SOL    HW112119   5.752   5.794   6.495
 3740SOL    HW212120   5.844   5.926   6.524
 3741SOL     OW12121   5.273   2.539   0.056
 3741SOL    HW112122   5.225   2.621   0.085
 3741SOL    HW212123   5.232   2.459   0.099
 3742SOL     OW12124   4.394   5.783   0.357
 3742SOL    HW112125   4.446   5.827   0.284
 3742SOL    HW212126   4.377   5.849   0.431
 3743SOL     OW12127   4.333   4.042   1.274
 3743SOL    HW112128   4.305   4.118   1.333
 3743SOL    HW212129   4.317   4.066   1.178
 3744SOL     OW12130   1.281   6.557   2.222
 3744SOL    HW112131   1.205   6.577   2.159
 3744SOL    HW212132   1.250   6.493   2.292
 3745SOL     OW12133   4.995   3.338   2.447
 3745SOL    HW112134   4.931   3.305   2.377
 3745SOL    HW212135   5.003   3.270   2.520
 3746SOL     OW12136   6.691   6.955   3.554
 3746SOL    HW112137   6.632   7.020   3.601
 3746SOL    HW212138   6.786   6.988   3.555
 3747SOL     OW12139   4.325   6.535   6.174
 3747SOL    HW112140   4.290   6.629   6.167
 3747SOL    HW212141   4.320   6.505   6.270
 3748SOL     OW12142   5.577   1.046   2.422
 3748SOL    HW112143   5.587   1.071   2.519
 3748SOL    HW212144   5.600   0.950   2.410
 3749SOL     OW12145   0.998   5.448   2.537
 3749SOL    HW112146   1.046   5.499   2.609
 3749SOL    HW212147   1.018   5.488   2.448
 3750SOL     OW12148   5.781   4.390   0.847
 3750SOL    HW112149   5.807   4.375   0.752
 3750SOL    HW212150   5.790   4.305   0.898
 3751SOL     OW12151   1.524   3.301   1.176
 3751SOL    HW112152   1.547   3.276   1.082
 3751SOL    HW212153   1.465   3.381   1.175
 3752SOL     OW12154   0.260   0.415   6.875
 3752SOL    HW112155   0.174   0.376   6.907
 3752SOL    HW212156   0.243   0.473   6.795
 3753SOL     OW12157   0.796   6.724   4.723
 3753SOL    HW112158   0.844   6.783   4.658
 3753SOL    HW212159   0.829   6.741   4.815
 3754SOL     OW12160   5.651   6.608   1.262
 3754SOL    HW112161   5.686   6.515   1.249
 3754SOL    HW212162   5.566   6.605   1.315
 3755SOL     OW12163   5.361   5.370   3.964
 3755SOL    HW112164   5.346   5.426   4.045
 3755SOL    HW212165   5.434   5.304   3.981
 3756SOL     OW12166   1.911   1.407   6.148
 3756SOL    HW112167   1.990   1.425   6.088
 3756SOL    HW212168   1.834   1.462   6.118
 3757SOL     OW12169   3.500   5.926   5.409
 3757SOL    HW112170   3.525   6.007   5.356
 3757SOL    HW212171   3.456   5.859   5.349
 3758SOL     OW12172   2.417   1.088   4.610
 3758SOL    HW112173   2.374   1.178   4.601
 3758SOL    HW212174   2.357   1.026   4.660
 3759SOL     OW12175   4.893   5.472   5.452
 3759SOL    HW112176   4.916   5.439   5.360
 3759SOL    HW212177   4.941   5.418   5.520
 3760SOL     OW12178   1.343   3.185   3.698
 3760SOL    HW112179   1.290   3.145   3.773
 3760SOL    HW212180   1.423   3.129   3.679
 3761SOL     OW12181   0.581   6.827   5.268
 3761SOL    HW112182   0.600   6.866   5.178
 3761SOL    HW212183   0.559   6.730   5.258
 3762SOL     OW12184   1.229   4.148   0.129
 3762SOL    HW112185   1.319   4.138   0.173
 3762SOL    HW212186   1.160   4.168   0.199
 3763SOL     OW12187   6.641   4.079   6.716
 3763SOL    HW112188   6.662   4.154   6.779
 3763SOL    HW212189   6.678   3.994   6.754
 3764SOL     OW12190   1.942   0.550   4.491
 3764SOL    HW112191   1.860   0.494   4.479
 3764SOL    HW212192   2.007   0.502   4.549
 3765SOL     OW12193   4.780   0.728   3.345
 3765SOL    HW112194   4.785   0.806   3.282
 3765SOL    HW212195   4.685   0.717   3.376
 3766SOL     OW12196   0.824   0.981   3.972
 3766SOL    HW112197   0.770   1.048   3.922
 3766SOL    HW212198   0.914   1.020   3.993
 3767SOL     OW12199   1.629   5.086   0.142
 3767SOL    HW112200   1.717   5.090   0.095
 3767SOL    HW212201   1.605   4.991   0.161
 3768SOL     OW12202   4.272   6.265   6.635
 3768SOL    HW112203   4.208   6.300   6.704
 3768SOL    HW212204   4.237   6.180   6.596
 3769SOL     OW12205   5.703   5.977   5.084
 3769SOL    HW112206   5.775   6.036   5.047
 3769SOL    HW212207   5.736   5.883   5.090
 3770SOL     OW12208   1.932   1.020   5.828
 3770SOL    HW112209   1.933   1.028   5.928
 3770SOL    HW212210   1.848   1.061   5.792
 3771SOL     OW12211   5.351   2.107   0.402
 3771SOL    HW112212   5.308   2.197   0.395
 3771SOL    HW212213   5.451   2.117   0.396
 3772SOL     OW12214   6.216   0.831   1.086
 3772SOL    HW112215   6.313   0.855   1.087
 3772SOL    HW212216   6.200   0.762   1.015
 3773SOL     OW12217   5.618   3.244   5.584
 3773SOL    HW112218   5.696   3.187   5.561
 3773SOL    HW212219   5.650   3.328   5.628
 3774SOL     OW12220   1.518   0.025   6.200
 3774SOL    HW112221   1.456   0.098   6.227
 3774SOL    HW212222   1.498   7.020   6.106
 3775SOL     OW12223   5.355   3.973   3.085
 3775SOL    HW112224   5.264   4.005   3.061
 3775SOL    HW212225   5.424   4.035   3.047
 3776SOL     OW12226   2.264   1.814   1.529
 3776SOL    HW112227   2.223   1.786   1.443
 3776SOL    HW212228   2.192   1.834   1.596
 3777SOL     OW12229   3.178   5.012   4.805
 3777SOL    HW112230   3.177   4.953   4.886
 3777SOL    HW212231   3.266   5.060   4.800
 3778SOL     OW12232   2.416   5.775   2.698
 3778SOL    HW112233   2.425   5.792   2.796
 3778SOL    HW212234   2.455   5.852   2.647
 3779SOL     OW12235   2.599   4.592   0.195
 3779SOL    HW112236   2.584   4.583   0.294
 3779SOL    HW212237   2.694   4.569   0.173
 3780SOL     OW12238   3.922   5.382   5.248
 3780SOL    HW112239   3.995   5.442   5.215
 3780SOL    HW212240   3.961   5.311   5.307
 3781SOL     OW12241   2.369   6.592   4.079
 3781SOL    HW112242   2.297   6.567   4.014
 3781SOL    HW212243   2.337   6.668   4.135
 3782SOL     OW12244   2.891   1.938   4.312
 3782SOL    HW112245   2.821   1.939   4.242
 3782SOL    HW212246   2.925   2.032   4.326
 3783SOL     OW12247   6.675   6.813   5.292
 3783SOL    HW112248   6.632   6.885   5.347
 3783SOL    HW212249   6.633   6.811   5.202
 3784SOL     OW12250   5.567   1.698   3.687
 3784SOL    HW112251   5.516   1.622   3.728
 3784SOL    HW212252   5.538   1.709   3.592
 3785SOL     OW12253   2.626   1.714   0.367
 3785SOL    HW112254   2.559   1.697   0.439
 3785SOL    HW212255   2.582   1.702   0.278
 3786SOL     OW12256   3.070   4.824   3.520
 3786SOL    HW112257   3.113   4.858   3.604
 3786SOL    HW212258   3.127   4.848   3.441
 3787SOL     OW12259   5.591   0.806   4.431
 3787SOL    HW112260   5.506   0.756   4.418
 3787SOL    HW212261   5.664   0.741   4.454
 3788SOL     OW12262   6.257   3.115   3.429
 3788SOL    HW112263   6.257   3.015   3.429
 3788SOL    HW212264   6.167   3.148   3.401
 3789SOL     OW12265   1.080   4.280   4.290
 3789SOL    HW112266   1.116   4.223   4.216
 3789SOL    HW212267   0.997   4.237   4.327
 3790SOL     OW12268   2.033   3.901   4.660
 3790SOL    HW112269   1.961   3.882   4.727
 3790SOL    HW212270   2.071   3.814   4.626
 3791SOL     OW12271   5.367   6.886   1.151
 3791SOL    HW112272   5.354   6.977   1.190
 3791SOL    HW212273   5.448   6.887   1.092
 3792SOL     OW12274   6.427   0.542   5.301
 3792SOL    HW112275   6.483   0.624   5.295
 3792SOL    HW212276   6.485   0.461   5.299
 3793SOL     OW12277   2.168   1.044   2.705
 3793SOL    HW112278   2.219   1.102   2.642
 3793SOL    HW212279   2.128   1.100   2.778
 3794SOL     OW12280   3.980   5.483   2.106
 3794SOL    HW112281   3.882   5.462   2.113
 3794SOL    HW212282   3.999   5.569   2.153
 3795SOL     OW12283   5.075   6.996   6.688
 3795SOL    HW112284   5.146   6.932   6.658
 3795SOL    HW212285   5.044   0.027   6.609
 3796SOL     OW12286   1.321   2.009   1.526
 3796SOL    HW112287   1.315   2.082   1.595
 3796SOL    HW212288   1.257   1.936   1.550
 3797SOL     OW12289   6.788   5.632   2.158
 3797SOL    HW112290   6.749   5.668   2.242
 3797SOL    HW212291   6.876   5.589   2.178
 3798SOL     OW12292   2.680   4.646   3.182
 3798SOL    HW112293   2.610   4.588   3.139
 3798SOL    HW212294   2.661   4.742   3.162
 3799SOL     OW12295   1.317   1.786   4.906
 3799SOL    HW112296   1.325   1.838   4.821
 3799SOL    HW212297   1.329   1.847   4.984
 3800SOL     OW12298   5.057   2.451   4.830
 3800SOL    HW112299   5.150   2.439   4.796
 3800SOL    HW212300   5.007   2.512   4.769
 3801SOL     OW12301   6.234   6.225   5.209
 3801SOL    HW112302   6.170   6.226   5.132
 3801SOL    HW212303   6.200   6.287   5.280
 3802SOL     OW12304   1.163   2.062   5.348
 3802SOL    HW112305   1.108   2.014   5.415
 3802SOL    HW212306   1.176   2.157   5.377
 3803SOL     OW12307   4.232   0.770   2.003
 3803SOL    HW112308   4.299   0.841   2.026
 3803SOL    HW212309   4.259   0.725   1.918
 3804SOL     OW12310   4.574   1.579   4.911
 3804SOL    HW112311   4.530   1.647   4.852
 3804SOL    HW212312   4.672   1.598   4.916
 3805SOL     OW12313   3.210   4.201   1.723
 3805SOL    HW112314   3.143   4.268   1.754
 3805SOL    HW212315   3.239   4.144   1.801
 3806SOL     OW12316   3.037   2.818   6.768
 3806SOL    HW112317   3.003   2.830   6.861
 3806SOL    HW212318   3.110   2.750   6.768
 3807SOL     OW12319   1.450   0.255   4.451
 3807SOL    HW112320   1.362   0.300   4.438
 3807SOL    HW212321   1.450   0.167   4.405
 3808SOL     OW12322   3.137   0.621   2.214
 3808SOL    HW112323   3.127   0.524   2.235
 3808SOL    HW212324   3.206   0.662   2.273
 3809SOL     OW12325   5.955   2.284   6.837
 3809SOL    HW112326   6.048   2.257   6.863
 3809SOL    HW212327   5.890   2.220   6.876
 3810SOL     OW12328   3.310   3.550   5.639
 3810SOL    HW112329   3.363   3.466   5.634
 3810SOL    HW212330   3.239   3.550   5.568
 3811SOL     OW12331   0.551   3.941   4.743
 3811SOL    HW112332   0.451   3.952   4.747
 3811SOL    HW212333   0.576   3.851   4.781
 3812SOL     OW12334   6.397   2.029   6.141
 3812SOL    HW112335   6.447   2.076   6.214
 3812SOL    HW212336   6.304   2.010   6.170
 3813SOL     OW12337   3.708   5.156   1.107
 3813SOL    HW112338   3.746   5.228   1.166
 3813SOL    HW212339   3.710   5.069   1.155
 3814SOL     OW12340   6.935   6.156   1.136
 3814SOL    HW112341   7.009   6.119   1.192
 3814SOL    HW212342   6.857   6.093   1.140
 3815SOL     OW12343   4.767   2.250   1.073
 3815SOL    HW112344   4.816   2.235   0.987
 3815SOL    HW212345   4.681   2.200   1.072
 3816SOL     OW12346   6.682   6.350   2.303
 3816SOL    HW112347   6.652   6.411   2.230
 3816SOL    HW212348   6.601   6.306   2.344
 3817SOL     OW12349   4.574   2.551   4.329
 3817SOL    HW112350   4.651   2.597   4.375
 3817SOL    HW212351   4.608   2.470   4.280
 3818SOL     OW12352   4.250   6.445   2.554
 3818SOL    HW112353   4.286   6.458   2.462
 3818SOL    HW212354   4.194   6.363   2.557
 3819SOL     OW12355   5.858   5.501   0.438
 3819SOL    HW112356   5.834   5.415   0.394
 3819SOL    HW212357   5.794   5.572   0.410
 3820SOL     OW12358   5.899   5.937   3.900
 3820SOL    HW112359   5.920   6.019   3.847
 3820SOL    HW212360   5.800   5.921   3.898
 3821SOL     OW12361   1.617   3.669   1.818
 3821SOL    HW112362   1.521   3.696   1.827
 3821SOL    HW212363   1.637   3.650   1.722
 3822SOL     OW12364   1.950   5.245   1.795
 3822SOL    HW112365   1.886   5.226   1.721
 3822SOL    HW212366   1.984   5.159   1.833
 3823SOL     OW12367   3.731   2.106   5.099
 3823SOL    HW112368   3.638   2.079   5.074
 3823SOL    HW212369   3.737   2.118   5.198
 3824SOL     OW12370   6.045   2.182   5.858
 3824SOL    HW112371   6.095   2.254   5.908
 3824SOL    HW212372   5.969   2.150   5.915
 3825SOL     OW12373   6.580   0.105   6.786
 3825SOL    HW112374   6.637   0.100   6.704
 3825SOL    HW212375   6.598   0.192   6.833
 3826SOL     OW12376   0.349   3.524   0.556
 3826SOL    HW112377   0.302   3.611   0.547
 3826SOL    HW212378   0.447   3.539   0.565
 3827SOL     OW12379   3.719   4.437   0.531
 3827SOL    HW112380   3.653   4.399   0.597
 3827SOL    HW212381   3.811   4.421   0.565
 3828SOL     OW12382   4.609   1.895   1.035
 3828SOL    HW112383   4.518   1.870   1.070
 3828SOL    HW212384   4.601   1.923   0.940
 3829SOL     OW12385   2.443   5.099   3.284
 3829SOL    HW112386   2.350   5.085   3.319
 3829SOL    HW212387   2.509   5.063   3.350
 3830SOL     OW12388   1.791   0.104   5.461
 3830SOL    HW112389   1.741   0.159   5.527
 3830SOL    HW212390   1.804   0.156   5.376
 3831SOL     OW12391   4.004   1.766   2.686
 3831SOL    HW112392   3.954   1.836   2.636
 3831SOL    HW212393   4.058   1.711   2.622
 3832SOL     OW12394   6.280   0.971   1.829
 3832SOL    HW112395   6.284   0.875   1.803
 3832SOL    HW212396   6.372   1.009   1.830
 3833SOL     OW12397   0.773   4.666   0.505
 3833SOL    HW112398   0.742   4.605   0.577
 3833SOL    HW212399   0.708   4.665   0.429
 3834SOL     OW12400   2.740   1.945   0.612
 3834SOL    HW112401   2.796   2.022   0.584
 3834SOL    HW212402   2.778   1.860   0.574
 3835SOL     OW12403   3.630   5.750   5.566
 3835SOL    HW112404   3.575   5.806   5.505
 3835SOL    HW212405   3.639   5.657   5.529
 3836SOL     OW12406   2.151   4.152   6.079
 3836SOL    HW112407   2.068   4.106   6.048
 3836SOL    HW212408   2.193   4.200   6.001
 3837SOL     OW12409   4.426   3.461   0.297
 3837SOL    HW112410   4.343   3.486   0.247
 3837SOL    HW212411   4.484   3.542   0.307
 3838SOL     OW12412   5.447   1.963   4.285
 3838SOL    HW112413   5.360   1.914   4.284
 3838SOL    HW212414   5.464   2.003   4.194
 3839SOL     OW12415   5.727   0.009   5.130
 3839SOL    HW112416   5.803   0.054   5.177
 3839SOL    HW212417   5.763   6.958   5.073
 3840SOL     OW12418   1.533   1.197   5.034
 3840SOL    HW112419   1.575   1.209   5.125
 3840SOL    HW212420   1.532   1.285   4.987
 3841SOL     OW12421   0.982   3.981   4.988
 3841SOL    HW112422   1.049   3.910   4.968
 3841SOL    HW212423   0.926   3.999   4.906
 3842SOL     OW12424   0.567   5.413   0.085
 3842SOL    HW112425   0.524   5.504   0.080
 3842SOL    HW212426   0.582   5.388   0.180
 3843SOL     OW12427   6.417   3.523   0.596
 3843SOL    HW112428   6.497   3.489   0.644
 3843SOL    HW212429   6.335   3.479   0.632
 3844SOL     OW12430   1.690   5.181   5.763
 3844SOL    HW112431   1.732   5.269   5.787
 3844SOL    HW212432   1.635   5.192   5.680
 3845SOL     OW12433   3.619   3.184   3.350
 3845SOL    HW112434   3.525   3.216   3.337
 3845SOL    HW212435   3.643   3.189   3.447
 3846SOL     OW12436   7.019   4.382   4.336
 3846SOL    HW112437   6.929   4.340   4.326
 3846SOL    HW212438   0.043   4.382   4.248
 3847SOL     OW12439   6.832   0.479   6.337
 3847SOL    HW112440   6.771   0.403   6.357
 3847SOL    HW212441   6.909   0.479   6.401
 3848SOL     OW12442   2.049   4.813   2.129
 3848SOL    HW112443   2.006   4.902   2.114
 3848SOL    HW212444   2.093   4.783   2.044
 3849SOL     OW12445   0.626   1.446   5.584
 3849SOL    HW112446   0.543   1.392   5.571
 3849SOL    HW212447   0.702   1.403   5.535
 3850SOL     OW12448   3.037   3.921   2.165
 3850SOL    HW112449   2.994   3.832   2.177
 3850SOL    HW212450   3.062   3.933   2.069
 3851SOL     OW12451   1.988   3.880   3.238
 3851SOL    HW112452   1.960   3.970   3.204
 3851SOL    HW212453   2.000   3.883   3.337
 3852SOL     OW12454   4.522   0.928   4.877
 3852SOL    HW112455   4.522   0.837   4.835
 3852SOL    HW212456   4.507   0.919   4.975
 3853SOL     OW12457   1.166   3.148   2.062
 3853SOL    HW112458   1.085   3.125   2.008
 3853SOL    HW212459   1.151   3.124   2.157
 3854SOL     OW12460   1.097   3.192   4.226
 3854SOL    HW112461   1.063   3.284   4.205
 3854SOL    HW212462   1.020   3.131   4.243
 3855SOL     OW12463   6.210   4.303   5.788
 3855SOL    HW112464   6.173   4.243   5.716
 3855SOL    HW212465   6.173   4.395   5.776
 3856SOL     OW12466   6.779   0.223   5.951
 3856SOL    HW112467   6.804   0.237   5.856
 3856SOL    HW212468   6.708   0.289   5.977
 3857SOL     OW12469   1.010   6.242   4.961
 3857SOL    HW112470   1.036   6.245   4.864
 3857SOL    HW212471   0.965   6.155   4.980
 3858SOL     OW12472   1.551   5.950   6.318
 3858SOL    HW112473   1.572   6.047   6.315
 3858SOL    HW212474   1.629   5.899   6.354
 3859SOL     OW12475   0.093   2.741   3.289
 3859SOL    HW112476   0.144   2.781   3.212
 3859SOL    HW212477   0.151   2.737   3.369
 3860SOL     OW12478   2.289   5.893   5.871
 3860SOL    HW112479   2.323   5.888   5.965
 3860SOL    HW212480   2.195   5.861   5.867
 3861SOL     OW12481   5.023   4.377   1.536
 3861SOL    HW112482   5.071   4.463   1.547
 3861SOL    HW212483   5.067   4.322   1.465
 3862SOL     OW12484   0.936   6.398   6.100
 3862SOL    HW112485   0.958   6.350   6.184
 3862SOL    HW212486   0.882   6.338   6.040
 3863SOL     OW12487   3.503   3.747   1.215
 3863SOL    HW112488   3.486   3.834   1.169
 3863SOL    HW212489   3.417   3.711   1.250
 3864SOL     OW12490   3.662   1.704   6.553
 3864SOL    HW112491   3.700   1.792   6.526
 3864SOL    HW212492   3.736   1.643   6.580
 3865SOL     OW12493   3.960   0.269   1.960
 3865SOL    HW112494   3.992   0.364   1.968
 3865SOL    HW212495   3.991   0.217   2.040
 3866SOL     OW12496   3.773   0.078   1.083
 3866SOL    HW112497   3.841   0.053   1.152
 3866SOL    HW212498   3.777   0.012   1.008
 3867SOL     OW12499   2.041   3.606   3.238
 3867SOL    HW112500   1.998   3.692   3.214
 3867SOL    HW212501   2.111   3.622   3.308
 3868SOL     OW12502   2.776   6.675   2.022
 3868SOL    HW112503   2.716   6.595   2.028
 3868SOL    HW212504   2.721   6.758   2.017
 3869SOL     OW12505   0.499   3.015   3.480
 3869SOL    HW112506   0.408   3.019   3.438
 3869SOL    HW212507   0.514   2.924   3.518
 3870SOL     OW12508   3.142   5.666   0.040
 3870SOL    HW112509   3.239   5.666   0.064
 3870SOL    HW212510   3.117   5.755   0.002
 3871SOL     OW12511   3.368   0.334   3.217
 3871SOL    HW112512   3.388   0.252   3.270
 3871SOL    HW212513   3.322   0.401   3.276
 3872SOL     OW12514   4.010   3.905   1.307
 3872SOL    HW112515   4.024   3.995   1.267
 3872SOL    HW212516   3.913   3.892   1.327
 3873SOL     OW12517   5.391   5.010   1.667
 3873SOL    HW112518   5.375   5.066   1.749
 3873SOL    HW212519   5.474   4.956   1.679
 3874SOL     OW12520   4.250   6.855   0.530
 3874SOL    HW112521   4.318   6.828   0.462
 3874SOL    HW212522   4.270   6.948   0.562
 3875SOL     OW12523   1.553   4.247   1.747
 3875SOL    HW112524   1.589   4.272   1.837
 3875SOL    HW212525   1.541   4.148   1.742
 3876SOL     OW12526   5.812   4.087   4.359
 3876SOL    HW112527   5.801   3.987   4.356
 3876SOL    HW212528   5.723   4.130   4.370
 3877SOL     OW12529   6.293   1.103   2.147
 3877SOL    HW112530   6.227   1.178   2.152
 3877SOL    HW212531   6.310   1.079   2.052
 3878SOL     OW12532   4.099   6.580   6.806
 3878SOL    HW112533   4.047   6.506   6.764
 3878SOL    HW212534   4.114   6.559   6.903
 3879SOL     OW12535   4.216   5.101   1.711
 3879SOL    HW112536   4.139   5.163   1.724
 3879SOL    HW212537   4.259   5.119   1.623
 3880SOL     OW12538   5.508   3.151   3.305
 3880SOL    HW112539   5.505   3.163   3.206
 3880SOL    HW212540   5.504   3.054   3.327
 3881SOL     OW12541   1.003   4.325   0.758
 3881SOL    HW112542   0.909   4.300   0.780
 3881SOL    HW212543   1.063   4.302   0.834
 3882SOL     OW12544   6.649   1.364   5.548
 3882SOL    HW112545   6.718   1.354   5.476
 3882SOL    HW212546   6.592   1.444   5.528
 3883SOL     OW12547   4.049   0.668   4.736
 3883SOL    HW112548   3.964   0.721   4.743
 3883SOL    HW212549   4.116   0.705   4.800
 3884SOL     OW12550   1.738   5.747   5.683
 3884SOL    HW112551   1.758   5.653   5.654
 3884SOL    HW212552   1.806   5.775   5.751
 3885SOL     OW12553   6.701   1.007   3.637
 3885SOL    HW112554   6.752   0.921   3.635
 3885SOL    HW212555   6.669   1.025   3.730
 3886SOL     OW12556   0.133   6.799   4.941
 3886SOL    HW112557   0.232   6.807   4.930
 3886SOL    HW212558   0.093   6.891   4.941
 3887SOL     OW12559   4.535   1.832   5.726
 3887SOL    HW112560   4.594   1.912   5.735
 3887SOL    HW212561   4.592   1.750   5.719
 3888SOL     OW12562   7.006   1.704   0.752
 3888SOL    HW112563   0.007   1.739   0.661
 3888SOL    HW212564   6.908   1.688   0.757
 3889SOL     OW12565   0.688   6.255   6.507
 3889SOL    HW112566   0.782   6.221   6.512
 3889SOL    HW212567   0.626   6.177   6.493
 3890SOL     OW12568   5.917   5.056   3.046
 3890SOL    HW112569   5.916   5.155   3.059
 3890SOL    HW212570   6.012   5.024   3.047
 3891SOL     OW12571   5.303   5.114   5.032
 3891SOL    HW112572   5.326   5.194   4.977
 3891SOL    HW212573   5.328   5.130   5.127
 3892SOL     OW12574   5.521   6.927   3.008
 3892SOL    HW112575   5.497   6.915   2.911
 3892SOL    HW212576   5.494   7.019   3.037
 3893SOL     OW12577   3.300   5.548   4.397
 3893SOL    HW112578   3.303   5.640   4.435
 3893SOL    HW212579   3.348   5.547   4.309
 3894SOL     OW12580   4.565   3.516   0.025
 3894SOL    HW112581   4.612   3.588   0.075
 3894SOL    HW212582   4.516   3.457   0.089
 3895SOL     OW12583   2.603   1.732   5.839
 3895SOL    HW112584   2.513   1.742   5.881
 3895SOL    HW212585   2.611   1.795   5.761
 3896SOL     OW12586   6.562   3.175   5.368
 3896SOL    HW112587   6.611   3.252   5.407
 3896SOL    HW212588   6.477   3.161   5.419
 3897SOL     OW12589   3.603   0.051   1.811
 3897SOL    HW112590   3.554   0.029   1.895
 3897SOL    HW212591   3.558   0.007   1.733
 3898SOL     OW12592   3.996   3.856   4.013
 3898SOL    HW112593   3.960   3.827   4.102
 3898SOL    HW212594   4.075   3.800   3.989
 3899SOL     OW12595   4.752   1.664   5.671
 3899SOL    HW112596   4.722   1.670   5.575
 3899SOL    HW212597   4.752   1.569   5.700
 3900SOL     OW12598   6.445   2.457   3.158
 3900SOL    HW112599   6.353   2.495   3.155
 3900SOL    HW212600   6.498   2.491   3.080
 3901SOL     OW12601   1.574   6.973   5.417
 3901SOL    HW112602   1.656   0.007   5.421
 3901SOL    HW212603   1.493   0.008   5.420
 3902SOL     OW12604   4.068   4.850   1.236
 3902SOL    HW112605   4.142   4.850   1.169
 3902SOL    HW212606   4.091   4.789   1.311
 3903SOL     OW12607   4.549   2.843   6.688
 3903SOL    HW112608   4.509   2.790   6.763
 3903SOL    HW212609   4.561   2.783   6.608
 3904SOL     OW12610   1.222   6.381   0.403
 3904SOL    HW112611   1.172   6.431   0.474
 3904SOL    HW212612   1.184   6.289   0.394
 3905SOL     OW12613   6.877   0.301   5.695
 3905SOL    HW112614   6.968   0.279   5.660
 3905SOL    HW212615   6.884   0.379   5.758
 3906SOL     OW12616   1.881   4.767   4.123
 3906SOL    HW112617   1.825   4.764   4.040
 3906SOL    HW212618   1.958   4.704   4.114
 3907SOL     OW12619   0.008   1.077   3.831
 3907SOL    HW112620   0.007   1.067   3.731
 3907SOL    HW212621   6.937   1.080   3.865
 3908SOL     OW12622   1.086   0.451   5.089
 3908SOL    HW112623   1.160   0.518   5.083
 3908SOL    HW212624   1.107   0.373   5.029
 3909SOL     OW12625   5.618   3.017   6.388
 3909SOL    HW112626   5.520   3.019   6.369
 3909SOL    HW212627   5.642   3.093   6.448
 3910SOL     OW12628   3.734   1.397   0.092
 3910SOL    HW112629   3.820   1.405   0.143
 3910SOL    HW212630   3.670   1.339   0.143
 3911SOL     OW12631   6.894   1.061   0.974
 3911SOL    HW112632   6.994   1.058   0.975
 3911SOL    HW212633   6.860   1.106   1.057
 3912SOL     OW12634   4.166   1.640   0.533
 3912SOL    HW112635   4.115   1.726   0.521
 3912SOL    HW212636   4.262   1.662   0.553
 3913SOL     OW12637   5.149   5.267   0.691
 3913SOL    HW112638   5.233   5.213   0.682
 3913SOL    HW212639   5.144   5.306   0.783
 3914SOL     OW12640   6.046   1.605   0.543
 3914SOL    HW112641   5.994   1.572   0.621
 3914SOL    HW212642   6.073   1.700   0.558
 3915SOL     OW12643   4.407   5.431   6.690
 3915SOL    HW112644   4.391   5.499   6.618
 3915SOL    HW212645   4.328   5.428   6.751
 3916SOL     OW12646   2.059   1.849   1.707
 3916SOL    HW112647   2.085   1.830   1.802
 3916SOL    HW212648   2.012   1.769   1.669
 3917SOL     OW12649   3.095   5.210   1.377
 3917SOL    HW112650   3.011   5.201   1.431
 3917SOL    HW212651   3.170   5.238   1.437
 3918SOL     OW12652   5.245   0.984   0.816
 3918SOL    HW112653   5.273   0.888   0.816
 3918SOL    HW212654   5.320   1.042   0.786
 3919SOL     OW12655   3.388   0.507   1.893
 3919SOL    HW112656   3.488   0.508   1.897
 3919SOL    HW212657   3.356   0.417   1.864
 3920SOL     OW12658   2.954   1.275   5.592
 3920SOL    HW112659   2.954   1.305   5.687
 3920SOL    HW212660   2.926   1.179   5.587
 3921SOL     OW12661   0.385   2.784   6.085
 3921SOL    HW112662   0.482   2.803   6.074
 3921SOL    HW212663   0.332   2.864   6.056
 3922SOL     OW12664   5.594   4.360   3.128
 3922SOL    HW112665   5.654   4.437   3.108
 3922SOL    HW212666   5.553   4.326   3.043
 3923SOL     OW12667   5.857   1.172   1.324
 3923SOL    HW112668   5.797   1.092   1.313
 3923SOL    HW212669   5.946   1.152   1.283
 3924SOL     OW12670   5.589   5.014   4.551
 3924SOL    HW112671   5.642   4.930   4.539
 3924SOL    HW212672   5.563   5.050   4.461
 3925SOL     OW12673   4.717   3.709   0.733
 3925SOL    HW112674   4.656   3.665   0.798
 3925SOL    HW212675   4.796   3.747   0.781
 3926SOL     OW12676   0.592   6.636   6.388
 3926SOL    HW112677   0.540   6.553   6.408
 3926SOL    HW212678   0.545   6.715   6.427
 3927SOL     OW12679   5.806   2.846   5.134
 3927SOL    HW112680   5.775   2.934   5.170
 3927SOL    HW212681   5.729   2.781   5.133
 3928SOL     OW12682   2.451   6.015   2.571
 3928SOL    HW112683   2.480   6.075   2.645
 3928SOL    HW212684   2.352   6.022   2.559
 3929SOL     OW12685   0.496   2.314   5.282
 3929SOL    HW112686   0.559   2.240   5.305
 3929SOL    HW212687   0.534   2.369   5.208
 3930SOL     OW12688   0.479   4.043   3.656
 3930SOL    HW112689   0.470   4.131   3.610
 3930SOL    HW212690   0.552   4.047   3.724
 3931SOL     OW12691   2.086   2.303   1.477
 3931SOL    HW112692   2.024   2.327   1.402
 3931SOL    HW212693   2.174   2.348   1.464
 3932SOL     OW12694   2.297   5.393   4.116
 3932SOL    HW112695   2.271   5.444   4.034
 3932SOL    HW212696   2.396   5.378   4.115
 3933SOL     OW12697   2.188   5.448   1.014
 3933SOL    HW112698   2.167   5.422   0.919
 3933SOL    HW212699   2.286   5.461   1.024
 3934SOL     OW12700   0.465   1.400   1.122
 3934SOL    HW112701   0.370   1.412   1.151
 3934SOL    HW212702   0.468   1.351   1.035
 3935SOL     OW12703   6.377   3.595   6.532
 3935SOL    HW112704   6.377   3.661   6.456
 3935SOL    HW212705   6.443   3.523   6.513
 3936SOL     OW12706   0.722   4.778   5.254
 3936SOL    HW112707   0.650   4.844   5.278
 3936SOL    HW212708   0.755   4.798   5.161
 3937SOL     OW12709   6.793   0.138   2.150
 3937SOL    HW112710   6.745   0.207   2.204
 3937SOL    HW212711   6.876   0.109   2.198
 3938SOL     OW12712   0.515   4.176   3.037
 3938SOL    HW112713   0.565   4.091   3.049
 3938SOL    HW212714   0.478   4.206   3.125
 3939SOL     OW12715   1.473   1.064   2.133
 3939SOL    HW112716   1.536   1.141   2.120
 3939SOL    HW212717   1.453   1.053   2.230
 3940SOL     OW12718   3.608   5.393   1.798
 3940SOL    HW112719   3.676   5.330   1.835
 3940SOL    HW212720   3.650   5.448   1.726
 3941SOL     OW12721   5.236   6.630   3.179
 3941SOL    HW112722   5.293   6.694   3.232
 3941SOL    HW212723   5.185   6.571   3.242
 3942SOL     OW12724   7.010   5.851   5.902
 3942SOL    HW112725   0.026   5.824   5.814
 3942SOL    HW212726   6.979   5.770   5.951
 3943SOL     OW12727   1.439   2.743   6.782
 3943SOL    HW112728   1.447   2.843   6.785
 3943SOL    HW212729   1.494   2.708   6.706
 3944SOL     OW12730   5.848   2.529   6.922
 3944SOL    HW112731   5.902   2.452   6.885
 3944SOL    HW212732   5.910   2.600   6.955
 3945SOL     OW12733   6.358   0.224   3.563
 3945SOL    HW112734   6.325   0.313   3.595
 3945SOL    HW212735   6.426   0.189   3.626
 3946SOL     OW12736   1.010   2.976   0.526
 3946SOL    HW112737   1.048   2.887   0.499
 3946SOL    HW212738   0.970   2.969   0.617
 3947SOL     OW12739   5.533   4.661   2.362
 3947SOL    HW112740   5.602   4.645   2.291
 3947SOL    HW212741   5.446   4.685   2.319
 3948SOL     OW12742   1.013   2.702   6.274
 3948SOL    HW112743   1.032   2.800   6.266
 3948SOL    HW212744   1.099   2.653   6.289
 3949SOL     OW12745   5.663   6.900   1.999
 3949SOL    HW112746   5.726   6.903   1.922
 3949SOL    HW212747   5.707   6.857   2.078
 3950SOL     OW12748   3.052   4.493   1.614
 3950SOL    HW112749   2.994   4.508   1.694
 3950SOL    HW212750   2.999   4.449   1.541
 3951SOL     OW12751   0.695   2.689   5.343
 3951SOL    HW112752   0.787   2.725   5.353
 3951SOL    HW212753   0.698   2.589   5.340
 3952SOL     OW12754   5.827   3.686   6.102
 3952SOL    HW112755   5.808   3.783   6.113
 3952SOL    HW212756   5.810   3.638   6.188
 3953SOL     OW12757   3.354   4.006   6.364
 3953SOL    HW112758   3.435   3.968   6.319
 3953SOL    HW212759   3.370   4.101   6.389
 3954SOL     OW12760   0.314   3.181   5.274
 3954SOL    HW112761   0.377   3.210   5.202
 3954SOL    HW212762   0.348   3.096   5.315
 3955SOL     OW12763   6.707   4.758   0.174
 3955SOL    HW112764   6.654   4.843   0.167
 3955SOL    HW212765   6.700   4.722   0.267
 3956SOL     OW12766   0.953   2.776   5.444
 3956SOL    HW112767   0.989   2.686   5.422
 3956SOL    HW212768   0.971   2.839   5.368
 3957SOL     OW12769   1.131   1.263   2.657
 3957SOL    HW112770   1.140   1.164   2.670
 3957SOL    HW212771   1.055   1.282   2.596
 3958SOL     OW12772   5.628   6.618   5.609
 3958SOL    HW112773   5.700   6.602   5.677
 3958SOL    HW212774   5.660   6.684   5.541
 3959SOL     OW12775   2.295   4.832   0.577
 3959SOL    HW112776   2.311   4.775   0.658
 3959SOL    HW212777   2.328   4.925   0.594
 3960SOL     OW12778   4.341   3.361   0.619
 3960SOL    HW112779   4.354   3.401   0.710
 3960SOL    HW212780   4.420   3.382   0.561
 3961SOL     OW12781   5.646   0.773   2.400
 3961SOL    HW112782   5.722   0.773   2.336
 3961SOL    HW212783   5.671   0.722   2.482
 3962SOL     OW12784   0.573   0.154   6.450
 3962SOL    HW112785   0.593   0.166   6.547
 3962SOL    HW212786   0.483   0.113   6.439
 3963SOL     OW12787   5.187   5.869   3.382
 3963SOL    HW112788   5.229   5.896   3.295
 3963SOL    HW212789   5.132   5.787   3.368
 3964SOL     OW12790   5.666   6.351   5.400
 3964SOL    HW112791   5.666   6.342   5.499
 3964SOL    HW212792   5.754   6.389   5.369
 3965SOL     OW12793   3.822   3.422   7.004
 3965SOL    HW112794   3.744   3.464   0.028
 3965SOL    HW212795   3.880   3.494   6.965
 3966SOL     OW12796   5.690   3.495   5.053
 3966SOL    HW112797   5.612   3.433   5.051
 3966SOL    HW212798   5.685   3.552   5.135
 3967SOL     OW12799   0.787   5.616   6.261
 3967SOL    HW112800   0.881   5.634   6.232
 3967SOL    HW212801   0.778   5.519   6.283
 3968SOL     OW12802   5.901   0.412   1.651
 3968SOL    HW112803   5.832   0.484   1.653
 3968SOL    HW212804   5.921   0.383   1.745
 3969SOL     OW12805   0.272   5.541   1.468
 3969SOL    HW112806   0.333   5.462   1.462
 3969SOL    HW212807   0.187   5.521   1.418
 3970SOL     OW12808   4.842   4.885   3.291
 3970SOL    HW112809   4.756   4.920   3.330
 3970SOL    HW212810   4.881   4.816   3.353
 3971SOL     OW12811   1.619   5.171   3.663
 3971SOL    HW112812   1.701   5.216   3.628
 3971SOL    HW212813   1.641   5.077   3.689
 3972SOL     OW12814   1.628   6.808   0.234
 3972SOL    HW112815   1.529   6.796   0.231
 3972SOL    HW212816   1.661   6.791   0.327
 3973SOL     OW12817   3.013   3.252   3.868
 3973SOL    HW112818   3.098   3.264   3.817
 3973SOL    HW212819   2.936   3.285   3.812
 3974SOL     OW12820   6.291   2.018   6.541
 3974SOL    HW112821   6.250   1.971   6.463
 3974SOL    HW212822   6.358   2.085   6.508
 3975SOL     OW12823   6.617   1.275   5.834
 3975SOL    HW112824   6.624   1.357   5.892
 3975SOL    HW212825   6.644   1.298   5.740
 3976SOL     OW12826   0.921   3.613   0.047
 3976SOL    HW112827   1.014   3.638   0.076
 3976SOL    HW212828   0.864   3.695   0.042
 3977SOL     OW12829   4.094   6.293   6.840
 3977SOL    HW112830   4.097   6.193   6.842
 3977SOL    HW212831   4.011   6.325   6.885
 3978SOL     OW12832   5.938   3.477   6.519
 3978SOL    HW112833   6.010   3.482   6.588
 3978SOL    HW212834   5.886   3.562   6.518
 3979SOL     OW12835   1.068   7.022   3.448
 3979SOL    HW112836   1.091   0.041   3.536
 3979SOL    HW212837   0.975   0.026   3.422
 3980SOL     OW12838   5.599   2.785   3.873
 3980SOL    HW112839   5.617   2.690   3.901
 3980SOL    HW212840   5.525   2.786   3.806
 3981SOL     OW12841   6.920   1.922   6.495
 3981SOL    HW112842   6.965   1.835   6.477
 3981SOL    HW212843   6.990   1.995   6.498
 3982SOL     OW12844   2.619   1.800   3.701
 3982SOL    HW112845   2.650   1.777   3.793
 3982SOL    HW212846   2.676   1.751   3.634
 3983SOL     OW12847   3.091   6.292   4.191
 3983SOL    HW112848   3.046   6.208   4.220
 3983SOL    HW212849   3.024   6.366   4.183
 3984SOL     OW12850   1.682   6.555   1.942
 3984SOL    HW112851   1.731   6.595   1.864
 3984SOL    HW212852   1.653   6.628   2.004
 3985SOL     OW12853   1.817   3.054   1.498
 3985SOL    HW112854   1.791   3.150   1.509
 3985SOL    HW212855   1.846   3.017   1.586
 3986SOL     OW12856   0.744   2.492   1.985
 3986SOL    HW112857   0.651   2.458   1.972
 3986SOL    HW212858   0.809   2.435   1.934
 3987SOL     OW12859   2.553   4.783   6.900
 3987SOL    HW112860   2.498   4.793   6.983
 3987SOL    HW212861   2.641   4.742   6.922
 3988SOL     OW12862   3.872   2.814   0.620
 3988SOL    HW112863   3.868   2.718   0.591
 3988SOL    HW212864   3.957   2.855   0.588
 3989SOL     OW12865   4.584   6.747   6.617
 3989SOL    HW112866   4.611   6.745   6.713
 3989SOL    HW212867   4.594   6.840   6.582
 3990SOL     OW12868   1.088   2.852   3.669
 3990SOL    HW112869   1.072   2.948   3.648
 3990SOL    HW212870   1.056   2.832   3.761
 3991SOL     OW12871   0.357   2.131   4.288
 3991SOL    HW112872   0.316   2.042   4.270
 3991SOL    HW212873   0.408   2.161   4.207
 3992SOL     OW12874   4.198   3.432   6.528
 3992SOL    HW112875   4.238   3.515   6.488
 3992SOL    HW212876   4.238   3.351   6.484
 3993SOL     OW12877   2.578   2.361   2.628
 3993SOL    HW112878   2.560   2.422   2.704
 3993SOL    HW212879   2.666   2.314   2.643
 3994SOL     OW12880   2.383   2.555   3.709
 3994SOL    HW112881   2.371   2.647   3.671
 3994SOL    HW212882   2.294   2.509   3.713
 3995SOL     OW12883   1.899   3.775   2.440
 3995SOL    HW112884   1.915   3.840   2.515
 3995SOL    HW212885   1.954   3.693   2.455
 3996SOL     OW12886   6.136   0.344   3.195
 3996SOL    HW112887   6.217   0.289   3.215
 3996SOL    HW212888   6.143   0.432   3.243
 3997SOL     OW12889   5.502   3.592   2.669
 3997SOL    HW112890   5.533   3.639   2.751
 3997SOL    HW212891   5.457   3.507   2.693
 3998SOL     OW12892   6.253   1.898   3.108
 3998SOL    HW112893   6.260   1.804   3.074
 3998SOL    HW212894   6.345   1.935   3.122
 3999SOL     OW12895   5.526   2.937   2.483
 3999SOL    HW112896   5.494   2.891   2.401
 3999SOL    HW212897   5.573   3.022   2.458
 4000SOL     OW12898   2.899   5.759   1.886
 4000SOL    HW112899   2.842   5.763   1.968
 4000SOL    HW212900   2.994   5.781   1.910
 4001SOL     OW12901   2.329   4.254   5.229
 4001SOL    HW112902   2.409   4.313   5.219
 4001SOL    HW212903   2.352   4.161   5.200
 4002SOL     OW12904   3.538   2.982   3.940
 4002SOL    HW112905   3.489   3.069   3.938
 4002SOL    HW212906   3.522   2.936   4.028
 4003SOL     OW12907   1.676   0.529   5.212
 4003SOL    HW112908   1.708   0.507   5.120
 4003SOL    HW212909   1.710   0.619   5.239
 4004SOL     OW12910   0.280   3.917   3.509
 4004SOL    HW112911   0.351   3.931   3.578
 4004SOL    HW212912   0.191   3.913   3.554
 4005SOL     OW12913   4.587   3.870   1.231
 4005SOL    HW112914   4.506   3.844   1.180
 4005SOL    HW212915   4.563   3.883   1.327
 4006SOL     OW12916   5.145   5.151   3.292
 4006SOL    HW112917   5.102   5.076   3.240
 4006SOL    HW212918   5.146   5.127   3.389
 4007SOL     OW12919   6.943   1.318   2.567
 4007SOL    HW112920   6.965   1.396   2.625
 4007SOL    HW212921   6.975   1.336   2.474
 4008SOL     OW12922   1.931   0.363   0.983
 4008SOL    HW112923   1.862   0.300   0.948
 4008SOL    HW212924   1.909   0.456   0.953
 4009SOL     OW12925   4.068   1.996   0.804
 4009SOL    HW112926   4.108   2.053   0.732
 4009SOL    HW212927   4.115   2.013   0.891
 4010SOL     OW12928   2.600   5.160   1.350
 4010SOL    HW112929   2.698   5.167   1.367
 4010SOL    HW212930   2.579   5.199   1.261
 4011SOL     OW12931   6.348   5.969   0.553
 4011SOL    HW112932   6.395   5.949   0.467
 4011SOL    HW212933   6.343   6.068   0.566
 4012SOL     OW12934   3.718   6.803   2.296
 4012SOL    HW112935   3.769   6.792   2.381
 4012SOL    HW212936   3.764   6.752   2.223
 4013SOL     OW12937   1.225   0.763   0.360
 4013SOL    HW112938   1.228   0.718   0.271
 4013SOL    HW212939   1.275   0.850   0.355
 4014SOL     OW12940   2.673   5.372   3.868
 4014SOL    HW112941   2.698   5.407   3.778
 4014SOL    HW212942   2.726   5.290   3.889
 4015SOL     OW12943   4.475   5.073   6.305
 4015SOL    HW112944   4.414   5.140   6.348
 4015SOL    HW212945   4.551   5.053   6.367
 4016SOL     OW12946   3.913   6.107   6.047
 4016SOL    HW112947   3.931   6.098   6.144
 4016SOL    HW212948   3.957   6.031   5.997
 4017SOL     OW12949   1.211   5.486   5.780
 4017SOL    HW112950   1.152   5.529   5.848
 4017SOL    HW212951   1.211   5.387   5.793
 4018SOL     OW12952   4.162   6.027   2.110
 4018SOL    HW112953   4.168   6.116   2.064
 4018SOL    HW212954   4.078   5.981   2.081
 4019SOL     OW12955   4.865   2.974   2.662
 4019SOL    HW112956   4.839   3.068   2.684
 4019SOL    HW212957   4.963   2.963   2.673
 4020SOL     OW12958   6.860   4.494   4.961
 4020SOL    HW112959   6.876   4.396   4.961
 4020SOL    HW212960   6.806   4.519   5.042
 4021SOL     OW12961   3.433   3.759   5.747
 4021SOL    HW112962   3.362   3.827   5.729
 4021SOL    HW212963   3.398   3.668   5.723
 4022SOL     OW12964   2.481   0.560   0.778
 4022SOL    HW112965   2.436   0.473   0.757
 4022SOL    HW212966   2.542   0.547   0.856
 4023SOL     OW12967   0.147   2.691   5.652
 4023SOL    HW112968   0.061   2.736   5.676
 4023SOL    HW212969   0.151   2.678   5.553
 4024SOL     OW12970   0.813   4.838   3.722
 4024SOL    HW112971   0.778   4.776   3.652
 4024SOL    HW212972   0.824   4.788   3.808
 4025SOL     OW12973   1.275   6.138   3.751
 4025SOL    HW112974   1.320   6.049   3.764
 4025SOL    HW212975   1.190   6.126   3.700
 4026SOL     OW12976   6.854   6.079   3.973
 4026SOL    HW112977   6.804   5.992   3.964
 4026SOL    HW212978   6.951   6.061   3.986
 4027SOL     OW12979   2.349   3.235   5.987
 4027SOL    HW112980   2.378   3.152   5.939
 4027SOL    HW212981   2.429   3.283   6.023
 4028SOL     OW12982   4.846   1.708   2.383
 4028SOL    HW112983   4.820   1.635   2.446
 4028SOL    HW212984   4.850   1.795   2.432
 4029SOL     OW12985   2.804   4.313   6.718
 4029SOL    HW112986   2.776   4.355   6.632
 4029SOL    HW212987   2.904   4.313   6.725
 4030SOL     OW12988   6.709   0.848   1.832
 4030SOL    HW112989   6.764   0.827   1.913
 4030SOL    HW212990   6.687   0.763   1.784
 4031SOL     OW12991   5.506   0.198   1.525
 4031SOL    HW112992   5.495   0.102   1.500
 4031SOL    HW212993   5.603   0.219   1.533
 4032SOL     OW12994   6.075   0.056   1.472
 4032SOL    HW112995   6.013   0.106   1.412
 4032SOL    HW212996   6.097   6.990   1.432
 4033SOL     OW12997   3.211   2.180   2.393
 4033SOL    HW112998   3.121   2.222   2.380
 4033SOL    HW212999   3.230   2.117   2.318
 4034SOL     OW13000   0.241   2.730   4.869
 4034SOL    HW113001   0.221   2.753   4.964
 4034SOL    HW213002   0.155   2.726   4.817
 4035SOL     OW13003   6.169   2.394   0.888
 4035SOL    HW113004   6.097   2.392   0.958
 4035SOL    HW213005   6.258   2.380   0.931
 4036SOL     OW13006   3.378   5.702   3.724
 4036SOL    HW113007   3.403   5.699   3.627
 4036SOL    HW213008   3.460   5.687   3.780
 4037SOL     OW13009   2.148   1.106   5.665
 4037SOL    HW113010   2.131   1.204   5.652
 4037SOL    HW213011   2.078   1.067   5.725
 4038SOL     OW13012   3.759   3.742   6.317
 4038SOL    HW113013   3.802   3.690   6.391
 4038SOL    HW213014   3.824   3.755   6.242
 4039SOL     OW13015   5.215   4.744   1.799
 4039SOL    HW113016   5.305   4.787   1.794
 4039SOL    HW213017   5.144   4.814   1.789
 4040SOL     OW13018   3.707   5.496   5.480
 4040SOL    HW113019   3.752   5.474   5.393
 4040SOL    HW213020   3.777   5.513   5.550
 4041SOL     OW13021   2.190   6.687   1.868
 4041SOL    HW113022   2.191   6.782   1.839
 4041SOL    HW213023   2.214   6.628   1.791
 4042SOL     OW13024   6.079   0.206   2.886
 4042SOL    HW113025   6.153   0.202   2.819
 4042SOL    HW213026   6.114   0.240   2.973
 4043SOL     OW13027   6.202   3.541   6.966
 4043SOL    HW113028   6.118   3.568   7.014
 4043SOL    HW213029   6.219   3.443   6.982
 4044SOL     OW13030   4.111   4.715   2.997
 4044SOL    HW113031   4.138   4.621   3.018
 4044SOL    HW213032   4.140   4.776   3.070
 4045SOL     OW13033   5.066   6.910   6.267
 4045SOL    HW113034   5.032   7.004   6.261
 4045SOL    HW213035   4.991   6.846   6.250
 4046SOL     OW13036   0.633   1.150   3.189
 4046SOL    HW113037   0.534   1.136   3.184
 4046SOL    HW213038   0.658   1.229   3.134
 4047SOL     OW13039   2.386   2.861   6.692
 4047SOL    HW113040   2.421   2.893   6.781
 4047SOL    HW213041   2.440   2.902   6.619
 4048SOL     OW13042   4.812   0.926   2.146
 4048SOL    HW113043   4.883   0.897   2.210
 4048SOL    HW213044   4.854   0.950   2.059
 4049SOL     OW13045   3.580   5.791   6.739
 4049SOL    HW113046   3.517   5.869   6.748
 4049SOL    HW213047   3.674   5.823   6.750
 4050SOL     OW13048   0.493   5.986   2.525
 4050SOL    HW113049   0.529   5.893   2.536
 4050SOL    HW213050   0.443   6.013   2.607
 4051SOL     OW13051   5.367   0.962   6.136
 4051SOL    HW113052   5.418   1.046   6.119
 4051SOL    HW213053   5.334   0.961   6.230
 4052SOL     OW13054   6.761   1.634   2.844
 4052SOL    HW113055   6.747   1.599   2.937
 4052SOL    HW213056   6.841   1.590   2.804
 4053SOL     OW13057   1.318   6.161   4.770
 4053SOL    HW113058   1.391   6.205   4.718
 4053SOL    HW213059   1.231   6.206   4.748
 4054SOL     OW13060   4.672   4.143   1.226
 4054SOL    HW113061   4.739   4.172   1.294
 4054SOL    HW213062   4.636   4.054   1.250
 4055SOL     OW13063   1.573   3.913   2.169
 4055SOL    HW113064   1.620   3.867   2.094
 4055SOL    HW213065   1.482   3.942   2.138
 4056SOL     OW13066   5.531   3.464   1.018
 4056SOL    HW113067   5.493   3.470   1.111
 4056SOL    HW213068   5.621   3.508   1.017
 4057SOL     OW13069   6.518   3.259   6.775
 4057SOL    HW113070   6.428   3.256   6.732
 4057SOL    HW213071   6.548   3.166   6.798
 4058SOL     OW13072   2.599   5.809   5.089
 4058SOL    HW113073   2.558   5.783   5.177
 4058SOL    HW213074   2.623   5.726   5.038
 4059SOL     OW13075   0.985   2.549   3.994
 4059SOL    HW113076   1.003   2.538   4.092
 4059SOL    HW213077   0.921   2.479   3.964
 4060SOL     OW13078   6.297   5.835   4.626
 4060SOL    HW113079   6.336   5.786   4.704
 4060SOL    HW213080   6.256   5.769   4.562
 4061SOL     OW13081   2.485   5.101   1.878
 4061SOL    HW113082   2.502   5.071   1.972
 4061SOL    HW213083   2.551   5.173   1.854
 4062SOL     OW13084   2.235   1.401   1.705
 4062SOL    HW113085   2.292   1.354   1.772
 4062SOL    HW213086   2.157   1.443   1.752
 4063SOL     OW13087   5.849   6.786   1.325
 4063SOL    HW113088   5.781   6.717   1.301
 4063SOL    HW213089   5.810   6.877   1.310
 4064SOL     OW13090   2.051   1.917   4.790
 4064SOL    HW113091   2.004   1.935   4.876
 4064SOL    HW213092   2.011   1.836   4.746
 4065SOL     OW13093   1.581   6.873   6.979
 4065SOL    HW113094   1.611   6.837   0.045
 4065SOL    HW213095   1.568   6.797   6.915
 4066SOL     OW13096   6.444   3.736   2.627
 4066SOL    HW113097   6.394   3.801   2.683
 4066SOL    HW213098   6.504   3.681   2.685
 4067SOL     OW13099   6.096   3.975   2.647
 4067SOL    HW113100   6.131   4.011   2.733
 4067SOL    HW213101   5.996   3.979   2.647
 4068SOL     OW13102   1.725   2.638   4.350
 4068SOL    HW113103   1.813   2.610   4.389
 4068SOL    HW213104   1.664   2.668   4.423
 4069SOL     OW13105   3.634   6.264   6.739
 4069SOL    HW113106   3.575   6.344   6.732
 4069SOL    HW213107   3.577   6.181   6.741
 4070SOL     OW13108   1.008   2.984   2.920
 4070SOL    HW113109   1.009   3.014   2.824
 4070SOL    HW213110   1.021   3.063   2.980
 4071SOL     OW13111   1.565   0.431   4.148
 4071SOL    HW113112   1.543   0.491   4.071
 4071SOL    HW213113   1.630   0.361   4.118
 4072SOL     OW13114   1.404   5.244   4.495
 4072SOL    HW113115   1.402   5.299   4.579
 4072SOL    HW213116   1.492   5.197   4.488
 4073SOL     OW13117   2.160   5.385   0.032
 4073SOL    HW113118   2.215   5.387   6.971
 4073SOL    HW213119   2.163   5.293   0.072
 4074SOL     OW13120   1.470   4.755   1.290
 4074SOL    HW113121   1.478   4.805   1.203
 4074SOL    HW213122   1.465   4.657   1.272
 4075SOL     OW13123   5.115   1.419   0.675
 4075SOL    HW113124   5.034   1.470   0.702
 4075SOL    HW213125   5.088   1.335   0.626
 4076SOL     OW13126   3.395   3.395   5.348
 4076SOL    HW113127   3.317   3.333   5.354
 4076SOL    HW213128   3.393   3.444   5.261
 4077SOL     OW13129   4.585   1.291   1.268
 4077SOL    HW113130   4.629   1.380   1.281
 4077SOL    HW213131   4.583   1.269   1.171
 4078SOL     OW13132   3.038   4.848   2.393
 4078SOL    HW113133   3.006   4.801   2.311
 4078SOL    HW213134   3.123   4.897   2.372
 4079SOL     OW13135   1.634   1.671   4.150
 4079SOL    HW113136   1.629   1.739   4.223
 4079SOL    HW213137   1.616   1.580   4.187
 4080SOL     OW13138   4.900   2.215   5.023
 4080SOL    HW113139   4.821   2.248   4.972
 4080SOL    HW213140   4.952   2.293   5.059
 4081SOL     OW13141   1.917   2.814   4.219
 4081SOL    HW113142   1.974   2.863   4.286
 4081SOL    HW213143   1.836   2.778   4.266
 4082SOL     OW13144   1.138   3.119   0.807
 4082SOL    HW113145   1.040   3.108   0.824
 4082SOL    HW213146   1.180   3.029   0.795
 4083SOL     OW13147   6.031   2.730   3.386
 4083SOL    HW113148   5.975   2.648   3.391
 4083SOL    HW213149   5.983   2.806   3.431
 4084SOL     OW13150   6.327   1.879   4.014
 4084SOL    HW113151   6.362   1.921   3.930
 4084SOL    HW213152   6.237   1.916   4.034
 4085SOL     OW13153   4.142   6.105   0.931
 4085SOL    HW113154   4.059   6.066   0.891
 4085SOL    HW213155   4.121   6.195   0.968
 4086SOL     OW13156   2.028   5.660   1.419
 4086SOL    HW113157   2.119   5.692   1.444
 4086SOL    HW213158   1.999   5.587   1.482
 4087SOL     OW13159   2.541   2.464   3.180
 4087SOL    HW113160   2.567   2.441   3.274
 4087SOL    HW213161   2.473   2.537   3.181
 4088SOL     OW13162   6.783   1.906   0.956
 4088SOL    HW113163   6.766   1.857   1.041
 4088SOL    HW213164   6.835   1.847   0.893
 4089SOL     OW13165   0.370   6.530   3.342
 4089SOL    HW113166   0.357   6.597   3.269
 4089SOL    HW213167   0.464   6.535   3.376
 4090SOL     OW13168   2.901   4.175   5.921
 4090SOL    HW113169   2.898   4.159   5.823
 4090SOL    HW213170   2.877   4.091   5.970
 4091SOL     OW13171   5.880   6.442   6.886
 4091SOL    HW113172   5.925   6.447   6.975
 4091SOL    HW213173   5.781   6.441   6.899
 4092SOL     OW13174   0.090   2.672   5.396
 4092SOL    HW113175   7.018   2.675   5.366
 4092SOL    HW213176   0.132   2.586   5.366
 4093SOL     OW13177   4.648   0.343   3.944
 4093SOL    HW113178   4.555   0.322   3.914
 4093SOL    HW213179   4.714   0.310   3.876
 4094SOL     OW13180   2.194   4.957   5.164
 4094SOL    HW113181   2.095   4.972   5.162
 4094SOL    HW213182   2.223   4.915   5.077
 4095SOL     OW13183   0.789   3.963   6.053
 4095SOL    HW113184   0.810   3.871   6.087
 4095SOL    HW213185   0.745   4.016   6.126
 4096SOL     OW13186   4.514   5.517   0.821
 4096SOL    HW113187   4.593   5.575   0.802
 4096SOL    HW213188   4.512   5.496   0.919
 4097SOL     OW13189   3.139   4.287   6.064
 4097SOL    HW113190   3.047   4.267   6.029
 4097SOL    HW213191   3.202   4.214   6.037
 4098SOL     OW13192   0.247   2.880   2.440
 4098SOL    HW113193   0.179   2.914   2.505
 4098SOL    HW213194   0.328   2.939   2.443
 4099SOL     OW13195   2.867   5.205   1.503
 4099SOL    HW113196   2.847   5.300   1.527
 4099SOL    HW213197   2.864   5.149   1.586
 4100SOL     OW13198   5.532   5.660   3.906
 4100SOL    HW113199   5.564   5.745   3.948
 4100SOL    HW213200   5.466   5.681   3.834
 4101SOL     OW13201   5.616   0.634   0.001
 4101SOL    HW113202   5.612   0.549   6.971
 4101SOL    HW213203   5.627   0.712   6.961
 4102SOL     OW13204   6.463   0.580   1.272
 4102SOL    HW113205   6.453   0.656   1.336
 4102SOL    HW213206   6.521   0.609   1.195
 4103SOL     OW13207   0.758   0.944   1.995
 4103SOL    HW113208   0.680   0.996   2.030
 4103SOL    HW213209   0.842   0.977   2.038
 4104SOL     OW13210   1.452   4.697   2.594
 4104SOL    HW113211   1.523   4.760   2.624
 4104SOL    HW213212   1.417   4.645   2.673
 4105SOL     OW13213   4.179   5.688   1.444
 4105SOL    HW113214   4.086   5.725   1.444
 4105SOL    HW213215   4.235   5.739   1.377
 4106SOL     OW13216   0.571   3.512   4.680
 4106SOL    HW113217   0.479   3.499   4.716
 4106SOL    HW213218   0.621   3.576   4.738
 4107SOL     OW13219   0.886   6.367   0.937
 4107SOL    HW113220   0.898   6.418   1.022
 4107SOL    HW213221   0.941   6.283   0.940
 4108SOL     OW13222   0.018   4.946   5.930
 4108SOL    HW113223   6.973   4.999   5.982
 4108SOL    HW213224   0.044   4.865   5.983
 4109SOL     OW13225   4.495   6.539   4.598
 4109SOL    HW113226   4.535   6.629   4.617
 4109SOL    HW213227   4.417   6.523   4.658
 4110SOL     OW13228   4.122   3.947   6.986
 4110SOL    HW113229   4.056   3.914   6.918
 4110SOL    HW213230   4.208   3.969   6.940
 4111SOL     OW13231   3.384   3.056   0.222
 4111SOL    HW113232   3.333   2.977   0.188
 4111SOL    HW213233   3.362   3.070   0.318
 4112SOL     OW13234   5.323   1.644   5.329
 4112SOL    HW113235   5.376   1.586   5.392
 4112SOL    HW213236   5.233   1.660   5.368
 4113SOL     OW13237   3.987   6.085   4.729
 4113SOL    HW113238   3.903   6.042   4.695
 4113SOL    HW213239   4.038   6.019   4.785
 4114SOL     OW13240   3.293   2.071   3.688
 4114SOL    HW113241   3.383   2.090   3.650
 4114SOL    HW213242   3.302   2.012   3.768
 4115SOL     OW13243   5.268   6.095   2.466
 4115SOL    HW113244   5.182   6.145   2.478
 4115SOL    HW213245   5.326   6.109   2.546
 4116SOL     OW13246   4.103   2.057   1.525
 4116SOL    HW113247   4.181   2.000   1.498
 4116SOL    HW213248   4.126   2.154   1.513
 4117SOL     OW13249   0.394   4.974   1.571
 4117SOL    HW113250   0.447   5.043   1.522
 4117SOL    HW213251   0.318   5.018   1.619
 4118SOL     OW13252   1.468   6.483   1.138
 4118SOL    HW113253   1.395   6.415   1.137
 4118SOL    HW213254   1.549   6.446   1.093
 4119SOL     OW13255   4.239   1.228   4.141
 4119SOL    HW113256   4.279   1.307   4.186
 4119SOL    HW213257   4.272   1.223   4.046
 4120SOL     OW13258   4.783   6.292   1.746
 4120SOL    HW113259   4.835   6.240   1.678
 4120SOL    HW213260   4.773   6.237   1.829
 4121SOL     OW13261   6.243   1.863   4.783
 4121SOL    HW113262   6.230   1.941   4.721
 4121SOL    HW213263   6.294   1.791   4.735
 4122SOL     OW13264   0.803   6.372   5.300
 4122SOL    HW113265   0.852   6.360   5.386
 4122SOL    HW213266   0.766   6.284   5.269
 4123SOL     OW13267   5.536   4.813   5.763
 4123SOL    HW113268   5.577   4.903   5.750
 4123SOL    HW213269   5.486   4.811   5.849
 4124SOL     OW13270   6.070   5.596   5.319
 4124SOL    HW113271   6.092   5.581   5.222
 4124SOL    HW213272   5.972   5.580   5.334
 4125SOL     OW13273   5.175   0.424   1.343
 4125SOL    HW113274   5.227   0.462   1.267
 4125SOL    HW213275   5.093   0.479   1.360
 4126SOL     OW13276   1.103   4.138   4.056
 4126SOL    HW113277   1.132   4.203   3.986
 4126SOL    HW213278   1.140   4.047   4.035
 4127SOL     OW13279   5.417   3.750   4.158
 4127SOL    HW113280   5.472   3.667   4.153
 4127SOL    HW213281   5.321   3.725   4.171
 4128SOL     OW13282   1.865   4.153   2.391
 4128SOL    HW113283   1.962   4.131   2.402
 4128SOL    HW213284   1.811   4.069   2.400
 4129SOL     OW13285   5.384   1.955   6.260
 4129SOL    HW113286   5.301   2.012   6.263
 4129SOL    HW213287   5.382   1.890   6.335
 4130SOL     OW13288   6.854   3.285   5.864
 4130SOL    HW113289   6.910   3.295   5.782
 4130SOL    HW213290   6.761   3.315   5.846
 4131SOL     OW13291   1.139   5.708   3.910
 4131SOL    HW113292   1.145   5.618   3.955
 4131SOL    HW213293   1.211   5.767   3.944
 4132SOL     OW13294   6.059   3.848   4.242
 4132SOL    HW113295   5.973   3.842   4.292
 4132SOL    HW213296   6.058   3.782   4.167
 4133SOL     OW13297   3.231   6.863   1.200
 4133SOL    HW113298   3.171   6.943   1.203
 4133SOL    HW213299   3.217   6.813   1.115
 4134SOL     OW13300   1.442   2.118   0.278
 4134SOL    HW113301   1.404   2.199   0.234
 4134SOL    HW213302   1.381   2.086   0.350
 4135SOL     OW13303   2.046   0.979   2.104
 4135SOL    HW113304   2.093   1.049   2.157
 4135SOL    HW213305   2.058   0.997   2.006
 4136SOL     OW13306   0.489   2.262   4.071
 4136SOL    HW113307   0.564   2.328   4.078
 4136SOL    HW213308   0.511   2.195   4.000
 4137SOL     OW13309   2.460   3.806   0.681
 4137SOL    HW113310   2.455   3.709   0.655
 4137SOL    HW213311   2.377   3.853   0.651
 4138SOL     OW13312   3.460   4.914   3.880
 4138SOL    HW113313   3.559   4.909   3.869
 4138SOL    HW213314   3.436   5.000   3.926
 4139SOL     OW13315   2.343   2.269   5.971
 4139SOL    HW113316   2.265   2.220   5.932
 4139SOL    HW213317   2.371   2.225   6.056
 4140SOL     OW13318   3.524   0.217   5.219
 4140SOL    HW113319   3.540   0.215   5.120
 4140SOL    HW213320   3.432   0.250   5.237
 4141SOL     OW13321   4.981   5.197   1.351
 4141SOL    HW113322   5.012   5.122   1.409
 4141SOL    HW213323   5.061   5.245   1.314
 4142SOL     OW13324   6.777   5.709   1.131
 4142SOL    HW113325   6.816   5.623   1.099
 4142SOL    HW213326   6.693   5.691   1.182
 4143SOL     OW13327   0.040   3.497   0.619
 4143SOL    HW113328   0.055   3.508   0.521
 4143SOL    HW213329   0.126   3.477   0.665
 4144SOL     OW13330   5.602   2.463   0.990
 4144SOL    HW113331   5.539   2.442   0.915
 4144SOL    HW213332   5.670   2.530   0.958
 4145SOL     OW13333   6.736   6.097   1.854
 4145SOL    HW113334   6.712   6.011   1.810
 4145SOL    HW213335   6.719   6.091   1.952
 4146SOL     OW13336   6.022   0.586   5.988
 4146SOL    HW113337   6.113   0.588   6.029
 4146SOL    HW213338   6.024   0.635   5.901
 4147SOL     OW13339   3.480   1.934   5.378
 4147SOL    HW113340   3.542   1.858   5.397
 4147SOL    HW213341   3.531   2.020   5.378
 4148SOL     OW13342   0.420   0.119   3.942
 4148SOL    HW113343   0.413   0.072   4.030
 4148SOL    HW213344   0.517   0.128   3.917
 4149SOL     OW13345   0.620   3.479   6.855
 4149SOL    HW113346   0.550   3.427   6.905
 4149SOL    HW213347   0.711   3.451   6.886
 4150SOL     OW13348   5.442   0.651   6.157
 4150SOL    HW113349   5.356   0.656   6.207
 4150SOL    HW213350   5.470   0.744   6.130
 4151SOL     OW13351   5.429   5.922   0.271
 4151SOL    HW113352   5.479   5.848   0.226
 4151SOL    HW213353   5.455   5.927   0.367
 4152SOL     OW13354   3.174   4.994   2.141
 4152SOL    HW113355   3.149   4.992   2.045
 4152SOL    HW213356   3.273   4.997   2.150
 4153SOL     OW13357   5.242   5.613   5.680
 4153SOL    HW113358   5.175   5.554   5.725
 4153SOL    HW213359   5.329   5.610   5.729
 4154SOL     OW13360   6.579   3.886   5.269
 4154SOL    HW113361   6.520   3.920   5.342
 4154SOL    HW213362   6.599   3.961   5.205
 4155SOL     OW13363   0.048   3.316   3.240
 4155SOL    HW113364   0.043   3.223   3.202
 4155SOL    HW213365   0.092   3.377   3.174
 4156SOL     OW13366   5.474   0.097   5.031
 4156SOL    HW113367   5.561   0.064   5.067
 4156SOL    HW213368   5.450   0.044   4.950
 4157SOL     OW13369   3.550   0.196   3.735
 4157SOL    HW113370   3.517   0.214   3.643
 4157SOL    HW213371   3.523   0.104   3.763
 4158SOL     OW13372   1.236   5.022   4.131
 4158SOL    HW113373   1.336   5.017   4.137
 4158SOL    HW213374   1.202   5.078   4.207
 4159SOL     OW13375   1.820   3.223   3.765
 4159SOL    HW113376   1.757   3.152   3.734
 4159SOL    HW213377   1.782   3.313   3.742
 4160SOL     OW13378   6.141   0.495   1.054
 4160SOL    HW113379   6.157   0.521   1.149
 4160SOL    HW213380   6.076   0.559   1.013
 4161SOL     OW13381   2.343   0.442   6.536
 4161SOL    HW113382   2.245   0.452   6.554
 4161SOL    HW213383   2.380   0.366   6.589
 4162SOL     OW13384   5.914   0.539   4.819
 4162SOL    HW113385   5.924   0.442   4.844
 4162SOL    HW213386   5.913   0.594   4.902
 4163SOL     OW13387   5.965   1.658   3.126
 4163SOL    HW113388   5.975   1.648   3.225
 4163SOL    HW213389   6.052   1.636   3.081
 4164SOL     OW13390   1.677   0.228   6.815
 4164SOL    HW113391   1.767   0.241   6.855
 4164SOL    HW213392   1.657   0.303   6.752
 4165SOL     OW13393   4.415   6.447   1.276
 4165SOL    HW113394   4.393   6.482   1.367
 4165SOL    HW213395   4.337   6.458   1.215
 4166SOL     OW13396   4.179   2.338   1.547
 4166SOL    HW113397   4.154   2.344   1.450
 4166SOL    HW213398   4.279   2.334   1.555
 4167SOL     OW13399   2.389   2.792   0.879
 4167SOL    HW113400   2.372   2.750   0.967
 4167SOL    HW213401   2.476   2.842   0.882
 4168SOL     OW13402   6.984   4.784   1.008
 4168SOL    HW113403   7.001   4.882   0.999
 4168SOL    HW213404   0.024   4.734   0.948
 4169SOL     OW13405   5.346   4.021   4.534
 4169SOL    HW113406   5.290   4.087   4.583
 4169SOL    HW213407   5.406   3.973   4.599
 4170SOL     OW13408   4.035   2.789   5.616
 4170SOL    HW113409   3.995   2.732   5.545
 4170SOL    HW213410   3.996   2.881   5.611
 4171SOL     OW13411   5.122   4.123   0.953
 4171SOL    HW113412   5.183   4.045   0.967
 4171SOL    HW213413   5.030   4.100   0.983
 4172SOL     OW13414   0.170   2.441   6.791
 4172SOL    HW113415   0.184   2.404   6.699
 4172SOL    HW213416   0.246   2.416   6.850
 4173SOL     OW13417   5.373   3.143   5.241
 4173SOL    HW113418   5.360   3.201   5.161
 4173SOL    HW213419   5.285   3.102   5.267
 4174SOL     OW13420   4.912   1.106   4.316
 4174SOL    HW113421   4.897   1.016   4.356
 4174SOL    HW213422   5.011   1.122   4.306
 4175SOL     OW13423   3.025   6.918   4.289
 4175SOL    HW113424   3.023   6.869   4.202
 4175SOL    HW213425   3.120   6.934   4.316
 4176SOL     OW13426   4.105   0.075   2.267
 4176SOL    HW113427   4.012   0.096   2.235
 4176SOL    HW213428   4.105   0.064   2.366
 4177SOL     OW13429   0.338   4.896   4.942
 4177SOL    HW113430   0.310   4.922   5.034
 4177SOL    HW213431   0.307   4.965   4.877
 4178SOL     OW13432   3.511   1.086   5.498
 4178SOL    HW113433   3.570   1.065   5.419
 4178SOL    HW213434   3.526   1.017   5.569
 4179SOL     OW13435   6.066   3.045   4.297
 4179SOL    HW113436   6.127   2.992   4.356
 4179SOL    HW213437   6.033   2.988   4.223
 4180SOL     OW13438   5.567   4.247   2.156
 4180SOL    HW113439   5.478   4.221   2.193
 4180SOL    HW213440   5.610   4.314   2.216
 4181SOL     OW13441   1.433   2.279   5.976
 4181SOL    HW113442   1.528   2.266   6.004
 4181SOL    HW213443   1.385   2.333   6.045
 4182SOL     OW13444   0.278   0.450   2.635
 4182SOL    HW113445   0.185   0.446   2.671
 4182SOL    HW213446   0.289   0.382   2.562
 4183SOL     OW13447   2.478   1.901   1.374
 4183SOL    HW113448   2.393   1.887   1.425
 4183SOL    HW213449   2.478   1.842   1.293
 4184SOL     OW13450   3.846   5.336   1.259
 4184SOL    HW113451   3.887   5.426   1.247
 4184SOL    HW213452   3.857   5.306   1.354
 4185SOL     OW13453   0.833   5.647   3.575
 4185SOL    HW113454   0.811   5.735   3.534
 4185SOL    HW213455   0.918   5.611   3.536
 4186SOL     OW13456   2.029   4.105   6.936
 4186SOL    HW113457   2.040   4.020   6.885
 4186SOL    HW213458   1.962   4.163   6.889
 4187SOL     OW13459   3.481   3.349   5.648
 4187SOL    HW113460   3.485   3.255   5.682
 4187SOL    HW213461   3.468   3.348   5.549
 4188SOL     OW13462   4.534   0.827   4.615
 4188SOL    HW113463   4.600   0.902   4.606
 4188SOL    HW213464   4.575   0.752   4.667
 4189SOL     OW13465   3.005   1.705   4.169
 4189SOL    HW113466   2.959   1.786   4.204
 4189SOL    HW213467   2.938   1.633   4.151
 4190SOL     OW13468   2.632   0.209   6.274
 4190SOL    HW113469   2.594   0.169   6.357
 4190SOL    HW213470   2.650   0.307   6.289
 4191SOL     OW13471   5.763   3.073   2.836
 4191SOL    HW113472   5.697   3.011   2.795
 4191SOL    HW213473   5.837   3.020   2.878
 4192SOL     OW13474   6.220   1.598   3.036
 4192SOL    HW113475   6.214   1.499   3.047
 4192SOL    HW213476   6.308   1.631   3.070
 4193SOL     OW13477   2.328   6.537   2.084
 4193SOL    HW113478   2.300   6.575   1.996
 4193SOL    HW213479   2.263   6.466   2.111
 4194SOL     OW13480   6.620   1.986   4.536
 4194SOL    HW113481   6.711   2.028   4.532
 4194SOL    HW213482   6.586   1.990   4.630
 4195SOL     OW13483   4.015   0.560   1.349
 4195SOL    HW113484   4.003   0.462   1.364
 4195SOL    HW213485   3.945   0.610   1.400
 4196SOL     OW13486   5.793   2.560   4.150
 4196SOL    HW113487   5.885   2.583   4.120
 4196SOL    HW213488   5.743   2.643   4.175
 4197SOL     OW13489   5.479   4.576   4.317
 4197SOL    HW113490   5.517   4.658   4.359
 4197SOL    HW213491   5.452   4.511   4.389
 4198SOL     OW13492   6.028   3.699   0.108
 4198SOL    HW113493   5.964   3.658   0.173
 4198SOL    HW213494   6.108   3.732   0.157
 4199SOL     OW13495   3.073   3.031   5.210
 4199SOL    HW113496   2.975   3.035   5.193
 4199SOL    HW213497   3.121   3.023   5.122
 4200SOL     OW13498   2.217   6.635   6.108
 4200SOL    HW113499   2.265   6.722   6.105
 4200SOL    HW213500   2.252   6.575   6.036
 4201SOL     OW13501   6.346   6.452   3.226
 4201SOL    HW113502   6.428   6.508   3.243
 4201SOL    HW213503   6.373   6.363   3.189
 4202SOL     OW13504   4.972   4.780   5.577
 4202SOL    HW113505   4.873   4.785   5.571
 4202SOL    HW213506   5.010   4.769   5.485
 4203SOL     OW13507   4.842   6.255   2.796
 4203SOL    HW113508   4.799   6.327   2.742
 4203SOL    HW213509   4.894   6.295   2.871
 4204SOL     OW13510   3.239   2.801   2.015
 4204SOL    HW113511   3.155   2.848   2.042
 4204SOL    HW213512   3.224   2.702   2.018
 4205SOL     OW13513   3.377   4.911   4.250
 4205SOL    HW113514   3.426   4.828   4.222
 4205SOL    HW213515   3.381   4.979   4.177
 4206SOL     OW13516   4.596   0.595   5.637
 4206SOL    HW113517   4.661   0.520   5.651
 4206SOL    HW213518   4.503   0.560   5.647
 4207SOL     OW13519   1.968   1.318   2.001
 4207SOL    HW113520   1.991   1.389   1.934
 4207SOL    HW213521   1.940   1.234   1.953
 4208SOL     OW13522   1.863   2.660   1.165
 4208SOL    HW113523   1.786   2.652   1.229
 4208SOL    HW213524   1.830   2.652   1.071
 4209SOL     OW13525   1.197   0.253   4.960
 4209SOL    HW113526   1.279   0.267   5.015
 4209SOL    HW213527   1.221   0.213   4.872
 4210SOL     OW13528   3.763   3.671   1.697
 4210SOL    HW113529   3.858   3.667   1.664
 4210SOL    HW213530   3.728   3.578   1.710
 4211SOL     OW13531   4.808   4.879   5.198
 4211SOL    HW113532   4.808   4.875   5.098
 4211SOL    HW213533   4.804   4.786   5.235
 4212SOL     OW13534   6.507   1.482   2.568
 4212SOL    HW113535   6.419   1.449   2.605
 4212SOL    HW213536   6.520   1.578   2.594
 4213SOL     OW13537   2.134   1.031   1.829
 4213SOL    HW113538   2.214   1.087   1.806
 4213SOL    HW213539   2.157   0.934   1.820
 4214SOL     OW13540   1.084   3.435   6.074
 4214SOL    HW113541   1.046   3.345   6.094
 4214SOL    HW213542   1.173   3.426   6.030
 4215SOL     OW13543   0.878   5.531   4.380
 4215SOL    HW113544   0.942   5.603   4.351
 4215SOL    HW213545   0.812   5.514   4.306
 4216SOL     OW13546   1.047   1.961   3.803
 4216SOL    HW113547   1.112   1.889   3.779
 4216SOL    HW213548   1.016   1.948   3.897
 4217SOL     OW13549   0.246   6.953   2.438
 4217SOL    HW113550   0.212   6.908   2.520
 4217SOL    HW213551   0.214   6.902   2.357
 4218SOL     OW13552   4.819   0.376   1.620
 4218SOL    HW113553   4.865   0.333   1.542
 4218SOL    HW213554   4.751   0.313   1.657
 4219SOL     OW13555   3.538   4.939   5.376
 4219SOL    HW113556   3.484   4.879   5.317
 4219SOL    HW213557   3.574   5.016   5.322
 4220SOL     OW13558   6.389   3.594   3.336
 4220SOL    HW113559   6.415   3.595   3.433
 4220SOL    HW213560   6.293   3.618   3.327
 4221SOL     OW13561   5.481   5.796   6.322
 4221SOL    HW113562   5.399   5.838   6.361
 4221SOL    HW213563   5.525   5.738   6.390
 4222SOL     OW13564   5.930   2.308   1.802
 4222SOL    HW113565   6.020   2.350   1.809
 4222SOL    HW213566   5.902   2.272   1.891
 4223SOL     OW13567   3.506   3.749   2.602
 4223SOL    HW113568   3.560   3.709   2.676
 4223SOL    HW213569   3.479   3.678   2.537
 4224SOL     OW13570   4.641   2.644   4.792
 4224SOL    HW113571   4.673   2.674   4.881
 4224SOL    HW213572   4.575   2.569   4.803
 4225SOL     OW13573   5.761   0.785   4.731
 4225SOL    HW113574   5.841   0.776   4.789
 4225SOL    HW213575   5.731   0.695   4.700
 4226SOL     OW13576   1.163   0.994   3.673
 4226SOL    HW113577   1.155   1.089   3.705
 4226SOL    HW213578   1.097   0.937   3.721
 4227SOL     OW13579   4.184   4.881   0.314
 4227SOL    HW113580   4.203   4.938   0.394
 4227SOL    HW213581   4.164   4.787   0.344
 4228SOL     OW13582   5.745   6.345   3.904
 4228SOL    HW113583   5.684   6.382   3.834
 4228SOL    HW213584   5.783   6.419   3.959
 4229SOL     OW13585   4.157   4.668   6.587
 4229SOL    HW113586   4.083   4.722   6.626
 4229SOL    HW213587   4.245   4.704   6.617
 4230SOL     OW13588   2.780   0.093   5.061
 4230SOL    HW113589   2.749   0.113   4.968
 4230SOL    HW213590   2.874   0.057   5.058
 4231SOL     OW13591   5.205   6.353   5.124
 4231SOL    HW113592   5.174   6.391   5.211
 4231SOL    HW213593   5.287   6.401   5.094
 4232SOL     OW13594   0.975   5.352   1.790
 4232SOL    HW113595   0.970   5.432   1.730
 4232SOL    HW213596   1.052   5.295   1.764
 4233SOL     OW13597   5.950   0.356   6.587
 4233SOL    HW113598   5.975   0.310   6.501
 4233SOL    HW213599   5.945   0.289   6.660
 4234SOL     OW13600   2.988   5.174   6.123
 4234SOL    HW113601   2.903   5.140   6.162
 4234SOL    HW213602   3.012   5.120   6.042
 4235SOL     OW13603   6.357   4.700   5.891
 4235SOL    HW113604   6.419   4.687   5.968
 4235SOL    HW213605   6.346   4.614   5.842
 4236SOL     OW13606   0.555   2.742   3.574
 4236SOL    HW113607   0.607   2.806   3.632
 4236SOL    HW213608   0.530   2.661   3.627
 4237SOL     OW13609   5.109   3.765   4.478
 4237SOL    HW113610   5.164   3.685   4.501
 4237SOL    HW213611   5.122   3.836   4.547
 4238SOL     OW13612   3.711   5.397   3.850
 4238SOL    HW113613   3.726   5.339   3.930
 4238SOL    HW213614   3.780   5.469   3.848
 4239SOL     OW13615   4.773   6.407   5.115
 4239SOL    HW113616   4.852   6.430   5.058
 4239SOL    HW213617   4.755   6.481   5.179
 4240SOL     OW13618   2.891   4.921   0.023
 4240SOL    HW113619   2.957   4.964   6.985
 4240SOL    HW213620   2.893   4.968   0.112
 4241SOL     OW13621   5.295   0.162   1.219
 4241SOL    HW113622   5.343   0.190   1.135
 4241SOL    HW213623   5.208   0.211   1.225
 4242SOL     OW13624   2.434   6.775   2.732
 4242SOL    HW113625   2.353   6.732   2.773
 4242SOL    HW213626   2.461   6.725   2.650
 4243SOL     OW13627   0.945   3.646   1.995
 4243SOL    HW113628   1.042   3.629   2.013
 4243SOL    HW213629   0.936   3.707   1.916
 4244SOL     OW13630   4.803   6.052   1.412
 4244SOL    HW113631   4.820   6.032   1.316
 4244SOL    HW213632   4.710   6.086   1.424
 4245SOL     OW13633   6.696   3.084   0.186
 4245SOL    HW113634   6.748   3.169   0.191
 4245SOL    HW213635   6.750   3.009   0.224
 4246SOL     OW13636   5.072   2.211   2.699
 4246SOL    HW113637   4.993   2.199   2.760
 4246SOL    HW213638   5.043   2.197   2.604
 4247SOL     OW13639   2.279   5.071   4.678
 4247SOL    HW113640   2.377   5.053   4.693
 4247SOL    HW213641   2.225   5.003   4.727
 4248SOL     OW13642   1.863   0.721   2.327
 4248SOL    HW113643   1.864   0.813   2.287
 4248SOL    HW213644   1.819   0.725   2.417
 4249SOL     OW13645   0.265   1.391   4.504
 4249SOL    HW113646   0.196   1.403   4.433
 4249SOL    HW213647   0.293   1.480   4.539
 4250SOL     OW13648   0.284   5.879   4.341
 4250SOL    HW113649   0.295   5.861   4.438
 4250SOL    HW213650   0.214   5.950   4.328
 4251SOL     OW13651   5.969   2.558   6.612
 4251SOL    HW113652   5.876   2.538   6.584
 4251SOL    HW213653   6.006   2.631   6.554
 4252SOL     OW13654   6.161   6.403   5.396
 4252SOL    HW113655   6.202   6.494   5.393
 4252SOL    HW213656   6.160   6.370   5.490
 4253SOL     OW13657   4.165   6.224   2.294
 4253SOL    HW113658   4.078   6.260   2.327
 4253SOL    HW213659   4.153   6.131   2.262
 4254SOL     OW13660   2.304   3.208   6.892
 4254SOL    HW113661   2.320   3.307   6.892
 4254SOL    HW213662   2.391   3.160   6.887
 4255SOL     OW13663   0.854   4.170   2.904
 4255SOL    HW113664   0.892   4.123   2.824
 4255SOL    HW213665   0.781   4.232   2.875
 4256SOL     OW13666   0.651   4.736   1.674
 4256SOL    HW113667   0.718   4.770   1.740
 4256SOL    HW213668   0.565   4.786   1.685
 4257SOL     OW13669   6.204   1.172   5.191
 4257SOL    HW113670   6.301   1.181   5.212
 4257SOL    HW213671   6.154   1.146   5.274
 4258SOL     OW13672   3.586   5.593   0.773
 4258SOL    HW113673   3.639   5.560   0.695
 4258SOL    HW213674   3.529   5.671   0.744
 4259SOL     OW13675   1.389   6.584   1.693
 4259SOL    HW113676   1.394   6.512   1.624
 4259SOL    HW213677   1.393   6.673   1.649
 4260SOL     OW13678   5.080   6.699   4.848
 4260SOL    HW113679   5.032   6.785   4.831
 4260SOL    HW213680   5.123   6.702   4.938
 4261SOL     OW13681   2.089   0.154   4.350
 4261SOL    HW113682   2.137   0.179   4.266
 4261SOL    HW213683   2.137   0.194   4.428
 4262SOL     OW13684   1.320   4.956   6.319
 4262SOL    HW113685   1.394   4.893   6.343
 4262SOL    HW213686   1.248   4.905   6.271
 4263SOL     OW13687   2.753   2.339   3.559
 4263SOL    HW113688   2.693   2.260   3.553
 4263SOL    HW213689   2.844   2.310   3.589
 4264SOL     OW13690   5.480   1.361   4.354
 4264SOL    HW113691   5.556   1.396   4.300
 4264SOL    HW213692   5.485   1.261   4.358
 4265SOL     OW13693   2.534   0.331   0.979
 4265SOL    HW113694   2.500   0.360   1.068
 4265SOL    HW213695   2.579   0.242   0.987
 4266SOL     OW13696   1.138   6.697   0.210
 4266SOL    HW113697   1.103   6.608   0.238
 4266SOL    HW213698   1.196   6.735   0.283
 4267SOL     OW13699   1.707   3.978   4.104
 4267SOL    HW113700   1.740   3.973   4.010
 4267SOL    HW213701   1.634   4.045   4.111
 4268SOL     OW13702   1.467   5.198   6.286
 4268SOL    HW113703   1.558   5.159   6.299
 4268SOL    HW213704   1.399   5.124   6.287
 4269SOL     OW13705   3.270   1.802   4.379
 4269SOL    HW113706   3.229   1.751   4.303
 4269SOL    HW213707   3.227   1.772   4.465
 4270SOL     OW13708   3.867   3.034   0.354
 4270SOL    HW113709   3.812   2.957   0.322
 4270SOL    HW213710   3.810   3.095   0.410
 4271SOL     OW13711   6.456   0.308   0.933
 4271SOL    HW113712   6.410   0.396   0.921
 4271SOL    HW213713   6.432   0.271   1.023
 4272SOL     OW13714   6.589   3.380   5.770
 4272SOL    HW113715   6.548   3.354   5.858
 4272SOL    HW213716   6.620   3.475   5.774
 4273SOL     OW13717   4.509   5.929   4.576
 4273SOL    HW113718   4.543   5.973   4.659
 4273SOL    HW213719   4.411   5.944   4.567
 4274SOL     OW13720   6.522   6.849   1.887
 4274SOL    HW113721   6.427   6.823   1.903
 4274SOL    HW213722   6.578   6.767   1.875
 4275SOL     OW13723   1.005   2.494   3.506
 4275SOL    HW113724   1.029   2.520   3.600
 4275SOL    HW213725   0.906   2.481   3.499
 4276SOL     OW13726   2.664   5.728   4.224
 4276SOL    HW113727   2.651   5.825   4.245
 4276SOL    HW213728   2.673   5.716   4.126
 4277SOL     OW13729   6.013   5.590   4.257
 4277SOL    HW113730   5.965   5.676   4.241
 4277SOL    HW213731   5.956   5.530   4.313
 4278SOL     OW13732   0.669   6.974   2.102
 4278SOL    HW113733   0.610   6.960   2.181
 4278SOL    HW213734   0.725   0.033   2.115
 4279SOL     OW13735   1.607   1.965   2.352
 4279SOL    HW113736   1.574   1.912   2.430
 4279SOL    HW213737   1.533   1.975   2.285
 4280SOL     OW13738   6.634   7.005   6.492
 4280SOL    HW113739   6.672   0.004   6.402
 4280SOL    HW213740   6.543   6.966   6.481
 4281SOL     OW13741   4.757   5.456   3.852
 4281SOL    HW113742   4.714   5.546   3.855
 4281SOL    HW213743   4.816   5.449   3.771
 4282SOL     OW13744   3.257   4.426   0.886
 4282SOL    HW113745   3.279   4.328   0.882
 4282SOL    HW213746   3.329   4.478   0.839
 4283SOL     OW13747   4.846   0.864   3.811
 4283SOL    HW113748   4.799   0.891   3.727
 4283SOL    HW213749   4.783   0.813   3.870
 4284SOL     OW13750   5.000   5.889   6.908
 4284SOL    HW113751   5.054   5.860   6.986
 4284SOL    HW213752   4.971   5.984   6.920
 4285SOL     OW13753   3.147   0.710   6.091
 4285SOL    HW113754   3.057   0.753   6.087
 4285SOL    HW213755   3.181   0.712   6.185
 4286SOL     OW13756   6.749   1.005   6.681
 4286SOL    HW113757   6.722   0.985   6.587
 4286SOL    HW213758   6.717   1.097   6.705
 4287SOL     OW13759   4.346   0.758   0.076
 4287SOL    HW113760   4.347   0.852   0.110
 4287SOL    HW213761   4.299   0.699   0.143
 4288SOL     OW13762   6.693   6.007   2.440
 4288SOL    HW113763   6.641   6.085   2.406
 4288SOL    HW213764   6.783   6.005   2.397
 4289SOL     OW13765   0.863   2.690   4.837
 4289SOL    HW113766   0.837   2.594   4.850
 4289SOL    HW213767   0.959   2.696   4.812
 4290SOL     OW13768   0.269   0.763   3.105
 4290SOL    HW113769   0.360   0.742   3.069
 4290SOL    HW213770   0.277   0.788   3.202
 4291SOL     OW13771   4.714   3.026   5.920
 4291SOL    HW113772   4.617   3.051   5.923
 4291SOL    HW213773   4.754   3.061   5.835
 4292SOL     OW13774   5.326   1.862   0.487
 4292SOL    HW113775   5.304   1.803   0.410
 4292SOL    HW213776   5.349   1.954   0.453
 4293SOL     OW13777   4.729   3.838   6.603
 4293SOL    HW113778   4.818   3.881   6.615
 4293SOL    HW213779   4.711   3.824   6.506
 4294SOL     OW13780   3.403   2.008   6.151
 4294SOL    HW113781   3.428   1.916   6.119
 4294SOL    HW213782   3.445   2.076   6.091
 4295SOL     OW13783   4.302   6.562   2.240
 4295SOL    HW113784   4.281   6.625   2.165
 4295SOL    HW213785   4.281   6.468   2.212
 4296SOL     OW13786   2.637   6.663   0.721
 4296SOL    HW113787   2.543   6.687   0.746
 4296SOL    HW213788   2.690   6.646   0.804
 4297SOL     OW13789   6.034   5.488   0.875
 4297SOL    HW113790   6.071   5.561   0.932
 4297SOL    HW213791   6.012   5.524   0.784
 4298SOL     OW13792   3.450   6.323   1.315
 4298SOL    HW113793   3.421   6.234   1.352
 4298SOL    HW213794   3.405   6.338   1.226
 4299SOL     OW13795   0.686   2.721   0.052
 4299SOL    HW113796   0.709   2.776   0.133
 4299SOL    HW213797   0.747   2.747   7.000
 4300SOL     OW13798   4.211   0.451   0.746
 4300SOL    HW113799   4.194   0.483   0.653
 4300SOL    HW213800   4.287   0.503   0.786
 4301SOL     OW13801   3.145   6.419   1.931
 4301SOL    HW113802   3.102   6.403   2.020
 4301SOL    HW213803   3.108   6.502   1.891
 4302SOL     OW13804   1.662   6.209   6.304
 4302SOL    HW113805   1.748   6.215   6.354
 4302SOL    HW213806   1.680   6.193   6.207
 4303SOL     OW13807   6.048   4.476   4.334
 4303SOL    HW113808   6.063   4.429   4.421
 4303SOL    HW213809   5.950   4.472   4.311
 4304SOL     OW13810   3.153   3.680   1.694
 4304SOL    HW113811   3.213   3.736   1.750
 4304SOL    HW213812   3.199   3.594   1.671
 4305SOL     OW13813   0.089   0.211   5.557
 4305SOL    HW113814   0.083   0.112   5.543
 4305SOL    HW213815   0.176   0.233   5.602
 4306SOL     OW13816   4.853   3.703   4.441
 4306SOL    HW113817   4.850   3.613   4.397
 4306SOL    HW213818   4.949   3.732   4.448
 4307SOL     OW13819   5.937   2.434   5.529
 4307SOL    HW113820   5.923   2.368   5.455
 4307SOL    HW213821   5.996   2.508   5.497
 4308SOL     OW13822   5.144   4.625   1.548
 4308SOL    HW113823   5.161   4.653   1.643
 4308SOL    HW213824   5.079   4.688   1.506
 4309SOL     OW13825   0.770   3.368   0.719
 4309SOL    HW113826   0.780   3.363   0.620
 4309SOL    HW213827   0.674   3.362   0.744
 4310SOL     OW13828   0.152   1.719   2.154
 4310SOL    HW113829   0.243   1.678   2.158
 4310SOL    HW213830   0.103   1.700   2.239
 4311SOL     OW13831   1.041   6.293   2.635
 4311SOL    HW113832   1.052   6.194   2.629
 4311SOL    HW213833   0.946   6.315   2.658
 4312SOL     OW13834   0.611   5.102   2.208
 4312SOL    HW113835   0.590   5.021   2.263
 4312SOL    HW213836   0.526   5.144   2.176
 4313SOL     OW13837   5.512   1.772   0.203
 4313SOL    HW113838   5.554   1.748   0.291
 4313SOL    HW213839   5.497   1.689   0.149
 4314SOL     OW13840   6.649   3.192   5.083
 4314SOL    HW113841   6.637   3.159   5.177
 4314SOL    HW213842   6.746   3.196   5.062
 4315SOL     OW13843   2.480   1.206   3.876
 4315SOL    HW113844   2.519   1.248   3.958
 4315SOL    HW213845   2.504   1.109   3.874
 4316SOL     OW13846   5.792   0.248   2.159
 4316SOL    HW113847   5.890   0.256   2.180
 4316SOL    HW213848   5.779   0.245   2.060
 4317SOL     OW13849   4.920   0.924   5.609
 4317SOL    HW113850   4.888   0.967   5.694
 4317SOL    HW213851   4.944   0.995   5.543
 4318SOL     OW13852   0.465   1.213   3.658
 4318SOL    HW113853   0.511   1.301   3.661
 4318SOL    HW213854   0.444   1.183   3.751
 4319SOL     OW13855   1.209   3.573   1.985
 4319SOL    HW113856   1.279   3.506   2.010
 4319SOL    HW213857   1.167   3.547   1.898
 4320SOL     OW13858   3.572   6.338   0.556
 4320SOL    HW113859   3.663   6.379   0.553
 4320SOL    HW213860   3.570   6.258   0.496
 4321SOL     OW13861   6.447   6.517   2.533
 4321SOL    HW113862   6.479   6.589   2.595
 4321SOL    HW213863   6.457   6.548   2.438
 4322SOL     OW13864   0.419   2.711   5.318
 4322SOL    HW113865   0.399   2.756   5.406
 4322SOL    HW213866   0.513   2.678   5.318
 4323SOL     OW13867   4.435   5.468   0.053
 4323SOL    HW113868   4.509   5.479   0.120
 4323SOL    HW213869   4.459   5.394   7.013
 4324SOL     OW13870   0.038   3.723   5.934
 4324SOL    HW113871   0.018   3.630   5.966
 4324SOL    HW213872   0.074   3.778   6.009
 4325SOL     OW13873   2.883   0.900   2.990
 4325SOL    HW113874   2.933   0.902   2.904
 4325SOL    HW213875   2.898   0.986   3.040
 4326SOL     OW13876   5.223   2.588   1.954
 4326SOL    HW113877   5.166   2.651   1.902
 4326SOL    HW213878   5.242   2.627   2.044
 4327SOL     OW13879   3.759   5.584   4.453
 4327SOL    HW113880   3.770   5.568   4.355
 4327SOL    HW213881   3.713   5.506   4.495
 4328SOL     OW13882   6.253   5.499   5.496
 4328SOL    HW113883   6.248   5.544   5.585
 4328SOL    HW213884   6.167   5.512   5.447
 4329SOL     OW13885   6.033   3.124   5.688
 4329SOL    HW113886   6.119   3.168   5.710
 4329SOL    HW213887   5.989   3.170   5.611
 4330SOL     OW13888   2.383   5.367   5.507
 4330SOL    HW113889   2.403   5.456   5.467
 4330SOL    HW213890   2.393   5.296   5.437
 4331SOL     OW13891   6.235   0.727   1.680
 4331SOL    HW113892   6.142   0.732   1.641
 4331SOL    HW213893   6.257   0.632   1.701
 4332SOL     OW13894   0.058   4.212   2.583
 4332SOL    HW113895   0.083   4.245   2.492
 4332SOL    HW213896   0.066   4.113   2.586
 4333SOL     OW13897   4.276   2.153   5.100
 4333SOL    HW113898   4.179   2.172   5.083
 4333SOL    HW213899   4.287   2.059   5.130
 4334SOL     OW13900   1.318   2.689   3.336
 4334SOL    HW113901   1.308   2.699   3.435
 4334SOL    HW213902   1.248   2.743   3.289
 4335SOL     OW13903   3.508   3.316   1.221
 4335SOL    HW113904   3.421   3.330   1.267
 4335SOL    HW213905   3.530   3.219   1.218
 4336SOL     OW13906   2.312   5.881   6.403
 4336SOL    HW113907   2.378   5.807   6.416
 4336SOL    HW213908   2.359   5.960   6.364
 4337SOL     OW13909   1.240   5.622   2.388
 4337SOL    HW113910   1.270   5.526   2.385
 4337SOL    HW213911   1.164   5.634   2.324
 4338SOL     OW13912   5.584   0.595   5.393
 4338SOL    HW113913   5.539   0.591   5.483
 4338SOL    HW213914   5.514   0.592   5.321
 4339SOL     OW13915   4.336   2.355   5.972
 4339SOL    HW113916   4.320   2.359   5.873
 4339SOL    HW213917   4.364   2.446   6.005
 4340SOL     OW13918   6.594   4.265   1.092
 4340SOL    HW113919   6.551   4.244   1.180
 4340SOL    HW213920   6.528   4.313   1.033
 4341SOL     OW13921   0.705   6.060   2.361
 4341SOL    HW113922   0.617   6.026   2.395
 4341SOL    HW213923   0.778   6.032   2.423
 4342SOL     OW13924   4.845   3.822   2.769
 4342SOL    HW113925   4.849   3.723   2.788
 4342SOL    HW213926   4.889   3.841   2.681
 4343SOL     OW13927   4.168   0.580   5.993
 4343SOL    HW113928   4.145   0.496   5.944
 4343SOL    HW213929   4.212   0.557   6.080
 4344SOL     OW13930   0.089   2.439   3.798
 4344SOL    HW113931   0.002   2.399   3.827
 4344SOL    HW213932   0.158   2.422   3.868
 4345SOL     OW13933   2.884   3.384   2.612
 4345SOL    HW113934   2.922   3.292   2.627
 4345SOL    HW213935   2.824   3.408   2.688
 4346SOL     OW13936   2.261   2.795   2.280
 4346SOL    HW113937   2.239   2.864   2.210
 4346SOL    HW213938   2.340   2.742   2.249
 4347SOL     OW13939   5.364   5.093   1.956
 4347SOL    HW113940   5.459   5.121   1.947
 4347SOL    HW213941   5.355   5.028   2.031
 4348SOL     OW13942   6.604   5.908   3.900
 4348SOL    HW113943   6.607   6.008   3.898
 4348SOL    HW213944   6.560   5.878   3.984
 4349SOL     OW13945   0.074   3.856   3.697
 4349SOL    HW113946   0.121   3.802   3.766
 4349SOL    HW213947   0.057   3.948   3.732
 4350SOL     OW13948   5.209   1.514   4.831
 4350SOL    HW113949   5.168   1.582   4.892
 4350SOL    HW213950   5.178   1.530   4.738
 4351SOL     OW13951   1.306   6.978   1.048
 4351SOL    HW113952   1.348   6.981   0.957
 4351SOL    HW213953   1.376   6.998   1.117
 4352SOL     OW13954   4.005   4.176   0.803
 4352SOL    HW113955   4.057   4.093   0.784
 4352SOL    HW213956   3.914   4.150   0.837
 4353SOL     OW13957   3.105   3.231   6.928
 4353SOL    HW113958   3.046   3.309   6.907
 4353SOL    HW213959   3.124   3.230   0.003
 4354SOL     OW13960   6.385   0.360   3.929
 4354SOL    HW113961   6.458   0.383   3.992
 4354SOL    HW213962   6.320   0.436   3.923
 4355SOL     OW13963   1.650   7.022   3.478
 4355SOL    HW113964   1.554   6.996   3.466
 4355SOL    HW213965   1.686   6.983   3.562
 4356SOL     OW13966   5.302   2.623   6.199
 4356SOL    HW113967   5.317   2.660   6.291
 4356SOL    HW213968   5.235   2.549   6.204
 4357SOL     OW13969   6.680   0.537   1.886
 4357SOL    HW113970   6.733   0.484   1.952
 4357SOL    HW213971   6.617   0.597   1.934
 4358SOL     OW13972   0.644   0.566   0.265
 4358SOL    HW113973   0.556   0.603   0.236
 4358SOL    HW213974   0.716   0.605   0.208
 4359SOL     OW13975   2.495   0.766   0.040
 4359SOL    HW113976   2.529   0.721   0.123
 4359SOL    HW213977   2.443   0.700   7.009
 4360SOL     OW13978   1.495   2.633   3.158
 4360SOL    HW113979   1.497   2.709   3.093
 4360SOL    HW213980   1.426   2.651   3.228
 4361SOL     OW13981   0.922   1.951   0.921
 4361SOL    HW113982   1.007   1.984   0.882
 4361SOL    HW213983   0.876   2.025   0.971
 4362SOL     OW13984   1.546   5.949   4.204
 4362SOL    HW113985   1.539   6.043   4.172
 4362SOL    HW213986   1.624   5.904   4.161
 4363SOL     OW13987   4.517   0.859   2.409
 4363SOL    HW113988   4.500   0.957   2.419
 4363SOL    HW213989   4.436   0.808   2.437
 4364SOL     OW13990   3.487   3.800   2.935
 4364SOL    HW113991   3.494   3.896   2.910
 4364SOL    HW213992   3.563   3.775   2.995
 4365SOL     OW13993   3.119   2.092   1.948
 4365SOL    HW113994   3.044   2.158   1.951
 4365SOL    HW213995   3.162   2.095   1.858
 4366SOL     OW13996   5.223   6.038   5.267
 4366SOL    HW113997   5.234   6.131   5.233
 4366SOL    HW213998   5.283   6.024   5.346
 4367SOL     OW13999   2.939   5.592   3.877
 4367SOL    HW114000   2.972   5.500   3.853
 4367SOL    HW214001   2.855   5.585   3.930
 4368SOL     OW14002   4.813   4.780   2.491
 4368SOL    HW114003   4.837   4.849   2.559
 4368SOL    HW214004   4.715   4.760   2.495
 4369SOL     OW14005   4.576   4.962   2.767
 4369SOL    HW114006   4.545   4.947   2.861
 4369SOL    HW214007   4.673   4.939   2.759
 4370SOL     OW14008   3.956   4.748   1.797
 4370SOL    HW114009   3.881   4.687   1.822
 4370SOL    HW214010   3.939   4.786   1.706
 4371SOL     OW14011   2.241   0.802   1.415
 4371SOL    HW114012   2.237   0.707   1.444
 4371SOL    HW214013   2.155   0.827   1.370
 4372SOL     OW14014   2.067   2.743   4.549
 4372SOL    HW114015   2.153   2.795   4.547
 4372SOL    HW214016   2.088   2.645   4.559
 4373SOL     OW14017   4.589   0.862   5.813
 4373SOL    HW114018   4.513   0.834   5.871
 4373SOL    HW214019   4.584   0.814   5.725
 4374SOL     OW14020   2.657   2.108   1.376
 4374SOL    HW114021   2.595   2.032   1.395
 4374SOL    HW214022   2.631   2.187   1.431
 4375SOL     OW14023   3.444   0.633   3.443
 4375SOL    HW114024   3.456   0.730   3.425
 4375SOL    HW214025   3.379   0.594   3.377
 4376SOL     OW14026   6.696   6.689   1.478
 4376SOL    HW114027   6.629   6.762   1.467
 4376SOL    HW214028   6.786   6.728   1.500
 4377SOL     OW14029   6.360   6.178   6.816
 4377SOL    HW114030   6.292   6.118   6.859
 4377SOL    HW214031   6.316   6.231   6.744
 4378SOL     OW14032   1.968   5.919   3.004
 4378SOL    HW114033   2.053   5.940   2.955
 4378SOL    HW214034   1.891   5.963   2.957
 4379SOL     OW14035   1.252   1.167   1.536
 4379SOL    HW114036   1.305   1.168   1.621
 4379SOL    HW214037   1.239   1.073   1.505
 4380SOL     OW14038   2.058   5.890   5.540
 4380SOL    HW114039   2.111   5.810   5.567
 4380SOL    HW214040   2.113   5.973   5.550
 4381SOL     OW14041   3.999   6.990   4.578
 4381SOL    HW114042   3.936   6.971   4.654
 4381SOL    HW214043   4.067   0.034   4.607
 4382SOL     OW14044   5.145   3.769   4.211
 4382SOL    HW114045   5.071   3.714   4.174
 4382SOL    HW214046   5.138   3.771   4.311
 4383SOL     OW14047   1.324   2.611   5.728
 4383SOL    HW114048   1.310   2.580   5.634
 4383SOL    HW214049   1.406   2.569   5.766
 4384SOL     OW14050   3.781   6.388   1.109
 4384SOL    HW114051   3.767   6.370   1.207
 4384SOL    HW214052   3.725   6.325   1.055
 4385SOL     OW14053   6.953   1.377   3.601
 4385SOL    HW114054   6.932   1.377   3.503
 4385SOL    HW214055   6.946   1.470   3.636
 4386SOL     OW14056   0.738   3.968   6.766
 4386SOL    HW114057   0.649   4.013   6.752
 4386SOL    HW214058   0.780   3.948   6.677
 4387SOL     OW14059   6.792   3.160   1.514
 4387SOL    HW114060   6.867   3.184   1.452
 4387SOL    HW214061   6.705   3.185   1.472
 4388SOL     OW14062   3.336   0.494   5.880
 4388SOL    HW114063   3.415   0.533   5.833
 4388SOL    HW214064   3.350   0.500   5.979
 4389SOL     OW14065   5.735   3.028   1.674
 4389SOL    HW114066   5.763   3.066   1.586
 4389SOL    HW214067   5.710   2.932   1.663
 4390SOL     OW14068   4.790   2.099   1.742
 4390SOL    HW114069   4.863   2.090   1.674
 4390SOL    HW214070   4.771   2.009   1.782
 4391SOL     OW14071   0.818   5.742   0.359
 4391SOL    HW114072   0.917   5.740   0.346
 4391SOL    HW214073   0.775   5.793   0.284
 4392SOL     OW14074   5.405   3.084   4.180
 4392SOL    HW114075   5.505   3.074   4.179
 4392SOL    HW214076   5.378   3.133   4.263
 4393SOL     OW14077   5.057   0.086   3.514
 4393SOL    HW114078   5.043   0.144   3.594
 4393SOL    HW214079   5.115   0.008   3.539
 4394SOL     OW14080   5.562   6.616   2.703
 4394SOL    HW114081   5.504   6.539   2.729
 4394SOL    HW214082   5.559   6.628   2.604
 4395SOL     OW14083   4.455   1.247   1.692
 4395SOL    HW114084   4.424   1.212   1.604
 4395SOL    HW214085   4.442   1.346   1.695
 4396SOL     OW14086   0.651   1.107   4.341
 4396SOL    HW114087   0.593   1.026   4.337
 4396SOL    HW214088   0.715   1.099   4.417
 4397SOL     OW14089   6.705   1.029   5.009
 4397SOL    HW114090   6.659   1.106   4.966
 4397SOL    HW214091   6.735   1.055   5.100
 4398SOL     OW14092   0.900   4.283   4.679
 4398SOL    HW114093   0.987   4.306   4.636
 4398SOL    HW214094   0.830   4.275   4.608
 4399SOL     OW14095   1.780   1.430   0.510
 4399SOL    HW114096   1.750   1.502   0.571
 4399SOL    HW214097   1.877   1.442   0.489
 4400SOL     OW14098   2.430   6.774   4.358
 4400SOL    HW114099   2.372   6.753   4.437
 4400SOL    HW214100   2.376   6.821   4.289
 4401SOL     OW14101   5.875   5.822   4.159
 4401SOL    HW114102   5.850   5.850   4.252
 4401SOL    HW214103   5.873   5.901   4.099
 4402SOL     OW14104   1.063   5.703   3.011
 4402SOL    HW114105   1.030   5.776   2.951
 4402SOL    HW214106   1.150   5.668   2.976
 4403SOL     OW14107   0.064   0.119   3.227
 4403SOL    HW114108   0.122   0.058   3.282
 4403SOL    HW214109   0.102   0.211   3.230
 4404SOL     OW14110   0.340   4.244   3.391
 4404SOL    HW114111   0.364   4.160   3.343
 4404SOL    HW214112   0.408   4.315   3.372
 4405SOL     OW14113   3.010   5.048   5.879
 4405SOL    HW114114   2.965   4.962   5.855
 4405SOL    HW214115   3.066   5.079   5.802
 4406SOL     OW14116   5.351   4.390   1.737
 4406SOL    HW114117   5.363   4.307   1.792
 4406SOL    HW214118   5.283   4.449   1.780
 4407SOL     OW14119   6.623   6.123   0.428
 4407SOL    HW114120   6.560   6.198   0.446
 4407SOL    HW214121   6.572   6.046   0.390
 4408SOL     OW14122   4.899   0.250   0.730
 4408SOL    HW114123   4.988   0.287   0.704
 4408SOL    HW214124   4.854   0.211   0.650
 4409SOL     OW14125   3.716   1.412   2.075
 4409SOL    HW114126   3.759   1.467   2.147
 4409SOL    HW214127   3.640   1.360   2.114
 4410SOL     OW14128   2.194   5.202   1.206
 4410SOL    HW114129   2.129   5.278   1.197
 4410SOL    HW214130   2.279   5.225   1.159
 4411SOL     OW14131   3.627   3.191   3.009
 4411SOL    HW114132   3.698   3.227   3.069
 4411SOL    HW214133   3.622   3.092   3.018
 4412SOL     OW14134   3.826   1.131   6.373
 4412SOL    HW114135   3.833   1.217   6.423
 4412SOL    HW214136   3.758   1.140   6.300
 4413SOL     OW14137   4.032   5.570   4.363
 4413SOL    HW114138   4.117   5.560   4.415
 4413SOL    HW214139   3.956   5.530   4.414
 4414SOL     OW14140   4.221   4.695   2.398
 4414SOL    HW114141   4.213   4.792   2.374
 4414SOL    HW214142   4.210   4.685   2.497
 4415SOL     OW14143   5.159   4.007   6.231
 4415SOL    HW114144   5.258   4.024   6.223
 4415SOL    HW214145   5.111   4.067   6.167
 4416SOL     OW14146   2.827   1.317   4.639
 4416SOL    HW114147   2.799   1.242   4.579
 4416SOL    HW214148   2.881   1.383   4.588
 4417SOL     OW14149   0.355   5.175   1.753
 4417SOL    HW114150   0.373   5.227   1.670
 4417SOL    HW214151   0.360   5.235   1.833
 4418SOL     OW14152   4.460   6.221   4.073
 4418SOL    HW114153   4.485   6.313   4.044
 4418SOL    HW214154   4.503   6.200   4.161
 4419SOL     OW14155   6.430   5.059   0.635
 4419SOL    HW114156   6.439   5.032   0.539
 4419SOL    HW214157   6.379   4.990   0.685
 4420SOL     OW14158   4.333   0.790   0.436
 4420SOL    HW114159   4.401   0.831   0.376
 4420SOL    HW214160   4.373   0.713   0.485
 4421SOL     OW14161   1.852   1.827   2.827
 4421SOL    HW114162   1.839   1.848   2.730
 4421SOL    HW214163   1.813   1.901   2.882
 4422SOL     OW14164   2.801   3.797   6.619
 4422SOL    HW114165   2.820   3.822   6.713
 4422SOL    HW214166   2.795   3.879   6.563
 4423SOL     OW14167   1.241   2.356   6.173
 4423SOL    HW114168   1.201   2.410   6.098
 4423SOL    HW214169   1.168   2.327   6.235
 4424SOL     OW14170   5.417   6.348   3.165
 4424SOL    HW114171   5.414   6.427   3.104
 4424SOL    HW214172   5.509   6.309   3.166
 4425SOL     OW14173   3.976   5.849   5.932
 4425SOL    HW114174   3.892   5.844   5.877
 4425SOL    HW214175   4.055   5.858   5.871
 4426SOL     OW14176   0.209   0.764   5.381
 4426SOL    HW114177   0.211   0.733   5.286
 4426SOL    HW214178   0.216   0.864   5.384
 4427SOL     OW14179   0.434   0.555   3.554
 4427SOL    HW114180   0.500   0.600   3.495
 4427SOL    HW214181   0.429   0.604   3.642
 4428SOL     OW14182   2.391   5.092   4.330
 4428SOL    HW114183   2.345   5.019   4.380
 4428SOL    HW214184   2.444   5.148   4.394
 4429SOL     OW14185   2.626   6.229   3.596
 4429SOL    HW114186   2.595   6.254   3.505
 4429SOL    HW214187   2.648   6.131   3.598
 4430SOL     OW14188   3.709   1.616   2.932
 4430SOL    HW114189   3.755   1.532   2.904
 4430SOL    HW214190   3.764   1.663   3.001
 4431SOL     OW14191   2.820   1.725   3.553
 4431SOL    HW114192   2.823   1.818   3.517
 4431SOL    HW214193   2.840   1.661   3.479
 4432SOL     OW14194   3.196   3.408   2.851
 4432SOL    HW114195   3.214   3.419   2.753
 4432SOL    HW214196   3.231   3.487   2.901
 4433SOL     OW14197   5.903   6.534   2.951
 4433SOL    HW114198   5.983   6.568   3.002
 4433SOL    HW214199   5.886   6.594   2.873
 4434SOL     OW14200   5.133   1.143   3.644
 4434SOL    HW114201   5.070   1.118   3.718
 4434SOL    HW214202   5.095   1.220   3.592
 4435SOL     OW14203   3.623   2.991   1.490
 4435SOL    HW114204   3.683   3.061   1.450
 4435SOL    HW214205   3.636   2.904   1.443
 4436SOL     OW14206   3.207   1.796   0.359
 4436SOL    HW114207   3.276   1.868   0.366
 4436SOL    HW214208   3.117   1.833   0.383
 4437SOL     OW14209   4.306   0.669   4.596
 4437SOL    HW114210   4.360   0.752   4.612
 4437SOL    HW214211   4.209   0.688   4.614
 4438SOL     OW14212   4.025   2.059   0.047
 4438SOL    HW114213   3.973   2.096   6.992
 4438SOL    HW214214   4.006   1.962   0.057
 4439SOL     OW14215   0.751   5.236   1.851
 4439SOL    HW114216   0.828   5.295   1.828
 4439SOL    HW214217   0.667   5.289   1.848
 4440SOL     OW14218   1.792   6.187   7.020
 4440SOL    HW114219   1.764   6.278   0.028
 4440SOL    HW214220   1.863   6.152   0.058
 4441SOL     OW14221   6.237   2.753   2.388
 4441SOL    HW114222   6.334   2.730   2.399
 4441SOL    HW214223   6.221   2.783   2.294
 4442SOL     OW14224   3.997   6.053   3.584
 4442SOL    HW114225   3.965   6.137   3.627
 4442SOL    HW214226   3.919   5.993   3.565
 4443SOL     OW14227   2.671   2.424   6.104
 4443SOL    HW114228   2.754   2.369   6.098
 4443SOL    HW214229   2.627   2.428   6.014
 4444SOL     OW14230   4.557   6.168   1.453
 4444SOL    HW114231   4.533   6.229   1.529
 4444SOL    HW214232   4.515   6.202   1.369
 4445SOL     OW14233   1.297   0.682   6.112
 4445SOL    HW114234   1.360   0.675   6.189
 4445SOL    HW214235   1.316   0.766   6.061
 4446SOL     OW14236   6.140   6.907   2.783
 4446SOL    HW114237   6.172   6.998   2.756
 4446SOL    HW214238   6.042   6.899   2.763
 4447SOL     OW14239   5.450   3.034   5.997
 4447SOL    HW114240   5.409   3.123   5.973
 4447SOL    HW214241   5.380   2.975   6.038
 4448SOL     OW14242   2.706   3.483   0.971
 4448SOL    HW114243   2.698   3.478   0.872
 4448SOL    HW214244   2.642   3.551   1.006
 4449SOL     OW14245   2.571   0.560   4.866
 4449SOL    HW114246   2.555   0.639   4.806
 4449SOL    HW214247   2.631   0.495   4.819
 4450SOL     OW14248   3.261   2.935   3.463
 4450SOL    HW114249   3.336   2.920   3.527
 4450SOL    HW214250   3.293   2.916   3.370
 4451SOL     OW14251   6.429   4.195   2.656
 4451SOL    HW114252   6.423   4.193   2.556
 4451SOL    HW214253   6.393   4.283   2.689
 4452SOL     OW14254   6.047   6.276   5.896
 4452SOL    HW114255   5.950   6.288   5.915
 4452SOL    HW214256   6.059   6.243   5.802
 4453SOL     OW14257   5.636   2.676   1.994
 4453SOL    HW114258   5.562   2.657   1.929
 4453SOL    HW214259   5.722   2.687   1.945
 4454SOL     OW14260   5.060   2.887   0.845
 4454SOL    HW114261   5.072   2.969   0.901
 4454SOL    HW214262   4.984   2.899   0.782
 4455SOL     OW14263   3.492   6.625   2.232
 4455SOL    HW114264   3.518   6.650   2.138
 4455SOL    HW214265   3.569   6.641   2.293
 4456SOL     OW14266   1.755   5.458   2.250
 4456SOL    HW114267   1.817   5.419   2.318
 4456SOL    HW214268   1.755   5.558   2.258
 4457SOL     OW14269   4.202   2.228   6.164
 4457SOL    HW114270   4.255   2.267   6.089
 4457SOL    HW214271   4.264   2.196   6.236
 4458SOL     OW14272   2.468   2.518   6.269
 4458SOL    HW114273   2.506   2.606   6.242
 4458SOL    HW214274   2.506   2.446   6.211
 4459SOL     OW14275   4.751   6.666   4.873
 4459SOL    HW114276   4.806   6.586   4.898
 4459SOL    HW214277   4.667   6.668   4.928
 4460SOL     OW14278   2.673   3.543   6.833
 4460SOL    HW114279   2.613   3.606   6.883
 4460SOL    HW214280   2.640   3.532   6.740
 4461SOL     OW14281   1.264   0.180   2.464
 4461SOL    HW114282   1.207   0.117   2.517
 4461SOL    HW214283   1.208   0.256   2.432
 4462SOL     OW14284   6.186   5.061   0.942
 4462SOL    HW114285   6.087   5.070   0.943
 4462SOL    HW214286   6.228   5.149   0.918
 4463SOL     OW14287   2.050   3.391   6.308
 4463SOL    HW114288   2.136   3.387   6.256
 4463SOL    HW214289   2.037   3.305   6.356
 4464SOL     OW14290   5.707   4.372   6.182
 4464SOL    HW114291   5.767   4.346   6.105
 4464SOL    HW214292   5.763   4.406   6.257
 4465SOL     OW14293   1.852   6.279   2.034
 4465SOL    HW114294   1.794   6.343   2.085
 4465SOL    HW214295   1.804   6.192   2.024
 4466SOL     OW14296   0.903   1.675   2.517
 4466SOL    HW114297   0.853   1.760   2.501
 4466SOL    HW214298   0.979   1.693   2.580
 4467SOL     OW14299   1.326   6.953   3.167
 4467SOL    HW114300   1.284   6.888   3.230
 4467SOL    HW214301   1.424   6.959   3.186
 4468SOL     OW14302   1.158   2.433   6.829
 4468SOL    HW114303   1.248   2.389   6.828
 4468SOL    HW214304   1.088   2.362   6.839
 4469SOL     OW14305   2.980   0.496   1.297
 4469SOL    HW114306   2.924   0.432   1.348
 4469SOL    HW214307   2.930   0.527   1.216
 4470SOL     OW14308   4.692   3.869   1.723
 4470SOL    HW114309   4.694   3.886   1.624
 4470SOL    HW214310   4.774   3.910   1.765
 4471SOL     OW14311   0.088   2.330   1.330
 4471SOL    HW114312   0.082   2.372   1.421
 4471SOL    HW214313   0.130   2.394   1.266
 4472SOL     OW14314   1.859   4.425   2.017
 4472SOL    HW114315   1.940   4.376   2.049
 4472SOL    HW214316   1.881   4.522   2.004
 4473SOL     OW14317   0.446   0.183   4.536
 4473SOL    HW114318   0.454   0.214   4.631
 4473SOL    HW214319   0.375   0.236   4.490
 4474SOL     OW14320   3.921   6.922   2.727
 4474SOL    HW114321   3.898   6.870   2.809
 4474SOL    HW214322   3.893   7.018   2.738
 4475SOL     OW14323   1.609   3.994   0.948
 4475SOL    HW114324   1.566   3.987   0.858
 4475SOL    HW214325   1.623   4.091   0.971
 4476SOL     OW14326   5.229   6.593   1.954
 4476SOL    HW114327   5.301   6.660   1.972
 4476SOL    HW214328   5.151   6.610   2.015
 4477SOL     OW14329   1.840   1.099   6.709
 4477SOL    HW114330   1.784   1.048   6.774
 4477SOL    HW214331   1.916   1.041   6.678
 4478SOL     OW14332   2.519   6.653   2.512
 4478SOL    HW114333   2.481   6.660   2.419
 4478SOL    HW214334   2.618   6.667   2.508
 4479SOL     OW14335   1.035   0.539   5.707
 4479SOL    HW114336   1.004   0.632   5.687
 4479SOL    HW214337   0.970   0.495   5.769
 4480SOL     OW14338   1.407   4.285   4.698
 4480SOL    HW114339   1.369   4.267   4.789
 4480SOL    HW214340   1.506   4.297   4.705
 4481SOL     OW14341   1.287   6.535   3.959
 4481SOL    HW114342   1.260   6.439   3.962
 4481SOL    HW214343   1.385   6.542   3.944
 4482SOL     OW14344   0.971   4.511   4.187
 4482SOL    HW114345   0.928   4.465   4.109
 4482SOL    HW214346   1.023   4.444   4.241
 4483SOL     OW14347   6.511   2.850   0.924
 4483SOL    HW114348   6.592   2.800   0.895
 4483SOL    HW214349   6.494   2.834   1.021
 4484SOL     OW14350   3.981   2.663   5.366
 4484SOL    HW114351   3.922   2.583   5.376
 4484SOL    HW214352   4.050   2.646   5.296
 4485SOL     OW14353   4.909   1.684   6.653
 4485SOL    HW114354   4.911   1.768   6.709
 4485SOL    HW214355   4.961   1.612   6.699
 4486SOL     OW14356   0.223   4.095   5.300
 4486SOL    HW114357   0.147   4.144   5.345
 4486SOL    HW214358   0.308   4.116   5.348
 4487SOL     OW14359   2.634   3.572   6.556
 4487SOL    HW114360   2.617   3.579   6.458
 4487SOL    HW214361   2.691   3.648   6.586
 4488SOL     OW14362   5.851   1.970   5.336
 4488SOL    HW114363   5.853   1.909   5.416
 4488SOL    HW214364   5.890   1.923   5.257
 4489SOL     OW14365   5.361   5.283   4.817
 4489SOL    HW114366   5.297   5.360   4.823
 4489SOL    HW214367   5.443   5.312   4.768
 4490SOL     OW14368   5.596   1.386   1.914
 4490SOL    HW114369   5.518   1.348   1.864
 4490SOL    HW214370   5.566   1.416   2.004
 4491SOL     OW14371   1.479   3.793   2.995
 4491SOL    HW114372   1.533   3.733   2.935
 4491SOL    HW214373   1.510   3.888   2.983
 4492SOL     OW14374   5.236   2.129   0.025
 4492SOL    HW114375   5.250   2.052   0.087
 4492SOL    HW214376   5.232   2.214   0.077
 4493SOL     OW14377   4.720   5.587   5.079
 4493SOL    HW114378   4.688   5.608   4.987
 4493SOL    HW214379   4.808   5.540   5.073
 4494SOL     OW14380   0.243   3.494   5.509
 4494SOL    HW114381   0.199   3.546   5.582
 4494SOL    HW214382   0.192   3.506   5.424
 4495SOL     OW14383   5.395   6.829   2.018
 4495SOL    HW114384   5.357   6.879   2.096
 4495SOL    HW214385   5.493   6.846   2.012
 4496SOL     OW14386   5.790   4.562   6.646
 4496SOL    HW114387   5.817   4.658   6.642
 4496SOL    HW214388   5.694   4.555   6.675
 4497SOL     OW14389   5.180   5.824   6.699
 4497SOL    HW114390   5.092   5.859   6.728
 4497SOL    HW214391   5.172   5.726   6.679
 4498SOL     OW14392   0.274   4.132   6.370
 4498SOL    HW114393   0.253   4.037   6.394
 4498SOL    HW214394   0.336   4.171   6.438
 4499SOL     OW14395   6.868   3.434   4.639
 4499SOL    HW114396   6.898   3.515   4.588
 4499SOL    HW214397   6.939   3.364   4.637
 4500SOL     OW14398   2.871   3.564   4.026
 4500SOL    HW114399   2.824   3.475   4.026
 4500SOL    HW214400   2.865   3.605   3.935
 4501SOL     OW14401   1.190   3.962   5.624
 4501SOL    HW114402   1.241   4.044   5.597
 4501SOL    HW214403   1.123   3.987   5.694
 4502SOL     OW14404   1.592   2.549   6.317
 4502SOL    HW114405   1.612   2.454   6.294
 4502SOL    HW214406   1.530   2.588   6.248
 4503SOL     OW14407   1.950   1.382   3.212
 4503SOL    HW114408   1.923   1.337   3.297
 4503SOL    HW214409   1.952   1.314   3.138
 4504SOL     OW14410   6.056   2.741   5.542
 4504SOL    HW114411   6.097   2.712   5.628
 4504SOL    HW214412   5.957   2.745   5.552
 4505SOL     OW14413   0.709   6.136   5.280
 4505SOL    HW114414   0.645   6.166   5.350
 4505SOL    HW214415   0.759   6.056   5.312
 4506SOL     OW14416   3.779   1.711   4.970
 4506SOL    HW114417   3.816   1.652   4.898
 4506SOL    HW214418   3.855   1.759   5.015
 4507SOL     OW14419   4.867   4.762   1.137
 4507SOL    HW114420   4.825   4.696   1.199
 4507SOL    HW214421   4.876   4.721   1.046
 4508SOL     OW14422   1.855   3.587   0.150
 4508SOL    HW114423   1.912   3.648   0.205
 4508SOL    HW214424   1.876   3.492   0.171
 4509SOL     OW14425   4.262   2.031   4.720
 4509SOL    HW114426   4.351   2.073   4.738
 4509SOL    HW214427   4.228   2.061   4.630
 4510SOL     OW14428   5.739   0.745   5.095
 4510SOL    HW114429   5.659   0.689   5.116
 4510SOL    HW214430   5.714   0.842   5.104
 4511SOL     OW14431   6.959   3.073   0.515
 4511SOL    HW114432   6.865   3.049   0.491
 4511SOL    HW214433   6.961   3.114   0.606
 4512SOL     OW14434   2.685   6.785   0.009
 4512SOL    HW114435   2.694   6.731   0.092
 4512SOL    HW214436   2.616   6.856   0.023
 4513SOL     OW14437   4.546   6.348   1.641
 4513SOL    HW114438   4.637   6.335   1.681
 4513SOL    HW214439   4.534   6.444   1.616
 4514SOL     OW14440   3.669   0.978   4.171
 4514SOL    HW114441   3.637   1.049   4.234
 4514SOL    HW214442   3.637   1.000   4.078
 4515SOL     OW14443   6.878   4.774   7.003
 4515SOL    HW114444   6.831   4.750   0.066
 4515SOL    HW214445   6.841   4.718   6.929
 4516SOL     OW14446   1.473   1.605   5.742
 4516SOL    HW114447   1.378   1.574   5.748
 4516SOL    HW214448   1.527   1.539   5.690
 4517SOL     OW14449   3.616   7.011   6.803
 4517SOL    HW114450   3.590   0.016   6.895
 4517SOL    HW214451   3.666   0.063   6.758
 4518SOL     OW14452   0.855   1.926   4.045
 4518SOL    HW114453   0.891   1.977   4.123
 4518SOL    HW214454   0.762   1.958   4.024
 4519SOL     OW14455   0.384   2.089   3.490
 4519SOL    HW114456   0.408   2.166   3.548
 4519SOL    HW214457   0.327   2.024   3.542
 4520SOL     OW14458   5.985   4.568   2.295
 4520SOL    HW114459   5.996   4.636   2.368
 4520SOL    HW214460   6.042   4.592   2.218
 4521SOL     OW14461   5.132   2.396   6.115
 4521SOL    HW114462   5.045   2.352   6.094
 4521SOL    HW214463   5.190   2.333   6.167
 4522SOL     OW14464   5.527   6.776   3.719
 4522SOL    HW114465   5.476   6.810   3.640
 4522SOL    HW214466   5.622   6.806   3.713
 4523SOL     OW14467   2.856   5.092   0.405
 4523SOL    HW114468   2.903   5.004   0.410
 4523SOL    HW214469   2.877   5.137   0.318
 4524SOL     OW14470   5.507   1.500   5.451
 4524SOL    HW114471   5.452   1.421   5.481
 4524SOL    HW214472   5.590   1.467   5.406
 4525SOL     OW14473   6.189   1.810   4.418
 4525SOL    HW114474   6.253   1.876   4.458
 4525SOL    HW214475   6.241   1.732   4.383
 4526SOL     OW14476   4.726   6.718   1.357
 4526SOL    HW114477   4.752   6.627   1.389
 4526SOL    HW214478   4.639   6.744   1.399
 4527SOL     OW14479   4.435   0.884   3.133
 4527SOL    HW114480   4.517   0.920   3.178
 4527SOL    HW214481   4.364   0.955   3.132
 4528SOL     OW14482   5.528   0.204   0.240
 4528SOL    HW114483   5.484   0.146   0.308
 4528SOL    HW214484   5.460   0.231   0.172
 4529SOL     OW14485   2.528   0.445   2.681
 4529SOL    HW114486   2.513   0.519   2.615
 4529SOL    HW214487   2.542   0.359   2.631
 4530SOL     OW14488   0.697   3.258   5.542
 4530SOL    HW114489   0.650   3.186   5.492
 4530SOL    HW214490   0.631   3.315   5.590
 4531SOL     OW14491   1.071   3.351   3.397
 4531SOL    HW114492   1.149   3.290   3.383
 4531SOL    HW214493   1.062   3.412   3.319
 4532SOL     OW14494   6.444   1.726   1.101
 4532SOL    HW114495   6.495   1.663   1.042
 4532SOL    HW214496   6.427   1.682   1.189
 4533SOL     OW14497   1.909   6.200   3.161
 4533SOL    HW114498   1.985   6.161   3.213
 4533SOL    HW214499   1.941   6.278   3.108
 4534SOL     OW14500   5.407   3.899   5.230
 4534SOL    HW114501   5.450   3.859   5.311
 4534SOL    HW214502   5.330   3.956   5.258
 4535SOL     OW14503   5.002   2.916   2.002
 4535SOL    HW114504   5.086   2.946   2.048
 4535SOL    HW214505   4.927   2.978   2.026
 4536SOL     OW14506   5.319   0.913   4.857
 4536SOL    HW114507   5.271   0.997   4.832
 4536SOL    HW214508   5.418   0.929   4.855
 4537SOL     OW14509   3.896   3.024   6.595
 4537SOL    HW114510   3.871   3.073   6.678
 4537SOL    HW214511   3.985   2.979   6.607
 4538SOL     OW14512   3.668   1.663   3.546
 4538SOL    HW114513   3.761   1.664   3.583
 4538SOL    HW214514   3.602   1.667   3.620
 4539SOL     OW14515   2.647   2.115   3.664
 4539SOL    HW114516   2.698   2.139   3.746
 4539SOL    HW214517   2.672   2.023   3.634
 4540SOL     OW14518   3.559   3.549   4.888
 4540SOL    HW114519   3.568   3.594   4.800
 4540SOL    HW214520   3.650   3.534   4.928
 4541SOL     OW14521   4.981   1.077   0.290
 4541SOL    HW114522   4.932   1.135   0.355
 4541SOL    HW214523   4.918   1.046   0.219
 4542SOL     OW14524   6.009   6.075   1.551
 4542SOL    HW114525   5.957   6.056   1.634
 4542SOL    HW214526   6.104   6.097   1.575
 4543SOL     OW14527   4.908   1.952   0.911
 4543SOL    HW114528   4.881   1.864   0.952
 4543SOL    HW214529   4.846   1.975   0.837
 4544SOL     OW14530   2.464   6.046   6.914
 4544SOL    HW114531   2.544   6.010   6.961
 4544SOL    HW214532   2.391   6.063   6.979
 4545SOL     OW14533   4.378   2.207   5.389
 4545SOL    HW114534   4.409   2.132   5.331
 4545SOL    HW214535   4.320   2.172   5.462
 4546SOL     OW14536   1.029   6.280   6.369
 4546SOL    HW114537   1.104   6.338   6.337
 4546SOL    HW214538   1.066   6.191   6.396
 4547SOL     OW14539   5.569   2.687   1.226
 4547SOL    HW114540   5.542   2.682   1.322
 4547SOL    HW214541   5.487   2.689   1.169
 4548SOL     OW14542   0.364   4.776   3.789
 4548SOL    HW114543   0.405   4.702   3.843
 4548SOL    HW214544   0.352   4.745   3.695
 4549SOL     OW14545   6.833   3.252   2.841
 4549SOL    HW114546   6.795   3.310   2.913
 4549SOL    HW214547   6.896   3.305   2.784
 4550SOL     OW14548   1.040   6.126   3.564
 4550SOL    HW114549   0.957   6.088   3.605
 4550SOL    HW214550   1.077   6.062   3.497
 4551SOL     OW14551   0.656   2.503   5.134
 4551SOL    HW114552   0.674   2.598   5.160
 4551SOL    HW214553   0.743   2.457   5.115
 4552SOL     OW14554   0.476   3.225   5.066
 4552SOL    HW114555   0.465   3.259   4.973
 4552SOL    HW214556   0.469   3.125   5.066
 4553SOL     OW14557   4.642   4.763   0.101
 4553SOL    HW114558   4.740   4.769   0.121
 4553SOL    HW214559   4.598   4.850   0.120
 4554SOL     OW14560   4.230   0.137   2.530
 4554SOL    HW114561   4.263   0.066   2.591
 4554SOL    HW214562   4.299   0.155   2.460
 4555SOL     OW14563   4.395   1.911   6.687
 4555SOL    HW114564   4.381   1.957   6.775
 4555SOL    HW214565   4.477   1.949   6.644
 4556SOL     OW14566   4.036   0.655   3.874
 4556SOL    HW114567   4.110   0.676   3.811
 4556SOL    HW214568   4.051   0.704   3.960
 4557SOL     OW14569   5.298   6.961   5.302
 4557SOL    HW114570   5.322   0.035   5.301
 4557SOL    HW214571   5.215   6.947   5.248
 4558SOL     OW14572   6.135   3.459   6.314
 4558SOL    HW114573   6.061   3.490   6.373
 4558SOL    HW214574   6.199   3.533   6.298
 4559SOL     OW14575   1.299   6.273   1.092
 4559SOL    HW114576   1.329   6.212   1.166
 4559SOL    HW214577   1.348   6.249   1.008
 4560SOL     OW14578   4.868   3.068   3.028
 4560SOL    HW114579   4.860   2.991   3.091
 4560SOL    HW214580   4.812   3.050   2.946
 4561SOL     OW14581   3.181   1.316   0.172
 4561SOL    HW114582   3.104   1.265   0.209
 4561SOL    HW214583   3.178   1.411   0.204
 4562SOL     OW14584   3.697   5.828   5.819
 4562SOL    HW114585   3.661   5.802   5.729
 4562SOL    HW214586   3.622   5.827   5.885
 4563SOL     OW14587   5.818   2.278   0.367
 4563SOL    HW114588   5.794   2.375   0.367
 4563SOL    HW214589   5.879   2.259   0.289
 4564SOL     OW14590   1.017   5.141   0.766
 4564SOL    HW114591   1.077   5.119   0.844
 4564SOL    HW214592   0.938   5.079   0.767
 4565SOL     OW14593   0.692   1.596   4.977
 4565SOL    HW114594   0.654   1.639   5.059
 4565SOL    HW214595   0.693   1.661   4.902
 4566SOL     OW14596   0.380   6.914   0.053
 4566SOL    HW114597   0.430   7.000   0.055
 4566SOL    HW214598   0.282   6.933   0.044
 4567SOL     OW14599   7.010   0.917   0.649
 4567SOL    HW114600   0.062   0.937   0.713
 4567SOL    HW214601   6.984   0.821   0.659
 4568SOL     OW14602   2.824   4.810   5.507
 4568SOL    HW114603   2.744   4.864   5.534
 4568SOL    HW214604   2.804   4.760   5.423
 4569SOL     OW14605   1.030   1.622   4.348
 4569SOL    HW114606   1.112   1.565   4.348
 4569SOL    HW214607   1.040   1.696   4.414
 4570SOL     OW14608   0.218   5.765   3.279
 4570SOL    HW114609   0.265   5.682   3.311
 4570SOL    HW214610   0.257   5.845   3.325
 4571SOL     OW14611   2.996   3.531   4.831
 4571SOL    HW114612   2.961   3.573   4.747
 4571SOL    HW214613   3.096   3.538   4.832
 4572SOL     OW14614   0.339   6.868   1.311
 4572SOL    HW114615   0.253   6.914   1.334
 4572SOL    HW214616   0.385   6.839   1.395
 4573SOL     OW14617   5.991   6.193   1.301
 4573SOL    HW114618   5.956   6.287   1.307
 4573SOL    HW214619   5.969   6.143   1.384
 4574SOL     OW14620   0.126   4.733   1.260
 4574SOL    HW114621   0.084   4.653   1.304
 4574SOL    HW214622   0.063   4.771   1.193
 4575SOL     OW14623   6.391   2.027   0.452
 4575SOL    HW114624   6.347   2.046   0.540
 4575SOL    HW214625   6.336   2.066   0.378
 4576SOL     OW14626   2.774   5.599   6.649
 4576SOL    HW114627   2.763   5.553   6.738
 4576SOL    HW214628   2.799   5.531   6.580
 4577SOL     OW14629   0.569   3.333   3.239
 4577SOL    HW114630   0.563   3.272   3.160
 4577SOL    HW214631   0.656   3.317   3.287
 4578SOL     OW14632   0.603   3.702   3.731
 4578SOL    HW114633   0.613   3.736   3.825
 4578SOL    HW214634   0.514   3.731   3.695
 4579SOL     OW14635   4.558   1.682   2.686
 4579SOL    HW114636   4.640   1.625   2.682
 4579SOL    HW214637   4.584   1.779   2.681
 4580SOL     OW14638   5.961   5.169   0.757
 4580SOL    HW114639   6.056   5.199   0.764
 4580SOL    HW214640   5.925   5.151   0.849
 4581SOL     OW14641   3.505   4.996   3.064
 4581SOL    HW114642   3.562   5.012   3.145
 4581SOL    HW214643   3.486   5.083   3.019
 4582SOL     OW14644   5.050   6.794   3.851
 4582SOL    HW114645   4.995   6.775   3.933
 4582SOL    HW214646   5.068   6.892   3.846
 4583SOL     OW14647   2.803   1.927   5.180
 4583SOL    HW114648   2.869   1.907   5.253
 4583SOL    HW214649   2.755   1.843   5.155
 4584SOL     OW14650   0.097   6.093   5.986
 4584SOL    HW114651   0.050   6.015   5.943
 4584SOL    HW214652   0.041   6.175   5.974
 4585SOL     OW14653   3.296   6.638   3.008
 4585SOL    HW114654   3.236   6.695   3.064
 4585SOL    HW214655   3.244   6.564   2.968
 4586SOL     OW14656   3.276   5.239   1.627
 4586SOL    HW114657   3.267   5.249   1.727
 4586SOL    HW214658   3.297   5.328   1.587
 4587SOL     OW14659   4.196   3.428   1.559
 4587SOL    HW114660   4.209   3.407   1.656
 4587SOL    HW214661   4.163   3.346   1.511
 4588SOL     OW14662   3.906   3.866   4.867
 4588SOL    HW114663   3.842   3.810   4.815
 4588SOL    HW214664   4.000   3.843   4.840
 4589SOL     OW14665   6.223   2.310   2.975
 4589SOL    HW114666   6.224   2.338   2.879
 4589SOL    HW214667   6.200   2.389   3.033
 4590SOL     OW14668   4.457   5.655   2.779
 4590SOL    HW114669   4.494   5.596   2.708
 4590SOL    HW214670   4.381   5.709   2.742
 4591SOL     OW14671   6.435   5.854   5.892
 4591SOL    HW114672   6.465   5.879   5.985
 4591SOL    HW214673   6.380   5.928   5.854
 4592SOL     OW14674   4.170   3.171   0.586
 4592SOL    HW114675   4.118   3.215   0.513
 4592SOL    HW214676   4.247   3.230   0.611
 4593SOL     OW14677   4.432   5.492   3.018
 4593SOL    HW114678   4.466   5.561   2.954
 4593SOL    HW214679   4.486   5.409   3.011
 4594SOL     OW14680   3.527   1.770   2.219
 4594SOL    HW114681   3.592   1.696   2.228
 4594SOL    HW214682   3.455   1.744   2.155
 4595SOL     OW14683   3.745   2.759   6.443
 4595SOL    HW114684   3.788   2.789   6.528
 4595SOL    HW214685   3.772   2.821   6.369
 4596SOL     OW14686   5.847   6.238   2.562
 4596SOL    HW114687   5.926   6.231   2.622
 4596SOL    HW214688   5.831   6.334   2.538
 4597SOL     OW14689   5.051   4.958   6.408
 4597SOL    HW114690   5.124   4.917   6.353
 4597SOL    HW214691   5.005   5.029   6.354
 4598SOL     OW14692   1.885   5.227   6.508
 4598SOL    HW114693   1.978   5.262   6.510
 4598SOL    HW214694   1.868   5.170   6.588
 4599SOL     OW14695   1.323   4.077   1.404
 4599SOL    HW114696   1.369   4.004   1.455
 4599SOL    HW214697   1.286   4.040   1.319
 4600SOL     OW14698   3.145   5.031   6.518
 4600SOL    HW114699   3.222   4.983   6.561
 4600SOL    HW214700   3.170   5.126   6.500
 4601SOL     OW14701   1.952   1.106   5.176
 4601SOL    HW114702   2.015   1.093   5.252
 4601SOL    HW214703   1.876   1.041   5.185
 4602SOL     OW14704   1.499   6.797   1.525
 4602SOL    HW114705   1.567   6.825   1.593
 4602SOL    HW214706   1.543   6.744   1.453
 4603SOL     OW14707   3.409   6.458   1.847
 4603SOL    HW114708   3.433   6.427   1.755
 4603SOL    HW214709   3.317   6.428   1.870
 4604SOL     OW14710   3.682   0.302   1.946
 4604SOL    HW114711   3.640   0.213   1.928
 4604SOL    HW214712   3.781   0.294   1.943
 4605SOL     OW14713   4.814   0.859   4.411
 4605SOL    HW114714   4.764   0.773   4.416
 4605SOL    HW214715   4.908   0.844   4.441
 4606SOL     OW14716   0.108   6.331   4.090
 4606SOL    HW114717   0.150   6.397   4.028
 4606SOL    HW214718   0.075   6.378   4.172
 4607SOL     OW14719   2.441   2.297   1.545
 4607SOL    HW114720   2.368   2.229   1.529
 4607SOL    HW214721   2.497   2.268   1.622
 4608SOL     OW14722   1.502   4.741   5.064
 4608SOL    HW114723   1.516   4.644   5.041
 4608SOL    HW214724   1.570   4.796   5.015
 4609SOL     OW14725   4.389   5.892   6.815
 4609SOL    HW114726   4.444   5.829   6.870
 4609SOL    HW214727   4.448   5.962   6.774
 4610SOL     OW14728   6.706   2.781   0.077
 4610SOL    HW114729   6.770   2.856   0.064
 4610SOL    HW214730   6.741   2.698   0.033
 4611SOL     OW14731   0.158   3.900   6.895
 4611SOL    HW114732   0.236   3.934   6.946
 4611SOL    HW214733   0.151   3.801   6.906
 4612SOL     OW14734   2.015   5.945   6.709
 4612SOL    HW114735   2.046   6.034   6.742
 4612SOL    HW214736   2.029   5.939   6.610
 4613SOL     OW14737   2.813   5.168   2.864
 4613SOL    HW114738   2.908   5.162   2.896
 4613SOL    HW214739   2.754   5.117   2.927
 4614SOL     OW14740   1.745   5.690   6.921
 4614SOL    HW114741   1.663   5.704   6.976
 4614SOL    HW214742   1.758   5.592   6.906
 4615SOL     OW14743   1.256   1.611   0.122
 4615SOL    HW114744   1.300   1.680   0.064
 4615SOL    HW214745   1.165   1.592   0.087
 4616SOL     OW14746   6.146   0.545   6.594
 4616SOL    HW114747   6.165   0.568   6.689
 4616SOL    HW214748   6.073   0.476   6.590
 4617SOL     OW14749   0.949   2.328   2.850
 4617SOL    HW114750   0.943   2.363   2.757
 4617SOL    HW214751   0.910   2.396   2.913
 4618SOL     OW14752   1.057   2.813   5.701
 4618SOL    HW114753   1.041   2.806   5.603
 4618SOL    HW214754   1.155   2.800   5.720
 4619SOL     OW14755   4.388   0.200   3.603
 4619SOL    HW114756   4.354   0.243   3.687
 4619SOL    HW214757   4.340   0.113   3.588
 4620SOL     OW14758   3.682   4.528   6.868
 4620SOL    HW114759   3.773   4.488   6.882
 4620SOL    HW214760   3.691   4.627   6.856
 4621SOL     OW14761   6.521   1.680   4.702
 4621SOL    HW114762   6.436   1.628   4.698
 4621SOL    HW214763   6.555   1.695   4.609
 4622SOL     OW14764   1.547   2.938   0.976
 4622SOL    HW114765   1.614   2.928   1.049
 4622SOL    HW214766   1.455   2.921   1.012
 4623SOL     OW14767   7.004   4.894   0.692
 4623SOL    HW114768   0.070   4.931   0.721
 4623SOL    HW214769   7.018   4.826   0.620
 4624SOL     OW14770   4.546   0.803   3.796
 4624SOL    HW114771   4.450   0.813   3.769
 4624SOL    HW214772   4.570   0.705   3.795
 4625SOL     OW14773   1.253   4.480   0.016
 4625SOL    HW114774   1.348   4.503   7.019
 4625SOL    HW214775   1.226   4.401   6.985
 4626SOL     OW14776   6.588   4.672   1.992
 4626SOL    HW114777   6.493   4.702   1.998
 4626SOL    HW214778   6.636   4.729   1.925
 4627SOL     OW14779   3.961   6.351   5.764
 4627SOL    HW114780   3.885   6.337   5.700
 4627SOL    HW214781   3.924   6.370   5.855
 4628SOL     OW14782   6.068   5.050   2.306
 4628SOL    HW114783   6.064   4.955   2.274
 4628SOL    HW214784   6.163   5.078   2.317
 4629SOL     OW14785   1.980   4.848   6.003
 4629SOL    HW114786   1.937   4.938   6.012
 4629SOL    HW214787   2.055   4.853   5.937
 4630SOL     OW14788   2.793   5.709   3.377
 4630SOL    HW114789   2.729   5.636   3.400
 4630SOL    HW214790   2.869   5.708   3.443
 4631SOL     OW14791   1.897   6.374   3.559
 4631SOL    HW114792   1.947   6.435   3.621
 4631SOL    HW214793   1.960   6.338   3.490
 4632SOL     OW14794   4.412   5.411   4.373
 4632SOL    HW114795   4.400   5.360   4.289
 4632SOL    HW214796   4.498   5.462   4.370
 4633SOL     OW14797   6.456   2.021   5.300
 4633SOL    HW114798   6.509   2.106   5.295
 4633SOL    HW214799   6.363   2.041   5.328
 4634SOL     OW14800   2.890   4.624   0.193
 4634SOL    HW114801   2.920   4.540   0.238
 4634SOL    HW214802   2.880   4.607   0.095
 4635SOL     OW14803   5.827   3.429   2.772
 4635SOL    HW114804   5.804   3.460   2.864
 4635SOL    HW214805   5.746   3.388   2.729
 4636SOL     OW14806   2.848   5.209   0.158
 4636SOL    HW114807   2.770   5.162   0.117
 4636SOL    HW214808   2.837   5.308   0.146
 4637SOL     OW14809   1.193   0.557   6.373
 4637SOL    HW114810   1.279   0.603   6.355
 4637SOL    HW214811   1.188   0.473   6.318
 4638SOL     OW14812   3.969   3.010   6.194
 4638SOL    HW114813   3.940   3.087   6.137
 4638SOL    HW214814   3.907   2.932   6.179
 4639SOL     OW14815   0.683   4.079   5.813
 4639SOL    HW114816   0.703   4.067   5.910
 4639SOL    HW214817   0.613   4.014   5.785
 4640SOL     OW14818   4.772   4.606   4.111
 4640SOL    HW114819   4.685   4.566   4.084
 4640SOL    HW214820   4.757   4.697   4.148
 4641SOL     OW14821   2.652   4.870   4.260
 4641SOL    HW114822   2.662   4.773   4.285
 4641SOL    HW214823   2.565   4.882   4.211
 4642SOL     OW14824   6.418   5.431   4.617
 4642SOL    HW114825   6.425   5.491   4.537
 4642SOL    HW214826   6.452   5.340   4.593
 4643SOL     OW14827   4.150   2.462   1.257
 4643SOL    HW114828   4.178   2.550   1.218
 4643SOL    HW214829   4.073   2.426   1.204
 4644SOL     OW14830   1.428   5.430   4.708
 4644SOL    HW114831   1.364   5.439   4.784
 4644SOL    HW214832   1.512   5.480   4.729
 4645SOL     OW14833   2.258   6.431   4.598
 4645SOL    HW114834   2.219   6.470   4.682
 4645SOL    HW214835   2.336   6.486   4.569
 4646SOL     OW14836   2.813   0.315   2.028
 4646SOL    HW114837   2.782   0.409   2.038
 4646SOL    HW214838   2.878   0.310   1.952
 4647SOL     OW14839   0.522   0.009   3.468
 4647SOL    HW114840   0.466   0.039   3.546
 4647SOL    HW214841   0.605   0.066   3.463
 4648SOL     OW14842   3.354   6.878   2.767
 4648SOL    HW114843   3.312   6.791   2.792
 4648SOL    HW214844   3.443   6.886   2.810
 4649SOL     OW14845   5.227   0.837   5.552
 4649SOL    HW114846   5.152   0.782   5.514
 4649SOL    HW214847   5.222   0.835   5.652
 4650SOL     OW14848   4.279   6.450   3.318
 4650SOL    HW114849   4.310   6.518   3.252
 4650SOL    HW214850   4.359   6.410   3.364
 4651SOL     OW14851   0.221   2.095   1.970
 4651SOL    HW114852   0.301   2.050   1.932
 4651SOL    HW214853   0.158   2.120   1.896
 4652SOL     OW14854   0.608   0.438   3.809
 4652SOL    HW114855   0.666   0.505   3.857
 4652SOL    HW214856   0.512   0.463   3.820
 4653SOL     OW14857   6.700   6.416   0.090
 4653SOL    HW114858   6.745   6.471   0.020
 4653SOL    HW214859   6.614   6.459   0.116
 4654SOL     OW14860   0.988   6.982   0.365
 4654SOL    HW114861   0.998   6.882   0.360
 4654SOL    HW214862   0.899   7.008   0.328
 4655SOL     OW14863   0.615   4.714   2.812
 4655SOL    HW114864   0.524   4.729   2.850
 4655SOL    HW214865   0.663   4.646   2.867
 4656SOL     OW14866   0.852   0.585   3.284
 4656SOL    HW114867   0.876   0.589   3.187
 4656SOL    HW214868   0.920   0.638   3.337
 4657SOL     OW14869   4.851   6.878   1.162
 4657SOL    HW114870   4.817   6.830   1.243
 4657SOL    HW214871   4.940   6.841   1.137
 4658SOL     OW14872   4.373   0.219   3.066
 4658SOL    HW114873   4.372   0.221   3.166
 4658SOL    HW214874   4.300   0.276   3.030
 4659SOL     OW14875   1.286   3.042   5.252
 4659SOL    HW114876   1.306   3.139   5.235
 4659SOL    HW214877   1.255   3.000   5.167
 4660SOL     OW14878   0.577   1.712   5.215
 4660SOL    HW114879   0.481   1.685   5.214
 4660SOL    HW214880   0.613   1.700   5.308
 4661SOL     OW14881   3.475   4.047   4.514
 4661SOL    HW114882   3.571   4.051   4.486
 4661SOL    HW214883   3.461   4.107   4.593
 4662SOL     OW14884   5.114   0.340   5.353
 4662SOL    HW114885   5.078   0.432   5.337
 4662SOL    HW214886   5.058   0.274   5.303
 4663SOL     OW14887   0.048   1.789   1.923
 4663SOL    HW114888   0.094   1.760   2.007
 4663SOL    HW214889   6.997   1.853   1.946
 4664SOL     OW14890   2.270   2.858   6.406
 4664SOL    HW114891   2.363   2.893   6.402
 4664SOL    HW214892   2.254   2.816   6.496
 4665SOL     OW14893   5.168   0.141   5.833
 4665SOL    HW114894   5.252   0.113   5.880
 4665SOL    HW214895   5.107   0.062   5.825
 4666SOL     OW14896   2.433   1.934   6.777
 4666SOL    HW114897   2.354   1.951   6.835
 4666SOL    HW214898   2.515   1.925   6.834
 4667SOL     OW14899   6.747   5.407   6.517
 4667SOL    HW114900   6.719   5.498   6.550
 4667SOL    HW214901   6.846   5.400   6.518
 4668SOL     OW14902   6.715   1.808   4.353
 4668SOL    HW114903   6.689   1.718   4.387
 4668SOL    HW214904   6.699   1.876   4.424
 4669SOL     OW14905   1.707   6.077   0.407
 4669SOL    HW114906   1.668   6.010   0.343
 4669SOL    HW214907   1.635   6.117   0.462
 4670SOL     OW14908   3.039   1.124   4.695
 4670SOL    HW114909   2.976   1.188   4.738
 4670SOL    HW214910   3.122   1.172   4.665
 4671SOL     OW14911   6.134   3.105   1.463
 4671SOL    HW114912   6.060   3.038   1.469
 4671SOL    HW214913   6.221   3.060   1.485
 4672SOL     OW14914   1.979   4.208   6.308
 4672SOL    HW114915   2.000   4.141   6.379
 4672SOL    HW214916   2.018   4.177   6.221
 4673SOL     OW14917   3.626   0.299   1.587
 4673SOL    HW114918   3.542   0.345   1.557
 4673SOL    HW214919   3.615   0.267   1.680
 4674SOL     OW14920   5.279   5.490   5.445
 4674SOL    HW114921   5.202   5.550   5.421
 4674SOL    HW214922   5.305   5.506   5.540
 4675SOL     OW14923   1.261   3.919   1.191
 4675SOL    HW114924   1.241   3.964   1.103
 4675SOL    HW214925   1.353   3.880   1.189
 4676SOL     OW14926   1.809   6.049   3.711
 4676SOL    HW114927   1.883   6.113   3.728
 4676SOL    HW214928   1.745   6.089   3.645
 4677SOL     OW14929   1.753   1.684   0.298
 4677SOL    HW114930   1.798   1.641   0.220
 4677SOL    HW214931   1.669   1.635   0.320
 4678SOL     OW14932   2.122   3.896   2.630
 4678SOL    HW114933   2.035   3.929   2.666
 4678SOL    HW214934   2.124   3.796   2.632
 4679SOL     OW14935   5.395   6.416   1.830
 4679SOL    HW114936   5.472   6.480   1.829
 4679SOL    HW214937   5.313   6.462   1.863
 4680SOL     OW14938   3.079   1.680   1.819
 4680SOL    HW114939   3.053   1.726   1.734
 4680SOL    HW214940   3.174   1.702   1.842
 4681SOL     OW14941   5.027   4.336   0.335
 4681SOL    HW114942   4.960   4.406   0.306
 4681SOL    HW214943   5.096   4.378   0.393
 4682SOL     OW14944   4.432   3.531   6.372
 4682SOL    HW114945   4.479   3.511   6.458
 4682SOL    HW214946   4.463   3.467   6.302
 4683SOL     OW14947   5.964   4.192   3.424
 4683SOL    HW114948   6.032   4.253   3.383
 4683SOL    HW214949   5.998   4.158   3.512
 4684SOL     OW14950   3.950   6.112   0.329
 4684SOL    HW114951   3.939   6.060   0.414
 4684SOL    HW214952   3.949   6.210   0.349
 4685SOL     OW14953   2.511   3.887   6.072
 4685SOL    HW114954   2.458   3.808   6.041
 4685SOL    HW214955   2.496   3.964   6.010
 4686SOL     OW14956   2.994   6.302   0.688
 4686SOL    HW114957   2.959   6.284   0.596
 4686SOL    HW214958   3.071   6.366   0.682
 4687SOL     OW14959   3.558   1.746   3.289
 4687SOL    HW114960   3.517   1.676   3.231
 4687SOL    HW214961   3.575   1.709   3.380
 4688SOL     OW14962   5.653   2.129   5.825
 4688SOL    HW114963   5.633   2.119   5.728
 4688SOL    HW214964   5.718   2.204   5.838
 4689SOL     OW14965   5.496   0.573   1.032
 4689SOL    HW114966   5.529   0.525   0.950
 4689SOL    HW214967   5.544   0.537   1.112
 4690SOL     OW14968   1.974   1.434   0.819
 4690SOL    HW114969   2.062   1.389   0.805
 4690SOL    HW214970   1.900   1.367   0.815
 4691SOL     OW14971   5.229   4.733   0.070
 4691SOL    HW114972   5.279   4.647   0.068
 4691SOL    HW214973   5.205   4.759   6.999
 4692SOL     OW14974   6.686   4.463   2.570
 4692SOL    HW114975   6.691   4.368   2.601
 4692SOL    HW214976   6.686   4.524   2.649
 4693SOL     OW14977   1.520   0.609   3.937
 4693SOL    HW114978   1.598   0.608   3.875
 4693SOL    HW214979   1.453   0.677   3.906
 4694SOL     OW14980   2.040   1.452   0.466
 4694SOL    HW114981   2.119   1.452   0.526
 4694SOL    HW214982   2.056   1.515   0.390
 4695SOL     OW14983   1.477   5.918   1.108
 4695SOL    HW114984   1.573   5.895   1.124
 4695SOL    HW214985   1.470   5.989   1.038
 4696SOL     OW14986   1.117   5.285   5.999
 4696SOL    HW114987   1.201   5.235   5.974
 4696SOL    HW214988   1.040   5.247   5.947
 4697SOL     OW14989   1.451   3.899   1.557
 4697SOL    HW114990   1.477   3.807   1.527
 4697SOL    HW214991   1.529   3.943   1.601
 4698SOL     OW14992   4.770   0.257   3.241
 4698SOL    HW114993   4.766   0.260   3.341
 4698SOL    HW214994   4.719   0.178   3.207
 4699SOL     OW14995   0.491   0.561   1.891
 4699SOL    HW114996   0.591   0.558   1.884
 4699SOL    HW214997   0.461   0.492   1.956
 4700SOL     OW14998   6.637   2.164   2.574
 4700SOL    HW114999   6.562   2.197   2.516
 4700SOL    HW215000   6.720   2.215   2.553
 4701SOL     OW15001   3.233   1.554   2.270
 4701SOL    HW115002   3.170   1.497   2.219
 4701SOL    HW215003   3.188   1.640   2.295
 4702SOL     OW15004   5.212   5.014   6.641
 4702SOL    HW115005   5.192   5.097   6.694
 4702SOL    HW215006   5.165   5.018   6.553
 4703SOL     OW15007   1.023   5.156   2.345
 4703SOL    HW115008   1.058   5.062   2.350
 4703SOL    HW215009   0.964   5.166   2.265
 4704SOL     OW15010   0.338   6.225   5.845
 4704SOL    HW115011   0.279   6.233   5.925
 4704SOL    HW215012   0.282   6.209   5.763
 4705SOL     OW15013   2.883   2.841   0.775
 4705SOL    HW115014   2.947   2.916   0.790
 4705SOL    HW215015   2.909   2.792   0.692
 4706SOL     OW15016   1.112   0.146   1.012
 4706SOL    HW115017   1.022   0.115   1.042
 4706SOL    HW215018   1.178   0.072   1.020
 4707SOL     OW15019   1.720   6.528   1.326
 4707SOL    HW115020   1.794   6.553   1.264
 4707SOL    HW215021   1.639   6.584   1.304
 4708SOL     OW15022   1.453   1.684   5.222
 4708SOL    HW115023   1.450   1.707   5.319
 4708SOL    HW215024   1.381   1.617   5.202
 4709SOL     OW15025   5.012   5.152   4.989
 4709SOL    HW115026   4.994   5.212   5.067
 4709SOL    HW215027   5.105   5.117   4.995
 4710SOL     OW15028   5.520   6.744   4.489
 4710SOL    HW115029   5.586   6.798   4.438
 4710SOL    HW215030   5.475   6.679   4.428
 4711SOL     OW15031   6.301   2.732   3.323
 4711SOL    HW115032   6.206   2.752   3.347
 4711SOL    HW215033   6.303   2.672   3.243
 4712SOL     OW15034   4.585   4.575   5.791
 4712SOL    HW115035   4.552   4.487   5.822
 4712SOL    HW215036   4.584   4.640   5.867
 4713SOL     OW15037   5.361   4.804   1.105
 4713SOL    HW115038   5.385   4.863   1.028
 4713SOL    HW215039   5.307   4.727   1.071
 4714SOL     OW15040   6.502   1.861   6.602
 4714SOL    HW115041   6.417   1.898   6.563
 4714SOL    HW215042   6.487   1.839   6.698
 4715SOL     OW15043   6.195   1.859   1.799
 4715SOL    HW115044   6.131   1.839   1.725
 4715SOL    HW215045   6.263   1.786   1.804
 4716SOL     OW15046   4.269   5.438   5.367
 4716SOL    HW115047   4.322   5.397   5.293
 4716SOL    HW215048   4.248   5.533   5.345
 4717SOL     OW15049   2.896   5.706   5.530
 4717SOL    HW115050   2.879   5.639   5.602
 4717SOL    HW215051   2.984   5.751   5.547
 4718SOL     OW15052   5.342   3.225   0.932
 4718SOL    HW115053   5.439   3.216   0.952
 4718SOL    HW215054   5.330   3.282   0.851
 4719SOL     OW15055   5.633   3.377   3.420
 4719SOL    HW115056   5.563   3.410   3.483
 4719SOL    HW215057   5.598   3.297   3.371
 4720SOL     OW15058   3.124   5.276   0.210
 4720SOL    HW115059   3.026   5.270   0.224
 4720SOL    HW215060   3.163   5.185   0.199
 4721SOL     OW15061   6.292   3.392   1.911
 4721SOL    HW115062   6.222   3.421   1.977
 4721SOL    HW215063   6.367   3.348   1.960
 4722SOL     OW15064   0.898   4.698   6.598
 4722SOL    HW115065   0.909   4.653   6.687
 4722SOL    HW215066   0.953   4.650   6.530
 4723SOL     OW15067   3.717   4.739   5.893
 4723SOL    HW115068   3.751   4.745   5.799
 4723SOL    HW215069   3.782   4.687   5.948
 4724SOL     OW15070   0.269   6.734   4.052
 4724SOL    HW115071   0.230   6.806   4.110
 4724SOL    HW215072   0.196   6.684   4.006
 4725SOL     OW15073   5.748   5.255   0.587
 4725SOL    HW115074   5.698   5.173   0.615
 4725SOL    HW215075   5.838   5.256   0.631
 4726SOL     OW15076   1.905   2.872   5.572
 4726SOL    HW115077   1.809   2.880   5.543
 4726SOL    HW215078   1.947   2.962   5.576
 4727SOL     OW15079   0.862   5.437   0.375
 4727SOL    HW115080   0.891   5.516   0.321
 4727SOL    HW215081   0.929   5.421   0.448
 4728SOL     OW15082   6.164   1.295   3.093
 4728SOL    HW115083   6.158   1.292   3.193
 4728SOL    HW215084   6.166   1.201   3.057
 4729SOL     OW15085   4.940   0.533   0.304
 4729SOL    HW115086   5.030   0.532   0.349
 4729SOL    HW215087   4.878   0.592   0.356
 4730SOL     OW15088   3.614   0.052   4.689
 4730SOL    HW115089   3.653   0.140   4.662
 4730SOL    HW215090   3.687   7.010   4.709
 4731SOL     OW15091   2.577   0.545   0.510
 4731SOL    HW115092   2.554   0.550   0.607
 4731SOL    HW215093   2.538   0.462   0.470
 4732SOL     OW15094   0.631   3.496   5.340
 4732SOL    HW115095   0.722   3.465   5.313
 4732SOL    HW215096   0.593   3.432   5.408
 4733SOL     OW15097   2.278   4.214   3.031
 4733SOL    HW115098   2.182   4.211   3.057
 4733SOL    HW215099   2.287   4.192   2.934
 4734SOL     OW15100   4.969   2.843   6.351
 4734SOL    HW115101   5.049   2.782   6.355
 4734SOL    HW215102   4.947   2.863   6.256
 4735SOL     OW15103   0.526   6.005   4.158
 4735SOL    HW115104   0.581   6.048   4.086
 4735SOL    HW215105   0.442   5.968   4.118
 4736SOL     OW15106   6.809   2.214   3.547
 4736SOL    HW115107   6.793   2.265   3.631
 4736SOL    HW215108   6.905   2.189   3.539
 4737SOL     OW15109   1.982   4.627   0.723
 4737SOL    HW115110   1.963   4.703   0.784
 4737SOL    HW215111   1.924   4.549   0.748
 4738SOL     OW15112   2.887   6.966   3.818
 4738SOL    HW115113   2.953   6.907   3.865
 4738SOL    HW215114   2.831   7.013   3.886
 4739SOL     OW15115   6.419   2.557   5.057
 4739SOL    HW115116   6.503   2.534   5.107
 4739SOL    HW215117   6.437   2.636   4.998
 4740SOL     OW15118   0.869   1.047   1.043
 4740SOL    HW115119   0.810   0.978   1.085
 4740SOL    HW215120   0.845   1.138   1.080
 4741SOL     OW15121   4.177   4.533   0.777
 4741SOL    HW115122   4.241   4.477   0.829
 4741SOL    HW215123   4.105   4.568   0.838
 4742SOL     OW15124   2.760   5.986   1.518
 4742SOL    HW115125   2.725   5.904   1.562
 4742SOL    HW215126   2.798   6.047   1.587
 4743SOL     OW15127   2.625   1.187   5.809
 4743SOL    HW115128   2.706   1.143   5.849
 4743SOL    HW215129   2.543   1.136   5.833
 4744SOL     OW15130   1.919   3.087   5.296
 4744SOL    HW115131   1.948   3.018   5.362
 4744SOL    HW215132   2.000   3.125   5.250
 4745SOL     OW15133   3.124   5.438   5.722
 4745SOL    HW115134   3.177   5.512   5.680
 4745SOL    HW215135   3.090   5.468   5.811
 4746SOL     OW15136   6.044   5.899   0.603
 4746SOL    HW115137   5.987   5.940   0.531
 4746SOL    HW215138   6.139   5.899   0.575
 4747SOL     OW15139   0.283   2.838   0.085
 4747SOL    HW115140   0.216   2.912   0.094
 4747SOL    HW215141   0.359   2.853   0.149
 4748SOL     OW15142   1.146   0.926   1.469
 4748SOL    HW115143   1.080   0.852   1.465
 4748SOL    HW215144   1.236   0.893   1.440
 4749SOL     OW15145   2.300   6.585   6.971
 4749SOL    HW115146   2.381   6.539   7.008
 4749SOL    HW215147   2.329   6.656   6.907
 4750SOL     OW15148   0.255   1.899   4.226
 4750SOL    HW115149   0.197   1.910   4.145
 4750SOL    HW215150   0.214   1.831   4.287
 4751SOL     OW15151   1.877   4.553   7.004
 4751SOL    HW115152   1.913   4.480   6.947
 4751SOL    HW215153   1.788   4.525   0.018
 4752SOL     OW15154   2.359   6.400   1.054
 4752SOL    HW115155   2.275   6.352   1.031
 4752SOL    HW215156   2.396   6.363   1.139
 4753SOL     OW15157   5.382   6.844   4.874
 4753SOL    HW115158   5.298   6.888   4.843
 4753SOL    HW215159   5.412   6.777   4.807
 4754SOL     OW15160   6.311   0.223   6.434
 4754SOL    HW115161   6.356   0.185   6.353
 4754SOL    HW215162   6.213   0.232   6.416
 4755SOL     OW15163   2.239   1.193   6.244
 4755SOL    HW115164   2.321   1.243   6.275
 4755SOL    HW215165   2.238   1.102   6.286
 4756SOL     OW15166   5.470   2.052   1.975
 4756SOL    HW115167   5.510   2.142   1.961
 4756SOL    HW215168   5.506   2.012   2.060
 4757SOL     OW15169   2.438   2.574   2.105
 4757SOL    HW115170   2.487   2.549   2.188
 4757SOL    HW215171   2.498   2.562   2.026
 4758SOL     OW15172   4.200   5.705   5.428
 4758SOL    HW115173   4.159   5.738   5.513
 4758SOL    HW215174   4.299   5.719   5.431
 4759SOL     OW15175   5.451   5.866   5.039
 4759SOL    HW115176   5.543   5.899   5.060
 4759SOL    HW215177   5.399   5.937   4.992
 4760SOL     OW15178   2.199   1.190   1.518
 4760SOL    HW115179   2.201   1.261   1.589
 4760SOL    HW215180   2.273   1.124   1.535
 4761SOL     OW15181   6.216   0.200   6.942
 4761SOL    HW115182   6.291   0.216   6.878
 4761SOL    HW215183   6.214   0.273   7.010
 4762SOL     OW15184   2.459   4.607   2.269
 4762SOL    HW115185   2.438   4.518   2.309
 4762SOL    HW215186   2.498   4.594   2.178
 4763SOL     OW15187   6.061   6.072   2.950
 4763SOL    HW115188   6.132   6.139   2.973
 4763SOL    HW215189   5.972   6.104   2.984
 4764SOL     OW15190   4.660   3.777   5.321
 4764SOL    HW115191   4.655   3.686   5.280
 4764SOL    HW215192   4.698   3.841   5.255
 4765SOL     OW15193   4.444   6.336   5.207
 4765SOL    HW115194   4.518   6.371   5.151
 4765SOL    HW215195   4.412   6.409   5.269
 4766SOL     OW15196   3.152   1.002   3.408
 4766SOL    HW115197   3.119   1.096   3.413
 4766SOL    HW215198   3.092   0.943   3.462
 4767SOL     OW15199   4.011   0.006   1.243
 4767SOL    HW115200   3.981   6.993   1.331
 4767SOL    HW215201   4.081   6.970   1.204
 4768SOL     OW15202   4.854   1.622   4.859
 4768SOL    HW115203   4.932   1.681   4.879
 4768SOL    HW215204   4.874   1.565   4.779
 4769SOL     OW15205   4.056   5.523   1.637
 4769SOL    HW115206   3.961   5.529   1.604
 4769SOL    HW215207   4.114   5.583   1.582
 4770SOL     OW15208   2.359   0.400   2.898
 4770SOL    HW115209   2.388   0.458   2.975
 4770SOL    HW215210   2.401   0.434   2.814
 4771SOL     OW15211   3.322   5.190   6.060
 4771SOL    HW115212   3.282   5.101   6.082
 4771SOL    HW215213   3.263   5.262   6.094
 4772SOL     OW15214   3.074   0.048   1.189
 4772SOL    HW115215   3.116   0.126   1.143
 4772SOL    HW215216   3.027   0.079   1.271
 4773SOL     OW15217   0.161   5.280   4.110
 4773SOL    HW115218   0.084   5.338   4.140
 4773SOL    HW215219   0.125   5.201   4.061
 4774SOL     OW15220   0.770   3.064   2.233
 4774SOL    HW115221   0.837   3.117   2.284
 4774SOL    HW215222   0.771   2.969   2.264
 4775SOL     OW15223   5.206   0.323   2.850
 4775SOL    HW115224   5.156   0.256   2.906
 4775SOL    HW215225   5.293   0.344   2.894
 4776SOL     OW15226   2.315   6.245   2.826
 4776SOL    HW115227   2.287   6.285   2.913
 4776SOL    HW215228   2.403   6.285   2.798
 4777SOL     OW15229   2.430   4.327   1.161
 4777SOL    HW115230   2.398   4.259   1.096
 4777SOL    HW215231   2.395   4.306   1.252
 4778SOL     OW15232   5.337   2.871   1.705
 4778SOL    HW115233   5.239   2.854   1.720
 4778SOL    HW215234   5.389   2.791   1.734
 4779SOL     OW15235   6.551   0.077   2.872
 4779SOL    HW115236   6.640   0.099   2.912
 4779SOL    HW215237   6.483   0.068   2.945
 4780SOL     OW15238   0.884   0.880   5.942
 4780SOL    HW115239   0.914   0.808   6.005
 4780SOL    HW215240   0.882   0.968   5.989
 4781SOL     OW15241   2.592   6.262   1.682
 4781SOL    HW115242   2.687   6.245   1.708
 4781SOL    HW215243   2.532   6.198   1.730
 4782SOL     OW15244   4.982   0.089   0.169
 4782SOL    HW115245   4.977   0.042   0.081
 4782SOL    HW215246   5.015   0.026   0.239
 4783SOL     OW15247   4.598   4.425   0.634
 4783SOL    HW115248   4.558   4.359   0.697
 4783SOL    HW215249   4.546   4.510   0.638
 4784SOL     OW15250   6.108   4.824   5.724
 4784SOL    HW115251   6.167   4.893   5.765
 4784SOL    HW215252   6.093   4.846   5.628
 4785SOL     OW15253   6.798   6.574   0.909
 4785SOL    HW115254   6.783   6.560   0.811
 4785SOL    HW215255   6.895   6.561   0.930
 4786SOL     OW15256   1.893   2.472   2.532
 4786SOL    HW115257   1.830   2.548   2.547
 4786SOL    HW215258   1.986   2.501   2.554
 4787SOL     OW15259   3.012   2.254   3.630
 4787SOL    HW115260   3.035   2.214   3.541
 4787SOL    HW215261   3.091   2.302   3.666
 4788SOL     OW15262   1.418   5.953   5.992
 4788SOL    HW115263   1.328   5.956   5.949
 4788SOL    HW215264   1.452   5.859   5.994
 4789SOL     OW15265   4.688   0.971   0.313
 4789SOL    HW115266   4.715   0.874   0.313
 4789SOL    HW215267   4.721   1.014   0.229
 4790SOL     OW15268   5.610   3.150   6.731
 4790SOL    HW115269   5.528   3.103   6.698
 4790SOL    HW215270   5.661   3.187   6.653
 4791SOL     OW15271   5.875   0.556   2.251
 4791SOL    HW115272   5.919   0.607   2.177
 4791SOL    HW215273   5.887   0.605   2.337
 4792SOL     OW15274   2.183   3.155   2.970
 4792SOL    HW115275   2.110   3.088   2.975
 4792SOL    HW215276   2.256   3.130   3.033
 4793SOL     OW15277   1.525   0.506   5.905
 4793SOL    HW115278   1.524   0.415   5.863
 4793SOL    HW215279   1.442   0.519   5.959
 4794SOL     OW15280   3.817   0.155   2.785
 4794SOL    HW115281   3.883   0.200   2.725
 4794SOL    HW215282   3.740   0.121   2.730
 4795SOL     OW15283   6.817   2.980   4.604
 4795SOL    HW115284   6.729   3.024   4.588
 4795SOL    HW215285   6.877   2.996   4.526
 4796SOL     OW15286   5.170   2.348   0.191
 4796SOL    HW115287   5.208   2.354   0.282
 4796SOL    HW215288   5.079   2.307   0.195
 4797SOL     OW15289   1.566   5.691   5.995
 4797SOL    HW115290   1.664   5.709   5.991
 4797SOL    HW215291   1.539   5.674   6.090
 4798SOL     OW15292   0.577   4.389   5.320
 4798SOL    HW115293   0.529   4.458   5.266
 4798SOL    HW215294   0.582   4.418   5.416
 4799SOL     OW15295   5.654   1.529   5.045
 4799SOL    HW115296   5.609   1.528   4.955
 4799SOL    HW215297   5.658   1.623   5.079
 4800SOL     OW15298   3.125   3.170   6.297
 4800SOL    HW115299   3.078   3.254   6.271
 4800SOL    HW215300   3.062   3.093   6.290
 4801SOL     OW15301   2.081   2.243   6.938
 4801SOL    HW115302   2.018   2.209   7.007
 4801SOL    HW215303   2.132   2.321   6.975
 4802SOL     OW15304   1.528   6.539   2.476
 4802SOL    HW115305   1.461   6.613   2.471
 4802SOL    HW215306   1.614   6.575   2.511
 4803SOL     OW15307   0.614   6.939   1.013
 4803SOL    HW115308   0.526   6.908   1.050
 4803SOL    HW215309   0.602   0.005   0.969
 4804SOL     OW15310   4.179   5.758   6.678
 4804SOL    HW115311   4.252   5.804   6.729
 4804SOL    HW215312   4.112   5.720   6.743
 4805SOL     OW15313   6.722   0.203   0.536
 4805SOL    HW115314   6.713   0.156   0.624
 4805SOL    HW215315   6.691   0.298   0.546
 4806SOL     OW15316   6.735   3.994   3.562
 4806SOL    HW115317   6.762   3.937   3.640
 4806SOL    HW215318   6.702   3.937   3.488
 4807SOL     OW15319   0.929   5.784   1.438
 4807SOL    HW115320   0.856   5.846   1.409
 4807SOL    HW215321   0.990   5.832   1.501
 4808SOL     OW15322   5.609   3.639   0.690
 4808SOL    HW115323   5.628   3.665   0.785
 4808SOL    HW215324   5.578   3.719   0.639
 4809SOL     OW15325   3.402   4.508   6.934
 4809SOL    HW115326   3.359   4.593   6.904
 4809SOL    HW215327   3.498   4.508   6.906
 4810SOL     OW15328   0.842   4.975   1.100
 4810SOL    HW115329   0.938   5.003   1.106
 4810SOL    HW215330   0.794   5.000   1.184
 4811SOL     OW15331   2.579   5.445   1.708
 4811SOL    HW115332   2.638   5.412   1.781
 4811SOL    HW215333   2.498   5.488   1.748
 4812SOL     OW15334   6.568   5.457   4.835
 4812SOL    HW115335   6.509   5.451   4.755
 4812SOL    HW215336   6.655   5.411   4.816
 4813SOL     OW15337   5.084   1.481   2.943
 4813SOL    HW115338   5.039   1.536   3.013
 4813SOL    HW215339   5.020   1.413   2.907
 4814SOL     OW15340   6.299   4.872   0.783
 4814SOL    HW115341   6.302   4.777   0.814
 4814SOL    HW215342   6.241   4.926   0.845
 4815SOL     OW15343   4.862   4.935   2.739
 4815SOL    HW115344   4.907   4.852   2.770
 4815SOL    HW215345   4.894   5.013   2.793
 4816SOL     OW15346   5.629   5.222   3.207
 4816SOL    HW115347   5.608   5.213   3.110
 4816SOL    HW215348   5.544   5.227   3.259
 4817SOL     OW15349   0.788   2.105   5.882
 4817SOL    HW115350   0.849   2.079   5.808
 4817SOL    HW215351   0.842   2.142   5.958
 4818SOL     OW15352   0.629   6.837   3.650
 4818SOL    HW115353   0.579   6.812   3.732
 4818SOL    HW215354   0.565   6.869   3.580
 4819SOL     OW15355   1.364   3.234   0.325
 4819SOL    HW115356   1.277   3.246   0.372
 4819SOL    HW215357   1.355   3.160   0.257
 4820SOL     OW15358   6.751   2.886   1.430
 4820SOL    HW115359   6.657   2.916   1.411
 4820SOL    HW215360   6.802   2.961   1.472
 4821SOL     OW15361   0.453   6.089   1.720
 4821SOL    HW115362   0.477   6.151   1.795
 4821SOL    HW215363   0.425   6.000   1.757
 4822SOL     OW15364   1.309   3.835   4.248
 4822SOL    HW115365   1.238   3.836   4.318
 4822SOL    HW215366   1.281   3.895   4.172
 4823SOL     OW15367   0.963   2.461   2.590
 4823SOL    HW115368   1.015   2.475   2.505
 4823SOL    HW215369   0.869   2.493   2.577
 4824SOL     OW15370   5.168   1.433   5.110
 4824SOL    HW115371   5.147   1.399   5.018
 4824SOL    HW215372   5.268   1.436   5.122
 4825SOL     OW15373   0.973   0.657   4.637
 4825SOL    HW115374   0.956   0.559   4.646
 4825SOL    HW215375   1.066   0.677   4.668
 4826SOL     OW15376   4.704   0.357   1.298
 4826SOL    HW115377   4.649   0.323   1.374
 4826SOL    HW215378   4.727   0.453   1.314
 4827SOL     OW15379   6.759   1.734   0.193
 4827SOL    HW115380   6.769   1.777   0.283
 4827SOL    HW215381   6.670   1.758   0.154
 4828SOL     OW15382   4.611   0.244   1.776
 4828SOL    HW115383   4.529   0.239   1.833
 4828SOL    HW215384   4.680   0.181   1.812
 4829SOL     OW15385   4.394   0.243   6.239
 4829SOL    HW115386   4.337   0.174   6.196
 4829SOL    HW215387   4.486   0.205   6.255
 4830SOL     OW15388   4.199   5.915   3.762
 4830SOL    HW115389   4.281   5.941   3.814
 4830SOL    HW215390   4.173   5.991   3.703
 4831SOL     OW15391   3.496   5.829   5.978
 4831SOL    HW115392   3.436   5.765   6.025
 4831SOL    HW215393   3.442   5.903   5.938
 4832SOL     OW15394   3.276   3.554   4.912
 4832SOL    HW115395   3.370   3.571   4.884
 4832SOL    HW215396   3.275   3.497   4.994
 4833SOL     OW15397   5.879   2.425   4.508
 4833SOL    HW115398   5.789   2.382   4.512
 4833SOL    HW215399   5.932   2.383   4.434
 4834SOL     OW15400   2.343   5.324   2.247
 4834SOL    HW115401   2.358   5.419   2.275
 4834SOL    HW215402   2.288   5.322   2.164
 4835SOL     OW15403   6.879   3.534   6.217
 4835SOL    HW115404   6.942   3.521   6.294
 4835SOL    HW215405   6.924   3.504   6.132
 4836SOL     OW15406   4.732   1.032   5.270
 4836SOL    HW115407   4.657   1.097   5.255
 4836SOL    HW215408   4.814   1.064   5.221
 4837SOL     OW15409   6.630   3.302   3.816
 4837SOL    HW115410   6.662   3.278   3.725
 4837SOL    HW215411   6.646   3.399   3.833
 4838SOL     OW15412   1.194   4.910   5.949
 4838SOL    HW115413   1.285   4.870   5.944
 4838SOL    HW215414   1.202   5.010   5.957
 4839SOL     OW15415   1.519   2.663   0.017
 4839SOL    HW115416   1.530   2.682   6.943
 4839SOL    HW215417   1.585   2.716   0.070
 4840SOL     OW15418   5.139   3.831   5.405
 4840SOL    HW115419   5.078   3.897   5.361
 4840SOL    HW215420   5.114   3.739   5.376
 4841SOL     OW15421   3.046   5.351   3.544
 4841SOL    HW115422   3.068   5.306   3.458
 4841SOL    HW215423   3.076   5.446   3.541
 4842SOL     OW15424   2.323   5.224   2.684
 4842SOL    HW115425   2.298   5.182   2.597
 4842SOL    HW215426   2.375   5.159   2.739
 4843SOL     OW15427   0.238   2.819   2.163
 4843SOL    HW115428   0.140   2.820   2.140
 4843SOL    HW215429   0.249   2.826   2.262
 4844SOL     OW15430   1.399   5.169   5.222
 4844SOL    HW115431   1.358   5.093   5.272
 4844SOL    HW215432   1.495   5.149   5.204
 4845SOL     OW15433   4.457   4.201   5.302
 4845SOL    HW115434   4.533   4.195   5.238
 4845SOL    HW215435   4.385   4.259   5.263
 4846SOL     OW15436   0.539   2.707   4.187
 4846SOL    HW115437   0.569   2.614   4.210
 4846SOL    HW215438   0.440   2.709   4.179
 4847SOL     OW15439   2.820   6.782   5.827
 4847SOL    HW115440   2.894   6.735   5.875
 4847SOL    HW215441   2.734   6.734   5.843
 4848SOL     OW15442   2.240   1.367   3.914
 4848SOL    HW115443   2.311   1.301   3.889
 4848SOL    HW215444   2.282   1.452   3.945
 4849SOL     OW15445   2.310   0.691   0.444
 4849SOL    HW115446   2.365   0.609   0.462
 4849SOL    HW215447   2.238   0.669   0.378
 4850SOL     OW15448   4.550   0.720   1.203
 4850SOL    HW115449   4.475   0.742   1.265
 4850SOL    HW215450   4.578   0.802   1.153
 4851SOL     OW15451   3.444   6.134   0.029
 4851SOL    HW115452   3.542   6.115   0.040
 4851SOL    HW215453   3.431   6.233   0.020
 4852SOL     OW15454   3.657   5.736   4.833
 4852SOL    HW115455   3.616   5.827   4.835
 4852SOL    HW215456   3.735   5.735   4.771
 4853SOL     OW15457   3.195   0.904   2.958
 4853SOL    HW115458   3.198   0.841   2.880
 4853SOL    HW215459   3.287   0.913   2.996
 4854SOL     OW15460   5.688   6.119   1.550
 4854SOL    HW115461   5.604   6.103   1.497
 4854SOL    HW215462   5.727   6.032   1.578
 4855SOL     OW15463   6.917   4.339   5.263
 4855SOL    HW115464   6.951   4.279   5.336
 4855SOL    HW215465   6.962   4.316   5.177
 4856SOL     OW15466   0.401   3.624   2.623
 4856SOL    HW115467   0.367   3.717   2.605
 4856SOL    HW215468   0.495   3.629   2.655
 4857SOL     OW15469   3.110   2.140   4.391
 4857SOL    HW115470   3.089   2.099   4.480
 4857SOL    HW215471   3.042   2.210   4.370
 4858SOL     OW15472   0.480   6.990   5.508
 4858SOL    HW115473   0.534   6.933   5.446
 4858SOL    HW215474   0.383   6.974   5.491
 4859SOL     OW15475   0.821   5.641   1.922
 4859SOL    HW115476   0.907   5.592   1.934
 4859SOL    HW215477   0.764   5.593   1.856
 4860SOL     OW15478   4.891   5.179   0.367
 4860SOL    HW115479   4.878   5.252   0.434
 4860SOL    HW215480   4.895   5.219   0.275
 4861SOL     OW15481   6.533   4.834   5.747
 4861SOL    HW115482   6.447   4.787   5.767
 4861SOL    HW215483   6.607   4.767   5.740
 4862SOL     OW15484   2.749   4.749   4.660
 4862SOL    HW115485   2.769   4.692   4.740
 4862SOL    HW215486   2.831   4.797   4.632
 4863SOL     OW15487   4.755   2.727   2.614
 4863SOL    HW115488   4.689   2.731   2.540
 4863SOL    HW215489   4.786   2.820   2.636
 4864SOL     OW15490   3.063   1.060   2.050
 4864SOL    HW115491   2.963   1.056   2.058
 4864SOL    HW215492   3.087   1.072   1.953
 4865SOL     OW15493   3.563   5.195   5.918
 4865SOL    HW115494   3.464   5.210   5.918
 4865SOL    HW215495   3.606   5.259   5.855
 4866SOL     OW15496   6.015   5.248   1.791
 4866SOL    HW115497   6.024   5.270   1.888
 4866SOL    HW215498   5.959   5.165   1.781
 4867SOL     OW15499   5.170   5.033   2.762
 4867SOL    HW115500   5.096   5.068   2.819
 4867SOL    HW215501   5.188   5.097   2.688
 4868SOL     OW15502   0.488   5.201   1.102
 4868SOL    HW115503   0.509   5.254   1.020
 4868SOL    HW215504   0.394   5.220   1.132
 4869SOL     OW15505   6.690   1.474   0.249
 4869SOL    HW115506   6.763   1.413   0.281
 4869SOL    HW215507   6.728   1.564   0.228
 4870SOL     OW15508   4.245   6.267   1.979
 4870SOL    HW115509   4.268   6.279   1.883
 4870SOL    HW215510   4.202   6.351   2.014
 4871SOL     OW15511   1.207   2.249   3.417
 4871SOL    HW115512   1.181   2.312   3.344
 4871SOL    HW215513   1.199   2.155   3.385
 4872SOL     OW15514   1.175   0.240   2.902
 4872SOL    HW115515   1.202   0.184   2.824
 4872SOL    HW215516   1.148   0.181   2.978
 4873SOL     OW15517   0.260   5.058   4.288
 4873SOL    HW115518   0.174   5.029   4.329
 4873SOL    HW215519   0.251   5.151   4.251
 4874SOL     OW15520   5.138   3.689   3.617
 4874SOL    HW115521   5.181   3.779   3.608
 4874SOL    HW215522   5.174   3.628   3.547
 4875SOL     OW15523   5.257   1.741   0.961
 4875SOL    HW115524   5.282   1.691   0.878
 4875SOL    HW215525   5.234   1.676   1.033
 4876SOL     OW15526   6.234   0.823   6.262
 4876SOL    HW115527   6.163   0.791   6.324
 4876SOL    HW215528   6.217   0.918   6.238
 4877SOL     OW15529   6.105   1.702   0.899
 4877SOL    HW115530   6.098   1.793   0.859
 4877SOL    HW215531   6.068   1.704   0.992
 4878SOL     OW15532   6.977   1.338   1.736
 4878SOL    HW115533   7.010   1.373   1.824
 4878SOL    HW215534   6.995   1.406   1.665
 4879SOL     OW15535   4.050   4.780   3.563
 4879SOL    HW115536   4.141   4.738   3.558
 4879SOL    HW215537   4.037   4.840   3.484
 4880SOL     OW15538   5.917   1.127   0.023
 4880SOL    HW115539   5.914   1.226   0.039
 4880SOL    HW215540   5.982   1.085   0.087
 4881SOL     OW15541   3.261   6.955   6.257
 4881SOL    HW115542   3.173   6.988   6.292
 4881SOL    HW215543   3.286   7.006   6.174
 4882SOL     OW15544   5.902   1.196   5.375
 4882SOL    HW115545   5.920   1.118   5.434
 4882SOL    HW215546   5.983   1.218   5.322
 4883SOL     OW15547   6.080   4.602   2.048
 4883SOL    HW115548   5.991   4.589   2.003
 4883SOL    HW215549   6.125   4.681   2.009
 4884SOL     OW15550   3.773   6.449   1.607
 4884SOL    HW115551   3.770   6.549   1.600
 4884SOL    HW215552   3.826   6.423   1.687
 4885SOL     OW15553   1.783   7.019   1.203
 4885SOL    HW115554   1.700   0.020   1.151
 4885SOL    HW215555   1.766   0.010   1.300
 4886SOL     OW15556   6.385   0.639   0.344
 4886SOL    HW115557   6.346   0.668   0.431
 4886SOL    HW215558   6.359   0.545   0.325
 4887SOL     OW15559   0.463   2.298   3.653
 4887SOL    HW115560   0.550   2.296   3.604
 4887SOL    HW215561   0.451   2.387   3.696
 4888SOL     OW15562   1.589   5.845   2.908
 4888SOL    HW115563   1.578   5.771   2.841
 4888SOL    HW215564   1.581   5.933   2.861
 4889SOL     OW15565   1.190   1.863   7.012
 4889SOL    HW115566   1.140   1.823   0.066
 4889SOL    HW215567   1.286   1.875   0.014
 4890SOL     OW15568   0.584   0.895   4.705
 4890SOL    HW115569   0.555   0.961   4.636
 4890SOL    HW215570   0.572   0.802   4.670
 4891SOL     OW15571   0.929   4.761   0.716
 4891SOL    HW115572   0.930   4.714   0.804
 4891SOL    HW215573   0.845   4.739   0.667
 4892SOL     OW15574   1.232   5.686   1.358
 4892SOL    HW115575   1.152   5.701   1.300
 4892SOL    HW215576   1.272   5.774   1.383
 4893SOL     OW15577   6.982   3.791   6.419
 4893SOL    HW115578   0.047   3.812   6.460
 4893SOL    HW215579   6.930   3.875   6.407
 4894SOL     OW15580   1.607   0.777   3.085
 4894SOL    HW115581   1.577   0.825   3.168
 4894SOL    HW215582   1.545   0.700   3.067
 4895SOL     OW15583   0.717   2.936   0.548
 4895SOL    HW115584   0.797   2.982   0.586
 4895SOL    HW215585   0.727   2.929   0.448
 4896SOL     OW15586   3.808   5.169   4.688
 4896SOL    HW115587   3.746   5.101   4.648
 4896SOL    HW215588   3.866   5.126   4.756
 4897SOL     OW15589   3.415   5.695   0.068
 4897SOL    HW115590   3.379   5.755   7.020
 4897SOL    HW215591   3.511   5.716   0.085
 4898SOL     OW15592   5.571   1.879   5.672
 4898SOL    HW115593   5.586   1.961   5.616
 4898SOL    HW215594   5.489   1.891   5.728
 4899SOL     OW15595   6.123   4.386   3.313
 4899SOL    HW115596   6.172   4.427   3.236
 4899SOL    HW215597   6.172   4.406   3.398
 4900SOL     OW15598   0.599   6.595   6.002
 4900SOL    HW115599   0.639   6.660   6.066
 4900SOL    HW215600   0.599   6.634   5.910
 4901SOL     OW15601   0.847   6.298   3.918
 4901SOL    HW115602   0.894   6.323   3.833
 4901SOL    HW215603   0.828   6.381   3.971
 4902SOL     OW15604   2.793   5.032   1.727
 4902SOL    HW115605   2.817   4.959   1.792
 4902SOL    HW215606   2.723   4.999   1.664
 4903SOL     OW15607   4.226   0.101   6.978
 4903SOL    HW115608   4.175   0.027   7.021
 4903SOL    HW215609   4.276   0.066   6.899
 4904SOL     OW15610   2.064   6.218   4.225
 4904SOL    HW115611   1.998   6.176   4.287
 4904SOL    HW215612   2.150   6.232   4.273
 4905SOL     OW15613   5.092   2.755   1.781
 4905SOL    HW115614   5.067   2.820   1.853
 4905SOL    HW215615   5.021   2.756   1.710
 4906SOL     OW15616   4.719   0.136   0.560
 4906SOL    HW115617   4.648   0.112   0.626
 4906SOL    HW215618   4.721   0.068   0.486
 4907SOL     OW15619   4.167   7.008   3.873
 4907SOL    HW115620   4.075   6.969   3.867
 4907SOL    HW215621   4.161   0.078   3.907
 4908SOL     OW15622   3.451   6.065   6.655
 4908SOL    HW115623   3.373   6.110   6.698
 4908SOL    HW215624   3.419   6.009   6.578
 4909SOL     OW15625   6.268   6.645   5.370
 4909SOL    HW115626   6.359   6.603   5.374
 4909SOL    HW215627   6.255   6.687   5.280
 4910SOL     OW15628   5.219   0.767   5.125
 4910SOL    HW115629   5.138   0.817   5.156
 4910SOL    HW215630   5.297   0.829   5.119
 4911SOL     OW15631   0.091   2.443   5.789
 4911SOL    HW115632   0.186   2.412   5.777
 4911SOL    HW215633   0.081   2.535   5.751
 4912SOL     OW15634   3.721   2.124   2.466
 4912SOL    HW115635   3.699   2.127   2.563
 4912SOL    HW215636   3.636   2.124   2.413
 4913SOL     OW15637   3.365   3.677   3.412
 4913SOL    HW115638   3.431   3.607   3.438
 4913SOL    HW215639   3.302   3.641   3.344
 4914SOL     OW15640   2.116   6.909   3.450
 4914SOL    HW115641   2.214   6.924   3.460
 4914SOL    HW215642   2.083   6.957   3.369
 4915SOL     OW15643   3.992   6.418   4.231
 4915SOL    HW115644   3.906   6.367   4.228
 4915SOL    HW215645   4.057   6.370   4.289
 4916SOL     OW15646   2.836   2.072   3.206
 4916SOL    HW115647   2.768   2.121   3.151
 4916SOL    HW215648   2.923   2.121   3.202
 4917SOL     OW15649   2.020   4.027   0.833
 4917SOL    HW115650   1.937   3.974   0.851
 4917SOL    HW215651   1.996   4.109   0.782
 4918SOL     OW15652   2.571   0.219   2.119
 4918SOL    HW115653   2.662   0.253   2.095
 4918SOL    HW215654   2.509   0.233   2.042
 4919SOL     OW15655   1.843   2.314   2.323
 4919SOL    HW115656   1.858   2.383   2.394
 4919SOL    HW215657   1.767   2.342   2.265
 4920SOL     OW15658   4.192   0.972   0.585
 4920SOL    HW115659   4.154   0.922   0.663
 4920SOL    HW215660   4.234   0.907   0.521
 4921SOL     OW15661   2.331   3.963   1.705
 4921SOL    HW115662   2.396   3.890   1.687
 4921SOL    HW215663   2.273   3.938   1.782
 4922SOL     OW15664   1.619   3.177   5.584
 4922SOL    HW115665   1.686   3.234   5.536
 4922SOL    HW215666   1.532   3.179   5.535
 4923SOL     OW15667   5.330   0.664   1.724
 4923SOL    HW115668   5.231   0.678   1.718
 4923SOL    HW215669   5.376   0.728   1.663
 4924SOL     OW15670   0.824   3.932   4.061
 4924SOL    HW115671   0.889   3.992   4.013
 4924SOL    HW215672   0.846   3.929   4.158
 4925SOL     OW15673   4.790   6.443   0.960
 4925SOL    HW115674   4.849   6.425   1.038
 4925SOL    HW215675   4.715   6.503   0.988
 4926SOL     OW15676   5.243   2.323   2.061
 4926SOL    HW115677   5.331   2.291   2.094
 4926SOL    HW215678   5.240   2.423   2.066
 4927SOL     OW15679   3.252   3.053   3.156
 4927SOL    HW115680   3.181   3.087   3.096
 4927SOL    HW215681   3.278   3.125   3.221
 4928SOL     OW15682   0.637   6.462   0.038
 4928SOL    HW115683   0.600   6.552   0.017
 4928SOL    HW215684   0.628   6.403   6.980
 4929SOL     OW15685   1.414   4.944   4.617
 4929SOL    HW115686   1.336   4.925   4.557
 4929SOL    HW215687   1.473   4.863   4.621
 4930SOL     OW15688   0.511   1.935   0.479
 4930SOL    HW115689   0.524   1.864   0.410
 4930SOL    HW215690   0.420   1.925   0.520
 4931SOL     OW15691   0.603   6.994   0.696
 4931SOL    HW115692   0.684   6.938   0.713
 4931SOL    HW215693   0.629   0.067   0.691
 4932SOL     OW15694   2.599   2.487   1.442
 4932SOL    HW115695   2.528   2.422   1.466
 4932SOL    HW215696   2.583   2.521   1.349
 4933SOL     OW15697   2.595   1.309   4.126
 4933SOL    HW115698   2.573   1.272   4.216
 4933SOL    HW215699   2.689   1.343   4.126
 4934SOL     OW15700   0.378   5.055   3.892
 4934SOL    HW115701   0.356   4.974   3.839
 4934SOL    HW215702   0.368   5.136   3.835
 4935SOL     OW15703   2.187   1.482   6.894
 4935SOL    HW115704   2.205   1.561   6.834
 4935SOL    HW215705   2.137   1.412   6.842
 4936SOL     OW15706   3.684   5.802   1.698
 4936SOL    HW115707   3.600   5.834   1.655
 4936SOL    HW215708   3.678   5.815   1.797
 4937SOL     OW15709   0.999   3.169   5.948
 4937SOL    HW115710   0.952   3.109   5.884
 4937SOL    HW215711   1.051   3.114   6.013
 4938SOL     OW15712   3.072   4.639   1.211
 4938SOL    HW115713   3.083   4.719   1.270
 4938SOL    HW215714   3.019   4.569   1.260
 4939SOL     OW15715   1.096   1.528   1.897
 4939SOL    HW115716   1.008   1.553   1.856
 4939SOL    HW215717   1.090   1.535   1.996
 4940SOL     OW15718   0.026   2.739   3.934
 4940SOL    HW115719   7.005   2.826   3.912
 4940SOL    HW215720   7.020   2.669   3.868
 4941SOL     OW15721   4.055   2.321   5.322
 4941SOL    HW115722   4.064   2.315   5.422
 4941SOL    HW215723   4.096   2.406   5.291
 4942SOL     OW15724   5.463   2.845   3.628
 4942SOL    HW115725   5.366   2.868   3.623
 4942SOL    HW215726   5.501   2.838   3.535
 4943SOL     OW15727   5.194   3.302   6.569
 4943SOL    HW115728   5.139   3.235   6.519
 4943SOL    HW215729   5.203   3.274   6.665
 4944SOL     OW15730   1.729   4.689   1.133
 4944SOL    HW115731   1.637   4.656   1.153
 4944SOL    HW215732   1.766   4.736   1.214
 4945SOL     OW15733   2.047   1.016   4.675
 4945SOL    HW115734   2.032   0.965   4.591
 4945SOL    HW215735   1.967   1.008   4.734
 4946SOL     OW15736   1.553   4.415   0.665
 4946SOL    HW115737   1.483   4.354   0.629
 4946SOL    HW215738   1.518   4.508   0.669
 4947SOL     OW15739   1.879   1.142   1.822
 4947SOL    HW115740   1.814   1.193   1.766
 4947SOL    HW215741   1.939   1.088   1.763
 4948SOL     OW15742   1.681   2.380   1.427
 4948SOL    HW115743   1.605   2.316   1.424
 4948SOL    HW215744   1.718   2.382   1.520
 4949SOL     OW15745   6.441   3.215   6.261
 4949SOL    HW115746   6.519   3.204   6.322
 4949SOL    HW215747   6.388   3.130   6.258
 4950SOL     OW15748   2.384   4.698   5.590
 4950SOL    HW115749   2.480   4.727   5.596
 4950SOL    HW215750   2.353   4.704   5.495
 4951SOL     OW15751   5.615   6.513   3.731
 4951SOL    HW115752   5.557   6.589   3.762
 4951SOL    HW215753   5.613   6.509   3.632
 4952SOL     OW15754   7.014   0.185   6.109
 4952SOL    HW115755   0.079   0.208   6.069
 4952SOL    HW215756   6.941   0.223   6.052
 4953SOL     OW15757   1.371   1.959   5.142
 4953SOL    HW115758   1.289   1.985   5.194
 4953SOL    HW215759   1.413   1.879   5.184
 4954SOL     OW15760   2.828   4.118   5.420
 4954SOL    HW115761   2.907   4.060   5.397
 4954SOL    HW215762   2.744   4.072   5.390
 4955SOL     OW15763   3.314   6.023   0.240
 4955SOL    HW115764   3.347   6.055   0.151
 4955SOL    HW215765   3.296   5.925   0.236
 4956SOL     OW15766   2.142   0.422   4.604
 4956SOL    HW115767   2.165   0.371   4.687
 4956SOL    HW215768   2.217   0.413   4.538
 4957SOL     OW15769   6.372   4.174   6.566
 4957SOL    HW115770   6.398   4.137   6.477
 4957SOL    HW215771   6.452   4.174   6.627
 4958SOL     OW15772   2.874   0.074   6.146
 4958SOL    HW115773   2.785   0.108   6.177
 4958SOL    HW215774   2.897   7.014   6.197
 4959SOL     OW15775   6.915   2.597   1.481
 4959SOL    HW115776   6.833   2.624   1.533
 4959SOL    HW215777   6.963   2.524   1.530
 4960SOL     OW15778   3.759   4.888   3.563
 4960SOL    HW115779   3.825   4.819   3.590
 4960SOL    HW215780   3.800   4.948   3.494
 4961SOL     OW15781   2.853   1.066   6.694
 4961SOL    HW115782   2.887   0.988   6.746
 4961SOL    HW215783   2.837   1.038   6.599
 4962SOL     OW15784   6.479   3.708   1.245
 4962SOL    HW115785   6.545   3.637   1.223
 4962SOL    HW215786   6.431   3.736   1.162
 4963SOL     OW15787   0.711   4.373   0.383
 4963SOL    HW115788   0.664   4.459   0.370
 4963SOL    HW215789   0.809   4.390   0.397
 4964SOL     OW15790   2.791   6.544   4.714
 4964SOL    HW115791   2.887   6.542   4.688
 4964SOL    HW215792   2.782   6.593   4.801
 4965SOL     OW15793   1.253   6.687   2.783
 4965SOL    HW115794   1.200   6.731   2.856
 4965SOL    HW215795   1.289   6.758   2.721
 4966SOL     OW15796   3.026   6.509   4.392
 4966SOL    HW115797   3.119   6.500   4.357
 4966SOL    HW215798   2.985   6.418   4.404
 4967SOL     OW15799   4.084   4.525   5.356
 4967SOL    HW115800   4.103   4.457   5.427
 4967SOL    HW215801   3.985   4.536   5.346
 4968SOL     OW15802   0.402   1.140   3.906
 4968SOL    HW115803   0.318   1.189   3.931
 4968SOL    HW215804   0.477   1.171   3.963
 4969SOL     OW15805   0.765   6.392   1.930
 4969SOL    HW115806   0.680   6.443   1.927
 4969SOL    HW215807   0.766   6.334   2.011
 4970SOL     OW15808   1.798   1.154   1.494
 4970SOL    HW115809   1.722   1.095   1.465
 4970SOL    HW215810   1.768   1.212   1.569
 4971SOL     OW15811   6.874   6.019   2.950
 4971SOL    HW115812   6.837   5.927   2.963
 4971SOL    HW215813   6.798   6.083   2.934
 4972SOL     OW15814   1.745   4.187   1.310
 4972SOL    HW115815   1.784   4.103   1.345
 4972SOL    HW215816   1.763   4.195   1.212
 4973SOL     OW15817   0.095   0.681   0.989
 4973SOL    HW115818   0.163   0.734   1.040
 4973SOL    HW215819   0.140   0.602   0.947
 4974SOL     OW15820   3.972   4.006   6.366
 4974SOL    HW115821   3.881   4.047   6.377
 4974SOL    HW215822   3.962   3.909   6.346
 4975SOL     OW15823   5.904   3.619   0.327
 4975SOL    HW115824   5.993   3.575   0.343
 4975SOL    HW215825   5.834   3.572   0.381
 4976SOL     OW15826   0.980   0.113   4.372
 4976SOL    HW115827   0.983   0.162   4.285
 4976SOL    HW215828   0.893   0.064   4.379
 4977SOL     OW15829   2.735   5.010   6.203
 4977SOL    HW115830   2.765   4.926   6.158
 4977SOL    HW215831   2.675   4.987   6.280
 4978SOL     OW15832   5.060   4.284   5.426
 4978SOL    HW115833   5.114   4.313   5.505
 4978SOL    HW215834   5.109   4.306   5.342
 4979SOL     OW15835   1.882   0.160   6.477
 4979SOL    HW115836   1.818   0.096   6.520
 4979SOL    HW215837   1.973   0.119   6.474
 4980SOL     OW15838   6.368   4.172   3.153
 4980SOL    HW115839   6.382   4.219   3.240
 4980SOL    HW215840   6.284   4.207   3.110
 4981SOL     OW15841   3.287   4.744   1.797
 4981SOL    HW115842   3.213   4.693   1.840
 4981SOL    HW215843   3.363   4.753   1.861
 4982SOL     OW15844   4.545   1.352   6.743
 4982SOL    HW115845   4.498   1.270   6.774
 4982SOL    HW215846   4.519   1.372   6.649
 4983SOL     OW15847   6.452   5.135   3.921
 4983SOL    HW115848   6.434   5.045   3.960
 4983SOL    HW215849   6.452   5.129   3.821
 4984SOL     OW15850   4.554   4.429   3.431
 4984SOL    HW115851   4.583   4.368   3.505
 4984SOL    HW215852   4.605   4.515   3.438
 4985SOL     OW15853   5.880   5.866   2.540
 4985SOL    HW115854   5.934   5.840   2.621
 4985SOL    HW215855   5.923   5.944   2.495
 4986SOL     OW15856   0.256   4.615   1.873
 4986SOL    HW115857   0.325   4.673   1.917
 4986SOL    HW215858   0.179   4.672   1.844
 4987SOL     OW15859   1.045   0.074   2.605
 4987SOL    HW115860   0.966   0.127   2.575
 4987SOL    HW215861   1.014   7.019   2.659
 4988SOL     OW15862   5.905   0.648   3.684
 4988SOL    HW115863   5.945   0.563   3.719
 4988SOL    HW215864   5.958   0.726   3.718
 4989SOL     OW15865   5.248   0.943   2.021
 4989SOL    HW115866   5.171   1.006   2.028
 4989SOL    HW215867   5.315   0.979   1.955
 4990SOL     OW15868   4.228   1.388   6.632
 4990SOL    HW115869   4.151   1.357   6.687
 4990SOL    HW215870   4.255   1.479   6.662
 4991SOL     OW15871   0.356   5.916   4.650
 4991SOL    HW115872   0.429   5.942   4.713
 4991SOL    HW215873   0.290   5.857   4.697
 4992SOL     OW15874   6.698   0.618   3.598
 4992SOL    HW115875   6.658   0.605   3.507
 4992SOL    HW215876   6.677   0.538   3.655
 4993SOL     OW15877   4.442   6.506   5.435
 4993SOL    HW115878   4.523   6.457   5.467
 4993SOL    HW215879   4.371   6.504   5.505
 4994SOL     OW15880   2.588   5.360   5.207
 4994SOL    HW115881   2.660   5.301   5.244
 4994SOL    HW215882   2.517   5.303   5.165
 4995SOL     OW15883   0.927   0.397   4.666
 4995SOL    HW115884   0.905   0.349   4.751
 4995SOL    HW215885   0.874   0.358   4.591
 4996SOL     OW15886   0.084   2.276   4.282
 4996SOL    HW115887   0.129   2.263   4.194
 4996SOL    HW215888   0.153   2.278   4.354
 4997SOL     OW15889   3.349   2.060   1.408
 4997SOL    HW115890   3.250   2.071   1.400
 4997SOL    HW215891   3.394   2.120   1.341
 4998SOL     OW15892   1.300   3.205   3.351
 4998SOL    HW115893   1.375   3.208   3.417
 4998SOL    HW215894   1.337   3.218   3.258
 4999SOL     OW15895   0.825   3.272   4.859
 4999SOL    HW115896   0.818   3.209   4.937
 4999SOL    HW215897   0.836   3.365   4.893
 5000SOL     OW15898   3.100   6.126   3.307
 5000SOL    HW115899   3.159   6.207   3.297
 5000SOL    HW215900   3.028   6.146   3.373
 5001SOL     OW15901   0.466   5.351   2.506
 5001SOL    HW115902   0.548   5.352   2.448
 5001SOL    HW215903   0.434   5.257   2.517
 5002SOL     OW15904   0.826   4.895   2.530
 5002SOL    HW115905   0.906   4.871   2.475
 5002SOL    HW215906   0.849   4.885   2.627
 5003SOL     OW15907   4.151   5.863   3.138
 5003SOL    HW115908   4.122   5.875   3.233
 5003SOL    HW215909   4.235   5.915   3.122
 5004SOL     OW15910   3.753   5.737   6.193
 5004SOL    HW115911   3.734   5.728   6.096
 5004SOL    HW215912   3.848   5.709   6.211
 5005SOL     OW15913   2.668   3.178   6.638
 5005SOL    HW115914   2.754   3.205   6.680
 5005SOL    HW215915   2.657   3.224   6.550
 5006SOL     OW15916   5.581   1.662   2.339
 5006SOL    HW115917   5.661   1.721   2.327
 5006SOL    HW215918   5.497   1.716   2.327
 5007SOL     OW15919   6.447   0.616   0.853
 5007SOL    HW115920   6.366   0.674   0.853
 5007SOL    HW215921   6.510   0.646   0.782
 5008SOL     OW15922   6.657   6.545   1.809
 5008SOL    HW115923   6.725   6.590   1.752
 5008SOL    HW215924   6.652   6.448   1.785
 5009SOL     OW15925   0.663   2.668   0.640
 5009SOL    HW115926   0.695   2.761   0.620
 5009SOL    HW215927   0.581   2.673   0.697
 5010SOL     OW15928   3.450   2.541   0.713
 5010SOL    HW115929   3.382   2.473   0.742
 5010SOL    HW215930   3.455   2.614   0.781
 5011SOL     OW15931   1.580   3.598   0.286
 5011SOL    HW115932   1.548   3.535   0.357
 5011SOL    HW215933   1.672   3.572   0.257
 5012SOL     OW15934   5.645   2.494   5.446
 5012SOL    HW115935   5.727   2.442   5.424
 5012SOL    HW215936   5.584   2.494   5.367
 5013SOL     OW15937   6.322   0.406   5.593
 5013SOL    HW115938   6.246   0.444   5.542
 5013SOL    HW215939   6.395   0.474   5.601
 5014SOL     OW15940   6.687   4.532   0.034
 5014SOL    HW115941   6.654   4.531   6.962
 5014SOL    HW215942   6.691   4.626   0.067
 5015SOL     OW15943   5.380   0.523   4.763
 5015SOL    HW115944   5.325   0.470   4.828
 5015SOL    HW215945   5.335   0.611   4.746
 5016SOL     OW15946   0.971   3.086   4.682
 5016SOL    HW115947   1.069   3.071   4.694
 5016SOL    HW215948   0.946   3.175   4.720
 5017SOL     OW15949   0.695   2.773   1.142
 5017SOL    HW115950   0.758   2.851   1.144
 5017SOL    HW215951   0.667   2.750   1.235
 5018SOL     OW15952   0.642   4.929   1.972
 5018SOL    HW115953   0.653   4.982   2.056
 5018SOL    HW215954   0.644   4.991   1.893
 5019SOL     OW15955   2.055   5.641   5.263
 5019SOL    HW115956   2.116   5.637   5.342
 5019SOL    HW215957   2.110   5.638   5.179
 5020SOL     OW15958   0.276   6.935   5.196
 5020SOL    HW115959   0.376   6.937   5.187
 5020SOL    HW215960   0.245   6.841   5.194
 5021SOL     OW15961   1.574   0.466   1.339
 5021SOL    HW115962   1.570   0.374   1.378
 5021SOL    HW215963   1.568   0.461   1.239
 5022SOL     OW15964   0.223   2.600   1.370
 5022SOL    HW115965   0.219   2.661   1.291
 5022SOL    HW215966   0.210   2.652   1.454
 5023SOL     OW15967   0.270   3.903   1.875
 5023SOL    HW115968   0.349   3.882   1.817
 5023SOL    HW215969   0.188   3.912   1.817
 5024SOL     OW15970   5.237   4.665   0.686
 5024SOL    HW115971   5.174   4.592   0.658
 5024SOL    HW215972   5.266   4.717   0.606
 5025SOL     OW15973   4.026   1.446   4.181
 5025SOL    HW115974   4.025   1.347   4.166
 5025SOL    HW215975   4.039   1.494   4.094
 5026SOL     OW15976   6.549   5.198   4.545
 5026SOL    HW115977   6.627   5.168   4.490
 5026SOL    HW215978   6.484   5.123   4.555
 5027SOL     OW15979   5.609   0.519   1.287
 5027SOL    HW115980   5.708   0.514   1.302
 5027SOL    HW215981   5.566   0.574   1.359
 5028SOL     OW15982   0.123   1.592   3.134
 5028SOL    HW115983   0.083   1.506   3.103
 5028SOL    HW215984   0.197   1.619   3.072
 5029SOL     OW15985   6.800   3.173   2.411
 5029SOL    HW115986   6.762   3.153   2.501
 5029SOL    HW215987   6.803   3.272   2.397
 5030SOL     OW15988   6.843   5.690   6.085
 5030SOL    HW115989   6.883   5.680   6.176
 5030SOL    HW215990   6.743   5.686   6.092
 5031SOL     OW15991   0.085   1.181   5.217
 5031SOL    HW115992   0.099   1.092   5.174
 5031SOL    HW215993   0.014   1.232   5.167
 5032SOL     OW15994   3.262   2.275   6.378
 5032SOL    HW115995   3.170   2.290   6.413
 5032SOL    HW215996   3.263   2.286   6.279
 5033SOL     OW15997   1.923   1.180   0.326
 5033SOL    HW115998   1.886   1.207   0.237
 5033SOL    HW215999   1.955   1.261   0.375
 5034SOL     OW16000   4.837   0.055   4.254
 5034SOL    HW116001   4.840   0.079   4.351
 5034SOL    HW216002   4.752   0.005   4.235
 5035SOL     OW16003   0.491   4.112   5.381
 5035SOL    HW116004   0.553   4.184   5.350
 5035SOL    HW216005   0.544   4.036   5.418
 5036SOL     OW16006   6.863   4.524   6.008
 5036SOL    HW116007   6.811   4.598   6.052
 5036SOL    HW216008   6.951   4.514   6.055
 5037SOL     OW16009   4.437   4.367   1.583
 5037SOL    HW116010   4.502   4.297   1.611
 5037SOL    HW216011   4.374   4.387   1.658
 5038SOL     OW16012   3.737   3.654   4.426
 5038SOL    HW116013   3.692   3.594   4.360
 5038SOL    HW216014   3.765   3.738   4.380
 5039SOL     OW16015   2.168   3.893   5.815
 5039SOL    HW116016   2.222   3.897   5.731
 5039SOL    HW216017   2.152   3.797   5.840
 5040SOL     OW16018   1.319   5.799   5.706
 5040SOL    HW116019   1.390   5.869   5.711
 5040SOL    HW216020   1.356   5.718   5.660
 5041SOL     OW16021   1.128   2.769   2.230
 5041SOL    HW116022   1.053   2.831   2.208
 5041SOL    HW216023   1.212   2.823   2.245
 5042SOL     OW16024   6.784   3.867   6.808
 5042SOL    HW116025   6.759   3.790   6.865
 5042SOL    HW216026   6.857   3.839   6.745
 5043SOL     OW16027   4.170   1.174   0.312
 5043SOL    HW116028   4.091   1.201   0.368
 5043SOL    HW216029   4.181   1.075   0.315
 5044SOL     OW16030   0.421   5.925   1.491
 5044SOL    HW116031   0.441   5.992   1.562
 5044SOL    HW216032   0.329   5.888   1.505
 5045SOL     OW16033   6.307   5.045   5.805
 5045SOL    HW116034   6.296   5.128   5.750
 5045SOL    HW216035   6.397   5.046   5.848
 5046SOL     OW16036   3.889   3.875   3.516
 5046SOL    HW116037   3.836   3.950   3.556
 5046SOL    HW216038   3.940   3.828   3.588
 5047SOL     OW16039   2.089   3.647   2.923
 5047SOL    HW116040   2.116   3.743   2.928
 5047SOL    HW216041   2.101   3.605   3.013
 5048SOL     OW16042   1.481   0.918   5.195
 5048SOL    HW116043   1.394   0.883   5.229
 5048SOL    HW216044   1.490   0.895   5.098
 5049SOL     OW16045   5.742   1.093   6.294
 5049SOL    HW116046   5.792   1.010   6.317
 5049SOL    HW216047   5.753   1.160   6.367
 5050SOL     OW16048   1.512   1.519   6.804
 5050SOL    HW116049   1.414   1.511   6.790
 5050SOL    HW216050   1.543   1.449   6.868
 5051SOL     OW16051   4.326   4.436   0.993
 5051SOL    HW116052   4.333   4.531   1.022
 5051SOL    HW216053   4.255   4.389   1.046
 5052SOL     OW16054   3.724   2.254   6.176
 5052SOL    HW116055   3.758   2.189   6.109
 5052SOL    HW216056   3.764   2.234   6.265
 5053SOL     OW16057   0.854   5.258   3.186
 5053SOL    HW116058   0.915   5.334   3.204
 5053SOL    HW216059   0.819   5.221   3.272
 5054SOL     OW16060   3.865   4.569   6.101
 5054SOL    HW116061   3.915   4.510   6.164
 5054SOL    HW216062   3.905   4.660   6.102
 5055SOL     OW16063   1.176   2.523   5.946
 5055SOL    HW116064   1.205   2.563   5.859
 5055SOL    HW216065   1.080   2.498   5.940
 5056SOL     OW16066   5.350   4.013   5.476
 5056SOL    HW116067   5.260   3.969   5.484
 5056SOL    HW216068   5.345   4.105   5.514
 5057SOL     OW16069   0.504   6.965   2.324
 5057SOL    HW116070   0.577   6.957   2.392
 5057SOL    HW216071   0.417   6.985   2.370
 5058SOL     OW16072   3.348   4.849   6.613
 5058SOL    HW116073   3.320   4.782   6.681
 5058SOL    HW216074   3.332   4.812   6.521
 5059SOL     OW16075   0.026   0.339   3.485
 5059SOL    HW116076   0.109   0.282   3.484
 5059SOL    HW216077   0.045   0.426   3.439
 5060SOL     OW16078   6.715   2.030   6.657
 5060SOL    HW116079   6.638   1.981   6.618
 5060SOL    HW216080   6.799   2.003   6.611
 5061SOL     OW16081   4.524   2.222   7.014
 5061SOL    HW116082   4.431   2.187   6.998
 5061SOL    HW216083   4.582   2.148   0.024
 5062SOL     OW16084   7.009   0.020   2.278
 5062SOL    HW116085   0.046   6.963   2.286
 5062SOL    HW216086   6.944   0.021   2.354
 5063SOL     OW16087   0.198   6.582   1.720
 5063SOL    HW116088   0.190   6.661   1.780
 5063SOL    HW216089   0.138   6.594   1.641
 5064SOL     OW16090   4.951   3.086   0.248
 5064SOL    HW116091   5.013   3.091   0.327
 5064SOL    HW216092   4.964   3.168   0.191
 5065SOL     OW16093   3.031   0.274   5.610
 5065SOL    HW116094   2.998   0.366   5.627
 5065SOL    HW216095   3.027   0.220   5.694
 5066SOL     OW16096   5.342   3.813   2.052
 5066SOL    HW116097   5.396   3.740   2.091
 5066SOL    HW216098   5.263   3.775   2.003
 5067SOL     OW16099   5.447   1.294   0.473
 5067SOL    HW116100   5.535   1.340   0.484
 5067SOL    HW216101   5.424   1.245   0.557
 5068SOL     OW16102   2.758   4.199   1.102
 5068SOL    HW116103   2.836   4.137   1.111
 5068SOL    HW216104   2.718   4.188   1.011
 5069SOL     OW16105   1.070   4.377   2.644
 5069SOL    HW116106   1.138   4.436   2.600
 5069SOL    HW216107   0.989   4.430   2.667
 5070SOL     OW16108   4.873   3.451   3.774
 5070SOL    HW116109   4.843   3.363   3.811
 5070SOL    HW216110   4.917   3.505   3.845
 5071SOL     OW16111   4.360   2.354   4.793
 5071SOL    HW116112   4.438   2.305   4.833
 5071SOL    HW216113   4.302   2.390   4.865
 5072SOL     OW16114   0.489   5.427   0.589
 5072SOL    HW116115   0.521   5.518   0.562
 5072SOL    HW216116   0.545   5.358   0.544
 5073SOL     OW16117   6.593   6.361   2.850
 5073SOL    HW116118   6.630   6.276   2.889
 5073SOL    HW216119   6.613   6.365   2.753
 5074SOL     OW16120   3.297   4.267   6.917
 5074SOL    HW116121   3.243   4.257   7.001
 5074SOL    HW216122   3.331   4.361   6.911
 5075SOL     OW16123   0.256   0.864   5.860
 5075SOL    HW116124   0.212   0.779   5.887
 5075SOL    HW216125   0.289   0.912   5.942
 5076SOL     OW16126   3.592   0.919   1.157
 5076SOL    HW116127   3.581   1.019   1.156
 5076SOL    HW216128   3.512   0.877   1.114
 5077SOL     OW16129   1.675   2.046   3.557
 5077SOL    HW116130   1.656   2.054   3.655
 5077SOL    HW216131   1.753   1.985   3.543
 5078SOL     OW16132   1.179   1.977   3.431
 5078SOL    HW116133   1.214   1.974   3.525
 5078SOL    HW216134   1.247   1.938   3.369
 5079SOL     OW16135   2.705   5.279   5.978
 5079SOL    HW116136   2.786   5.330   5.947
 5079SOL    HW216137   2.696   5.195   5.924
 5080SOL     OW16138   5.830   6.484   5.034
 5080SOL    HW116139   5.862   6.443   5.119
 5080SOL    HW216140   5.843   6.583   5.038
 5081SOL     OW16141   3.245   3.665   2.993
 5081SOL    HW116142   3.330   3.716   2.977
 5081SOL    HW216143   3.167   3.724   2.973
 5082SOL     OW16144   5.992   6.787   5.438
 5082SOL    HW116145   5.997   6.845   5.519
 5082SOL    HW216146   6.080   6.742   5.424
 5083SOL     OW16147   1.509   6.669   2.130
 5083SOL    HW116148   1.524   6.765   2.155
 5083SOL    HW216149   1.421   6.638   2.166
 5084SOL     OW16150   1.341   4.369   4.183
 5084SOL    HW116151   1.389   4.337   4.266
 5084SOL    HW216152   1.249   4.398   4.207
 5085SOL     OW16153   5.386   1.463   6.784
 5085SOL    HW116154   5.405   1.413   6.868
 5085SOL    HW216155   5.291   1.450   6.757
 5086SOL     OW16156   6.140   4.863   4.224
 5086SOL    HW116157   6.082   4.936   4.189
 5086SOL    HW216158   6.105   4.831   4.312
 5087SOL     OW16159   6.596   6.179   3.906
 5087SOL    HW116160   6.690   6.183   3.940
 5087SOL    HW216161   6.584   6.246   3.833
 5088SOL     OW16162   6.170   1.064   6.180
 5088SOL    HW116163   6.093   1.077   6.118
 5088SOL    HW216164   6.233   1.141   6.172
 5089SOL     OW16165   6.322   3.878   3.201
 5089SOL    HW116166   6.330   3.838   3.110
 5089SOL    HW216167   6.333   3.977   3.195
 5090SOL     OW16168   2.192   4.597   1.276
 5090SOL    HW116169   2.266   4.602   1.343
 5090SOL    HW216170   2.175   4.501   1.253
 5091SOL     OW16171   1.066   6.030   2.623
 5091SOL    HW116172   1.117   5.979   2.693
 5091SOL    HW216173   0.987   5.976   2.593
 5092SOL     OW16174   3.584   2.488   1.715
 5092SOL    HW116175   3.485   2.478   1.700
 5092SOL    HW216176   3.616   2.414   1.773
 5093SOL     OW16177   0.893   2.345   1.820
 5093SOL    HW116178   0.888   2.289   1.737
 5093SOL    HW216179   0.944   2.296   1.891
 5094SOL     OW16180   0.986   0.235   6.084
 5094SOL    HW116181   0.976   0.139   6.057
 5094SOL    HW216182   1.074   0.270   6.051
 5095SOL     OW16183   1.332   0.831   4.557
 5095SOL    HW116184   1.288   0.745   4.582
 5095SOL    HW216185   1.425   0.813   4.525
 5096SOL     OW16186   4.737   3.321   1.091
 5096SOL    HW116187   4.647   3.279   1.091
 5096SOL    HW216188   4.755   3.362   1.002
 5097SOL     OW16189   1.630   0.830   6.128
 5097SOL    HW116190   1.700   0.895   6.159
 5097SOL    HW216191   1.660   0.789   6.041
 5098SOL     OW16192   0.945   0.792   1.827
 5098SOL    HW116193   0.877   0.832   1.888
 5098SOL    HW216194   1.026   0.851   1.823
 5099SOL     OW16195   1.131   0.427   5.465
 5099SOL    HW116196   1.060   0.437   5.396
 5099SOL    HW216197   1.102   0.470   5.551
 5100SOL     OW16198   4.986   0.200   6.203
 5100SOL    HW116199   4.983   0.149   6.116
 5100SOL    HW216200   5.029   0.289   6.188
 5101SOL     OW16201   4.809   6.313   0.285
 5101SOL    HW116202   4.849   6.388   0.233
 5101SOL    HW216203   4.877   6.275   0.347
 5102SOL     OW16204   5.380   0.842   5.815
 5102SOL    HW116205   5.449   0.873   5.749
 5102SOL    HW216206   5.413   0.861   5.908
 5103SOL     OW16207   0.149   0.834   3.912
 5103SOL    HW116208   0.071   0.809   3.969
 5103SOL    HW216209   0.129   0.920   3.864
 5104SOL     OW16210   1.819   0.583   1.487
 5104SOL    HW116211   1.867   0.498   1.464
 5104SOL    HW216212   1.773   0.618   1.406
 5105SOL     OW16213   4.323   4.056   6.808
 5105SOL    HW116214   4.323   4.156   6.809
 5105SOL    HW216215   4.415   4.022   6.791
 5106SOL     OW16216   3.699   0.250   2.510
 5106SOL    HW116217   3.798   0.248   2.527
 5106SOL    HW216218   3.669   0.160   2.481
 5107SOL     OW16219   2.748   0.707   6.960
 5107SOL    HW116220   2.791   0.647   0.004
 5107SOL    HW216221   2.652   0.721   6.985
 5108SOL     OW16222   2.904   3.611   3.782
 5108SOL    HW116223   2.914   3.537   3.716
 5108SOL    HW216224   2.961   3.688   3.754
 5109SOL     OW16225   0.618   1.585   1.215
 5109SOL    HW116226   0.561   1.520   1.163
 5109SOL    HW216227   0.691   1.619   1.156
 5110SOL     OW16228   1.925   6.700   6.079
 5110SOL    HW116229   1.959   6.656   5.996
 5110SOL    HW216230   1.984   6.777   6.102
 5111SOL     OW16231   0.930   0.942   6.292
 5111SOL    HW116232   0.982   1.027   6.280
 5111SOL    HW216233   0.834   0.958   6.271
 5112SOL     OW16234   0.241   6.735   3.553
 5112SOL    HW116235   0.311   6.698   3.614
 5112SOL    HW216236   0.234   6.678   3.471
 5113SOL     OW16237   0.647   0.633   0.667
 5113SOL    HW116238   0.551   0.662   0.663
 5113SOL    HW216239   0.655   0.540   0.630
 5114SOL     OW16240   3.261   4.380   0.362
 5114SOL    HW116241   3.334   4.419   0.306
 5114SOL    HW216242   3.240   4.441   0.438
 5115SOL     OW16243   1.706   3.992   6.136
 5115SOL    HW116244   1.740   3.984   6.042
 5115SOL    HW216245   1.615   3.951   6.141
 5116SOL     OW16246   4.805   4.796   6.370
 5116SOL    HW116247   4.827   4.702   6.343
 5116SOL    HW216248   4.889   4.844   6.393
 5117SOL     OW16249   2.507   4.822   3.806
 5117SOL    HW116250   2.588   4.850   3.755
 5117SOL    HW216251   2.499   4.723   3.804
 5118SOL     OW16252   4.668   6.215   0.848
 5118SOL    HW116253   4.589   6.254   0.801
 5118SOL    HW216254   4.713   6.287   0.901
 5119SOL     OW16255   5.483   0.934   1.720
 5119SOL    HW116256   5.570   0.959   1.763
 5119SOL    HW216257   5.498   0.913   1.624
 5120SOL     OW16258   5.880   1.242   3.065
 5120SOL    HW116259   5.873   1.230   2.966
 5120SOL    HW216260   5.963   1.292   3.087
 5121SOL     OW16261   0.406   3.421   6.034
 5121SOL    HW116262   0.479   3.426   5.966
 5121SOL    HW216263   0.428   3.480   6.112
 5122SOL     OW16264   2.548   0.501   3.243
 5122SOL    HW116265   2.452   0.520   3.224
 5122SOL    HW216266   2.605   0.567   3.194
 5123SOL     OW16267   5.257   3.929   3.596
 5123SOL    HW116268   5.271   3.978   3.510
 5123SOL    HW216269   5.345   3.897   3.631
 5124SOL     OW16270   2.906   6.457   6.672
 5124SOL    HW116271   2.837   6.410   6.617
 5124SOL    HW216272   2.861   6.515   6.739
 5125SOL     OW16273   0.268   4.052   3.963
 5125SOL    HW116274   0.254   4.076   4.059
 5125SOL    HW216275   0.366   4.049   3.943
 5126SOL     OW16276   6.315   5.086   6.528
 5126SOL    HW116277   6.381   5.162   6.521
 5126SOL    HW216278   6.267   5.076   6.441
 5127SOL     OW16279   5.620   3.897   0.034
 5127SOL    HW116280   5.712   3.923   0.004
 5127SOL    HW216281   5.626   3.838   0.114
 5128SOL     OW16282   1.302   0.742   6.646
 5128SOL    HW116283   1.234   0.682   6.689
 5128SOL    HW216284   1.390   0.694   6.642
 5129SOL     OW16285   5.275   0.178   2.178
 5129SOL    HW116286   5.233   0.268   2.161
 5129SOL    HW216287   5.360   0.171   2.126
 5130SOL     OW16288   1.034   5.275   4.849
 5130SOL    HW116289   1.012   5.336   4.772
 5130SOL    HW216290   1.064   5.186   4.813
 5131SOL     OW16291   3.180   4.910   3.278
 5131SOL    HW116292   3.155   5.006   3.264
 5131SOL    HW216293   3.204   4.868   3.191
 5132SOL     OW16294   3.461   1.511   6.263
 5132SOL    HW116295   3.403   1.452   6.207
 5132SOL    HW216296   3.406   1.558   6.331
 5133SOL     OW16297   3.641   5.633   6.483
 5133SOL    HW116298   3.615   5.683   6.566
 5133SOL    HW216299   3.699   5.691   6.426
 5134SOL     OW16300   6.474   6.839   1.413
 5134SOL    HW116301   6.442   6.849   1.319
 5134SOL    HW216302   6.437   6.914   1.469
 5135SOL     OW16303   6.447   3.273   2.516
 5135SOL    HW116304   6.538   3.249   2.552
 5135SOL    HW216305   6.446   3.370   2.491
 5136SOL     OW16306   0.566   0.636   6.271
 5136SOL    HW116307   0.492   0.572   6.293
 5136SOL    HW216308   0.652   0.602   6.311
 5137SOL     OW16309   5.371   2.391   5.349
 5137SOL    HW116310   5.365   2.299   5.309
 5137SOL    HW216311   5.354   2.384   5.448
 5138SOL     OW16312   3.756   4.079   4.515
 5138SOL    HW116313   3.849   4.044   4.497
 5138SOL    HW216314   3.746   4.098   4.613
 5139SOL     OW16315   1.494   0.290   5.116
 5139SOL    HW116316   1.576   0.280   5.059
 5139SOL    HW216317   1.514   0.354   5.190
 5140SOL     OW16318   4.297   1.802   5.853
 5140SOL    HW116319   4.251   1.721   5.818
 5140SOL    HW216320   4.381   1.818   5.800
 5141SOL     OW16321   6.804   2.679   1.798
 5141SOL    HW116322   6.746   2.620   1.742
 5141SOL    HW216323   6.757   2.703   1.883
 5142SOL     OW16324   6.948   6.743   3.643
 5142SOL    HW116325   7.010   6.669   3.671
 5142SOL    HW216326   6.987   6.831   3.672
 5143SOL     OW16327   0.815   4.651   4.366
 5143SOL    HW116328   0.875   4.589   4.316
 5143SOL    HW216329   0.858   4.741   4.371
 5144SOL     OW16330   2.036   3.519   6.697
 5144SOL    HW116331   2.044   3.419   6.691
 5144SOL    HW216332   2.066   3.559   6.611
 5145SOL     OW16333   3.211   6.462   6.667
 5145SOL    HW116334   3.113   6.451   6.648
 5145SOL    HW216335   3.230   6.559   6.686
 5146SOL     OW16336   4.350   4.474   5.487
 5146SOL    HW116337   4.371   4.376   5.489
 5146SOL    HW216338   4.319   4.503   5.578
 5147SOL     OW16339   4.965   3.228   3.230
 5147SOL    HW116340   4.953   3.181   3.317
 5147SOL    HW216341   4.941   3.167   3.155
 5148SOL     OW16342   0.595   0.930   1.762
 5148SOL    HW116343   0.653   0.896   1.837
 5148SOL    HW216344   0.551   0.853   1.717
 5149SOL     OW16345   5.702   4.468   3.773
 5149SOL    HW116346   5.668   4.559   3.793
 5149SOL    HW216347   5.794   4.457   3.812
 5150SOL     OW16348   1.332   4.485   3.930
 5150SOL    HW116349   1.349   4.484   4.029
 5150SOL    HW216350   1.296   4.575   3.904
 5151SOL     OW16351   5.638   4.868   2.074
 5151SOL    HW116352   5.720   4.924   2.085
 5151SOL    HW216353   5.657   4.775   2.105
 5152SOL     OW16354   1.546   0.637   6.552
 5152SOL    HW116355   1.526   0.642   6.454
 5152SOL    HW216356   1.589   0.549   6.573
 5153SOL     OW16357   1.631   1.598   0.682
 5153SOL    HW116358   1.631   1.693   0.712
 5153SOL    HW216359   1.591   1.540   0.754
 5154SOL     OW16360   1.186   2.888   6.607
 5154SOL    HW116361   1.241   2.881   6.524
 5154SOL    HW216362   1.159   2.796   6.636
 5155SOL     OW16363   2.131   1.919   0.376
 5155SOL    HW116364   2.171   1.857   0.309
 5155SOL    HW216365   2.032   1.904   0.381
 5156SOL     OW16366   5.564   5.193   5.468
 5156SOL    HW116367   5.657   5.159   5.483
 5156SOL    HW216368   5.535   5.248   5.546
 5157SOL     OW16369   3.747   1.071   2.207
 5157SOL    HW116370   3.733   0.981   2.164
 5157SOL    HW216371   3.661   1.123   2.202
 5158SOL     OW16372   3.826   0.935   2.556
 5158SOL    HW116373   3.814   1.025   2.598
 5158SOL    HW216374   3.747   0.877   2.578
 5159SOL     OW16375   5.937   3.773   6.427
 5159SOL    HW116376   5.920   3.856   6.373
 5159SOL    HW216377   6.012   3.790   6.490
 5160SOL     OW16378   0.106   6.180   3.357
 5160SOL    HW116379   0.079   6.124   3.278
 5160SOL    HW216380   0.028   6.232   3.390
 5161SOL     OW16381   0.750   2.898   0.253
 5161SOL    HW116382   0.824   2.833   0.269
 5161SOL    HW216383   0.779   2.966   0.186
 5162SOL     OW16384   0.079   6.262   2.737
 5162SOL    HW116385   0.000   6.228   2.685
 5162SOL    HW216386   0.059   6.256   2.835
 5163SOL     OW16387   3.270   6.102   1.596
 5163SOL    HW116388   3.256   6.135   1.502
 5163SOL    HW216389   3.304   6.009   1.593
 5164SOL     OW16390   3.000   3.201   1.362
 5164SOL    HW116391   2.959   3.215   1.452
 5164SOL    HW216392   2.932   3.222   1.291
 5165SOL     OW16393   1.590   4.803   6.863
 5165SOL    HW116394   1.518   4.824   6.797
 5165SOL    HW216395   1.674   4.853   6.839
 5166SOL     OW16396   1.986   5.387   1.566
 5166SOL    HW116397   1.978   5.322   1.642
 5166SOL    HW216398   2.053   5.353   1.501
 5167SOL     OW16399   5.113   3.221   5.521
 5167SOL    HW116400   5.161   3.309   5.527
 5167SOL    HW216401   5.074   3.211   5.430
 5168SOL     OW16402   4.428   2.115   2.022
 5168SOL    HW116403   4.371   2.037   1.996
 5168SOL    HW216404   4.377   2.175   2.084
 5169SOL     OW16405   3.927   0.497   4.072
 5169SOL    HW116406   3.995   0.427   4.093
 5169SOL    HW216407   3.959   0.553   3.996
 5170SOL     OW16408   1.304   3.682   6.416
 5170SOL    HW116409   1.360   3.637   6.346
 5170SOL    HW216410   1.343   3.665   6.506
 5171SOL     OW16411   2.187   5.620   5.505
 5171SOL    HW116412   2.246   5.690   5.546
 5171SOL    HW216413   2.148   5.562   5.576
 5172SOL     OW16414   0.660   5.006   3.881
 5172SOL    HW116415   0.715   4.948   3.821
 5172SOL    HW216416   0.570   5.020   3.839
 5173SOL     OW16417   4.598   3.761   5.965
 5173SOL    HW116418   4.586   3.795   5.872
 5173SOL    HW216419   4.511   3.727   6.001
 5174SOL     OW16420   1.957   6.678   3.177
 5174SOL    HW116421   1.877   6.711   3.227
 5174SOL    HW216422   1.973   6.737   3.097
 5175SOL     OW16423   2.743   4.288   0.184
 5175SOL    HW116424   2.708   4.301   0.091
 5175SOL    HW216425   2.761   4.191   0.199
 5176SOL     OW16426   5.662   5.460   6.806
 5176SOL    HW116427   5.741   5.447   6.866
 5176SOL    HW216428   5.586   5.404   6.838
 5177SOL     OW16429   4.579   0.451   1.052
 5177SOL    HW116430   4.489   0.493   1.066
 5177SOL    HW216431   4.607   0.404   1.135
 5178SOL     OW16432   0.789   3.354   1.915
 5178SOL    HW116433   0.804   3.378   1.819
 5178SOL    HW216434   0.841   3.417   1.973
 5179SOL     OW16435   5.895   4.541   3.289
 5179SOL    HW116436   5.977   4.487   3.311
 5179SOL    HW216437   5.913   4.599   3.210
 5180SOL     OW16438   2.748   0.102   1.354
 5180SOL    HW116439   2.832   0.091   1.406
 5180SOL    HW216440   2.710   0.012   1.332
 5181SOL     OW16441   0.333   0.753   6.921
 5181SOL    HW116442   0.383   0.831   6.882
 5181SOL    HW216443   0.391   0.672   6.917
 5182SOL     OW16444   4.246   4.811   3.272
 5182SOL    HW116445   4.311   4.882   3.299
 5182SOL    HW216446   4.295   4.724   3.261
 5183SOL     OW16447   4.168   1.924   3.609
 5183SOL    HW116448   4.238   1.977   3.656
 5183SOL    HW216449   4.143   1.970   3.524
 5184SOL     OW16450   2.043   1.772   4.075
 5184SOL    HW116451   2.008   1.851   4.126
 5184SOL    HW216452   2.132   1.795   4.036
 5185SOL     OW16453   5.532   0.685   1.911
 5185SOL    HW116454   5.555   0.779   1.934
 5185SOL    HW216455   5.464   0.683   1.839
 5186SOL     OW16456   6.789   3.005   5.939
 5186SOL    HW116457   6.865   3.067   5.958
 5186SOL    HW216458   6.733   3.043   5.865
 5187SOL     OW16459   2.229   4.855   4.910
 5187SOL    HW116460   2.201   4.759   4.911
 5187SOL    HW216461   2.315   4.864   4.858
 5188SOL     OW16462   6.958   6.679   1.600
 5188SOL    HW116463   6.921   6.586   1.606
 5188SOL    HW216464   6.934   6.729   1.684
 5189SOL     OW16465   5.912   0.463   6.218
 5189SOL    HW116466   5.938   0.508   6.133
 5189SOL    HW216467   5.813   0.471   6.231
 5190SOL     OW16468   1.885   2.955   1.728
 5190SOL    HW116469   1.862   2.983   1.822
 5190SOL    HW216470   1.921   2.862   1.730
 5191SOL     OW16471   2.858   5.715   2.283
 5191SOL    HW116472   2.808   5.629   2.288
 5191SOL    HW216473   2.807   5.780   2.226
 5192SOL     OW16474   2.174   5.209   1.486
 5192SOL    HW116475   2.168   5.209   1.386
 5192SOL    HW216476   2.269   5.225   1.514
 5193SOL     OW16477   5.348   0.434   6.770
 5193SOL    HW116478   5.300   0.349   6.792
 5193SOL    HW216479   5.440   0.431   6.811
 5194SOL     OW16480   4.285   1.679   0.061
 5194SOL    HW116481   4.224   1.708   0.135
 5194SOL    HW216482   4.274   1.581   0.045
 5195SOL     OW16483   0.286   0.887   4.137
 5195SOL    HW116484   0.214   0.896   4.206
 5195SOL    HW216485   0.246   0.849   4.053
 5196SOL     OW16486   4.628   0.014   3.260
 5196SOL    HW116487   4.631   0.039   3.357
 5196SOL    HW216488   4.533   0.008   3.230
 5197SOL     OW16489   1.349   4.288   6.040
 5197SOL    HW116490   1.433   4.324   5.999
 5197SOL    HW216491   1.316   4.210   5.987
 5198SOL     OW16492   5.380   5.873   3.146
 5198SOL    HW116493   5.424   5.944   3.092
 5198SOL    HW216494   5.337   5.806   3.085
 5199SOL     OW16495   7.012   5.527   1.328
 5199SOL    HW116496   6.974   5.603   1.380
 5199SOL    HW216497   6.964   5.443   1.351
 5200SOL     OW16498   0.218   4.143   5.599
 5200SOL    HW116499   0.260   4.082   5.667
 5200SOL    HW216500   0.279   4.222   5.585
 5201SOL     OW16501   1.682   5.844   3.813
 5201SOL    HW116502   1.747   5.914   3.783
 5201SOL    HW216503   1.691   5.831   3.912
 5202SOL     OW16504   6.671   3.634   6.877
 5202SOL    HW116505   6.718   3.579   6.808
 5202SOL    HW216506   6.664   3.582   6.962
 5203SOL     OW16507   0.430   3.017   6.753
 5203SOL    HW116508   0.455   3.037   6.848
 5203SOL    HW216509   0.330   3.023   6.743
 5204SOL     OW16510   4.577   4.877   0.439
 5204SOL    HW116511   4.603   4.960   0.489
 5204SOL    HW216512   4.559   4.899   0.344
 5205SOL     OW16513   1.772   0.755   1.861
 5205SOL    HW116514   1.835   0.783   1.788
 5205SOL    HW216515   1.711   0.831   1.883
 5206SOL     OW16516   0.142   4.377   6.752
 5206SOL    HW116517   0.048   4.412   6.748
 5206SOL    HW216518   0.203   4.443   6.708
 5207SOL     OW16519   1.884   5.410   4.158
 5207SOL    HW116520   1.927   5.464   4.230
 5207SOL    HW216521   1.853   5.471   4.084
 5208SOL     OW16522   4.003   0.739   0.483
 5208SOL    HW116523   4.021   0.824   0.433
 5208SOL    HW216524   4.016   0.754   0.581
 5209SOL     OW16525   6.039   6.234   3.519
 5209SOL    HW116526   6.014   6.295   3.444
 5209SOL    HW216527   6.116   6.274   3.569
 5210SOL     OW16528   5.086   3.429   4.165
 5210SOL    HW116529   5.056   3.421   4.260
 5210SOL    HW216530   5.008   3.454   4.107
 5211SOL     OW16531   3.404   3.512   3.755
 5211SOL    HW116532   3.483   3.560   3.792
 5211SOL    HW216533   3.321   3.547   3.798
 5212SOL     OW16534   0.500   2.166   0.160
 5212SOL    HW116535   0.584   2.200   0.202
 5212SOL    HW216536   0.431   2.150   0.230
 5213SOL     OW16537   5.133   2.608   5.681
 5213SOL    HW116538   5.212   2.652   5.640
 5213SOL    HW216539   5.164   2.546   5.754
 5214SOL     OW16540   5.613   1.815   5.105
 5214SOL    HW116541   5.604   1.821   5.204
 5214SOL    HW216542   5.661   1.895   5.070
 5215SOL     OW16543   5.485   4.715   3.499
 5215SOL    HW116544   5.467   4.808   3.469
 5215SOL    HW216545   5.583   4.698   3.497
 5216SOL     OW16546   5.418   4.590   1.472
 5216SOL    HW116547   5.436   4.613   1.568
 5216SOL    HW216548   5.326   4.551   1.464
 5217SOL     OW16549   3.383   5.391   3.850
 5217SOL    HW116550   3.365   5.402   3.752
 5217SOL    HW216551   3.311   5.438   3.901
 5218SOL     OW16552   1.521   6.771   4.254
 5218SOL    HW116553   1.615   6.757   4.284
 5218SOL    HW216554   1.516   6.773   4.155
 5219SOL     OW16555   3.712   0.209   6.682
 5219SOL    HW116556   3.671   0.274   6.746
 5219SOL    HW216557   3.805   0.238   6.661
 5220SOL     OW16558   1.073   5.531   1.974
 5220SOL    HW116559   1.071   5.453   1.912
 5220SOL    HW216560   1.167   5.557   1.993
 5221SOL     OW16561   5.427   1.620   4.410
 5221SOL    HW116562   5.448   1.523   4.425
 5221SOL    HW216563   5.437   1.642   4.313
 5222SOL     OW16564   2.237   0.495   3.883
 5222SOL    HW116565   2.317   0.439   3.864
 5222SOL    HW216566   2.164   0.438   3.921
 5223SOL     OW16567   4.705   0.038   1.305
 5223SOL    HW116568   4.781   7.005   1.271
 5223SOL    HW216569   4.732   0.135   1.303
 5224SOL     OW16570   6.820   2.379   2.535
 5224SOL    HW116571   6.818   2.477   2.555
 5224SOL    HW216572   6.910   2.353   2.501
 5225SOL     OW16573   6.776   0.280   3.504
 5225SOL    HW116574   6.796   0.201   3.446
 5225SOL    HW216575   6.860   0.330   3.522
 5226SOL     OW16576   0.927   6.196   4.523
 5226SOL    HW116577   0.913   6.288   4.487
 5226SOL    HW216578   0.839   6.149   4.529
 5227SOL     OW16579   6.800   5.032   3.657
 5227SOL    HW116580   6.823   4.942   3.619
 5227SOL    HW216581   6.877   5.094   3.644
 5228SOL     OW16582   5.565   1.858   0.663
 5228SOL    HW116583   5.524   1.853   0.572
 5228SOL    HW216584   5.527   1.936   0.713
 5229SOL     OW16585   1.002   4.257   6.561
 5229SOL    HW116586   1.032   4.177   6.509
 5229SOL    HW216587   1.077   4.323   6.567
 5230SOL     OW16588   0.320   0.851   1.114
 5230SOL    HW116589   0.403   0.896   1.080
 5230SOL    HW216590   0.333   0.828   1.211
 5231SOL     OW16591   3.781   3.009   4.409
 5231SOL    HW116592   3.694   2.966   4.433
 5231SOL    HW216593   3.807   3.072   4.482
 5232SOL     OW16594   4.204   1.945   6.465
 5232SOL    HW116595   4.271   1.991   6.407
 5232SOL    HW216596   4.247   1.919   6.552
 5233SOL     OW16597   6.413   6.573   1.602
 5233SOL    HW116598   6.509   6.603   1.593
 5233SOL    HW216599   6.385   6.525   1.520
 5234SOL     OW16600   3.707   0.820   0.742
 5234SOL    HW116601   3.751   0.837   0.831
 5234SOL    HW216602   3.619   0.776   0.757
 5235SOL     OW16603   1.231   2.860   0.768
 5235SOL    HW116604   1.170   2.817   0.701
 5235SOL    HW216605   1.225   2.812   0.855
 5236SOL     OW16606   5.595   2.964   1.228
 5236SOL    HW116607   5.609   2.867   1.247
 5236SOL    HW216608   5.541   3.005   1.301
 5237SOL     OW16609   2.893   2.234   5.612
 5237SOL    HW116610   2.916   2.226   5.515
 5237SOL    HW216611   2.851   2.323   5.629
 5238SOL     OW16612   1.234   5.271   0.315
 5238SOL    HW116613   1.334   5.269   0.315
 5238SOL    HW216614   1.199   5.218   0.238
 5239SOL     OW16615   2.891   3.606   4.302
 5239SOL    HW116616   2.894   3.630   4.205
 5239SOL    HW216617   2.848   3.516   4.312
 5240SOL     OW16618   3.098   2.165   5.328
 5240SOL    HW116619   3.035   2.134   5.257
 5240SOL    HW216620   3.152   2.241   5.294
 5241SOL     OW16621   0.889   6.013   6.725
 5241SOL    HW116622   0.879   6.007   6.626
 5241SOL    HW216623   0.813   6.064   6.763
 5242SOL     OW16624   6.260   1.485   5.679
 5242SOL    HW116625   6.349   1.442   5.697
 5242SOL    HW216626   6.187   1.422   5.707
 5243SOL     OW16627   1.018   5.935   0.783
 5243SOL    HW116628   1.087   5.867   0.806
 5243SOL    HW216629   1.039   6.022   0.829
 5244SOL     OW16630   3.862   4.032   5.763
 5244SOL    HW116631   3.808   4.058   5.844
 5244SOL    HW216632   3.959   4.039   5.785
 5245SOL     OW16633   4.107   4.036   5.872
 5245SOL    HW116634   4.096   4.096   5.951
 5245SOL    HW216635   4.152   4.087   5.798
 5246SOL     OW16636   0.154   3.567   2.828
 5246SOL    HW116637   0.139   3.659   2.790
 5246SOL    HW216638   0.201   3.511   2.760
 5247SOL     OW16639   0.289   5.919   6.975
 5247SOL    HW116640   0.320   5.955   0.040
 5247SOL    HW216641   0.245   5.992   6.922
 5248SOL     OW16642   5.476   0.632   5.648
 5248SOL    HW116643   5.473   0.542   5.691
 5248SOL    HW216644   5.435   0.699   5.709
 5249SOL     OW16645   1.192   5.343   4.174
 5249SOL    HW116646   1.285   5.326   4.140
 5249SOL    HW216647   1.172   5.279   4.249
 5250SOL     OW16648   0.372   1.745   6.269
 5250SOL    HW116649   0.287   1.757   6.320
 5250SOL    HW216650   0.390   1.827   6.214
 5251SOL     OW16651   6.908   3.359   1.123
 5251SOL    HW116652   6.959   3.390   1.203
 5251SOL    HW216653   6.970   3.352   1.045
 5252SOL     OW16654   2.417   5.983   1.347
 5252SOL    HW116655   2.403   5.921   1.424
 5252SOL    HW216656   2.334   5.986   1.291
 5253SOL     OW16657   5.857   3.408   4.586
 5253SOL    HW116658   5.827   3.426   4.679
 5253SOL    HW216659   5.859   3.310   4.570
 5254SOL     OW16660   4.703   1.261   3.697
 5254SOL    HW116661   4.635   1.331   3.716
 5254SOL    HW216662   4.772   1.261   3.770
 5255SOL     OW16663   3.758   0.284   4.583
 5255SOL    HW116664   3.748   0.366   4.527
 5255SOL    HW216665   3.826   0.300   4.654
 5256SOL     OW16666   4.950   1.364   3.295
 5256SOL    HW116667   4.932   1.454   3.256
 5256SOL    HW216668   4.897   1.295   3.246
 5257SOL     OW16669   3.972   6.653   1.339
 5257SOL    HW116670   3.955   6.732   1.399
 5257SOL    HW216671   3.900   6.586   1.351
 5258SOL     OW16672   5.000   3.897   1.955
 5258SOL    HW116673   4.947   3.982   1.957
 5258SOL    HW216674   4.972   3.839   2.031
 5259SOL     OW16675   4.743   6.153   1.986
 5259SOL    HW116676   4.793   6.201   2.058
 5259SOL    HW216677   4.658   6.115   2.025
 5260SOL     OW16678   5.155   3.810   0.755
 5260SOL    HW116679   5.239   3.784   0.804
 5260SOL    HW216680   5.162   3.781   0.660
 5261SOL     OW16681   0.606   2.218   5.014
 5261SOL    HW116682   0.674   2.235   5.085
 5261SOL    HW216683   0.562   2.129   5.030
 5262SOL     OW16684   2.804   7.001   2.375
 5262SOL    HW116685   2.845   6.974   2.288
 5262SOL    HW216686   2.768   0.071   2.367
 5263SOL     OW16687   1.855   0.504   6.160
 5263SOL    HW116688   1.800   0.421   6.163
 5263SOL    HW216689   1.868   0.540   6.253
 5264SOL     OW16690   6.438   1.616   1.367
 5264SOL    HW116691   6.530   1.615   1.405
 5264SOL    HW216692   6.371   1.601   1.439
 5265SOL     OW16693   5.581   3.913   2.478
 5265SOL    HW116694   5.522   3.911   2.397
 5265SOL    HW216695   5.630   3.827   2.486
 5266SOL     OW16696   2.534   6.541   1.813
 5266SOL    HW116697   2.472   6.485   1.758
 5266SOL    HW216698   2.570   6.486   1.889
 5267SOL     OW16699   4.660   4.951   6.032
 5267SOL    HW116700   4.748   4.938   5.986
 5267SOL    HW216701   4.676   4.968   6.130
 5268SOL     OW16702   6.570   5.838   5.236
 5268SOL    HW116703   6.506   5.912   5.216
 5268SOL    HW216704   6.575   5.777   5.158
 5269SOL     OW16705   2.328   5.524   3.866
 5269SOL    HW116706   2.403   5.589   3.873
 5269SOL    HW216707   2.342   5.465   3.787
 5270SOL     OW16708   5.126   2.309   1.043
 5270SOL    HW116709   5.064   2.383   1.067
 5270SOL    HW216710   5.157   2.262   1.126
 5271SOL     OW16711   4.105   5.238   5.386
 5271SOL    HW116712   4.140   5.145   5.400
 5271SOL    HW216713   4.182   5.301   5.372
 5272SOL     OW16714   0.952   5.720   4.789
 5272SOL    HW116715   0.982   5.699   4.883
 5272SOL    HW216716   1.030   5.715   4.728
 5273SOL     OW16717   0.859   2.303   3.905
 5273SOL    HW116718   0.916   2.263   3.976
 5273SOL    HW216719   0.829   2.231   3.842
 5274SOL     OW16720   6.502   5.097   3.651
 5274SOL    HW116721   6.598   5.094   3.623
 5274SOL    HW216722   6.465   5.004   3.656
 5275SOL     OW16723   3.734   0.046   6.446
 5275SOL    HW116724   3.700   0.096   6.526
 5275SOL    HW216725   3.660   7.012   6.409
 5276SOL     OW16726   0.107   6.672   0.860
 5276SOL    HW116727   0.052   6.736   0.805
 5276SOL    HW216728   0.165   6.724   0.923
 5277SOL     OW16729   1.801   1.778   3.453
 5277SOL    HW116730   1.703   1.783   3.432
 5277SOL    HW216731   1.846   1.719   3.386
 5278SOL     OW16732   5.985   6.448   6.400
 5278SOL    HW116733   5.958   6.369   6.346
 5278SOL    HW216734   6.001   6.526   6.339
 5279SOL     OW16735   1.295   5.574   6.352
 5279SOL    HW116736   1.267   5.526   6.269
 5279SOL    HW216737   1.313   5.670   6.332
 5280SOL     OW16738   3.839   6.123   5.110
 5280SOL    HW116739   3.876   6.205   5.155
 5280SOL    HW216740   3.782   6.151   5.033
 5281SOL     OW16741   1.270   0.606   4.660
 5281SOL    HW116742   1.245   0.511   4.645
 5281SOL    HW216743   1.331   0.612   4.739
 5282SOL     OW16744   2.220   0.318   2.467
 5282SOL    HW116745   2.167   0.234   2.477
 5282SOL    HW216746   2.162   0.397   2.485
 5283SOL     OW16747   1.347   0.817   3.838
 5283SOL    HW116748   1.348   0.881   3.915
 5283SOL    HW216749   1.403   0.853   3.763
 5284SOL     OW16750   5.021   2.365   2.397
 5284SOL    HW116751   4.937   2.363   2.343
 5284SOL    HW216752   5.082   2.292   2.366
 5285SOL     OW16753   0.769   3.271   3.421
 5285SOL    HW116754   0.706   3.232   3.488
 5285SOL    HW216755   0.825   3.341   3.466
 5286SOL     OW16756   6.320   3.790   1.006
 5286SOL    HW116757   6.322   3.888   0.988
 5286SOL    HW216758   6.363   3.741   0.930
 5287SOL     OW16759   3.023   5.405   2.008
 5287SOL    HW116760   3.015   5.444   1.916
 5287SOL    HW216761   2.943   5.432   2.061
 5288SOL     OW16762   4.770   0.197   2.155
 5288SOL    HW116763   4.703   0.132   2.119
 5288SOL    HW216764   4.795   0.262   2.083
 5289SOL     OW16765   2.234   5.141   0.098
 5289SOL    HW116766   2.225   5.045   0.127
 5289SOL    HW216767   2.283   5.144   0.011
 5290SOL     OW16768   1.663   4.442   5.457
 5290SOL    HW116769   1.705   4.373   5.517
 5290SOL    HW216770   1.736   4.490   5.407
 5291SOL     OW16771   2.657   4.630   5.756
 5291SOL    HW116772   2.712   4.586   5.685
 5291SOL    HW216773   2.590   4.564   5.791
 5292SOL     OW16774   6.188   3.942   5.846
 5292SOL    HW116775   6.121   4.002   5.890
 5292SOL    HW216776   6.170   3.847   5.872
 5293SOL     OW16777   2.085   5.767   4.578
 5293SOL    HW116778   2.150   5.719   4.637
 5293SOL    HW216779   2.133   5.798   4.495
 5294SOL     OW16780   4.323   1.224   5.681
 5294SOL    HW116781   4.380   1.172   5.617
 5294SOL    HW216782   4.257   1.279   5.629
 5295SOL     OW16783   4.099   0.941   3.468
 5295SOL    HW116784   4.125   0.952   3.373
 5295SOL    HW216785   4.107   0.845   3.495
 5296SOL     OW16786   3.598   3.876   0.390
 5296SOL    HW116787   3.606   3.972   0.417
 5296SOL    HW216788   3.687   3.844   0.356
 5297SOL     OW16789   2.294   3.128   0.844
 5297SOL    HW116790   2.213   3.095   0.894
 5297SOL    HW216791   2.303   3.226   0.856
 5298SOL     OW16792   2.378   6.272   6.773
 5298SOL    HW116793   2.470   6.310   6.770
 5298SOL    HW216794   2.380   6.184   6.821
 5299SOL     OW16795   3.269   2.337   0.785
 5299SOL    HW116796   3.230   2.400   0.852
 5299SOL    HW216797   3.271   2.244   0.822
 5300SOL     OW16798   0.757   5.022   0.840
 5300SOL    HW116799   0.782   5.006   0.935
 5300SOL    HW216800   0.720   5.115   0.830
 5301SOL     OW16801   4.227   0.438   6.752
 5301SOL    HW116802   4.143   0.431   6.804
 5301SOL    HW216803   4.276   0.522   6.779
 5302SOL     OW16804   5.424   6.427   3.995
 5302SOL    HW116805   5.411   6.345   4.051
 5302SOL    HW216806   5.521   6.436   3.972
 5303SOL     OW16807   0.365   5.222   5.397
 5303SOL    HW116808   0.447   5.199   5.449
 5303SOL    HW216809   0.288   5.234   5.461
 5304SOL     OW16810   5.997   1.037   0.655
 5304SOL    HW116811   5.987   1.135   0.642
 5304SOL    HW216812   6.053   0.999   0.582
 5305SOL     OW16813   1.130   5.584   2.753
 5305SOL    HW116814   1.154   5.678   2.732
 5305SOL    HW216815   1.198   5.544   2.814
 5306SOL     OW16816   0.224   4.420   5.810
 5306SOL    HW116817   0.286   4.354   5.768
 5306SOL    HW216818   0.177   4.472   5.739
 5307SOL     OW16819   4.631   1.946   0.374
 5307SOL    HW116820   4.590   2.036   0.391
 5307SOL    HW216821   4.566   1.890   0.323
 5308SOL     OW16822   1.229   4.757   2.125
 5308SOL    HW116823   1.158   4.708   2.073
 5308SOL    HW216824   1.302   4.693   2.148
 5309SOL     OW16825   3.330   5.571   2.173
 5309SOL    HW116826   3.398   5.609   2.235
 5309SOL    HW216827   3.248   5.545   2.224
 5310SOL     OW16828   6.516   3.867   2.387
 5310SOL    HW116829   6.542   3.963   2.386
 5310SOL    HW216830   6.473   3.845   2.475
 5311SOL     OW16831   5.427   7.009   6.889
 5311SOL    HW116832   5.511   0.011   6.938
 5311SOL    HW216833   5.412   6.910   6.897
 5312SOL     OW16834   0.389   5.848   1.846
 5312SOL    HW116835   0.334   5.773   1.810
 5312SOL    HW216836   0.446   5.815   1.922
 5313SOL     OW16837   0.759   4.288   5.644
 5313SOL    HW116838   0.757   4.213   5.710
 5313SOL    HW216839   0.795   4.255   5.557
 5314SOL     OW16840   4.302   0.152   0.537
 5314SOL    HW116841   4.215   0.193   0.509
 5314SOL    HW216842   4.296   0.123   0.632
 5315SOL     OW16843   4.694   2.740   2.870
 5315SOL    HW116844   4.788   2.763   2.895
 5315SOL    HW216845   4.686   2.732   2.771
 5316SOL     OW16846   1.426   3.828   5.716
 5316SOL    HW116847   1.341   3.862   5.676
 5316SOL    HW216848   1.413   3.813   5.814
 5317SOL     OW16849   6.351   1.714   5.939
 5317SOL    HW116850   6.281   1.781   5.962
 5317SOL    HW216851   6.385   1.732   5.846
 5318SOL     OW16852   0.297   2.706   0.577
 5318SOL    HW116853   0.297   2.790   0.523
 5318SOL    HW216854   0.346   2.720   0.662
 5319SOL     OW16855   4.464   6.122   1.171
 5319SOL    HW116856   4.493   6.088   1.082
 5319SOL    HW216857   4.516   6.205   1.193
 5320SOL     OW16858   4.079   5.272   1.055
 5320SOL    HW116859   4.125   5.357   1.080
 5320SOL    HW216860   4.018   5.244   1.129
 5321SOL     OW16861   2.412   4.550   4.726
 5321SOL    HW116862   2.388   4.461   4.767
 5321SOL    HW216863   2.388   4.549   4.629
 5322SOL     OW16864   5.589   6.615   0.095
 5322SOL    HW116865   5.515   6.635   0.031
 5322SOL    HW216866   5.585   6.519   0.122
 5323SOL     OW16867   3.841   1.136   5.721
 5323SOL    HW116868   3.929   1.183   5.731
 5323SOL    HW216869   3.810   1.143   5.626
 5324SOL     OW16870   3.507   2.553   0.233
 5324SOL    HW116871   3.574   2.480   0.245
 5324SOL    HW216872   3.486   2.594   0.321
 5325SOL     OW16873   3.403   1.099   4.666
 5325SOL    HW116874   3.369   1.103   4.572
 5325SOL    HW216875   3.352   1.028   4.716
 5326SOL     OW16876   6.913   5.456   3.326
 5326SOL    HW116877   6.823   5.413   3.323
 5326SOL    HW216878   6.980   5.397   3.281
 5327SOL     OW16879   6.061   2.239   5.120
 5327SOL    HW116880   6.044   2.202   5.029
 5327SOL    HW216881   6.094   2.333   5.113
 5328SOL     OW16882   3.265   3.769   6.186
 5328SOL    HW116883   3.314   3.842   6.234
 5328SOL    HW216884   3.329   3.722   6.125
 5329SOL     OW16885   0.704   5.334   6.668
 5329SOL    HW116886   0.660   5.424   6.678
 5329SOL    HW216887   0.639   5.262   6.694
 5330SOL     OW16888   3.625   4.257   6.960
 5330SOL    HW116889   3.626   4.352   6.928
 5330SOL    HW216890   3.716   4.218   6.951
 5331SOL     OW16891   5.951   2.072   6.557
 5331SOL    HW116892   5.913   2.135   6.490
 5331SOL    HW216893   5.898   1.987   6.558
 5332SOL     OW16894   1.122   3.162   1.527
 5332SOL    HW116895   1.205   3.175   1.581
 5332SOL    HW216896   1.057   3.106   1.579
 5333SOL     OW16897   1.003   1.027   2.985
 5333SOL    HW116898   1.079   1.010   2.922
 5333SOL    HW216899   1.028   0.998   3.077
 5334SOL     OW16900   3.065   0.793   4.442
 5334SOL    HW116901   3.078   0.806   4.540
 5334SOL    HW216902   3.049   0.695   4.424
 5335SOL     OW16903   7.022   5.977   0.677
 5335SOL    HW116904   6.968   5.975   0.593
 5335SOL    HW216905   6.993   6.054   0.734
 5336SOL     OW16906   2.152   3.366   2.523
 5336SOL    HW116907   2.204   3.296   2.474
 5336SOL    HW216908   2.168   3.357   2.621
 5337SOL     OW16909   5.148   4.344   1.125
 5337SOL    HW116910   5.167   4.262   1.071
 5337SOL    HW216911   5.128   4.318   1.220
 5338SOL     OW16912   5.823   1.379   0.172
 5338SOL    HW116913   5.923   1.381   0.167
 5338SOL    HW216914   5.788   1.473   0.165
 5339SOL     OW16915   6.765   1.341   3.824
 5339SOL    HW116916   6.829   1.307   3.756
 5339SOL    HW216917   6.716   1.264   3.865
 5340SOL     OW16918   5.507   4.293   0.910
 5340SOL    HW116919   5.526   4.390   0.903
 5340SOL    HW216920   5.584   4.247   0.955
 5341SOL     OW16921   3.713   2.492   6.733
 5341SOL    HW116922   3.770   2.418   6.699
 5341SOL    HW216923   3.762   2.579   6.726
 5342SOL     OW16924   3.824   0.835   4.424
 5342SOL    HW116925   3.751   0.846   4.357
 5342SOL    HW216926   3.789   0.859   4.515
 5343SOL     OW16927   3.528   3.812   4.105
 5343SOL    HW116928   3.430   3.827   4.098
 5343SOL    HW216929   3.573   3.895   4.138
 5344SOL     OW16930   2.116   2.236   2.414
 5344SOL    HW116931   2.197   2.287   2.384
 5344SOL    HW216932   2.034   2.279   2.376
 5345SOL     OW16933   4.144   6.604   1.829
 5345SOL    HW116934   4.170   6.549   1.750
 5345SOL    HW216935   4.223   6.657   1.860
 5346SOL     OW16936   3.098   6.276   3.916
 5346SOL    HW116937   3.100   6.259   4.014
 5346SOL    HW216938   3.070   6.193   3.868
 5347SOL     OW16939   0.059   2.409   1.607
 5347SOL    HW116940   0.053   2.461   1.693
 5347SOL    HW216941   0.154   2.383   1.590
 5348SOL     OW16942   0.534   1.330   0.506
 5348SOL    HW116943   0.590   1.271   0.564
 5348SOL    HW216944   0.589   1.364   0.429
 5349SOL     OW16945   1.215   2.407   0.299
 5349SOL    HW116946   1.129   2.389   0.252
 5349SOL    HW216947   1.288   2.420   0.232
 5350SOL     OW16948   2.043   0.294   6.068
 5350SOL    HW116949   1.967   0.358   6.057
 5350SOL    HW216950   2.111   0.334   6.130
 5351SOL     OW16951   5.414   5.548   2.128
 5351SOL    HW116952   5.452   5.595   2.208
 5351SOL    HW216953   5.346   5.481   2.158
 5352SOL     OW16954   1.699   5.661   4.548
 5352SOL    HW116955   1.752   5.745   4.557
 5352SOL    HW216956   1.611   5.682   4.505
 5353SOL     OW16957   3.203   5.841   4.451
 5353SOL    HW116958   3.173   5.775   4.521
 5353SOL    HW216959   3.128   5.904   4.431
 5354SOL     OW16960   1.540   5.025   1.906
 5354SOL    HW116961   1.534   5.096   1.976
 5354SOL    HW216962   1.591   5.060   1.827
 5355SOL     OW16963   4.852   2.454   3.941
 5355SOL    HW116964   4.947   2.480   3.962
 5355SOL    HW216965   4.843   2.439   3.843
 5356SOL     OW16966   5.942   4.343   1.753
 5356SOL    HW116967   5.984   4.374   1.668
 5356SOL    HW216968   6.004   4.278   1.798
 5357SOL     OW16969   3.291   0.289   0.813
 5357SOL    HW116970   3.377   0.238   0.812
 5357SOL    HW216971   3.296   0.361   0.883
 5358SOL     OW16972   3.879   1.812   0.852
 5358SOL    HW116973   3.963   1.860   0.827
 5358SOL    HW216974   3.870   1.809   0.952
 5359SOL     OW16975   1.980   1.849   6.920
 5359SOL    HW116976   1.961   1.815   7.012
 5359SOL    HW216977   1.895   1.883   6.879
 5360SOL     OW16978   4.192   6.750   4.723
 5360SOL    HW116979   4.143   6.682   4.778
 5360SOL    HW216980   4.275   6.777   4.770
 5361SOL     OW16981   2.032   6.792   4.243
 5361SOL    HW116982   2.062   6.704   4.206
 5361SOL    HW216983   2.046   6.793   4.342
 5362SOL     OW16984   5.195   4.374   3.722
 5362SOL    HW116985   5.267   4.442   3.712
 5362SOL    HW216986   5.209   4.323   3.807
 5363SOL     OW16987   0.827   6.038   6.464
 5363SOL    HW116988   0.800   5.943   6.448
 5363SOL    HW216989   0.895   6.065   6.395
 5364SOL     OW16990   6.915   5.737   1.504
 5364SOL    HW116991   6.819   5.711   1.499
 5364SOL    HW216992   6.922   5.836   1.520
 5365SOL     OW16993   3.833   3.154   6.869
 5365SOL    HW116994   3.921   3.114   6.893
 5365SOL    HW216995   3.824   3.243   6.912
 5366SOL     OW16996   5.086   5.151   1.837
 5366SOL    HW116997   5.173   5.135   1.884
 5366SOL    HW216998   5.069   5.076   1.773
 5367SOL     OW16999   0.420   5.375   0.914
 5367SOL    HW117000   0.361   5.427   0.974
 5367SOL    HW217001   0.365   5.332   0.842
 5368SOL     OW17002   5.061   1.027   3.167
 5368SOL    HW117003   5.134   1.072   3.219
 5368SOL    HW217004   4.973   1.070   3.189
 5369SOL     OW17005   2.898   6.170   3.506
 5369SOL    HW117006   2.801   6.153   3.487
 5369SOL    HW217007   2.908   6.253   3.560
 5370SOL     OW17008   4.104   3.200   1.424
 5370SOL    HW117009   4.011   3.228   1.399
 5370SOL    HW217010   4.102   3.148   1.509
 5371SOL     OW17011   1.714   3.464   3.970
 5371SOL    HW117012   1.700   3.464   3.871
 5371SOL    HW217013   1.748   3.375   3.999
 5372SOL     OW17014   2.162   5.556   2.939
 5372SOL    HW117015   2.088   5.540   3.005
 5372SOL    HW217016   2.250   5.533   2.981
 5373SOL     OW17017   3.189   5.027   4.003
 5373SOL    HW117018   3.199   5.001   3.907
 5373SOL    HW217019   3.122   4.967   4.047
 5374SOL     OW17020   0.923   3.830   6.556
 5374SOL    HW117021   0.899   3.734   6.573
 5374SOL    HW217022   1.004   3.854   6.609
 5375SOL     OW17023   1.563   4.555   4.851
 5375SOL    HW117024   1.620   4.518   4.777
 5375SOL    HW217025   1.476   4.507   4.853
 5376SOL     OW17026   1.786   2.946   1.103
 5376SOL    HW117027   1.836   3.029   1.130
 5376SOL    HW217028   1.845   2.866   1.117
 5377SOL     OW17029   6.865   6.982   1.453
 5377SOL    HW117030   6.779   0.010   1.466
 5377SOL    HW217031   6.916   6.982   1.539
 5378SOL     OW17032   6.807   0.398   1.299
 5378SOL    HW117033   6.726   0.452   1.274
 5378SOL    HW217034   6.812   0.390   1.399
 5379SOL     OW17035   0.793   5.364   4.849
 5379SOL    HW117036   0.874   5.319   4.885
 5379SOL    HW217037   0.730   5.296   4.812
 5380SOL     OW17038   2.013   1.009   3.352
 5380SOL    HW117039   2.087   1.069   3.382
 5380SOL    HW217040   2.042   0.913   3.361
 5381SOL     OW17041   6.833   4.167   0.612
 5381SOL    HW117042   6.876   4.223   0.542
 5381SOL    HW217043   6.838   4.071   0.585
 5382SOL     OW17044   3.012   0.223   1.819
 5382SOL    HW117045   3.072   0.150   1.786
 5382SOL    HW217046   3.067   0.304   1.839
 5383SOL     OW17047   2.537   2.541   5.128
 5383SOL    HW117048   2.612   2.602   5.154
 5383SOL    HW217049   2.464   2.594   5.086
 5384SOL     OW17050   6.213   0.587   3.923
 5384SOL    HW117051   6.227   0.627   4.014
 5384SOL    HW217052   6.158   0.649   3.868
 5385SOL     OW17053   2.898   3.479   3.180
 5385SOL    HW117054   2.942   3.563   3.213
 5385SOL    HW217055   2.915   3.469   3.082
 5386SOL     OW17056   4.417   0.071   4.469
 5386SOL    HW117057   4.330   0.023   4.475
 5386SOL    HW217058   4.491   0.010   4.497
 5387SOL     OW17059   2.595   5.530   3.454
 5387SOL    HW117060   2.585   5.448   3.398
 5387SOL    HW217061   2.506   5.572   3.469
 5388SOL     OW17062   5.343   6.918   3.378
 5388SOL    HW117063   5.296   6.964   3.302
 5388SOL    HW217064   5.375   6.987   3.443
 5389SOL     OW17065   5.200   1.010   1.690
 5389SOL    HW117066   5.295   1.043   1.685
 5389SOL    HW217067   5.143   1.079   1.735
 5390SOL     OW17068   4.238   4.680   3.871
 5390SOL    HW117069   4.273   4.774   3.881
 5390SOL    HW217070   4.228   4.659   3.773
 5391SOL     OW17071   1.928   2.297   0.527
 5391SOL    HW117072   2.003   2.347   0.485
 5391SOL    HW217073   1.963   2.218   0.577
 5392SOL     OW17074   5.790   3.514   1.038
 5392SOL    HW117075   5.838   3.451   0.977
 5392SOL    HW217076   5.837   3.603   1.039
 5393SOL     OW17077   6.038   6.491   6.658
 5393SOL    HW117078   5.961   6.495   6.721
 5393SOL    HW217079   6.004   6.476   6.565
 5394SOL     OW17080   6.809   4.017   6.496
 5394SOL    HW117081   6.749   4.061   6.563
 5394SOL    HW217082   6.758   3.943   6.451
 5395SOL     OW17083   4.901   0.980   1.893
 5395SOL    HW117084   4.846   0.944   1.818
 5395SOL    HW217085   4.928   1.074   1.872
 5396SOL     OW17086   5.206   3.871   2.808
 5396SOL    HW117087   5.160   3.952   2.772
 5396SOL    HW217088   5.151   3.831   2.882
 5397SOL     OW17089   6.344   2.651   1.765
 5397SOL    HW117090   6.312   2.564   1.726
 5397SOL    HW217091   6.266   2.713   1.776
 5398SOL     OW17092   3.412   1.800   2.483
 5398SOL    HW117093   3.463   1.770   2.403
 5398SOL    HW217094   3.458   1.879   2.524
 5399SOL     OW17095   2.478   6.408   0.162
 5399SOL    HW117096   2.408   6.341   0.187
 5399SOL    HW217097   2.554   6.363   0.116
 5400SOL     OW17098   2.739   3.913   0.658
 5400SOL    HW117099   2.654   3.862   0.641
 5400SOL    HW217100   2.774   3.949   0.572
 5401SOL     OW17101   5.657   3.364   1.610
 5401SOL    HW117102   5.612   3.445   1.649
 5401SOL    HW217103   5.593   3.314   1.552
 5402SOL     OW17104   2.338   5.524   1.567
 5402SOL    HW117105   2.298   5.509   1.657
 5402SOL    HW217106   2.394   5.445   1.541
 5403SOL     OW17107   5.841   3.258   6.049
 5403SOL    HW117108   5.887   3.265   5.961
 5403SOL    HW217109   5.880   3.182   6.101
 5404SOL     OW17110   0.733   1.401   3.074
 5404SOL    HW117111   0.828   1.414   3.103
 5404SOL    HW217112   0.679   1.481   3.098
 5405SOL     OW17113   6.181   5.435   0.288
 5405SOL    HW117114   6.252   5.503   0.270
 5405SOL    HW217115   6.190   5.402   0.382
 5406SOL     OW17116   2.213   1.892   6.422
 5406SOL    HW117117   2.206   1.953   6.501
 5406SOL    HW217118   2.278   1.819   6.442
 5407SOL     OW17119   4.473   3.062   1.124
 5407SOL    HW117120   4.547   3.064   1.191
 5407SOL    HW217121   4.479   2.979   1.068
 5408SOL     OW17122   2.800   1.401   6.262
 5408SOL    HW117123   2.756   1.336   6.200
 5408SOL    HW217124   2.791   1.494   6.226
 5409SOL     OW17125   5.066   0.708   3.724
 5409SOL    HW117126   4.992   0.769   3.751
 5409SOL    HW217127   5.147   0.762   3.700
 5410SOL     OW17128   2.835   2.314   1.685
 5410SOL    HW117129   2.848   2.374   1.763
 5410SOL    HW217130   2.767   2.244   1.707
 5411SOL     OW17131   6.497   5.479   5.339
 5411SOL    HW117132   6.412   5.482   5.391
 5411SOL    HW217133   6.557   5.409   5.377
 5412SOL     OW17134   4.918   1.672   0.565
 5412SOL    HW117135   4.889   1.766   0.548
 5412SOL    HW217136   4.899   1.648   0.660
 5413SOL     OW17137   2.887   1.883   1.285
 5413SOL    HW117138   2.886   1.961   1.223
 5413SOL    HW217139   2.868   1.914   1.378
 5414SOL     OW17140   5.012   2.041   4.764
 5414SOL    HW117141   4.928   2.092   4.786
 5414SOL    HW217142   5.048   1.998   4.846
 5415SOL     OW17143   1.027   5.752   1.166
 5415SOL    HW117144   0.969   5.785   1.241
 5415SOL    HW217145   0.978   5.684   1.113
 5416SOL     OW17146   4.928   5.370   5.968
 5416SOL    HW117147   4.950   5.284   6.014
 5416SOL    HW217148   4.867   5.424   6.026
 5417SOL     OW17149   3.936   6.817   5.435
 5417SOL    HW117150   3.941   6.723   5.400
 5417SOL    HW217151   3.880   6.872   5.374
 5418SOL     OW17152   3.368   6.679   3.869
 5418SOL    HW117153   3.288   6.619   3.863
 5418SOL    HW217154   3.412   6.685   3.779
 5419SOL     OW17155   3.971   5.351   0.206
 5419SOL    HW117156   4.047   5.288   0.191
 5419SOL    HW217157   3.971   5.382   0.301
 5420SOL     OW17158   1.886   2.818   2.446
 5420SOL    HW117159   1.797   2.824   2.491
 5420SOL    HW217160   1.950   2.883   2.488
 5421SOL     OW17161   2.178   2.943   2.068
 5421SOL    HW117162   2.096   2.896   2.035
 5421SOL    HW217163   2.152   3.020   2.126
 5422SOL     OW17164   0.556   5.018   0.622
 5422SOL    HW117165   0.620   4.951   0.660
 5422SOL    HW217166   0.565   5.104   0.671
 5423SOL     OW17167   6.480   3.242   0.289
 5423SOL    HW117168   6.422   3.218   0.367
 5423SOL    HW217169   6.520   3.159   0.251
 5424SOL     OW17170   5.789   2.968   3.539
 5424SOL    HW117171   5.816   2.894   3.600
 5424SOL    HW217172   5.707   2.941   3.487
 5425SOL     OW17173   4.288   0.977   4.540
 5425SOL    HW117174   4.378   1.006   4.572
 5425SOL    HW217175   4.274   1.008   4.446
 5426SOL     OW17176   6.473   5.853   4.119
 5426SOL    HW117177   6.436   5.765   4.091
 5426SOL    HW217178   6.446   5.872   4.214
 5427SOL     OW17179   4.863   5.058   6.738
 5427SOL    HW117180   4.942   5.119   6.743
 5427SOL    HW217181   4.806   5.083   6.660
 5428SOL     OW17182   0.082   6.476   1.358
 5428SOL    HW117183   0.175   6.501   1.383
 5428SOL    HW217184   0.020   6.553   1.377
 5429SOL     OW17185   2.245   2.261   6.370
 5429SOL    HW117186   2.300   2.321   6.429
 5429SOL    HW217187   2.180   2.210   6.426
 5430SOL     OW17188   0.228   2.995   6.064
 5430SOL    HW117189   0.201   3.056   5.989
 5430SOL    HW217190   0.262   3.050   6.140
 5431SOL     OW17191   2.824   6.249   0.450
 5431SOL    HW117192   2.844   6.176   0.384
 5431SOL    HW217193   2.727   6.244   0.475
 5432SOL     OW17194   5.255   0.164   6.791
 5432SOL    HW117195   5.168   0.116   6.776
 5432SOL    HW217196   5.320   0.102   6.834
 5433SOL     OW17197   0.282   1.766   4.707
 5433SOL    HW117198   0.300   1.856   4.747
 5433SOL    HW217199   0.281   1.697   4.780
 5434SOL     OW17200   3.288   0.603   5.337
 5434SOL    HW117201   3.221   0.547   5.387
 5434SOL    HW217202   3.321   0.676   5.396
 5435SOL     OW17203   6.060   0.274   2.207
 5435SOL    HW117204   6.119   0.246   2.131
 5435SOL    HW217205   6.098   0.356   2.250
 5436SOL     OW17206   5.319   3.469   4.053
 5436SOL    HW117207   5.240   3.429   4.099
 5436SOL    HW217208   5.295   3.486   3.957
 5437SOL     OW17209   2.371   4.221   0.252
 5437SOL    HW117210   2.326   4.303   0.215
 5437SOL    HW217211   2.434   4.184   0.183
 5438SOL     OW17212   6.725   2.843   2.692
 5438SOL    HW117213   6.780   2.861   2.774
 5438SOL    HW217214   6.641   2.897   2.695
 5439SOL     OW17215   0.703   2.300   0.576
 5439SOL    HW117216   0.623   2.248   0.606
 5439SOL    HW217217   0.748   2.252   0.501
 5440SOL     OW17218   1.076   1.318   1.228
 5440SOL    HW117219   1.100   1.221   1.225
 5440SOL    HW217220   1.155   1.371   1.259
 5441SOL     OW17221   4.629   2.054   2.890
 5441SOL    HW117222   4.553   2.001   2.928
 5441SOL    HW217223   4.665   2.006   2.809
 5442SOL     OW17224   3.061   5.988   4.174
 5442SOL    HW117225   3.028   5.894   4.186
 5442SOL    HW217226   3.160   5.987   4.162
 5443SOL     OW17227   3.124   0.700   4.052
 5443SOL    HW117228   3.150   0.611   4.090
 5443SOL    HW217229   3.106   0.692   3.954
 5444SOL     OW17230   1.373   0.223   4.114
 5444SOL    HW117231   1.422   0.304   4.146
 5444SOL    HW217232   1.277   0.247   4.097
 5445SOL     OW17233   6.082   3.891   3.386
 5445SOL    HW117234   6.159   3.888   3.322
 5445SOL    HW217235   6.099   3.963   3.454
 5446SOL     OW17236   6.323   4.848   4.927
 5446SOL    HW117237   6.346   4.754   4.902
 5446SOL    HW217238   6.373   4.911   4.869
 5447SOL     OW17239   3.256   2.626   6.788
 5447SOL    HW117240   3.310   2.573   6.723
 5447SOL    HW217241   3.312   2.645   6.869
 5448SOL     OW17242   4.429   2.962   5.337
 5448SOL    HW117243   4.398   3.055   5.318
 5448SOL    HW217244   4.350   2.902   5.350
 5449SOL     OW17245   1.573   3.167   6.111
 5449SOL    HW117246   1.554   3.212   6.024
 5449SOL    HW217247   1.653   3.210   6.154
 5450SOL     OW17248   1.718   0.422   1.750
 5450SOL    HW117249   1.655   0.348   1.772
 5450SOL    HW217250   1.666   0.503   1.723
 5451SOL     OW17251   1.653   6.491   3.539
 5451SOL    HW117252   1.586   6.420   3.562
 5451SOL    HW217253   1.744   6.462   3.570
 5452SOL     OW17254   2.204   4.863   0.161
 5452SOL    HW117255   2.296   4.829   0.141
 5452SOL    HW217256   2.163   4.810   0.235
 5453SOL     OW17257   5.797   4.168   1.045
 5453SOL    HW117258   5.807   4.090   1.107
 5453SOL    HW217259   5.838   4.147   0.956
 5454SOL     OW17260   0.175   4.098   6.691
 5454SOL    HW117261   0.157   4.047   6.775
 5454SOL    HW217262   0.173   4.196   6.710
 5455SOL     OW17263   6.273   3.731   0.235
 5455SOL    HW117264   6.314   3.749   0.145
 5455SOL    HW217265   6.308   3.645   0.271
 5456SOL     OW17266   3.469   6.674   6.907
 5456SOL    HW117267   3.409   6.744   6.947
 5456SOL    HW217268   3.551   6.718   6.870
 5457SOL     OW17269   5.575   2.402   0.198
 5457SOL    HW117270   5.604   2.489   0.156
 5457SOL    HW217271   5.591   2.405   0.296
 5458SOL     OW17272   0.291   4.635   6.863
 5458SOL    HW117273   0.224   4.704   6.836
 5458SOL    HW217274   0.261   4.592   6.948
 5459SOL     OW17275   2.357   4.505   0.106
 5459SOL    HW117276   2.299   4.571   0.059
 5459SOL    HW217277   2.449   4.542   0.116
 5460SOL     OW17278   2.785   6.731   2.480
 5460SOL    HW117279   2.815   6.736   2.575
 5460SOL    HW217280   2.776   6.823   2.443
 5461SOL     OW17281   6.211   6.743   5.104
 5461SOL    HW117282   6.255   6.807   5.042
 5461SOL    HW217283   6.113   6.764   5.109
 5462SOL     OW17284   0.841   0.623   0.074
 5462SOL    HW117285   0.901   0.551   0.039
 5462SOL    HW217286   0.858   0.708   0.026
 5463SOL     OW17287   6.275   2.354   0.149
 5463SOL    HW117288   6.275   2.446   0.110
 5463SOL    HW217289   6.270   2.361   0.249
 5464SOL     OW17290   1.343   0.989   4.059
 5464SOL    HW117291   1.441   0.970   4.059
 5464SOL    HW217292   1.321   1.052   4.134
 5465SOL     OW17293   3.820   6.639   3.347
 5465SOL    HW117294   3.859   6.551   3.373
 5465SOL    HW217295   3.807   6.695   3.430
 5466SOL     OW17296   5.754   4.337   5.279
 5466SOL    HW117297   5.702   4.254   5.260
 5466SOL    HW217298   5.691   4.413   5.294
 5467SOL     OW17299   5.171   2.303   2.955
 5467SOL    HW117300   5.171   2.291   2.856
 5467SOL    HW217301   5.077   2.303   2.988
 5468SOL     OW17302   5.020   1.969   4.487
 5468SOL    HW117303   5.052   2.000   4.576
 5468SOL    HW217304   4.925   1.939   4.495
 5469SOL     OW17305   3.869   4.857   6.921
 5469SOL    HW117306   3.891   4.796   6.845
 5469SOL    HW217307   3.950   4.870   6.978
 5470SOL     OW17308   2.609   5.337   3.272
 5470SOL    HW117309   2.680   5.329   3.201
 5470SOL    HW217310   2.548   5.258   3.267
 5471SOL     OW17311   5.491   0.104   1.975
 5471SOL    HW117312   5.566   0.043   2.000
 5471SOL    HW217313   5.447   0.071   1.892
 5472SOL     OW17314   3.669   3.481   6.006
 5472SOL    HW117315   3.729   3.428   6.066
 5472SOL    HW217316   3.714   3.498   5.919
 5473SOL     OW17317   0.671   3.564   3.293
 5473SOL    HW117318   0.623   3.481   3.266
 5473SOL    HW217319   0.612   3.621   3.350
 5474SOL     OW17320   1.235   4.252   3.837
 5474SOL    HW117321   1.306   4.182   3.834
 5474SOL    HW217322   1.271   4.334   3.881
 5475SOL     OW17323   2.420   2.393   0.352
 5475SOL    HW117324   2.345   2.427   0.409
 5475SOL    HW217325   2.383   2.349   0.270
 5476SOL     OW17326   2.575   3.917   6.364
 5476SOL    HW117327   2.651   3.965   6.408
 5476SOL    HW217328   2.552   3.964   6.279
 5477SOL     OW17329   1.843   3.408   3.442
 5477SOL    HW117330   1.852   3.493   3.390
 5477SOL    HW217331   1.933   3.380   3.476
 5478SOL     OW17332   4.813   5.079   5.396
 5478SOL    HW117333   4.723   5.123   5.401
 5478SOL    HW217334   4.813   5.012   5.322
 5479SOL     OW17335   5.045   1.184   5.934
 5479SOL    HW117336   4.990   1.119   5.883
 5479SOL    HW217337   4.985   1.243   5.989
 5480SOL     OW17338   0.228   3.537   3.544
 5480SOL    HW117339   0.259   3.463   3.485
 5480SOL    HW217340   0.143   3.575   3.508
 5481SOL     OW17341   3.711   0.706   4.076
 5481SOL    HW117342   3.704   0.803   4.099
 5481SOL    HW217343   3.806   0.676   4.087
 5482SOL     OW17344   3.819   4.525   1.656
 5482SOL    HW117345   3.761   4.453   1.619
 5482SOL    HW217346   3.766   4.584   1.716
 5483SOL     OW17347   0.424   2.983   5.746
 5483SOL    HW117348   0.507   3.014   5.794
 5483SOL    HW217349   0.393   2.896   5.785
 5484SOL     OW17350   4.792   0.795   4.971
 5484SOL    HW117351   4.708   0.811   5.023
 5484SOL    HW217352   4.815   0.698   4.974
 5485SOL     OW17353   4.042   0.058   5.480
 5485SOL    HW117354   4.022   0.135   5.420
 5485SOL    HW217355   3.958   0.007   5.498
 5486SOL     OW17356   2.765   6.140   5.213
 5486SOL    HW117357   2.735   6.093   5.296
 5486SOL    HW217358   2.865   6.144   5.212
 5487SOL     OW17359   3.101   4.108   6.509
 5487SOL    HW117360   3.186   4.057   6.499
 5487SOL    HW217361   3.118   4.193   6.559
 5488SOL     OW17362   6.872   1.348   0.594
 5488SOL    HW117363   6.885   1.355   0.495
 5488SOL    HW217364   6.922   1.421   0.639
 5489SOL     OW17365   6.337   3.629   2.157
 5489SOL    HW117366   6.367   3.640   2.062
 5489SOL    HW217367   6.264   3.561   2.161
 5490SOL     OW17368   1.529   0.167   2.308
 5490SOL    HW117369   1.517   0.265   2.288
 5490SOL    HW217370   1.473   0.142   2.387
 5491SOL     OW17371   0.271   2.951   0.767
 5491SOL    HW117372   0.206   2.882   0.736
 5491SOL    HW217373   0.248   2.980   0.860
 5492SOL     OW17374   1.263   3.448   5.572
 5492SOL    HW117375   1.194   3.459   5.643
 5492SOL    HW217376   1.354   3.454   5.612
 5493SOL     OW17377   4.136   3.589   2.060
 5493SOL    HW117378   4.235   3.606   2.060
 5493SOL    HW217379   4.098   3.620   2.147
 5494SOL     OW17380   6.755   4.213   4.934
 5494SOL    HW117381   6.695   4.230   5.012
 5494SOL    HW217382   6.700   4.184   4.856
 5495SOL     OW17383   6.003   1.173   0.944
 5495SOL    HW117384   6.048   1.170   0.855
 5495SOL    HW217385   5.907   1.197   0.933
 5496SOL     OW17386   4.390   0.460   3.890
 5496SOL    HW117387   4.470   0.482   3.834
 5496SOL    HW217388   4.391   0.514   3.974
 5497SOL     OW17389   0.327   1.008   6.076
 5497SOL    HW117390   0.404   0.962   6.119
 5497SOL    HW217391   0.356   1.097   6.041
 5498SOL     OW17392   7.014   5.188   2.014
 5498SOL    HW117393   6.925   5.149   1.990
 5498SOL    HW217394   0.061   5.117   2.007
 5499SOL     OW17395   0.380   0.616   3.798
 5499SOL    HW117396   0.289   0.594   3.833
 5499SOL    HW217397   0.398   0.713   3.813
 5500SOL     OW17398   1.289   0.633   0.118
 5500SOL    HW117399   1.223   0.685   0.064
 5500SOL    HW217400   1.322   0.556   0.064
 5501SOL     OW17401   4.270   2.409   0.566
 5501SOL    HW117402   4.203   2.467   0.612
 5501SOL    HW217403   4.313   2.462   0.492
 5502SOL     OW17404   5.197   3.980   6.509
 5502SOL    HW117405   5.143   4.001   6.428
 5502SOL    HW217406   5.188   3.883   6.530
 5503SOL     OW17407   0.430   3.967   0.692
 5503SOL    HW117408   0.452   4.059   0.723
 5503SOL    HW217409   0.485   3.901   0.744
 5504SOL     OW17410   4.819   1.381   6.195
 5504SOL    HW117411   4.780   1.295   6.227
 5504SOL    HW217412   4.885   1.415   6.262
 5505SOL     OW17413   2.166   4.123   3.636
 5505SOL    HW117414   2.250   4.178   3.628
 5505SOL    HW217415   2.153   4.095   3.731
 5506SOL     OW17416   6.762   3.414   6.682
 5506SOL    HW117417   6.763   3.461   6.593
 5506SOL    HW217418   6.675   3.364   6.692
 5507SOL     OW17419   3.586   0.548   5.709
 5507SOL    HW117420   3.667   0.555   5.767
 5507SOL    HW217421   3.603   0.482   5.636
 5508SOL     OW17422   1.508   0.600   0.370
 5508SOL    HW117423   1.429   0.588   0.430
 5508SOL    HW217424   1.491   0.678   0.309
 5509SOL     OW17425   0.839   5.410   0.794
 5509SOL    HW117426   0.929   5.370   0.814
 5509SOL    HW217427   0.850   5.487   0.732
 5510SOL     OW17428   5.200   5.526   6.885
 5510SOL    HW117429   5.266   5.600   6.899
 5510SOL    HW217430   5.187   5.512   6.786
 5511SOL     OW17431   0.914   1.427   5.072
 5511SOL    HW117432   0.841   1.453   5.008
 5511SOL    HW217433   0.976   1.504   5.085
 5512SOL     OW17434   3.654   0.564   1.408
 5512SOL    HW117435   3.700   0.646   1.375
 5512SOL    HW217436   3.640   0.571   1.507
 5513SOL     OW17437   3.601   5.350   6.148
 5513SOL    HW117438   3.696   5.376   6.134
 5513SOL    HW217439   3.569   5.294   6.072
 5514SOL     OW17440   3.635   6.788   4.900
 5514SOL    HW117441   3.649   6.709   4.841
 5514SOL    HW217442   3.540   6.817   4.895
 5515SOL     OW17443   1.969   5.701   2.044
 5515SOL    HW117444   1.932   5.671   1.956
 5515SOL    HW217445   1.932   5.791   2.066
 5516SOL     OW17446   2.313   2.746   5.048
 5516SOL    HW117447   2.308   2.723   4.951
 5516SOL    HW217448   2.336   2.842   5.059
 5517SOL     OW17449   1.699   3.950   2.415
 5517SOL    HW117450   1.772   3.882   2.401
 5517SOL    HW217451   1.644   3.957   2.332
 5518SOL     OW17452   5.981   4.645   6.101
 5518SOL    HW117453   5.928   4.693   6.171
 5518SOL    HW217454   5.946   4.670   6.010
 5519SOL     OW17455   4.904   2.822   3.797
 5519SOL    HW117456   4.819   2.803   3.845
 5519SOL    HW217457   4.911   2.763   3.716
 5520SOL     OW17458   5.650   6.072   2.440
 5520SOL    HW117459   5.718   6.119   2.497
 5520SOL    HW217460   5.693   6.039   2.357
 5521SOL     OW17461   5.334   5.303   1.789
 5521SOL    HW117462   5.332   5.256   1.877
 5521SOL    HW217463   5.241   5.328   1.763
 5522SOL     OW17464   6.112   5.526   1.447
 5522SOL    HW117465   6.121   5.531   1.347
 5522SOL    HW217466   6.023   5.488   1.471
 5523SOL     OW17467   5.468   0.920   3.119
 5523SOL    HW117468   5.405   0.852   3.081
 5523SOL    HW217469   5.541   0.937   3.053
 5524SOL     OW17470   3.671   0.348   5.520
 5524SOL    HW117471   3.701   0.351   5.425
 5524SOL    HW217472   3.658   0.253   5.548
 5525SOL     OW17473   6.742   2.858   0.649
 5525SOL    HW117474   6.659   2.899   0.610
 5525SOL    HW217475   6.744   2.875   0.747
 5526SOL     OW17476   4.860   3.891   3.081
 5526SOL    HW117477   4.846   3.844   2.994
 5526SOL    HW217478   4.860   3.824   3.155
 5527SOL     OW17479   4.914   3.119   4.338
 5527SOL    HW117480   4.856   3.039   4.328
 5527SOL    HW217481   4.993   3.111   4.277
 5528SOL     OW17482   0.845   2.030   1.788
 5528SOL    HW117483   0.918   2.026   1.857
 5528SOL    HW217484   0.757   2.046   1.833
 5529SOL     OW17485   2.303   0.563   3.136
 5529SOL    HW117486   2.248   0.646   3.144
 5529SOL    HW217487   2.264   0.492   3.195
 5530SOL     OW17488   0.095   2.343   2.125
 5530SOL    HW117489   0.164   2.396   2.076
 5530SOL    HW217490   0.041   2.290   2.060
 5531SOL     OW17491   3.753   4.135   1.255
 5531SOL    HW117492   3.782   4.042   1.280
 5531SOL    HW217493   3.827   4.180   1.206
 5532SOL     OW17494   1.810   2.559   0.513
 5532SOL    HW117495   1.733   2.582   0.571
 5532SOL    HW217496   1.822   2.460   0.512
 5533SOL     OW17497   4.727   1.308   4.304
 5533SOL    HW117498   4.627   1.303   4.315
 5533SOL    HW217499   4.768   1.219   4.322
 5534SOL     OW17500   1.201   1.317   5.534
 5534SOL    HW117501   1.219   1.294   5.438
 5534SOL    HW217502   1.139   1.249   5.573
 5535SOL     OW17503   0.675   1.186   2.601
 5535SOL    HW117504   0.722   1.205   2.687
 5535SOL    HW217505   0.578   1.207   2.611
 5536SOL     OW17506   3.526   0.893   4.474
 5536SOL    HW117507   3.514   0.859   4.568
 5536SOL    HW217508   3.463   0.844   4.413
 5537SOL     OW17509   3.836   1.345   2.888
 5537SOL    HW117510   3.825   1.293   2.972
 5537SOL    HW217511   3.787   1.299   2.814
 5538SOL     OW17512   4.247   5.585   4.812
 5538SOL    HW117513   4.230   5.677   4.849
 5538SOL    HW217514   4.343   5.561   4.826
 5539SOL     OW17515   2.094   2.715   0.884
 5539SOL    HW117516   2.157   2.730   0.961
 5539SOL    HW217517   2.054   2.802   0.857
 5540SOL     OW17518   4.978   4.668   3.378
 5540SOL    HW117519   5.044   4.605   3.338
 5540SOL    HW217520   4.939   4.627   3.460
 5541SOL     OW17521   4.381   2.114   6.340
 5541SOL    HW117522   4.473   2.090   6.308
 5541SOL    HW217523   4.388   2.181   6.413
 5542SOL     OW17524   3.729   4.072   6.006
 5542SOL    HW117525   3.652   4.110   5.955
 5542SOL    HW217526   3.728   4.106   6.100
 5543SOL     OW17527   6.453   3.854   6.680
 5543SOL    HW117528   6.551   3.869   6.694
 5543SOL    HW217529   6.438   3.810   6.592
 5544SOL     OW17530   5.753   1.269   5.823
 5544SOL    HW117531   5.667   1.297   5.866
 5544SOL    HW217532   5.795   1.196   5.876
 5545SOL     OW17533   4.410   2.227   2.517
 5545SOL    HW117534   4.391   2.306   2.458
 5545SOL    HW217535   4.439   2.259   2.607
 5546SOL     OW17536   1.897   5.129   6.053
 5546SOL    HW117537   1.988   5.137   6.093
 5546SOL    HW217538   1.846   5.214   6.067
 5547SOL     OW17539   3.329   5.337   5.363
 5547SOL    HW117540   3.380   5.320   5.448
 5547SOL    HW217541   3.272   5.258   5.343
 5548SOL     OW17542   5.991   3.648   5.257
 5548SOL    HW117543   5.932   3.728   5.242
 5548SOL    HW217544   6.056   3.640   5.181
 5549SOL     OW17545   2.811   4.697   6.954
 5549SOL    HW117546   2.871   4.698   6.874
 5549SOL    HW217547   2.819   4.783   7.004
 5550SOL     OW17548   2.364   6.658   1.182
 5550SOL    HW117549   2.426   6.660   1.260
 5550SOL    HW217550   2.374   6.572   1.132
 5551SOL     OW17551   1.217   1.603   3.199
 5551SOL    HW117552   1.224   1.702   3.213
 5551SOL    HW217553   1.256   1.555   3.278
 5552SOL     OW17554   7.022   1.939   1.187
 5552SOL    HW117555   0.052   1.891   1.258
 5552SOL    HW217556   6.950   1.878   1.153
 5553SOL     OW17557   4.365   6.300   0.408
 5553SOL    HW117558   4.450   6.351   0.411
 5553SOL    HW217559   4.342   6.267   0.500
 5554SOL     OW17560   2.850   2.233   5.152
 5554SOL    HW117561   2.945   2.253   5.129
 5554SOL    HW217562   2.839   2.135   5.171
 5555SOL     OW17563   0.344   4.802   3.470
 5555SOL    HW117564   0.347   4.821   3.372
 5555SOL    HW217565   0.355   4.704   3.486
 5556SOL     OW17566   0.498   1.976   5.071
 5556SOL    HW117567   0.537   1.927   5.149
 5556SOL    HW217568   0.408   1.937   5.050
 5557SOL     OW17569   2.283   6.235   3.740
 5557SOL    HW117570   2.368   6.222   3.791
 5557SOL    HW217571   2.288   6.186   3.653
 5558SOL     OW17572   5.161   3.063   4.862
 5558SOL    HW117573   5.063   3.054   4.840
 5558SOL    HW217574   5.193   2.978   4.902
 5559SOL     OW17575   1.643   0.499   1.047
 5559SOL    HW117576   1.715   0.539   0.991
 5559SOL    HW217577   1.557   0.502   0.997
 5560SOL     OW17578   0.235   1.420   3.767
 5560SOL    HW117579   0.168   1.464   3.708
 5560SOL    HW217580   0.187   1.367   3.838
 5561SOL     OW17581   1.630   3.169   3.118
 5561SOL    HW117582   1.634   3.261   3.156
 5561SOL    HW217583   1.579   3.109   3.180
 5562SOL     OW17584   2.119   3.373   5.962
 5562SOL    HW117585   2.184   3.299   5.978
 5562SOL    HW217586   2.126   3.440   6.036
 5563SOL     OW17587   4.884   6.241   2.197
 5563SOL    HW117588   4.875   6.169   2.265
 5563SOL    HW217589   4.862   6.329   2.239
 5564SOL     OW17590   5.081   3.597   1.930
 5564SOL    HW117591   5.009   3.537   1.895
 5564SOL    HW217592   5.043   3.655   2.003
 5565SOL     OW17593   3.815   2.458   5.424
 5565SOL    HW117594   3.745   2.455   5.495
 5565SOL    HW217595   3.824   2.367   5.382
 5566SOL     OW17596   2.072   4.953   1.569
 5566SOL    HW117597   2.110   5.045   1.562
 5566SOL    HW217598   2.019   4.945   1.653
 5567SOL     OW17599   1.742   5.504   1.493
 5567SOL    HW117600   1.818   5.440   1.506
 5567SOL    HW217601   1.725   5.554   1.578
 5568SOL     OW17602   3.971   1.377   1.351
 5568SOL    HW117603   3.930   1.409   1.436
 5568SOL    HW217604   3.904   1.325   1.299
 5569SOL     OW17605   3.687   1.447   0.429
 5569SOL    HW117606   3.658   1.511   0.500
 5569SOL    HW217607   3.774   1.405   0.455
 5570SOL     OW17608   6.468   4.265   5.537
 5570SOL    HW117609   6.373   4.273   5.507
 5570SOL    HW217610   6.529   4.297   5.464
 5571SOL     OW17611   6.719   5.723   0.273
 5571SOL    HW117612   6.808   5.765   0.260
 5571SOL    HW217613   6.720   5.629   0.237
 5572SOL     OW17614   4.650   2.726   6.426
 5572SOL    HW117615   4.554   2.720   6.399
 5572SOL    HW217616   4.703   2.657   6.375
 5573SOL     OW17617   1.097   3.758   1.316
 5573SOL    HW117618   1.032   3.731   1.245
 5573SOL    HW217619   1.172   3.811   1.275
 5574SOL     OW17620   0.862   5.928   5.371
 5574SOL    HW117621   0.948   5.924   5.421
 5574SOL    HW217622   0.859   5.857   5.301
 5575SOL     OW17623   1.010   1.541   1.059
 5575SOL    HW117624   0.980   1.446   1.050
 5575SOL    HW217625   1.107   1.548   1.036
 5576SOL     OW17626   5.930   6.184   0.834
 5576SOL    HW117627   5.985   6.267   0.836
 5576SOL    HW217628   5.931   6.145   0.742
 5577SOL     OW17629   1.640   4.161   5.379
 5577SOL    HW117630   1.561   4.109   5.346
 5577SOL    HW217631   1.634   4.255   5.346
 5578SOL     OW17632   4.414   2.702   6.930
 5578SOL    HW117633   4.452   2.719   7.021
 5578SOL    HW217634   4.333   2.759   6.916
 5579SOL     OW17635   5.074   4.081   6.728
 5579SOL    HW117636   5.134   4.044   6.656
 5579SOL    HW217637   5.043   4.007   6.787
 5580SOL     OW17638   5.674   1.405   0.457
 5580SOL    HW117639   5.756   1.436   0.505
 5580SOL    HW217640   5.700   1.357   0.373
 5581SOL     OW17641   2.302   1.652   6.466
 5581SOL    HW117642   2.369   1.645   6.540
 5581SOL    HW217643   2.229   1.585   6.481
 5582SOL     OW17644   3.774   3.588   3.625
 5582SOL    HW117645   3.857   3.643   3.612
 5582SOL    HW217646   3.794   3.512   3.686
 5583SOL     OW17647   3.715   0.135   1.384
 5583SOL    HW117648   3.706   0.196   1.306
 5583SOL    HW217649   3.684   0.183   1.467
 5584SOL     OW17650   6.495   3.287   3.326
 5584SOL    HW117651   6.410   3.237   3.341
 5584SOL    HW217652   6.475   3.383   3.308
 5585SOL     OW17653   6.036   0.587   4.526
 5585SOL    HW117654   6.052   0.491   4.506
 5585SOL    HW217655   6.040   0.602   4.625
 5586SOL     OW17656   1.747   1.216   5.686
 5586SOL    HW117657   1.791   1.281   5.625
 5586SOL    HW217658   1.707   1.264   5.764
 5587SOL     OW17659   3.356   0.332   3.873
 5587SOL    HW117660   3.429   0.286   3.822
 5587SOL    HW217661   3.342   0.423   3.836
 5588SOL     OW17662   2.702   7.015   5.730
 5588SOL    HW117663   2.750   6.931   5.753
 5588SOL    HW217664   2.690   7.020   5.631
 5589SOL     OW17665   4.390   2.699   6.349
 5589SOL    HW117666   4.308   2.696   6.406
 5589SOL    HW217667   4.367   2.670   6.256
 5590SOL     OW17668   0.480   5.696   4.209
 5590SOL    HW117669   0.408   5.759   4.236
 5590SOL    HW217670   0.531   5.732   4.131
 5591SOL     OW17671   5.611   0.754   0.426
 5591SOL    HW117672   5.560   0.837   0.401
 5591SOL    HW217673   5.547   0.685   0.461
 5592SOL     OW17674   1.609   3.368   2.692
 5592SOL    HW117675   1.701   3.370   2.653
 5592SOL    HW217676   1.596   3.285   2.745
 5593SOL     OW17677   1.592   2.893   6.074
 5593SOL    HW117678   1.584   2.992   6.090
 5593SOL    HW217679   1.507   2.859   6.034
 5594SOL     OW17680   2.378   0.509   0.208
 5594SOL    HW117681   2.390   0.437   0.276
 5594SOL    HW217682   2.290   0.554   0.222
 5595SOL     OW17683   6.887   2.482   6.029
 5595SOL    HW117684   6.955   2.507   6.099
 5595SOL    HW217685   6.844   2.565   5.994
 5596SOL     OW17686   4.888   0.085   2.824
 5596SOL    HW117687   4.887   0.102   2.922
 5596SOL    HW217688   4.836   0.157   2.777
 5597SOL     OW17689   6.725   0.748   6.292
 5597SOL    HW117690   6.625   0.755   6.299
 5597SOL    HW217691   6.753   0.657   6.321
 5598SOL     OW17692   6.753   1.707   3.881
 5598SOL    HW117693   6.741   1.755   3.967
 5598SOL    HW217694   6.669   1.658   3.858
 5599SOL     OW17695   5.113   3.205   2.950
 5599SOL    HW117696   5.123   3.274   3.022
 5599SOL    HW217697   5.044   3.139   2.976
 5600SOL     OW17698   1.983   1.298   2.470
 5600SOL    HW117699   1.949   1.392   2.463
 5600SOL    HW217700   2.082   1.298   2.480
 5601SOL     OW17701   5.787   2.774   5.444
 5601SOL    HW117702   5.728   2.821   5.379
 5601SOL    HW217703   5.758   2.679   5.453
 5602SOL     OW17704   0.052   2.067   3.212
 5602SOL    HW117705   0.137   2.121   3.211
 5602SOL    HW217706   0.004   2.080   3.126
 5603SOL     OW17707   4.179   2.178   4.463
 5603SOL    HW117708   4.092   2.210   4.426
 5603SOL    HW217709   4.248   2.248   4.453
 5604SOL     OW17710   0.453   0.402   4.167
 5604SOL    HW117711   0.382   0.410   4.097
 5604SOL    HW217712   0.425   0.333   4.234
 5605SOL     OW17713   2.928   5.827   4.577
 5605SOL    HW117714   2.899   5.743   4.530
 5605SOL    HW217715   2.986   5.803   4.655
 5606SOL     OW17716   4.644   2.337   0.748
 5606SOL    HW117717   4.633   2.259   0.686
 5606SOL    HW217718   4.738   2.340   0.782
 5607SOL     OW17719   6.428   3.071   2.254
 5607SOL    HW117720   6.484   3.037   2.178
 5607SOL    HW217721   6.362   3.138   2.220
 5608SOL     OW17722   4.361   1.116   3.333
 5608SOL    HW117723   4.409   1.194   3.375
 5608SOL    HW217724   4.288   1.150   3.274
 5609SOL     OW17725   6.632   6.843   0.882
 5609SOL    HW117726   6.621   6.771   0.951
 5609SOL    HW217727   6.609   6.807   0.792
 5610SOL     OW17728   5.073   4.669   6.825
 5610SOL    HW117729   5.021   4.646   6.908
 5610SOL    HW217730   5.011   4.708   6.757
 5611SOL     OW17731   6.807   5.048   0.852
 5611SOL    HW117732   6.843   5.108   0.923
 5611SOL    HW217733   6.883   4.997   0.811
 5612SOL     OW17734   2.437   1.293   1.030
 5612SOL    HW117735   2.347   1.315   1.069
 5612SOL    HW217736   2.427   1.222   0.960
 5613SOL     OW17737   6.846   5.673   5.662
 5613SOL    HW117738   6.772   5.682   5.596
 5613SOL    HW217739   6.918   5.740   5.642
 5614SOL     OW17740   6.048   2.521   4.055
 5614SOL    HW117741   6.137   2.564   4.070
 5614SOL    HW217742   6.028   2.521   3.957
 5615SOL     OW17743   0.311   3.299   3.429
 5615SOL    HW117744   0.389   3.300   3.366
 5615SOL    HW217745   0.242   3.235   3.396
 5616SOL     OW17746   1.857   3.331   2.620
 5616SOL    HW117747   1.874   3.270   2.542
 5616SOL    HW217748   1.939   3.337   2.676
 5617SOL     OW17749   2.131   5.693   6.299
 5617SOL    HW117750   2.200   5.730   6.360
 5617SOL    HW217751   2.156   5.599   6.273
 5618SOL     OW17752   0.141   5.849   3.629
 5618SOL    HW117753   0.075   5.797   3.684
 5618SOL    HW217754   0.130   5.947   3.647
 5619SOL     OW17755   3.482   2.891   4.207
 5619SOL    HW117756   3.549   2.907   4.279
 5619SOL    HW217757   3.394   2.867   4.248
 5620SOL     OW17758   4.871   4.593   5.774
 5620SOL    HW117759   4.774   4.586   5.753
 5620SOL    HW217760   4.917   4.645   5.702
 5621SOL     OW17761   1.213   2.332   5.443
 5621SOL    HW117762   1.286   2.316   5.508
 5621SOL    HW217763   1.215   2.427   5.412
 5622SOL     OW17764   4.883   5.771   4.575
 5622SOL    HW117765   4.970   5.767   4.525
 5622SOL    HW217766   4.900   5.786   4.672
 5623SOL     OW17767   5.154   6.291   3.754
 5623SOL    HW117768   5.179   6.387   3.739
 5623SOL    HW217769   5.194   6.259   3.840
 5624SOL     OW17770   6.685   4.762   4.567
 5624SOL    HW117771   6.743   4.707   4.507
 5624SOL    HW217772   6.684   4.721   4.658
 5625SOL     OW17773   1.162   6.000   5.406
 5625SOL    HW117774   1.243   5.942   5.399
 5625SOL    HW217775   1.111   5.996   5.320
 5626SOL     OW17776   1.729   4.235   4.961
 5626SOL    HW117777   1.672   4.191   5.030
 5626SOL    HW217778   1.757   4.325   4.993
 5627SOL     OW17779   1.107   5.688   6.843
 5627SOL    HW117780   1.061   5.616   6.895
 5627SOL    HW217781   1.181   5.648   6.788
 5628SOL     OW17782   2.903   2.636   0.962
 5628SOL    HW117783   2.833   2.654   1.031
 5628SOL    HW217784   2.910   2.713   0.899
 5629SOL     OW17785   5.156   3.726   1.503
 5629SOL    HW117786   5.130   3.801   1.563
 5629SOL    HW217787   5.076   3.669   1.483
 5630SOL     OW17788   2.563   4.248   6.976
 5630SOL    HW117789   2.614   4.332   6.960
 5630SOL    HW217790   2.465   4.268   6.974
 5631SOL     OW17791   4.350   1.247   1.403
 5631SOL    HW117792   4.328   1.335   1.446
 5631SOL    HW217793   4.435   1.256   1.352
 5632SOL     OW17794   5.624   0.243   5.802
 5632SOL    HW117795   5.554   0.191   5.753
 5632SOL    HW217796   5.582   0.295   5.876
 5633SOL     OW17797   0.961   5.525   5.522
 5633SOL    HW117798   0.938   5.440   5.569
 5633SOL    HW217799   1.032   5.508   5.454
 5634SOL     OW17800   2.643   6.921   0.310
 5634SOL    HW117801   2.651   6.833   0.263
 5634SOL    HW217802   2.708   6.986   0.269
 5635SOL     OW17803   2.294   0.720   6.806
 5635SOL    HW117804   2.337   0.745   6.719
 5635SOL    HW217805   2.348   0.647   6.849
 5636SOL     OW17806   6.177   1.668   5.507
 5636SOL    HW117807   6.232   1.617   5.574
 5636SOL    HW217808   6.084   1.631   5.506
 5637SOL     OW17809   4.898   6.911   4.811
 5637SOL    HW117810   4.883   6.995   4.863
 5637SOL    HW217811   4.822   6.848   4.826
 5638SOL     OW17812   5.255   5.315   0.937
 5638SOL    HW117813   5.318   5.252   0.890
 5638SOL    HW217814   5.273   5.312   1.036
 5639SOL     OW17815   0.739   0.603   1.479
 5639SOL    HW117816   0.727   0.507   1.507
 5639SOL    HW217817   0.649   0.645   1.465
 5640SOL     OW17818   2.523   5.256   2.929
 5640SOL    HW117819   2.592   5.308   2.879
 5640SOL    HW217820   2.565   5.175   2.969
 5641SOL     OW17821   0.730   4.144   3.751
 5641SOL    HW117822   0.706   4.144   3.848
 5641SOL    HW217823   0.828   4.160   3.741
 5642SOL     OW17824   1.456   4.851   0.235
 5642SOL    HW117825   1.486   4.768   0.281
 5642SOL    HW217826   1.403   4.908   0.299
 5643SOL     OW17827   4.547   2.029   4.788
 5643SOL    HW117828   4.598   1.943   4.781
 5643SOL    HW217829   4.594   2.100   4.736
 5644SOL     OW17830   4.473   1.169   5.232
 5644SOL    HW117831   4.406   1.156   5.159
 5644SOL    HW217832   4.529   1.250   5.211
 5645SOL     OW17833   5.860   5.616   3.703
 5645SOL    HW117834   5.873   5.659   3.793
 5645SOL    HW217835   5.930   5.651   3.640
 5646SOL     OW17836   0.524   6.438   3.859
 5646SOL    HW117837   0.547   6.342   3.848
 5646SOL    HW217838   0.577   6.477   3.934
 5647SOL     OW17839   5.647   5.549   6.242
 5647SOL    HW117840   5.629   5.568   6.339
 5647SOL    HW217841   5.644   5.634   6.190
 5648SOL     OW17842   1.809   1.682   3.953
 5648SOL    HW117843   1.898   1.713   3.986
 5648SOL    HW217844   1.744   1.682   4.028
 5649SOL     OW17845   0.805   1.185   5.196
 5649SOL    HW117846   0.832   1.266   5.143
 5649SOL    HW217847   0.822   1.103   5.142
 5650SOL     OW17848   6.621   4.487   6.786
 5650SOL    HW117849   6.556   4.414   6.807
 5650SOL    HW217850   6.678   4.460   6.709
 5651SOL     OW17851   6.873   1.025   2.122
 5651SOL    HW117852   6.909   1.057   2.210
 5651SOL    HW217853   6.775   1.041   2.119
 5652SOL     OW17854   4.766   5.021   1.308
 5652SOL    HW117855   4.841   5.087   1.307
 5652SOL    HW217856   4.750   4.987   1.215
 5653SOL     OW17857   0.492   6.028   5.607
 5653SOL    HW117858   0.484   6.038   5.706
 5653SOL    HW217859   0.523   6.114   5.567
 5654SOL     OW17860   6.643   0.211   5.549
 5654SOL    HW117861   6.719   0.262   5.591
 5654SOL    HW217862   6.564   0.216   5.609
 5655SOL     OW17863   0.144   3.597   4.285
 5655SOL    HW117864   0.047   3.616   4.269
 5655SOL    HW217865   0.178   3.656   4.359
 5656SOL     OW17866   3.493   4.162   0.160
 5656SOL    HW117867   3.544   4.214   0.090
 5656SOL    HW217868   3.515   4.065   0.152
 5657SOL     OW17869   3.466   7.001   1.585
 5657SOL    HW117870   3.380   0.018   1.552
 5657SOL    HW217871   3.527   6.985   1.508
 5658SOL     OW17872   3.791   0.006   5.590
 5658SOL    HW117873   3.791   6.930   5.576
 5658SOL    HW217874   3.718   0.047   5.534
 5659SOL     OW17875   2.917   3.795   2.767
 5659SOL    HW117876   2.978   3.788   2.688
 5659SOL    HW217877   2.830   3.834   2.738
 5660SOL     OW17878   4.811   0.305   6.831
 5660SOL    HW117879   4.770   0.392   6.802
 5660SOL    HW217880   4.820   0.304   6.930
 5661SOL     OW17881   6.778   5.606   4.154
 5661SOL    HW117882   6.776   5.706   4.155
 5661SOL    HW217883   6.738   5.571   4.239
 5662SOL     OW17884   1.970   4.473   4.040
 5662SOL    HW117885   1.922   4.471   3.952
 5662SOL    HW217886   2.046   4.537   4.035
 5663SOL     OW17887   1.233   3.939   0.906
 5663SOL    HW117888   1.158   3.873   0.909
 5663SOL    HW217889   1.312   3.898   0.861
 5664SOL     OW17890   0.149   4.594   2.227
 5664SOL    HW117891   0.150   4.553   2.136
 5664SOL    HW217892   0.056   4.626   2.248
 5665SOL     OW17893   2.305   3.320   5.459
 5665SOL    HW117894   2.308   3.249   5.530
 5665SOL    HW217895   2.382   3.383   5.472
 5666SOL     OW17896   5.400   5.103   0.759
 5666SOL    HW117897   5.438   5.093   0.851
 5666SOL    HW217898   5.474   5.096   0.692
 5667SOL     OW17899   6.425   5.127   2.968
 5667SOL    HW117900   6.525   5.130   2.962
 5667SOL    HW217901   6.396   5.164   3.057
 5668SOL     OW17902   5.315   2.338   6.322
 5668SOL    HW117903   5.296   2.412   6.387
 5668SOL    HW217904   5.368   2.373   6.245
 5669SOL     OW17905   0.747   4.816   6.095
 5669SOL    HW117906   0.758   4.717   6.103
 5669SOL    HW217907   0.789   4.861   6.174
 5670SOL     OW17908   0.291   3.351   4.278
 5670SOL    HW117909   0.282   3.448   4.257
 5670SOL    HW217910   0.366   3.338   4.342
 5671SOL     OW17911   1.809   0.802   6.563
 5671SOL    HW117912   1.718   0.828   6.531
 5671SOL    HW217913   1.810   0.798   6.663
 5672SOL     OW17914   5.011   4.351   5.811
 5672SOL    HW117915   4.936   4.414   5.796
 5672SOL    HW217916   5.084   4.398   5.862
 5673SOL     OW17917   0.381   0.272   1.889
 5673SOL    HW117918   0.379   0.258   1.988
 5673SOL    HW217919   0.359   0.186   1.843
 5674SOL     OW17920   6.887   3.696   1.494
 5674SOL    HW117921   6.815   3.682   1.426
 5674SOL    HW217922   6.856   3.761   1.562
 5675SOL     OW17923   4.430   2.528   5.359
 5675SOL    HW117924   4.524   2.546   5.388
 5675SOL    HW217925   4.378   2.613   5.357
 5676SOL     OW17926   1.927   0.283   1.610
 5676SOL    HW117927   1.945   0.313   1.516
 5676SOL    HW217928   1.867   0.349   1.655
 5677SOL     OW17929   6.102   0.791   3.791
 5677SOL    HW117930   6.200   0.806   3.776
 5677SOL    HW217931   6.057   0.879   3.804
 5678SOL     OW17932   3.235   0.002   3.072
 5678SOL    HW117933   3.176   0.044   3.003
 5678SOL    HW217934   3.188   0.004   3.161
 5679SOL     OW17935   2.144   6.476   5.123
 5679SOL    HW117936   2.082   6.512   5.193
 5679SOL    HW217937   2.209   6.546   5.097
 5680SOL     OW17938   2.056   5.942   6.442
 5680SOL    HW117939   2.006   5.864   6.405
 5680SOL    HW217940   2.153   5.935   6.419
 5681SOL     OW17941   1.209   2.683   6.929
 5681SOL    HW117942   1.153   2.617   6.879
 5681SOL    HW217943   1.287   2.709   6.873
 5682SOL     OW17944   1.341   2.998   5.693
 5682SOL    HW117945   1.254   3.042   5.671
 5682SOL    HW217946   1.368   3.021   5.787
 5683SOL     OW17947   3.284   2.729   6.341
 5683SOL    HW117948   3.192   2.738   6.380
 5683SOL    HW217949   3.311   2.633   6.341
 5684SOL     OW17950   3.635   4.104   4.172
 5684SOL    HW117951   3.664   4.140   4.260
 5684SOL    HW217952   3.714   4.097   4.111
 5685SOL     OW17953   0.302   4.685   2.431
 5685SOL    HW117954   0.252   4.650   2.351
 5685SOL    HW217955   0.249   4.757   2.475
 5686SOL     OW17956   3.824   6.990   0.801
 5686SOL    HW117957   3.897   7.023   0.741
 5686SOL    HW217958   3.755   6.941   0.747
 5687SOL     OW17959   5.383   4.854   5.503
 5687SOL    HW117960   5.445   4.847   5.582
 5687SOL    HW217961   5.416   4.796   5.429
 5688SOL     OW17962   5.526   2.543   1.484
 5688SOL    HW117963   5.619   2.521   1.455
 5688SOL    HW217964   5.487   2.465   1.533
 5689SOL     OW17965   4.306   1.872   1.041
 5689SOL    HW117966   4.296   1.811   0.963
 5689SOL    HW217967   4.273   1.963   1.017
 5690SOL     OW17968   4.514   5.851   1.005
 5690SOL    HW117969   4.554   5.807   1.085
 5690SOL    HW217970   4.417   5.827   0.999
 5691SOL     OW17971   2.462   7.017   1.811
 5691SOL    HW117972   2.539   6.986   1.868
 5691SOL    HW217973   2.484   0.083   1.772
 5692SOL     OW17974   6.292   3.194   5.892
 5692SOL    HW117975   6.308   3.097   5.874
 5692SOL    HW217976   6.352   3.225   5.965
 5693SOL     OW17977   4.613   2.652   2.386
 5693SOL    HW117978   4.596   2.587   2.312
 5693SOL    HW217979   4.637   2.741   2.348
 5694SOL     OW17980   0.096   0.760   3.560
 5694SOL    HW117981   0.178   0.729   3.511
 5694SOL    HW217982   0.098   0.860   3.567
 5695SOL     OW17983   1.712   2.481   3.231
 5695SOL    HW117984   1.636   2.543   3.213
 5695SOL    HW217985   1.682   2.386   3.221
 5696SOL     OW17986   2.494   1.270   5.132
 5696SOL    HW117987   2.502   1.224   5.043
 5696SOL    HW217988   2.584   1.302   5.161
 5697SOL     OW17989   6.929   2.418   0.384
 5697SOL    HW117990   6.905   2.474   0.463
 5697SOL    HW217991   6.980   2.473   0.318
 5698SOL     OW17992   0.954   2.842   1.905
 5698SOL    HW117993   0.964   2.752   1.862
 5698SOL    HW217994   0.872   2.843   1.962
 5699SOL     OW17995   6.438   1.068   4.744
 5699SOL    HW117996   6.389   1.053   4.658
 5699SOL    HW217997   6.372   1.091   4.816
 5700SOL     OW17998   1.496   6.054   5.204
 5700SOL    HW117999   1.472   5.961   5.232
 5700SOL    HW218000   1.422   6.094   5.150
 5701SOL     OW18001   0.189   5.968   2.038
 5701SOL    HW118002   0.165   5.942   2.132
 5701SOL    HW218003   0.287   5.955   2.024
 5702SOL     OW18004   2.137   6.454   6.405
 5702SOL    HW118005   2.150   6.359   6.435
 5702SOL    HW218006   2.133   6.514   6.484
 5703SOL     OW18007   4.460   4.570   0.157
 5703SOL    HW118008   4.507   4.499   0.210
 5703SOL    HW218009   4.527   4.634   0.121
 5704SOL     OW18010   4.715   5.311   3.507
 5704SOL    HW118011   4.812   5.286   3.513
 5704SOL    HW218012   4.705   5.408   3.529
 5705SOL     OW18013   5.890   0.178   1.294
 5705SOL    HW118014   5.960   0.187   1.223
 5705SOL    HW218015   5.802   0.205   1.257
 5706SOL     OW18016   1.266   1.432   6.689
 5706SOL    HW118017   1.168   1.445   6.705
 5706SOL    HW218018   1.284   1.337   6.667
 5707SOL     OW18019   1.835   0.936   6.301
 5707SOL    HW118020   1.918   0.919   6.247
 5707SOL    HW218021   1.847   0.899   6.393
 5708SOL     OW18022   5.150   0.356   1.908
 5708SOL    HW118023   5.151   0.394   2.000
 5708SOL    HW218024   5.134   0.430   1.842
 5709SOL     OW18025   0.806   6.034   3.680
 5709SOL    HW118026   0.712   6.006   3.659
 5709SOL    HW218027   0.842   5.976   3.754
 5710SOL     OW18028   3.036   3.408   6.171
 5710SOL    HW118029   2.975   3.480   6.205
 5710SOL    HW218030   3.061   3.429   6.076
 5711SOL     OW18031   4.951   1.112   3.846
 5711SOL    HW118032   4.918   1.158   3.928
 5711SOL    HW218033   4.918   1.018   3.844
 5712SOL     OW18034   6.936   6.615   5.615
 5712SOL    HW118035   6.960   6.536   5.671
 5712SOL    HW218036   6.888   6.585   5.533
 5713SOL     OW18037   6.993   2.783   2.072
 5713SOL    HW118038   7.006   2.861   2.012
 5713SOL    HW218039   6.895   2.772   2.092
 5714SOL     OW18040   1.517   0.623   6.274
 5714SOL    HW118041   1.511   0.534   6.230
 5714SOL    HW218042   1.567   0.686   6.214
 5715SOL     OW18043   1.574   6.300   2.563
 5715SOL    HW118044   1.545   6.391   2.534
 5715SOL    HW218045   1.577   6.297   2.663
 5716SOL     OW18046   1.724   3.833   6.344
 5716SOL    HW118047   1.725   3.911   6.282
 5716SOL    HW218048   1.768   3.755   6.300
 5717SOL     OW18049   1.153   4.426   1.266
 5717SOL    HW118050   1.174   4.341   1.219
 5717SOL    HW218051   1.237   4.465   1.304
 5718SOL     OW18052   1.953   4.834   6.542
 5718SOL    HW118053   1.990   4.823   6.449
 5718SOL    HW218054   1.871   4.779   6.551
 5719SOL     OW18055   3.693   0.470   6.501
 5719SOL    HW118056   3.629   0.508   6.568
 5719SOL    HW218057   3.780   0.519   6.507
 5720SOL     OW18058   1.221   5.450   4.903
 5720SOL    HW118059   1.159   5.385   4.859
 5720SOL    HW218060   1.233   5.425   4.999
 5721SOL     OW18061   0.465   3.063   0.604
 5721SOL    HW118062   0.548   3.012   0.580
 5721SOL    HW218063   0.422   3.021   0.683
 5722SOL     OW18064   5.405   0.585   5.189
 5722SOL    HW118065   5.335   0.654   5.169
 5722SOL    HW218066   5.374   0.496   5.155
 5723SOL     OW18067   3.852   5.602   0.145
 5723SOL    HW118068   3.944   5.628   0.115
 5723SOL    HW218069   3.822   5.522   0.092
 5724SOL     OW18070   5.480   2.310   5.975
 5724SOL    HW118071   5.530   2.396   5.983
 5724SOL    HW218072   5.529   2.248   5.913
 5725SOL     OW18073   5.012   5.363   4.472
 5725SOL    HW118074   5.057   5.274   4.458
 5725SOL    HW218075   5.014   5.387   4.569
 5726SOL     OW18076   5.447   3.481   5.942
 5726SOL    HW118077   5.398   3.402   5.904
 5726SOL    HW218078   5.543   3.456   5.955
 5727SOL     OW18079   5.800   2.144   3.288
 5727SOL    HW118080   5.872   2.209   3.262
 5727SOL    HW218081   5.798   2.069   3.222
 5728SOL     OW18082   6.218   1.161   5.506
 5728SOL    HW118083   6.173   1.078   5.539
 5728SOL    HW218084   6.253   1.213   5.583
 5729SOL     OW18085   0.016   1.245   6.351
 5729SOL    HW118086   6.953   1.222   6.305
 5729SOL    HW218087   0.016   1.207   6.444
 5730SOL     OW18088   4.125   5.801   5.678
 5730SOL    HW118089   4.088   5.888   5.645
 5730SOL    HW218090   4.187   5.817   5.754
 5731SOL     OW18091   1.928   0.456   3.757
 5731SOL    HW118092   1.970   0.540   3.723
 5731SOL    HW218093   1.942   0.449   3.856
 5732SOL     OW18094   6.207   5.062   4.688
 5732SOL    HW118095   6.188   5.151   4.647
 5732SOL    HW218096   6.180   5.063   4.784
 5733SOL     OW18097   3.292   0.749   0.150
 5733SOL    HW118098   3.246   0.834   0.124
 5733SOL    HW218099   3.369   0.770   0.211
 5734SOL     OW18100   1.746   6.943   5.695
 5734SOL    HW118101   1.699   0.005   5.718
 5734SOL    HW218102   1.844   6.958   5.693
 5735SOL     OW18103   4.391   1.015   2.133
 5735SOL    HW118104   4.414   1.092   2.073
 5735SOL    HW218105   4.333   1.047   2.208
 5736SOL     OW18106   4.713   4.534   6.591
 5736SOL    HW118107   4.793   4.542   6.532
 5736SOL    HW218108   4.713   4.610   6.657
 5737SOL     OW18109   4.836   5.394   1.481
 5737SOL    HW118110   4.853   5.476   1.426
 5737SOL    HW218111   4.867   5.313   1.430
 5738SOL     OW18112   3.479   1.150   6.512
 5738SOL    HW118113   3.533   1.234   6.511
 5738SOL    HW218114   3.534   1.075   6.548
 5739SOL     OW18115   2.441   0.121   5.768
 5739SOL    HW118116   2.373   0.115   5.695
 5739SOL    HW218117   2.530   0.148   5.729
 5740SOL     OW18118   5.346   3.636   0.879
 5740SOL    HW118119   5.400   3.567   0.928
 5740SOL    HW218120   5.282   3.591   0.818
 5741SOL     OW18121   0.834   4.163   4.347
 5741SOL    HW118122   0.742   4.197   4.328
 5741SOL    HW218123   0.835   4.063   4.342
 5742SOL     OW18124   4.123   0.224   3.295
 5742SOL    HW118125   4.170   0.300   3.339
 5742SOL    HW218126   4.031   0.253   3.268
 5743SOL     OW18127   3.599   4.579   5.536
 5743SOL    HW118128   3.644   4.526   5.607
 5743SOL    HW218129   3.512   4.537   5.513
 5744SOL     OW18130   5.629   0.209   2.756
 5744SOL    HW118131   5.570   0.250   2.686
 5744SOL    HW218132   5.574   0.185   2.836
 5745SOL     OW18133   2.517   2.396   4.072
 5745SOL    HW118134   2.422   2.426   4.074
 5745SOL    HW218135   2.554   2.409   3.980
 5746SOL     OW18136   3.488   0.258   2.968
 5746SOL    HW118137   3.578   0.224   2.994
 5746SOL    HW218138   3.437   0.284   3.050
 5747SOL     OW18139   1.219   5.986   1.942
 5747SOL    HW118140   1.126   6.018   1.927
 5747SOL    HW218141   1.235   5.971   2.040
 5748SOL     OW18142   0.134   6.022   0.290
 5748SOL    HW118143   0.167   6.115   0.309
 5748SOL    HW218144   0.155   5.963   0.367
 5749SOL     OW18145   2.011   6.546   5.350
 5749SOL    HW118146   2.080   6.517   5.416
 5749SOL    HW218147   1.928   6.491   5.362
 5750SOL     OW18148   0.172   3.984   4.417
 5750SOL    HW118149   0.250   3.924   4.436
 5750SOL    HW218150   0.114   3.990   4.498
 5751SOL     OW18151   2.129   3.800   4.068
 5751SOL    HW118152   2.140   3.752   3.981
 5751SOL    HW218153   2.045   3.769   4.113
 5752SOL     OW18154   5.466   0.048   0.758
 5752SOL    HW118155   5.458   6.974   0.783
 5752SOL    HW218156   5.386   0.076   0.705
 5753SOL     OW18157   3.073   4.037   5.056
 5753SOL    HW118158   3.158   4.076   5.090
 5753SOL    HW218159   2.998   4.101   5.071
 5754SOL     OW18160   1.117   6.321   1.799
 5754SOL    HW118161   1.117   6.321   1.699
 5754SOL    HW218162   1.063   6.244   1.833
 5755SOL     OW18163   2.340   2.605   6.865
 5755SOL    HW118164   2.439   2.594   6.875
 5755SOL    HW218165   2.319   2.701   6.848
 5756SOL     OW18166   6.361   6.416   1.831
 5756SOL    HW118167   6.338   6.470   1.751
 5756SOL    HW218168   6.442   6.360   1.812
 5757SOL     OW18169   6.905   6.284   3.801
 5757SOL    HW118170   6.879   6.212   3.865
 5757SOL    HW218171   6.823   6.327   3.764
 5758SOL     OW18172   1.552   6.443   2.809
 5758SOL    HW118173   1.564   6.379   2.885
 5758SOL    HW218174   1.455   6.448   2.785
 5759SOL     OW18175   4.460   6.864   1.432
 5759SOL    HW118176   4.411   6.921   1.367
 5759SOL    HW218177   4.539   6.914   1.468
 5760SOL     OW18178   6.930   3.211   2.001
 5760SOL    HW118179   6.899   3.262   1.921
 5760SOL    HW218180   6.986   3.270   2.059
 5761SOL     OW18181   5.518   5.958   4.722
 5761SOL    HW118182   5.499   5.913   4.635
 5761SOL    HW218183   5.434   5.998   4.759
 5762SOL     OW18184   5.542   4.299   0.213
 5762SOL    HW118185   5.513   4.290   0.308
 5762SOL    HW218186   5.518   4.216   0.163
 5763SOL     OW18187   5.133   0.340   0.590
 5763SOL    HW118188   5.194   0.382   0.657
 5763SOL    HW218189   5.159   0.370   0.498
 5764SOL     OW18190   4.366   5.447   3.729
 5764SOL    HW118191   4.338   5.380   3.660
 5764SOL    HW218192   4.366   5.539   3.688
 5765SOL     OW18193   6.569   5.207   0.815
 5765SOL    HW118194   6.510   5.165   0.745
 5765SOL    HW218195   6.643   5.143   0.838
 5766SOL     OW18196   1.330   1.913   4.676
 5766SOL    HW118197   1.293   1.909   4.583
 5766SOL    HW218198   1.363   2.006   4.695
 5767SOL     OW18199   1.822   0.610   0.855
 5767SOL    HW118200   1.826   0.708   0.839
 5767SOL    HW218201   1.836   0.561   0.768
 5768SOL     OW18202   0.050   6.976   3.739
 5768SOL    HW118203   0.137   7.022   3.756
 5768SOL    HW218204   0.020   6.928   3.821
 5769SOL     OW18205   2.273   5.701   6.869
 5769SOL    HW118206   2.188   5.739   6.907
 5769SOL    HW218207   2.316   5.770   6.810
 5770SOL     OW18208   0.880   6.316   0.511
 5770SOL    HW118209   0.856   6.372   0.431
 5770SOL    HW218210   0.880   6.219   0.484
 5771SOL     OW18211   2.185   5.744   4.033
 5771SOL    HW118212   2.096   5.749   3.989
 5771SOL    HW218213   2.238   5.668   3.994
 5772SOL     OW18214   4.754   0.887   1.684
 5772SOL    HW118215   4.708   0.811   1.730
 5772SOL    HW218216   4.713   0.901   1.593
 5773SOL     OW18217   4.584   1.972   2.260
 5773SOL    HW118218   4.544   2.020   2.182
 5773SOL    HW218219   4.542   2.006   2.345
 5774SOL     OW18220   1.396   6.610   4.436
 5774SOL    HW118221   1.334   6.671   4.485
 5774SOL    HW218222   1.435   6.658   4.358
 5775SOL     OW18223   0.419   5.580   2.954
 5775SOL    HW118224   0.429   5.483   2.973
 5775SOL    HW218225   0.463   5.633   3.026
 5776SOL     OW18226   1.888   0.778   2.689
 5776SOL    HW118227   1.793   0.764   2.663
 5776SOL    HW218228   1.939   0.693   2.675
 5777SOL     OW18229   1.491   0.518   3.083
 5777SOL    HW118230   1.402   0.503   3.040
 5777SOL    HW218231   1.483   0.512   3.182
 5778SOL     OW18232   1.210   1.150   6.622
 5778SOL    HW118233   1.242   1.082   6.687
 5778SOL    HW218234   1.132   1.114   6.570
 5779SOL     OW18235   5.011   2.395   6.742
 5779SOL    HW118236   4.932   2.428   6.793
 5779SOL    HW218237   4.993   2.403   6.644
 5780SOL     OW18238   5.902   5.412   4.440
 5780SOL    HW118239   5.898   5.436   4.538
 5780SOL    HW218240   5.809   5.403   4.405
 5781SOL     OW18241   6.697   4.834   5.391
 5781SOL    HW118242   6.773   4.791   5.342
 5781SOL    HW218243   6.661   4.771   5.459
 5782SOL     OW18244   0.682   1.362   0.275
 5782SOL    HW118245   0.688   1.314   0.188
 5782SOL    HW218246   0.773   1.389   0.306
 5783SOL     OW18247   1.371   1.630   1.916
 5783SOL    HW118248   1.408   1.660   1.828
 5783SOL    HW218249   1.292   1.571   1.900
 5784SOL     OW18250   0.689   6.151   6.872
 5784SOL    HW118251   0.601   6.107   6.891
 5784SOL    HW218252   0.674   6.243   6.836
 5785SOL     OW18253   2.654   2.011   0.167
 5785SOL    HW118254   2.615   2.031   0.257
 5785SOL    HW218255   2.750   1.984   0.178
 5786SOL     OW18256   6.567   4.381   0.209
 5786SOL    HW118257   6.621   4.449   0.160
 5786SOL    HW218258   6.485   4.359   0.156
 5787SOL     OW18259   1.852   2.046   5.599
 5787SOL    HW118260   1.890   2.138   5.588
 5787SOL    HW218261   1.905   1.981   5.543
 5788SOL     OW18262   2.567   1.414   2.612
 5788SOL    HW118263   2.606   1.506   2.611
 5788SOL    HW218264   2.623   1.353   2.555
 5789SOL     OW18265   3.499   4.944   6.301
 5789SOL    HW118266   3.414   4.941   6.248
 5789SOL    HW218267   3.496   4.876   6.374
 5790SOL     OW18268   0.014   3.434   4.035
 5790SOL    HW118269   0.064   3.472   4.113
 5790SOL    HW218270   6.939   3.453   4.046
 5791SOL     OW18271   3.207   0.308   2.298
 5791SOL    HW118272   3.209   0.241   2.224
 5791SOL    HW218273   3.234   0.265   2.384
 5792SOL     OW18274   0.742   2.470   2.993
 5792SOL    HW118275   0.678   2.416   2.937
 5792SOL    HW218276   0.718   2.461   3.089
 5793SOL     OW18277   6.144   1.158   3.353
 5793SOL    HW118278   6.164   1.157   3.451
 5793SOL    HW218279   6.056   1.113   3.337
 5794SOL     OW18280   3.803   2.336   0.117
 5794SOL    HW118281   3.793   2.429   0.082
 5794SOL    HW218282   3.897   2.322   0.148
 5795SOL     OW18283   5.865   5.206   5.454
 5795SOL    HW118284   5.860   5.241   5.547
 5795SOL    HW218285   5.960   5.201   5.424
 5796SOL     OW18286   3.495   0.982   0.069
 5796SOL    HW118287   3.399   1.009   0.055
 5796SOL    HW218288   3.540   1.051   0.125
 5797SOL     OW18289   4.207   1.545   4.716
 5797SOL    HW118290   4.191   1.492   4.799
 5797SOL    HW218291   4.267   1.622   4.737
 5798SOL     OW18292   0.576   3.730   5.752
 5798SOL    HW118293   0.478   3.743   5.737
 5798SOL    HW218294   0.616   3.681   5.675
 5799SOL     OW18295   5.483   0.815   3.976
 5799SOL    HW118296   5.580   0.798   3.958
 5799SOL    HW218297   5.430   0.735   3.950
 5800SOL     OW18298   5.323   6.007   0.927
 5800SOL    HW118299   5.250   6.002   0.859
 5800SOL    HW218300   5.291   6.057   1.007
 5801SOL     OW18301   0.749   2.326   4.516
 5801SOL    HW118302   0.758   2.240   4.466
 5801SOL    HW218303   0.694   2.311   4.599
 5802SOL     OW18304   0.637   4.745   6.725
 5802SOL    HW118305   0.684   4.658   6.742
 5802SOL    HW218306   0.697   4.805   6.671
 5803SOL     OW18307   1.541   5.080   1.440
 5803SOL    HW118308   1.603   5.022   1.388
 5803SOL    HW218309   1.536   5.171   1.397
 5804SOL     OW18310   6.211   4.312   3.766
 5804SOL    HW118311   6.291   4.285   3.819
 5804SOL    HW218312   6.129   4.271   3.806
 5805SOL     OW18313   3.847   4.145   6.864
 5805SOL    HW118314   3.920   4.201   6.826
 5805SOL    HW218315   3.811   4.085   6.793
 5806SOL     OW18316   0.363   6.720   6.720
 5806SOL    HW118317   0.357   6.620   6.714
 5806SOL    HW218318   0.271   6.758   6.734
 5807SOL     OW18319   1.184   3.815   2.152
 5807SOL    HW118320   1.184   3.723   2.112
 5807SOL    HW218321   1.228   3.812   2.242
 5808SOL     OW18322   5.602   3.737   2.873
 5808SOL    HW118323   5.551   3.806   2.822
 5808SOL    HW218324   5.640   3.778   2.956
 5809SOL     OW18325   6.715   2.750   4.384
 5809SOL    HW118326   6.789   2.807   4.349
 5809SOL    HW218327   6.705   2.669   4.327
 5810SOL     OW18328   2.857   0.841   4.136
 5810SOL    HW118329   2.933   0.776   4.143
 5810SOL    HW218330   2.873   0.903   4.059
 5811SOL     OW18331   3.096   0.866   4.700
 5811SOL    HW118332   3.074   0.963   4.712
 5811SOL    HW218333   3.150   0.834   4.778
 5812SOL     OW18334   5.512   0.115   4.279
 5812SOL    HW118335   5.500   0.199   4.333
 5812SOL    HW218336   5.452   0.044   4.314
 5813SOL     OW18337   1.297   1.034   6.229
 5813SOL    HW118338   1.355   1.108   6.262
 5813SOL    HW218339   1.317   0.951   6.282
 5814SOL     OW18340   6.555   4.510   0.678
 5814SOL    HW118341   6.608   4.428   0.698
 5814SOL    HW218342   6.499   4.495   0.597
 5815SOL     OW18343   4.346   2.300   3.655
 5815SOL    HW118344   4.261   2.261   3.690
 5815SOL    HW218345   4.424   2.257   3.700
 5816SOL     OW18346   5.475   6.395   0.730
 5816SOL    HW118347   5.377   6.414   0.736
 5816SOL    HW218348   5.522   6.440   0.806
 5817SOL     OW18349   5.575   2.975   5.746
 5817SOL    HW118350   5.565   3.059   5.693
 5817SOL    HW218351   5.529   2.985   5.834
 5818SOL     OW18352   7.017   6.101   4.351
 5818SOL    HW118353   6.943   6.155   4.392
 5818SOL    HW218354   6.981   6.013   4.321
 5819SOL     OW18355   4.175   0.518   0.447
 5819SOL    HW118356   4.113   0.596   0.449
 5819SOL    HW218357   4.236   0.526   0.367
 5820SOL     OW18358   4.459   6.916   3.973
 5820SOL    HW118359   4.395   6.989   3.948
 5820SOL    HW218360   4.419   6.827   3.953
 5821SOL     OW18361   1.645   0.313   2.655
 5821SOL    HW118362   1.666   0.216   2.644
 5821SOL    HW218363   1.686   0.365   2.580
 5822SOL     OW18364   0.506   1.918   2.227
 5822SOL    HW118365   0.599   1.937   2.258
 5822SOL    HW218366   0.500   1.823   2.196
 5823SOL     OW18367   1.059   1.075   5.598
 5823SOL    HW118368   1.157   1.063   5.582
 5823SOL    HW218369   1.008   1.035   5.521
 5824SOL     OW18370   0.043   6.286   3.002
 5824SOL    HW118371   7.003   6.255   3.073
 5824SOL    HW218372   0.034   6.384   2.989
 5825SOL     OW18373   2.227   2.424   5.572
 5825SOL    HW118374   2.150   2.383   5.522
 5825SOL    HW218375   2.312   2.406   5.523
 5826SOL     OW18376   0.114   5.803   5.637
 5826SOL    HW118377   0.155   5.726   5.587
 5826SOL    HW218378   0.126   5.887   5.584
 5827SOL     OW18379   1.637   5.110   4.529
 5827SOL    HW118380   1.593   5.045   4.591
 5827SOL    HW218381   1.689   5.061   4.460
 5828SOL     OW18382   0.069   3.015   1.903
 5828SOL    HW118383   0.156   3.046   1.865
 5828SOL    HW218384   0.032   3.084   1.964
 5829SOL     OW18385   2.956   1.381   2.806
 5829SOL    HW118386   2.929   1.452   2.871
 5829SOL    HW218387   3.005   1.422   2.730
 5830SOL     OW18388   4.065   0.583   5.268
 5830SOL    HW118389   4.048   0.567   5.171
 5830SOL    HW218390   4.044   0.500   5.320
 5831SOL     OW18391   6.638   0.044   4.304
 5831SOL    HW118392   6.583   6.995   4.260
 5831SOL    HW218393   6.583   0.127   4.313
 5832SOL     OW18394   3.967   3.607   5.611
 5832SOL    HW118395   3.909   3.614   5.692
 5832SOL    HW218396   4.043   3.672   5.618
 5833SOL     OW18397   3.562   3.293   4.536
 5833SOL    HW118398   3.605   3.210   4.571
 5833SOL    HW218399   3.611   3.373   4.570
 5834SOL     OW18400   5.802   2.101   0.571
 5834SOL    HW118401   5.715   2.052   0.559
 5834SOL    HW218402   5.824   2.150   0.487
 5835SOL     OW18403   4.925   2.511   2.929
 5835SOL    HW118404   4.928   2.600   2.975
 5835SOL    HW218405   4.936   2.524   2.831
 5836SOL     OW18406   2.508   6.363   3.326
 5836SOL    HW118407   2.554   6.290   3.276
 5836SOL    HW218408   2.412   6.340   3.338
 5837SOL     OW18409   4.134   4.669   6.312
 5837SOL    HW118410   4.176   4.745   6.263
 5837SOL    HW218411   4.152   4.679   6.410
 5838SOL     OW18412   2.268   1.257   5.950
 5838SOL    HW118413   2.175   1.270   5.918
 5838SOL    HW218414   2.271   1.260   6.050
 5839SOL     OW18415   0.537   2.597   2.258
 5839SOL    HW118416   0.555   2.683   2.211
 5839SOL    HW218417   0.446   2.600   2.301
 5840SOL     OW18418   1.431   5.260   0.073
 5840SOL    HW118419   1.461   5.341   0.124
 5840SOL    HW218420   1.507   5.195   0.066
 5841SOL     OW18421   5.915   2.925   2.235
 5841SOL    HW118422   5.924   2.986   2.314
 5841SOL    HW218423   5.825   2.881   2.238
 5842SOL     OW18424   4.252   3.492   1.193
 5842SOL    HW118425   4.172   3.448   1.233
 5842SOL    HW218426   4.267   3.580   1.237
 5843SOL     OW18427   2.155   4.099   2.429
 5843SOL    HW118428   2.137   4.026   2.495
 5843SOL    HW218429   2.160   4.060   2.337
 5844SOL     OW18430   0.161   6.819   6.159
 5844SOL    HW118431   0.137   6.846   6.066
 5844SOL    HW218432   0.089   6.850   6.221
 5845SOL     OW18433   0.876   0.679   3.016
 5845SOL    HW118434   0.922   0.643   2.935
 5845SOL    HW218435   0.848   0.774   2.998
 5846SOL     OW18436   6.511   3.166   4.846
 5846SOL    HW118437   6.526   3.261   4.817
 5846SOL    HW218438   6.548   3.153   4.938
 5847SOL     OW18439   2.251   1.889   2.149
 5847SOL    HW118440   2.214   1.959   2.088
 5847SOL    HW218441   2.312   1.932   2.216
 5848SOL     OW18442   2.598   4.551   3.653
 5848SOL    HW118443   2.507   4.561   3.613
 5848SOL    HW218444   2.657   4.625   3.620
 5849SOL     OW18445   0.189   0.631   6.198
 5849SOL    HW118446   0.216   0.724   6.171
 5849SOL    HW218447   0.249   0.565   6.152
 5850SOL     OW18448   1.238   2.962   1.763
 5850SOL    HW118449   1.260   2.987   1.857
 5850SOL    HW218450   1.308   2.999   1.702
 5851SOL     OW18451   4.976   2.786   3.040
 5851SOL    HW118452   5.020   2.779   3.129
 5851SOL    HW218453   5.045   2.793   2.968
 5852SOL     OW18454   4.755   6.644   2.806
 5852SOL    HW118455   4.739   6.568   2.742
 5852SOL    HW218456   4.849   6.676   2.798
 5853SOL     OW18457   3.471   6.062   5.652
 5853SOL    HW118458   3.482   6.021   5.561
 5853SOL    HW218459   3.447   6.159   5.642
 5854SOL     OW18460   6.509   3.339   6.034
 5854SOL    HW118461   6.566   3.414   6.067
 5854SOL    HW218462   6.485   3.279   6.111
 5855SOL     OW18463   0.758   0.661   5.212
 5855SOL    HW118464   0.774   0.573   5.167
 5855SOL    HW218465   0.670   0.698   5.183
 5856SOL     OW18466   2.184   5.206   3.766
 5856SOL    HW118467   2.241   5.282   3.734
 5856SOL    HW218468   2.219   5.120   3.729
 5857SOL     OW18469   5.385   2.691   4.745
 5857SOL    HW118470   5.474   2.648   4.726
 5857SOL    HW218471   5.355   2.741   4.664
 5858SOL     OW18472   2.615   2.481   1.918
 5858SOL    HW118473   2.602   2.502   1.821
 5858SOL    HW218474   2.712   2.476   1.939
 5859SOL     OW18475   5.592   6.527   0.959
 5859SOL    HW118476   5.496   6.535   0.985
 5859SOL    HW218477   5.626   6.436   0.984
 5860SOL     OW18478   2.167   3.687   1.783
 5860SOL    HW118479   2.186   3.624   1.858
 5860SOL    HW218480   2.173   3.781   1.816
 5861SOL     OW18481   5.426   1.550   3.863
 5861SOL    HW118482   5.353   1.612   3.893
 5861SOL    HW218483   5.408   1.458   3.897
 5862SOL     OW18484   4.539   4.962   3.312
 5862SOL    HW118485   4.537   4.916   3.224
 5862SOL    HW218486   4.534   5.061   3.298
 5863SOL     OW18487   2.758   0.744   5.047
 5863SOL    HW118488   2.770   0.761   4.949
 5863SOL    HW218489   2.662   0.757   5.071
 5864SOL     OW18490   3.950   4.092   1.522
 5864SOL    HW118491   3.871   4.038   1.550
 5864SOL    HW218492   4.006   4.039   1.458
 5865SOL     OW18493   5.149   0.549   4.230
 5865SOL    HW118494   5.078   0.497   4.277
 5865SOL    HW218495   5.123   0.565   4.135
 5866SOL     OW18496   3.848   6.262   6.494
 5866SOL    HW118497   3.777   6.320   6.455
 5866SOL    HW218498   3.880   6.301   6.581
 5867SOL     OW18499   0.477   3.317   0.729
 5867SOL    HW118500   0.483   3.230   0.679
 5867SOL    HW218501   0.414   3.378   0.682
 5868SOL     OW18502   0.028   0.580   4.868
 5868SOL    HW118503   6.963   0.581   4.820
 5868SOL    HW218504   0.017   0.622   4.958
 5869SOL     OW18505   1.913   4.891   3.561
 5869SOL    HW118506   1.983   4.907   3.492
 5869SOL    HW218507   1.956   4.856   3.644
 5870SOL     OW18508   4.725   5.860   5.119
 5870SOL    HW118509   4.643   5.908   5.151
 5870SOL    HW218510   4.706   5.763   5.110
 5871SOL     OW18511   4.257   3.902   0.397
 5871SOL    HW118512   4.350   3.913   0.361
 5871SOL    HW218513   4.261   3.888   0.496
 5872SOL     OW18514   4.012   5.637   6.877
 5872SOL    HW118515   3.937   5.573   6.890
 5872SOL    HW218516   4.051   5.662   6.965
 5873SOL     OW18517   1.887   2.830   0.540
 5873SOL    HW118518   1.851   2.737   0.538
 5873SOL    HW218519   1.859   2.875   0.624
 5874SOL     OW18520   2.904   2.915   1.402
 5874SOL    HW118521   2.871   2.918   1.496
 5874SOL    HW218522   2.997   2.953   1.398
 5875SOL     OW18523   3.966   1.386   0.247
 5875SOL    HW118524   4.024   1.311   0.214
 5875SOL    HW218525   3.973   1.392   0.347
 5876SOL     OW18526   3.493   2.791   6.576
 5876SOL    HW118527   3.575   2.774   6.521
 5876SOL    HW218528   3.430   2.714   6.567
 5877SOL     OW18529   6.197   6.525   1.266
 5877SOL    HW118530   6.265   6.553   1.198
 5877SOL    HW218531   6.243   6.473   1.338
 5878SOL     OW18532   5.683   5.994   3.206
 5878SOL    HW118533   5.760   6.054   3.227
 5878SOL    HW218534   5.644   5.960   3.291
 5879SOL     OW18535   3.583   2.873   5.977
 5879SOL    HW118536   3.612   2.967   5.995
 5879SOL    HW218537   3.634   2.836   5.900
 5880SOL     OW18538   4.507   3.858   5.732
 5880SOL    HW118539   4.452   3.824   5.655
 5880SOL    HW218540   4.455   3.927   5.782
 5881SOL     OW18541   1.281   6.939   2.649
 5881SOL    HW118542   1.356   7.002   2.670
 5881SOL    HW218543   1.195   6.977   2.681
 5882SOL     OW18544   1.521   6.547   6.129
 5882SOL    HW118545   1.456   6.621   6.144
 5882SOL    HW218546   1.608   6.569   6.174
 5883SOL     OW18547   0.083   2.553   0.205
 5883SOL    HW118548   0.074   2.652   0.215
 5883SOL    HW218549   0.176   2.526   0.231
 5884SOL     OW18550   6.759   0.845   4.601
 5884SOL    HW118551   6.855   0.857   4.626
 5884SOL    HW218552   6.710   0.805   4.679
 5885SOL     OW18553   0.576   5.645   0.466
 5885SOL    HW118554   0.674   5.659   0.451
 5885SOL    HW218555   0.543   5.711   0.533
 5886SOL     OW18556   1.311   3.011   3.116
 5886SOL    HW118557   1.278   2.921   3.145
 5886SOL    HW218558   1.234   3.073   3.105
 5887SOL     OW18559   2.458   1.810   1.814
 5887SOL    HW118560   2.495   1.774   1.900
 5887SOL    HW218561   2.437   1.734   1.753
 5888SOL     OW18562   2.839   0.354   0.927
 5888SOL    HW118563   2.743   0.346   0.897
 5888SOL    HW218564   2.848   0.433   0.988
 5889SOL     OW18565   6.800   1.673   1.444
 5889SOL    HW118566   6.816   1.672   1.345
 5889SOL    HW218567   6.731   1.741   1.466
 5890SOL     OW18568   1.894   6.524   2.320
 5890SOL    HW118569   1.913   6.452   2.387
 5890SOL    HW218570   1.801   6.513   2.284
 5891SOL     OW18571   2.680   3.395   0.410
 5891SOL    HW118572   2.696   3.333   0.334
 5891SOL    HW218573   2.766   3.438   0.437
 5892SOL     OW18574   0.491   4.196   0.788
 5892SOL    HW118575   0.467   4.241   0.874
 5892SOL    HW218576   0.474   4.259   0.712
 5893SOL     OW18577   1.271   5.058   1.251
 5893SOL    HW118578   1.264   5.129   1.321
 5893SOL    HW218579   1.228   4.974   1.283
 5894SOL     OW18580   0.998   5.662   5.916
 5894SOL    HW118581   0.993   5.752   5.872
 5894SOL    HW218582   0.947   5.595   5.862
 5895SOL     OW18583   6.233   3.260   4.533
 5895SOL    HW118584   6.257   3.165   4.516
 5895SOL    HW218585   6.192   3.269   4.623
 5896SOL     OW18586   5.466   1.295   1.559
 5896SOL    HW118587   5.416   1.379   1.582
 5896SOL    HW218588   5.470   1.236   1.639
 5897SOL     OW18589   3.784   1.721   1.675
 5897SOL    HW118590   3.762   1.802   1.620
 5897SOL    HW218591   3.875   1.688   1.650
 5898SOL     OW18592   2.346   2.035   5.613
 5898SOL    HW118593   2.430   2.071   5.654
 5898SOL    HW218594   2.319   2.093   5.536
 5899SOL     OW18595   6.918   5.367   6.049
 5899SOL    HW118596   6.969   5.430   6.108
 5899SOL    HW218597   6.876   5.419   5.974
 5900SOL     OW18598   0.261   5.260   2.782
 5900SOL    HW118599   0.335   5.193   2.790
 5900SOL    HW218600   0.297   5.345   2.745
 5901SOL     OW18601   1.019   0.443   6.989
 5901SOL    HW118602   0.971   0.389   6.919
 5901SOL    HW218603   1.115   0.454   6.962
 5902SOL     OW18604   5.431   3.371   4.767
 5902SOL    HW118605   5.483   3.387   4.850
 5902SOL    HW218606   5.401   3.459   4.729
 5903SOL     OW18607   5.398   2.982   7.022
 5903SOL    HW118608   5.439   2.901   6.979
 5903SOL    HW218609   5.454   3.062   7.002
 5904SOL     OW18610   1.178   4.823   1.395
 5904SOL    HW118611   1.251   4.836   1.462
 5904SOL    HW218612   1.125   4.742   1.420
 5905SOL     OW18613   5.236   0.871   3.567
 5905SOL    HW118614   5.180   0.852   3.486
 5905SOL    HW218615   5.214   0.962   3.601
 5906SOL     OW18616   5.734   1.422   5.341
 5906SOL    HW118617   5.723   1.419   5.242
 5906SOL    HW218618   5.797   1.350   5.370
 5907SOL     OW18619   1.707   0.934   0.213
 5907SOL    HW118620   1.739   0.925   0.119
 5907SOL    HW218621   1.686   1.030   0.232
 5908SOL     OW18622   4.747   3.401   0.397
 5908SOL    HW118623   4.809   3.456   0.343
 5908SOL    HW218624   4.706   3.330   0.339
 5909SOL     OW18625   0.945   4.202   5.470
 5909SOL    HW118626   0.953   4.264   5.393
 5909SOL    HW218627   1.011   4.228   5.541
 5910SOL     OW18628   1.203   4.208   1.635
 5910SOL    HW118629   1.239   4.159   1.556
 5910SOL    HW218630   1.212   4.306   1.621
 5911SOL     OW18631   0.504   5.499   6.104
 5911SOL    HW118632   0.480   5.463   6.195
 5911SOL    HW218633   0.488   5.597   6.102
 5912SOL     OW18634   5.950   3.364   0.049
 5912SOL    HW118635   5.926   3.347   0.145
 5912SOL    HW218636   5.912   3.452   0.021
 5913SOL     OW18637   2.355   2.614   5.745
 5913SOL    HW118638   2.320   2.529   5.705
 5913SOL    HW218639   2.286   2.685   5.738
 5914SOL     OW18640   2.701   6.274   0.014
 5914SOL    HW118641   2.717   6.177   0.033
 5914SOL    HW218642   2.789   6.321   0.007
 5915SOL     OW18643   5.403   2.798   2.962
 5915SOL    HW118644   5.342   2.864   2.919
 5915SOL    HW218645   5.372   2.705   2.940
 5916SOL     OW18646   4.604   0.530   5.962
 5916SOL    HW118647   4.556   0.468   5.900
 5916SOL    HW218648   4.538   0.592   6.004
 5917SOL     OW18649   3.958   3.087   3.565
 5917SOL    HW118650   3.996   3.002   3.530
 5917SOL    HW218651   3.987   3.101   3.659
 5918SOL     OW18652   1.486   3.624   4.241
 5918SOL    HW118653   1.448   3.716   4.242
 5918SOL    HW218654   1.568   3.622   4.299
 5919SOL     OW18655   2.937   2.395   0.775
 5919SOL    HW118656   2.849   2.441   0.762
 5919SOL    HW218657   2.925   2.297   0.762
 5920SOL     OW18658   3.005   6.864   0.195
 5920SOL    HW118659   3.001   6.948   0.141
 5920SOL    HW218660   3.021   6.887   0.291
 5921SOL     OW18661   3.963   5.424   5.611
 5921SOL    HW118662   3.970   5.348   5.546
 5921SOL    HW218663   4.055   5.459   5.631
 5922SOL     OW18664   6.569   4.560   2.785
 5922SOL    HW118665   6.489   4.501   2.777
 5922SOL    HW218666   6.614   4.544   2.873
 5923SOL     OW18667   6.549   0.383   3.710
 5923SOL    HW118668   6.492   0.383   3.792
 5923SOL    HW218669   6.622   0.316   3.720
 5924SOL     OW18670   5.324   2.441   4.789
 5924SOL    HW118671   5.353   2.435   4.884
 5924SOL    HW218672   5.330   2.536   4.758
 5925SOL     OW18673   4.642   6.057   2.800
 5925SOL    HW118674   4.567   6.114   2.767
 5925SOL    HW218675   4.728   6.108   2.793
 5926SOL     OW18676   3.429   5.615   1.929
 5926SOL    HW118677   3.396   5.609   2.023
 5926SOL    HW218678   3.479   5.531   1.906
 5927SOL     OW18679   2.658   6.071   1.282
 5927SOL    HW118680   2.709   6.032   1.359
 5927SOL    HW218681   2.563   6.042   1.288
 5928SOL     OW18682   1.966   0.608   2.022
 5928SOL    HW118683   1.900   0.667   1.976
 5928SOL    HW218684   1.994   0.649   2.108
 5929SOL     OW18685   1.100   6.507   5.894
 5929SOL    HW118686   1.049   6.461   5.966
 5929SOL    HW218687   1.198   6.498   5.911
 5930SOL     OW18688   6.220   1.589   4.246
 5930SOL    HW118689   6.129   1.618   4.274
 5930SOL    HW218690   6.232   1.605   4.147
 5931SOL     OW18691   5.862   5.498   1.972
 5931SOL    HW118692   5.766   5.477   1.992
 5931SOL    HW218693   5.919   5.423   2.006
 5932SOL     OW18694   2.368   6.652   0.817
 5932SOL    HW118695   2.393   6.558   0.839
 5932SOL    HW218696   2.291   6.680   0.874
 5933SOL     OW18697   0.171   4.058   2.282
 5933SOL    HW118698   0.197   4.146   2.321
 5933SOL    HW218699   0.238   3.989   2.309
 5934SOL     OW18700   4.143   3.384   2.988
 5934SOL    HW118701   4.067   3.324   2.962
 5934SOL    HW218702   4.143   3.397   3.087
 5935SOL     OW18703   3.751   4.083   4.795
 5935SOL    HW118704   3.670   4.074   4.853
 5935SOL    HW218705   3.828   4.036   4.838
 5936SOL     OW18706   4.576   4.424   6.791
 5936SOL    HW118707   4.605   4.462   6.704
 5936SOL    HW218708   4.656   4.401   6.846
 5937SOL     OW18709   0.759   3.464   1.623
 5937SOL    HW118710   0.799   3.480   1.533
 5937SOL    HW218711   0.695   3.538   1.644
 5938SOL     OW18712   1.670   4.907   3.427
 5938SOL    HW118713   1.587   4.906   3.484
 5938SOL    HW218714   1.750   4.912   3.486
 5939SOL     OW18715   3.261   0.636   3.020
 5939SOL    HW118716   3.161   0.642   3.021
 5939SOL    HW218717   3.299   0.721   2.983
 5940SOL     OW18718   3.781   6.649   2.071
 5940SOL    HW118719   3.854   6.702   2.027
 5940SOL    HW218720   3.694   6.672   2.028
 5941SOL     OW18721   5.848   5.044   2.119
 5941SOL    HW118722   5.888   5.017   2.032
 5941SOL    HW218723   5.920   5.065   2.184
 5942SOL     OW18724   4.220   3.107   6.757
 5942SOL    HW118725   4.302   3.159   6.733
 5942SOL    HW218726   4.156   3.167   6.805
 5943SOL     OW18727   2.164   6.352   0.720
 5943SOL    HW118728   2.253   6.394   0.739
 5943SOL    HW218729   2.177   6.259   0.685
 5944SOL     OW18730   5.277   1.510   1.629
 5944SOL    HW118731   5.223   1.581   1.584
 5944SOL    HW218732   5.285   1.532   1.727
 5945SOL     OW18733   6.870   5.083   5.228
 5945SOL    HW118734   6.958   5.037   5.213
 5945SOL    HW218735   6.800   5.014   5.247
 5946SOL     OW18736   3.311   4.084   5.997
 5946SOL    HW118737   3.269   4.021   6.062
 5946SOL    HW218738   3.284   4.059   5.904
 5947SOL     OW18739   4.250   3.231   1.851
 5947SOL    HW118740   4.197   3.155   1.814
 5947SOL    HW218741   4.197   3.278   1.922
 5948SOL     OW18742   3.782   5.318   2.700
 5948SOL    HW118743   3.819   5.235   2.658
 5948SOL    HW218744   3.736   5.294   2.786
 5949SOL     OW18745   3.621   4.657   0.948
 5949SOL    HW118746   3.577   4.615   0.869
 5949SOL    HW218747   3.674   4.737   0.919
 5950SOL     OW18748   5.567   1.791   4.680
 5950SOL    HW118749   5.665   1.768   4.680
 5950SOL    HW218750   5.527   1.762   4.593
 5951SOL     OW18751   1.525   6.556   4.712
 5951SOL    HW118752   1.506   6.598   4.623
 5951SOL    HW218753   1.534   6.457   4.700
 5952SOL     OW18754   6.683   5.728   3.702
 5952SOL    HW118755   6.611   5.724   3.633
 5952SOL    HW218756   6.650   5.778   3.782
 5953SOL     OW18757   6.902   3.226   5.011
 5953SOL    HW118758   6.965   3.196   5.083
 5953SOL    HW218759   6.924   3.178   4.926
 5954SOL     OW18760   6.800   4.612   5.749
 5954SOL    HW118761   6.821   4.581   5.842
 5954SOL    HW218762   6.876   4.668   5.716
 5955SOL     OW18763   5.650   5.747   2.003
 5955SOL    HW118764   5.698   5.660   1.988
 5955SOL    HW218765   5.597   5.770   1.922
 5956SOL     OW18766   3.969   1.785   7.011
 5956SOL    HW118767   3.873   1.793   0.011
 5956SOL    HW218768   4.016   1.730   0.057
 5957SOL     OW18769   4.788   6.493   6.135
 5957SOL    HW118770   4.825   6.400   6.127
 5957SOL    HW218771   4.725   6.497   6.212
 5958SOL     OW18772   6.459   6.190   2.357
 5958SOL    HW118773   6.380   6.188   2.419
 5958SOL    HW218774   6.428   6.170   2.264
 5959SOL     OW18775   3.231   1.774   5.736
 5959SOL    HW118776   3.197   1.817   5.820
 5959SOL    HW218777   3.210   1.833   5.658
 5960SOL     OW18778   3.240   6.961   4.036
 5960SOL    HW118779   3.312   6.950   4.105
 5960SOL    HW218780   3.169   6.892   4.050
 5961SOL     OW18781   3.996   0.811   4.115
 5961SOL    HW118782   4.043   0.839   4.199
 5961SOL    HW218783   3.974   0.891   4.060
 5962SOL     OW18784   5.397   5.369   2.775
 5962SOL    HW118785   5.327   5.305   2.743
 5962SOL    HW218786   5.364   5.418   2.855
 5963SOL     OW18787   3.438   3.813   3.628
 5963SOL    HW118788   3.492   3.749   3.682
 5963SOL    HW218789   3.399   3.766   3.549
 5964SOL     OW18790   6.603   5.182   6.853
 5964SOL    HW118791   6.605   5.126   6.936
 5964SOL    HW218792   6.693   5.178   6.808
 5965SOL     OW18793   1.889   2.201   6.484
 5965SOL    HW118794   1.939   2.254   6.415
 5965SOL    HW218795   1.873   2.258   6.565
 5966SOL     OW18796   3.328   5.804   4.893
 5966SOL    HW118797   3.360   5.774   4.803
 5966SOL    HW218798   3.391   5.872   4.930
 5967SOL     OW18799   4.448   6.212   2.283
 5967SOL    HW118800   4.478   6.144   2.215
 5967SOL    HW218801   4.349   6.224   2.277
 5968SOL     OW18802   6.077   2.084   2.966
 5968SOL    HW118803   6.131   2.169   2.963
 5968SOL    HW218804   6.126   2.016   3.020
 5969SOL     OW18805   6.273   3.005   4.836
 5969SOL    HW118806   6.341   3.077   4.848
 5969SOL    HW218807   6.181   3.044   4.848
 5970SOL     OW18808   0.991   3.742   2.445
 5970SOL    HW118809   1.069   3.680   2.455
 5970SOL    HW218810   0.937   3.715   2.365
 5971SOL     OW18811   1.932   0.294   2.795
 5971SOL    HW118812   1.863   0.333   2.856
 5971SOL    HW218813   1.900   0.206   2.760
 5972SOL     OW18814   4.898   6.434   0.661
 5972SOL    HW118815   4.830   6.504   0.644
 5972SOL    HW218816   4.873   6.383   0.744
 5973SOL     OW18817   1.934   5.055   2.134
 5973SOL    HW118818   1.984   5.142   2.133
 5973SOL    HW218819   1.863   5.059   2.204
 5974SOL     OW18820   6.410   3.899   6.090
 5974SOL    HW118821   6.505   3.925   6.105
 5974SOL    HW218822   6.379   3.933   6.002
 5975SOL     OW18823   3.909   2.531   0.865
 5975SOL    HW118824   3.827   2.484   0.832
 5975SOL    HW218825   3.935   2.493   0.955
 5976SOL     OW18826   3.270   2.931   4.438
 5976SOL    HW118827   3.190   2.874   4.450
 5976SOL    HW218828   3.250   3.005   4.374
 5977SOL     OW18829   1.466   4.737   1.549
 5977SOL    HW118830   1.548   4.698   1.591
 5977SOL    HW218831   1.481   4.745   1.451
 5978SOL     OW18832   5.070   4.124   2.826
 5978SOL    HW118833   5.135   4.178   2.772
 5978SOL    HW218834   4.986   4.110   2.774
 5979SOL     OW18835   6.168   0.005   3.566
 5979SOL    HW118836   6.250   0.061   3.562
 5979SOL    HW218837   6.168   6.975   3.651
 5980SOL     OW18838   4.139   4.233   7.003
 5980SOL    HW118839   4.128   4.133   6.996
 5980SOL    HW218840   4.211   4.263   6.940
 5981SOL     OW18841   6.656   1.653   1.750
 5981SOL    HW118842   6.662   1.713   1.829
 5981SOL    HW218843   6.638   1.560   1.780
 5982SOL     OW18844   6.135   2.273   6.623
 5982SOL    HW118845   6.094   2.190   6.586
 5982SOL    HW218846   6.070   2.319   6.683
 5983SOL     OW18847   2.313   1.836   4.348
 5983SOL    HW118848   2.396   1.880   4.382
 5983SOL    HW218849   2.234   1.890   4.375
 5984SOL     OW18850   0.256   6.191   4.462
 5984SOL    HW118851   0.286   6.138   4.541
 5984SOL    HW218852   0.159   6.172   4.445
 5985SOL     OW18853   5.222   1.900   3.596
 5985SOL    HW118854   5.217   1.969   3.523
 5985SOL    HW218855   5.249   1.812   3.557
 5986SOL     OW18856   3.254   3.236   3.740
 5986SOL    HW118857   3.209   3.199   3.659
 5986SOL    HW218858   3.306   3.318   3.715
 5987SOL     OW18859   4.685   0.501   5.323
 5987SOL    HW118860   4.714   0.457   5.408
 5987SOL    HW218861   4.723   0.593   5.319
 5988SOL     OW18862   4.139   0.012   4.875
 5988SOL    HW118863   4.165   0.067   4.796
 5988SOL    HW218864   4.206   6.962   4.888
 5989SOL     OW18865   2.541   6.458   6.351
 5989SOL    HW118866   2.476   6.417   6.287
 5989SOL    HW218867   2.492   6.494   6.430
 5990SOL     OW18868   3.484   4.737   0.220
 5990SOL    HW118869   3.470   4.639   0.227
 5990SOL    HW218870   3.539   4.757   0.139
 5991SOL     OW18871   4.274   4.968   5.459
 5991SOL    HW118872   4.329   4.976   5.375
 5991SOL    HW218873   4.221   4.883   5.457
 5992SOL     OW18874   3.517   1.019   3.936
 5992SOL    HW118875   3.518   1.103   3.881
 5992SOL    HW218876   3.520   0.940   3.875
 5993SOL     OW18877   3.649   6.693   5.382
 5993SOL    HW118878   3.701   6.618   5.423
 5993SOL    HW218879   3.692   6.721   5.296
 5994SOL     OW18880   6.222   2.410   1.733
 5994SOL    HW118881   6.291   2.359   1.784
 5994SOL    HW218882   6.210   2.370   1.643
 5995SOL     OW18883   0.238   5.234   1.190
 5995SOL    HW118884   0.216   5.322   1.148
 5995SOL    HW218885   0.180   5.163   1.150
 5996SOL     OW18886   0.648   5.689   6.806
 5996SOL    HW118887   0.677   5.780   6.778
 5996SOL    HW218888   0.549   5.683   6.803
 5997SOL     OW18889   0.491   7.004   1.872
 5997SOL    HW118890   0.538   6.989   1.960
 5997SOL    HW218891   0.537   0.055   1.823
 5998SOL     OW18892   5.530   2.162   2.490
 5998SOL    HW118893   5.590   2.236   2.459
 5998SOL    HW218894   5.454   2.200   2.542
 5999SOL     OW18895   0.924   1.852   3.371
 5999SOL    HW118896   1.011   1.897   3.393
 5999SOL    HW218897   0.939   1.786   3.297
 6000SOL     OW18898   4.019   5.212   2.424
 6000SOL    HW118899   4.042   5.198   2.328
 6000SOL    HW218900   4.042   5.306   2.451
 6001SOL     OW18901   6.984   3.263   6.348
 6001SOL    HW118902   0.024   3.222   6.283
 6001SOL    HW218903   7.021   3.350   6.381
 6002SOL     OW18904   0.346   6.518   1.168
 6002SOL    HW118905   0.306   6.548   1.254
 6002SOL    HW218906   0.393   6.431   1.181
 6003SOL     OW18907   5.269   3.565   4.605
 6003SOL    HW118908   5.299   3.537   4.514
 6003SOL    HW218909   5.186   3.514   4.630
 6004SOL     OW18910   0.344   4.026   3.239
 6004SOL    HW118911   0.430   3.993   3.199
 6004SOL    HW218912   0.303   3.952   3.292
 6005SOL     OW18913   4.090   5.247   4.012
 6005SOL    HW118914   4.010   5.251   4.072
 6005SOL    HW218915   4.097   5.331   3.959
 6006SOL     OW18916   3.251   0.338   6.723
 6006SOL    HW118917   3.218   0.244   6.723
 6006SOL    HW218918   3.189   0.395   6.778
 6007SOL     OW18919   5.263   3.198   3.666
 6007SOL    HW118920   5.292   3.160   3.754
 6007SOL    HW218921   5.240   3.123   3.604
 6008SOL     OW18922   3.410   5.670   5.302
 6008SOL    HW118923   3.333   5.671   5.238
 6008SOL    HW218924   3.469   5.592   5.281
 6009SOL     OW18925   2.772   1.741   4.762
 6009SOL    HW118926   2.682   1.697   4.769
 6009SOL    HW218927   2.763   1.838   4.784
 6010SOL     OW18928   1.965   4.418   2.393
 6010SOL    HW118929   1.953   4.502   2.340
 6010SOL    HW218930   1.916   4.343   2.348
 6011SOL     OW18931   5.121   2.471   1.525
 6011SOL    HW118932   5.074   2.431   1.604
 6011SOL    HW218933   5.210   2.508   1.555
 6012SOL     OW18934   6.651   2.246   6.836
 6012SOL    HW118935   6.655   2.168   6.773
 6012SOL    HW218936   6.688   2.219   6.925
 6013SOL     OW18937   6.327   1.454   2.017
 6013SOL    HW118938   6.390   1.377   2.009
 6013SOL    HW218939   6.348   1.522   1.946
 6014SOL     OW18940   5.763   1.760   0.862
 6014SOL    HW118941   5.735   1.730   0.953
 6014SOL    HW218942   5.682   1.780   0.807
 6015SOL     OW18943   5.871   2.247   5.330
 6015SOL    HW118944   5.840   2.153   5.319
 6015SOL    HW218945   5.963   2.256   5.292
 6016SOL     OW18946   0.745   1.095   6.091
 6016SOL    HW118947   0.701   1.092   6.001
 6016SOL    HW218948   0.744   1.188   6.126
 6017SOL     OW18949   6.053   5.726   3.502
 6017SOL    HW118950   6.153   5.729   3.509
 6017SOL    HW218951   6.026   5.649   3.444
 6018SOL     OW18952   3.228   3.280   0.161
 6018SOL    HW118953   3.280   3.202   0.194
 6018SOL    HW218954   3.252   3.361   0.214
 6019SOL     OW18955   4.699   1.416   2.951
 6019SOL    HW118956   4.650   1.336   2.985
 6019SOL    HW218957   4.650   1.499   2.975
 6020SOL     OW18958   3.339   6.881   2.231
 6020SOL    HW118959   3.344   6.924   2.322
 6020SOL    HW218960   3.363   6.784   2.239
 6021SOL     OW18961   4.724   0.556   2.637
 6021SOL    HW118962   4.733   0.552   2.537
 6021SOL    HW218963   4.654   0.492   2.667
 6022SOL     OW18964   4.622   1.000   3.329
 6022SOL    HW118965   4.544   1.058   3.349
 6022SOL    HW218966   4.676   0.987   3.412
 6023SOL     OW18967   6.216   1.132   3.627
 6023SOL    HW118968   6.203   1.180   3.713
 6023SOL    HW218969   6.222   1.034   3.644
 6024SOL     OW18970   0.394   4.829   2.016
 6024SOL    HW118971   0.375   4.833   2.114
 6024SOL    HW218972   0.488   4.860   1.999
 6025SOL     OW18973   4.392   0.566   1.642
 6025SOL    HW118974   4.484   0.547   1.608
 6025SOL    HW218975   4.366   0.660   1.619
 6026SOL     OW18976   0.188   4.806   4.492
 6026SOL    HW118977   0.235   4.830   4.577
 6026SOL    HW218978   0.247   4.748   4.436
 6027SOL     OW18979   2.279   4.473   6.169
 6027SOL    HW118980   2.354   4.408   6.159
 6027SOL    HW218981   2.236   4.488   6.080
 6028SOL     OW18982   1.462   4.116   0.265
 6028SOL    HW118983   1.438   4.045   0.331
 6028SOL    HW218984   1.519   4.185   0.309
 6029SOL     OW18985   2.175   6.496   0.465
 6029SOL    HW118986   2.193   6.461   0.557
 6029SOL    HW218987   2.112   6.573   0.470
 6030SOL     OW18988   2.391   0.945   2.926
 6030SOL    HW118989   2.423   1.006   2.854
 6030SOL    HW218990   2.301   0.908   2.901
 6031SOL     OW18991   4.859   6.026   5.443
 6031SOL    HW118992   4.913   6.069   5.516
 6031SOL    HW218993   4.897   5.936   5.422
 6032SOL     OW18994   1.626   3.596   2.837
 6032SOL    HW118995   1.596   3.508   2.799
 6032SOL    HW218996   1.653   3.657   2.763
 6033SOL     OW18997   2.253   2.281   3.389
 6033SOL    HW118998   2.335   2.245   3.432
 6033SOL    HW218999   2.263   2.379   3.373
 6034SOL     OW19000   2.632   4.635   4.413
 6034SOL    HW119001   2.544   4.590   4.430
 6034SOL    HW219002   2.665   4.676   4.497
 6035SOL     OW19003   5.202   1.199   4.499
 6035SOL    HW119004   5.244   1.212   4.589
 6035SOL    HW219005   5.162   1.286   4.468
 6036SOL     OW19006   6.937   6.891   5.317
 6036SOL    HW119007   6.982   6.859   5.401
 6036SOL    HW219008   6.851   6.842   5.305
 6037SOL     OW19009   4.858   4.615   6.043
 6037SOL    HW119010   4.764   4.618   6.077
 6037SOL    HW219011   4.858   4.602   5.944
 6038SOL     OW19012   0.688   3.255   6.559
 6038SOL    HW119013   0.723   3.229   6.649
 6038SOL    HW219014   0.723   3.346   6.535
 6039SOL     OW19015   3.261   3.348   2.592
 6039SOL    HW119016   3.341   3.289   2.579
 6039SOL    HW219017   3.240   3.395   2.506
 6040SOL     OW19018   0.689   1.560   6.510
 6040SOL    HW119019   0.698   1.658   6.490
 6040SOL    HW219020   0.780   1.522   6.528
 6041SOL     OW19021   1.168   2.129   6.947
 6041SOL    HW119022   1.256   2.165   6.979
 6041SOL    HW219023   1.170   2.029   6.948
 6042SOL     OW19024   5.485   5.177   2.493
 6042SOL    HW119025   5.521   5.084   2.498
 6042SOL    HW219026   5.552   5.241   2.532
 6043SOL     OW19027   1.388   5.138   4.797
 6043SOL    HW119028   1.386   5.066   4.728
 6043SOL    HW219029   1.441   5.215   4.763
 6044SOL     OW19030   0.130   1.785   1.382
 6044SOL    HW119031   0.101   1.786   1.478
 6044SOL    HW219032   0.216   1.736   1.373
 6045SOL     OW19033   5.256   5.586   0.839
 6045SOL    HW119034   5.268   5.493   0.872
 6045SOL    HW219035   5.159   5.611   0.842
 6046SOL     OW19036   2.868   2.274   0.349
 6046SOL    HW119037   2.805   2.338   0.394
 6046SOL    HW219038   2.955   2.320   0.332
 6047SOL     OW19039   6.226   0.758   4.149
 6047SOL    HW119040   6.217   0.744   4.247
 6047SOL    HW219041   6.162   0.828   4.119
 6048SOL     OW19042   3.833   0.790   3.719
 6048SOL    HW119043   3.878   0.737   3.647
 6048SOL    HW219044   3.859   0.754   3.808
 6049SOL     OW19045   4.396   2.993   6.026
 6049SOL    HW119046   4.374   3.091   6.028
 6049SOL    HW219047   4.320   2.941   6.066
 6050SOL     OW19048   3.896   4.449   5.729
 6050SOL    HW119049   3.907   4.407   5.639
 6050SOL    HW219050   3.893   4.549   5.719
 6051SOL     OW19051   2.215   2.576   2.803
 6051SOL    HW119052   2.141   2.616   2.856
 6051SOL    HW219053   2.192   2.481   2.781
 6052SOL     OW19054   6.657   0.609   0.381
 6052SOL    HW119055   6.712   0.692   0.380
 6052SOL    HW219056   6.561   0.632   0.363
 6053SOL     OW19057   3.094   0.410   0.140
 6053SOL    HW119058   3.188   0.436   0.163
 6053SOL    HW219059   3.083   0.312   0.155
 6054SOL     OW19060   2.135   4.131   1.064
 6054SOL    HW119061   2.081   4.070   1.006
 6054SOL    HW219062   2.232   4.125   1.038
 6055SOL     OW19063   5.464   0.953   5.454
 6055SOL    HW119064   5.403   0.879   5.484
 6055SOL    HW219065   5.466   1.025   5.523
 6056SOL     OW19066   4.099   1.273   5.835
 6056SOL    HW119067   4.188   1.259   5.791
 6056SOL    HW219068   4.111   1.333   5.914
 6057SOL     OW19069   4.650   1.180   4.850
 6057SOL    HW119070   4.573   1.243   4.852
 6057SOL    HW219071   4.616   1.086   4.857
 6058SOL     OW19072   5.801   3.211   3.824
 6058SOL    HW119073   5.883   3.182   3.775
 6058SOL    HW219074   5.725   3.151   3.799
 6059SOL     OW19075   4.694   5.696   6.315
 6059SOL    HW119076   4.604   5.737   6.303
 6059SOL    HW219077   4.765   5.763   6.293
 6060SOL     OW19078   4.068   4.317   5.953
 6060SOL    HW119079   4.008   4.354   6.024
 6060SOL    HW219080   4.023   4.326   5.864
 6061SOL     OW19081   3.385   2.203   6.627
 6061SOL    HW119082   3.324   2.125   6.631
 6061SOL    HW219083   3.369   2.253   6.542
 6062SOL     OW19084   2.256   1.302   4.582
 6062SOL    HW119085   2.158   1.281   4.584
 6062SOL    HW219086   2.269   1.400   4.599
 6063SOL     OW19087   4.165   1.033   6.221
 6063SOL    HW119088   4.152   0.954   6.161
 6063SOL    HW219089   4.263   1.048   6.236
 6064SOL     OW19090   1.603   5.793   3.191
 6064SOL    HW119091   1.612   5.879   3.241
 6064SOL    HW219092   1.626   5.808   3.094
 6065SOL     OW19093   6.611   6.675   1.107
 6065SOL    HW119094   6.607   6.728   1.192
 6065SOL    HW219095   6.700   6.631   1.099
 6066SOL     OW19096   4.701   1.536   1.299
 6066SOL    HW119097   4.756   1.572   1.374
 6066SOL    HW219098   4.615   1.586   1.294
 6067SOL     OW19099   6.474   2.124   6.381
 6067SOL    HW119100   6.548   2.062   6.406
 6067SOL    HW219101   6.495   2.216   6.416
 6068SOL     OW19102   4.881   2.992   5.055
 6068SOL    HW119103   4.967   3.013   5.101
 6068SOL    HW219104   4.810   2.970   5.123
 6069SOL     OW19105   7.007   3.597   5.681
 6069SOL    HW119106   7.019   3.616   5.779
 6069SOL    HW219107   6.941   3.662   5.643
 6070SOL     OW19108   3.851   1.899   6.521
 6070SOL    HW119109   3.921   1.941   6.463
 6070SOL    HW219110   3.782   1.968   6.545
 6071SOL     OW19111   4.255   5.974   5.857
 6071SOL    HW119112   4.349   5.985   5.826
 6071SOL    HW219113   4.240   6.028   5.940
 6072SOL     OW19114   0.865   1.638   1.816
 6072SOL    HW119115   0.875   1.702   1.740
 6072SOL    HW219116   0.835   1.687   1.898
 6073SOL     OW19117   6.379   3.497   0.331
 6073SOL    HW119118   6.413   3.500   0.425
 6073SOL    HW219119   6.401   3.409   0.290
 6074SOL     OW19120   0.813   6.768   5.016
 6074SOL    HW119121   0.892   6.831   5.017
 6074SOL    HW219122   0.729   6.821   5.015
 6075SOL     OW19123   6.603   3.452   0.041
 6075SOL    HW119124   6.650   3.398   0.111
 6075SOL    HW219125   6.536   3.395   7.017
 6076SOL     OW19126   2.780   6.636   4.988
 6076SOL    HW119127   2.778   6.701   5.064
 6076SOL    HW219128   2.779   6.543   5.025
 6077SOL     OW19129   5.323   5.806   2.842
 6077SOL    HW119130   5.374   5.862   2.777
 6077SOL    HW219131   5.280   5.865   2.910
 6078SOL     OW19132   3.385   5.398   3.564
 6078SOL    HW119133   3.470   5.450   3.565
 6078SOL    HW219134   3.309   5.458   3.540
 6079SOL     OW19135   2.354   3.433   6.721
 6079SOL    HW119136   2.392   3.526   6.722
 6079SOL    HW219137   2.260   3.436   6.753
 6080SOL     OW19138   6.333   2.114   0.711
 6080SOL    HW119139   6.340   2.049   0.787
 6080SOL    HW219140   6.246   2.162   0.716
 6081SOL     OW19141   6.202   3.593   4.323
 6081SOL    HW119142   6.261   3.515   4.344
 6081SOL    HW219143   6.236   3.639   4.240
 6082SOL     OW19144   3.729   0.182   3.039
 6082SOL    HW119145   3.775   0.178   2.950
 6082SOL    HW219146   3.768   0.113   3.099
 6083SOL     OW19147   1.399   5.346   6.512
 6083SOL    HW119148   1.406   5.283   6.435
 6083SOL    HW219149   1.355   5.431   6.482
 6084SOL     OW19150   6.754   5.000   4.461
 6084SOL    HW119151   6.721   4.912   4.494
 6084SOL    HW219152   6.733   5.010   4.364
 6085SOL     OW19153   0.040   4.092   0.417
 6085SOL    HW119154   7.001   4.032   0.468
 6085SOL    HW219155   7.012   4.136   0.343
 6086SOL     OW19156   3.730   1.292   4.379
 6086SOL    HW119157   3.780   1.309   4.464
 6086SOL    HW219158   3.653   1.231   4.398
 6087SOL     OW19159   5.629   6.853   0.191
 6087SOL    HW119160   5.642   6.760   0.157
 6087SOL    HW219161   5.658   6.918   0.121
 6088SOL     OW19162   0.046   6.442   4.344
 6088SOL    HW119163   0.142   6.414   4.344
 6088SOL    HW219164   0.014   6.451   4.439
 6089SOL     OW19165   0.480   3.379   1.332
 6089SOL    HW119166   0.458   3.290   1.292
 6089SOL    HW219167   0.397   3.420   1.371
 6090SOL     OW19168   0.830   6.175   5.906
 6090SOL    HW119169   0.836   6.084   5.865
 6090SOL    HW219170   0.746   6.220   5.875
 6091SOL     OW19171   0.334   1.299   1.862
 6091SOL    HW119172   0.345   1.200   1.875
 6091SOL    HW219173   0.237   1.323   1.870
 6092SOL     OW19174   2.639   0.871   2.740
 6092SOL    HW119175   2.578   0.899   2.814
 6092SOL    HW219176   2.586   0.864   2.655
 6093SOL     OW19177   1.831   3.458   1.853
 6093SOL    HW119178   1.751   3.516   1.861
 6093SOL    HW219179   1.860   3.452   1.757
 6094SOL     OW19180   1.864   1.556   1.341
 6094SOL    HW119181   1.816   1.547   1.254
 6094SOL    HW219182   1.930   1.481   1.350
 6095SOL     OW19183   5.198   2.787   0.125
 6095SOL    HW119184   5.103   2.816   0.115
 6095SOL    HW219185   5.258   2.860   0.094
 6096SOL     OW19186   5.537   1.007   4.216
 6096SOL    HW119187   5.602   0.987   4.289
 6096SOL    HW219188   5.486   0.924   4.193
 6097SOL     OW19189   2.255   0.400   2.158
 6097SOL    HW119190   2.237   0.357   2.246
 6097SOL    HW219191   2.234   0.497   2.163
 6098SOL     OW19192   1.787   2.283   6.007
 6098SOL    HW119193   1.885   2.264   6.005
 6098SOL    HW219194   1.772   2.382   6.002
 6099SOL     OW19195   5.708   5.318   5.225
 6099SOL    HW119196   5.744   5.281   5.310
 6099SOL    HW219197   5.638   5.386   5.245
 6100SOL     OW19198   6.635   3.585   6.116
 6100SOL    HW119199   6.624   3.671   6.065
 6100SOL    HW219200   6.731   3.574   6.141
 6101SOL     OW19201   6.575   2.189   5.679
 6101SOL    HW119202   6.570   2.092   5.652
 6101SOL    HW219203   6.527   2.201   5.766
 6102SOL     OW19204   2.724   0.797   4.413
 6102SOL    HW119205   2.760   0.757   4.329
 6102SOL    HW219206   2.696   0.724   4.476
 6103SOL     OW19207   0.467   0.902   3.790
 6103SOL    HW119208   0.539   0.927   3.726
 6103SOL    HW219209   0.423   0.985   3.825
 6104SOL     OW19210   5.693   2.182   6.683
 6104SOL    HW119211   5.670   2.267   6.730
 6104SOL    HW219212   5.787   2.187   6.649
 6105SOL     OW19213   3.754   6.042   5.515
 6105SOL    HW119214   3.824   6.052   5.587
 6105SOL    HW219215   3.679   5.986   5.550
 6106SOL     OW19216   3.222   4.945   6.140
 6106SOL    HW119217   3.192   4.915   6.231
 6106SOL    HW219218   3.176   4.890   6.070
 6107SOL     OW19219   2.320   4.842   4.456
 6107SOL    HW119220   2.344   4.811   4.547
 6107SOL    HW219221   2.252   4.780   4.416
 6108SOL     OW19222   0.912   1.608   3.947
 6108SOL    HW119223   0.893   1.706   3.944
 6108SOL    HW219224   0.924   1.574   3.854
 6109SOL     OW19225   5.271   2.381   0.461
 6109SOL    HW119226   5.221   2.408   0.543
 6109SOL    HW219227   5.312   2.461   0.419
 6110SOL     OW19228   2.963   2.481   6.053
 6110SOL    HW119229   2.964   2.426   6.136
 6110SOL    HW219230   2.978   2.422   5.974
 6111SOL     OW19231   0.879   5.010   3.099
 6111SOL    HW119232   0.973   4.984   3.120
 6111SOL    HW219233   0.855   5.092   3.152
 6112SOL     OW19234   1.587   1.776   3.063
 6112SOL    HW119235   1.629   1.862   3.034
 6112SOL    HW219236   1.521   1.794   3.136
 6113SOL     OW19237   1.204   0.314   6.263
 6113SOL    HW119238   1.131   0.304   6.196
 6113SOL    HW219239   1.216   0.228   6.313
 6114SOL     OW19240   5.557   5.699   0.089
 6114SOL    HW119241   5.505   5.710   0.004
 6114SOL    HW219242   5.567   5.601   0.109
 6115SOL     OW19243   4.967   5.109   2.900
 6115SOL    HW119244   4.974   5.049   2.980
 6115SOL    HW219245   4.941   5.201   2.930
 6116SOL     OW19246   2.763   1.089   1.636
 6116SOL    HW119247   2.723   0.998   1.644
 6116SOL    HW219248   2.769   1.115   1.540
 6117SOL     OW19249   6.044   6.992   4.076
 6117SOL    HW119250   5.946   6.979   4.089
 6117SOL    HW219251   6.062   7.013   3.980
 6118SOL     OW19252   6.549   1.812   2.390
 6118SOL    HW119253   6.537   1.780   2.484
 6118SOL    HW219254   6.481   1.769   2.331
 6119SOL     OW19255   0.401   4.621   4.712
 6119SOL    HW119256   0.460   4.647   4.788
 6119SOL    HW219257   0.312   4.592   4.747
 6120SOL     OW19258   2.889   6.660   3.704
 6120SOL    HW119259   2.801   6.657   3.753
 6120SOL    HW219260   2.893   6.742   3.647
 6121SOL     OW19261   0.649   2.914   3.755
 6121SOL    HW119262   0.577   2.958   3.809
 6121SOL    HW219263   0.731   2.972   3.756
 6122SOL     OW19264   3.964   6.008   2.760
 6122SOL    HW119265   3.950   6.017   2.662
 6122SOL    HW219266   3.903   5.938   2.796
 6123SOL     OW19267   6.818   0.912   1.370
 6123SOL    HW119268   6.846   0.823   1.332
 6123SOL    HW219269   6.837   0.914   1.468
 6124SOL     OW19270   3.765   6.984   5.286
 6124SOL    HW119271   3.809   0.045   5.254
 6124SOL    HW219272   3.772   6.913   5.215
 6125SOL     OW19273   2.459   6.309   1.280
 6125SOL    HW119274   2.509   6.376   1.335
 6125SOL    HW219275   2.475   6.217   1.315
 6126SOL     OW19276   5.000   5.543   4.280
 6126SOL    HW119277   4.985   5.475   4.352
 6126SOL    HW219278   4.930   5.533   4.209
 6127SOL     OW19279   2.376   6.924   1.484
 6127SOL    HW119280   2.415   6.996   1.425
 6127SOL    HW219281   2.450   6.880   1.535
 6128SOL     OW19282   0.148   3.464   0.334
 6128SOL    HW119283   0.243   3.451   0.364
 6128SOL    HW219284   0.101   3.376   0.331
 6129SOL     OW19285   6.329   3.627   3.042
 6129SOL    HW119286   6.351   3.664   3.131
 6129SOL    HW219287   6.297   3.700   2.982
 6130SOL     OW19288   5.881   2.790   3.720
 6130SOL    HW119289   5.839   2.839   3.797
 6130SOL    HW219290   5.975   2.766   3.744
 6131SOL     OW19291   6.528   1.011   5.707
 6131SOL    HW119292   6.483   1.084   5.757
 6131SOL    HW219293   6.622   0.999   5.740
 6132SOL     OW19294   3.856   2.048   0.267
 6132SOL    HW119295   3.765   2.040   0.228
 6132SOL    HW219296   3.921   2.075   0.196
 6133SOL     OW19297   0.491   3.292   1.942
 6133SOL    HW119298   0.463   3.212   1.889
 6133SOL    HW219299   0.589   3.306   1.932
 6134SOL     OW19300   3.574   3.097   6.821
 6134SOL    HW119301   3.508   3.148   6.877
 6134SOL    HW219302   3.667   3.119   6.849
 6135SOL     OW19303   6.777   0.059   1.166
 6135SOL    HW119304   6.681   0.085   1.173
 6135SOL    HW219305   6.809   0.023   1.254
 6136SOL     OW19306   0.957   1.410   2.477
 6136SOL    HW119307   0.900   1.479   2.521
 6136SOL    HW219308   0.898   1.341   2.435
 6137SOL     OW19309   3.348   0.160   5.683
 6137SOL    HW119310   3.306   0.250   5.685
 6137SOL    HW219311   3.410   0.154   5.605
 6138SOL     OW19312   3.769   6.507   2.623
 6138SOL    HW119313   3.844   6.469   2.676
 6138SOL    HW219314   3.712   6.432   2.588
 6139SOL     OW19315   1.665   3.492   5.085
 6139SOL    HW119316   1.583   3.497   5.142
 6139SOL    HW219317   1.745   3.517   5.140
 6140SOL     OW19318   0.880   6.952   1.556
 6140SOL    HW119319   0.817   6.898   1.501
 6140SOL    HW219320   0.922   6.894   1.626
 6141SOL     OW19321   6.841   5.774   4.962
 6141SOL    HW119322   6.841   5.858   5.015
 6141SOL    HW219323   6.930   5.729   4.970
 6142SOL     OW19324   6.721   4.333   0.774
 6142SOL    HW119325   6.802   4.374   0.816
 6142SOL    HW219326   6.749   4.256   0.717
 6143SOL     OW19327   6.234   5.048   6.264
 6143SOL    HW119328   6.322   5.095   6.255
 6143SOL    HW219329   6.223   4.984   6.188
 6144SOL     OW19330   6.929   4.019   3.164
 6144SOL    HW119331   6.881   3.959   3.100
 6144SOL    HW219332   6.862   4.079   3.209
 6145SOL     OW19333   5.217   5.128   3.545
 6145SOL    HW119334   5.314   5.130   3.570
 6145SOL    HW219335   5.168   5.073   3.612
 6146SOL     OW19336   4.687   0.950   3.599
 6146SOL    HW119337   4.625   0.897   3.656
 6146SOL    HW219338   4.722   1.028   3.651
 6147SOL     OW19339   2.264   4.511   3.091
 6147SOL    HW119340   2.224   4.427   3.128
 6147SOL    HW219341   2.277   4.502   2.993
 6148SOL     OW19342   6.682   6.261   4.370
 6148SOL    HW119343   6.730   6.347   4.387
 6148SOL    HW219344   6.590   6.281   4.336
 6149SOL     OW19345   3.644   5.144   3.267
 6149SOL    HW119346   3.730   5.101   3.239
 6149SOL    HW219347   3.615   5.106   3.355
 6150SOL     OW19348   4.865   5.732   6.690
 6150SOL    HW119349   4.888   5.816   6.641
 6150SOL    HW219350   4.868   5.748   6.788
 6151SOL     OW19351   5.596   2.632   5.073
 6151SOL    HW119352   5.599   2.561   5.003
 6151SOL    HW219353   5.501   2.658   5.090
 6152SOL     OW19354   5.301   4.864   6.297
 6152SOL    HW119355   5.353   4.933   6.348
 6152SOL    HW219356   5.363   4.808   6.243
 6153SOL     OW19357   4.629   4.154   1.687
 6153SOL    HW119358   4.602   4.062   1.660
 6153SOL    HW219359   4.590   4.175   1.777
 6154SOL     OW19360   6.001   1.637   1.921
 6154SOL    HW119361   5.939   1.581   1.866
 6154SOL    HW219362   6.091   1.639   1.876
 6155SOL     OW19363   0.550   3.746   4.274
 6155SOL    HW119364   0.531   3.803   4.353
 6155SOL    HW219365   0.557   3.651   4.303
 6156SOL     OW19366   5.368   6.414   2.740
 6156SOL    HW119367   5.328   6.475   2.808
 6156SOL    HW219368   5.323   6.428   2.652
 6157SOL     OW19369   2.222   2.280   3.799
 6157SOL    HW119370   2.133   2.314   3.770
 6157SOL    HW219371   2.242   2.194   3.752
 6158SOL     OW19372   4.528   0.912   6.541
 6158SOL    HW119373   4.569   0.997   6.506
 6158SOL    HW219374   4.552   0.901   6.637
 6159SOL     OW19375   5.150   1.513   0.079
 6159SOL    HW119376   5.227   1.465   0.120
 6159SOL    HW219377   5.159   1.611   0.095
 6160SOL     OW19378   5.486   5.500   1.216
 6160SOL    HW119379   5.535   5.476   1.132
 6160SOL    HW219380   5.552   5.514   1.290
 6161SOL     OW19381   5.709   0.846   5.756
 6161SOL    HW119382   5.677   0.861   5.849
 6161SOL    HW219383   5.784   0.780   5.756
 6162SOL     OW19384   1.612   5.489   4.268
 6162SOL    HW119385   1.550   5.557   4.308
 6162SOL    HW219386   1.697   5.486   4.321
 6163SOL     OW19387   5.495   4.509   1.203
 6163SOL    HW119388   5.437   4.590   1.192
 6163SOL    HW219389   5.451   4.446   1.267
 6164SOL     OW19390   2.197   2.002   1.231
 6164SOL    HW119391   2.200   2.086   1.177
 6164SOL    HW219392   2.103   1.972   1.242
 6165SOL     OW19393   3.904   5.932   0.561
 6165SOL    HW119394   3.953   5.852   0.596
 6165SOL    HW219395   3.812   5.905   0.533
 6166SOL     OW19396   3.247   1.347   5.705
 6166SOL    HW119397   3.204   1.292   5.633
 6166SOL    HW219398   3.214   1.318   5.794
 6167SOL     OW19399   0.597   4.494   2.635
 6167SOL    HW119400   0.612   4.590   2.659
 6167SOL    HW219401   0.557   4.446   2.713
 6168SOL     OW19402   0.416   3.563   1.884
 6168SOL    HW119403   0.462   3.477   1.904
 6168SOL    HW219404   0.483   3.637   1.879
 6169SOL     OW19405   2.151   3.919   1.926
 6169SOL    HW119406   2.188   3.999   1.973
 6169SOL    HW219407   2.083   3.874   1.984
 6170SOL     OW19408   0.420   3.327   5.465
 6170SOL    HW119409   0.387   3.266   5.394
 6170SOL    HW219410   0.352   3.399   5.483
 6171SOL     OW19411   0.899   0.554   0.798
 6171SOL    HW119412   0.834   0.596   0.734
 6171SOL    HW219413   0.852   0.527   0.881
 6172SOL     OW19414   0.658   2.968   3.244
 6172SOL    HW119415   0.645   2.873   3.218
 6172SOL    HW219416   0.592   2.993   3.315
 6173SOL     OW19417   0.005   6.575   3.021
 6173SOL    HW119418   6.966   6.597   3.096
 6173SOL    HW219419   0.015   6.654   2.961
 6174SOL     OW19420   5.237   4.758   2.858
 6174SOL    HW119421   5.140   4.773   2.837
 6174SOL    HW219422   5.248   4.732   2.953
 6175SOL     OW19423   3.454   0.797   4.736
 6175SOL    HW119424   3.546   0.758   4.738
 6175SOL    HW219425   3.439   0.850   4.820
 6176SOL     OW19426   4.223   4.004   5.389
 6176SOL    HW119427   4.226   4.090   5.339
 6176SOL    HW219428   4.134   3.960   5.375
 6177SOL     OW19429   5.276   1.532   1.926
 6177SOL    HW119430   5.273   1.449   1.981
 6177SOL    HW219431   5.215   1.601   1.965
 6178SOL     OW19432   5.093   3.613   2.387
 6178SOL    HW119433   5.165   3.640   2.452
 6178SOL    HW219434   5.069   3.518   2.402
 6179SOL     OW19435   6.531   4.967   1.916
 6179SOL    HW119436   6.496   4.947   1.824
 6179SOL    HW219437   6.619   5.014   1.908
 6180SOL     OW19438   2.731   5.124   0.679
 6180SOL    HW119439   2.790   5.162   0.608
 6180SOL    HW219440   2.755   5.164   0.767
 6181SOL     OW19441   4.678   5.217   6.186
 6181SOL    HW119442   4.624   5.223   6.103
 6181SOL    HW219443   4.636   5.153   6.249
 6182SOL     OW19444   3.618   3.152   0.120
 6182SOL    HW119445   3.602   3.227   0.056
 6182SOL    HW219446   3.533   3.101   0.134
 6183SOL     OW19447   1.445   2.359   0.817
 6183SOL    HW119448   1.380   2.320   0.752
 6183SOL    HW219449   1.473   2.450   0.786
 6184SOL     OW19450   2.650   1.249   6.109
 6184SOL    HW119451   2.633   1.319   6.041
 6184SOL    HW219452   2.684   1.166   6.064
 6185SOL     OW19453   3.503   2.871   4.895
 6185SOL    HW119454   3.477   2.945   4.956
 6185SOL    HW219455   3.484   2.783   4.938
 6186SOL     OW19456   5.946   2.072   2.320
 6186SOL    HW119457   5.864   2.045   2.370
 6186SOL    HW219458   6.022   2.012   2.345
 6187SOL     OW19459   4.985   2.620   5.287
 6187SOL    HW119460   4.954   2.541   5.235
 6187SOL    HW219461   4.966   2.605   5.384
 6188SOL     OW19462   2.355   2.146   5.331
 6188SOL    HW119463   2.443   2.110   5.300
 6188SOL    HW219464   2.291   2.146   5.254
 6189SOL     OW19465   4.522   5.804   2.362
 6189SOL    HW119466   4.616   5.835   2.350
 6189SOL    HW219467   4.489   5.831   2.453
 6190SOL     OW19468   6.353   2.919   5.837
 6190SOL    HW119469   6.354   2.876   5.747
 6190SOL    HW219470   6.302   2.861   5.901
 6191SOL     OW19471   2.617   3.624   6.274
 6191SOL    HW119472   2.618   3.723   6.266
 6191SOL    HW219473   2.688   3.585   6.214
 6192SOL     OW19474   2.223   1.990   6.945
 6192SOL    HW119475   2.196   2.086   6.941
 6192SOL    HW219476   2.141   1.932   6.943
 6193SOL     OW19477   5.285   5.424   0.242
 6193SOL    HW119478   5.341   5.396   0.320
 6193SOL    HW219479   5.341   5.475   0.177
 6194SOL     OW19480   6.653   0.508   6.614
 6194SOL    HW119481   6.746   0.543   6.611
 6194SOL    HW219482   6.630   0.480   6.707
 6195SOL     OW19483   6.120   0.541   5.455
 6195SOL    HW119484   6.026   0.563   5.431
 6195SOL    HW219485   6.182   0.599   5.402
 6196SOL     OW19486   5.062   4.304   3.163
 6196SOL    HW119487   5.088   4.212   3.134
 6196SOL    HW219488   4.984   4.298   3.226
 6197SOL     OW19489   2.285   5.467   1.814
 6197SOL    HW119490   2.274   5.368   1.815
 6197SOL    HW219491   2.247   5.506   1.898
 6198SOL     OW19492   6.256   6.310   6.571
 6198SOL    HW119493   6.177   6.354   6.614
 6198SOL    HW219494   6.227   6.262   6.489
 6199SOL     OW19495   0.705   0.269   0.696
 6199SOL    HW119496   0.792   0.220   0.708
 6199SOL    HW219497   0.717   0.341   0.627
 6200SOL     OW19498   1.728   1.486   1.945
 6200SOL    HW119499   1.728   1.582   1.919
 6200SOL    HW219500   1.814   1.464   1.991
 6201SOL     OW19501   6.586   4.151   3.941
 6201SOL    HW119502   6.627   4.229   3.892
 6201SOL    HW219503   6.593   4.167   4.040
 6202SOL     OW19504   6.459   1.665   3.126
 6202SOL    HW119505   6.503   1.700   3.209
 6202SOL    HW219506   6.528   1.628   3.064
 6203SOL     OW19507   6.128   5.582   1.822
 6203SOL    HW119508   6.083   5.579   1.732
 6203SOL    HW219509   6.060   5.570   1.894
 6204SOL     OW19510   1.375   6.457   5.286
 6204SOL    HW119511   1.330   6.510   5.214
 6204SOL    HW219512   1.313   6.451   5.365
 6205SOL     OW19513   4.955   3.870   2.506
 6205SOL    HW119514   4.998   3.799   2.450
 6205SOL    HW219515   4.909   3.936   2.447
 6206SOL     OW19516   5.022   1.967   3.781
 6206SOL    HW119517   5.091   1.953   3.710
 6206SOL    HW219518   4.969   1.883   3.794
 6207SOL     OW19519   1.427   5.630   4.451
 6207SOL    HW119520   1.354   5.600   4.390
 6207SOL    HW219521   1.429   5.572   4.532
 6208SOL     OW19522   3.675   2.990   5.522
 6208SOL    HW119523   3.767   3.025   5.503
 6208SOL    HW219524   3.632   2.962   5.437
 6209SOL     OW19525   3.613   4.529   1.370
 6209SOL    HW119526   3.676   4.597   1.409
 6209SOL    HW219527   3.616   4.446   1.426
 6210SOL     OW19528   4.850   2.937   3.401
 6210SOL    HW119529   4.778   2.916   3.334
 6210SOL    HW219530   4.859   2.860   3.464
 6211SOL     OW19531   4.971   5.791   4.834
 6211SOL    HW119532   4.988   5.863   4.902
 6211SOL    HW219533   4.876   5.760   4.841
 6212SOL     OW19534   3.383   5.522   6.068
 6212SOL    HW119535   3.293   5.479   6.058
 6212SOL    HW219536   3.448   5.456   6.105
 6213SOL     OW19537   4.722   5.933   0.867
 6213SOL    HW119538   4.704   6.028   0.840
 6213SOL    HW219539   4.642   5.895   0.913
 6214SOL     OW19540   5.914   6.354   5.269
 6214SOL    HW119541   6.011   6.374   5.282
 6214SOL    HW219542   5.898   6.256   5.281
 6215SOL     OW19543   5.245   2.920   6.101
 6215SOL    HW119544   5.258   2.827   6.135
 6215SOL    HW219545   5.148   2.942   6.098
 6216SOL     OW19546   5.230   2.929   3.531
 6216SOL    HW119547   5.170   2.850   3.520
 6216SOL    HW219548   5.274   2.951   3.444
 6217SOL     OW19549   1.145   4.626   2.530
 6217SOL    HW119550   1.241   4.653   2.528
 6217SOL    HW219551   1.105   4.640   2.439
 6218SOL     OW19552   5.008   6.268   0.473
 6218SOL    HW119553   4.979   6.328   0.548
 6218SOL    HW219554   5.013   6.174   0.505
 6219SOL     OW19555   1.106   1.001   5.238
 6219SOL    HW119556   1.050   0.977   5.158
 6219SOL    HW219557   1.151   0.919   5.273
 6220SOL     OW19558   3.584   1.174   0.985
 6220SOL    HW119559   3.497   1.184   0.937
 6220SOL    HW219560   3.654   1.144   0.920
 6221SOL     OW19561   6.782   5.930   6.970
 6221SOL    HW119562   6.834   5.966   0.025
 6221SOL    HW219563   6.691   5.971   6.969
 6222SOL     OW19564   5.707   1.251   2.306
 6222SOL    HW119565   5.798   1.224   2.339
 6222SOL    HW219566   5.642   1.178   2.326
 6223SOL     OW19567   0.089   4.690   3.772
 6223SOL    HW119568   0.126   4.607   3.731
 6223SOL    HW219569   0.165   4.748   3.802
 6224SOL     OW19570   4.633   2.023   6.627
 6224SOL    HW119571   4.698   2.001   6.699
 6224SOL    HW219572   4.659   2.109   6.583
 6225SOL     OW19573   3.951   0.420   6.828
 6225SOL    HW119574   3.921   0.338   6.877
 6225SOL    HW219575   3.876   0.486   6.825
 6226SOL     OW19576   1.327   1.225   3.917
 6226SOL    HW119577   1.261   1.220   3.841
 6226SOL    HW219578   1.323   1.140   3.969
 6227SOL     OW19579   2.396   4.040   5.508
 6227SOL    HW119580   2.314   4.016   5.457
 6227SOL    HW219581   2.477   4.021   5.452
 6228SOL     OW19582   2.086   2.484   3.644
 6228SOL    HW119583   1.998   2.444   3.669
 6228SOL    HW219584   2.093   2.491   3.545
 6229SOL     OW19585   0.320   3.521   4.769
 6229SOL    HW119586   0.273   3.566   4.693
 6229SOL    HW219587   0.300   3.570   4.854
 6230SOL     OW19588   0.131   1.043   2.059
 6230SOL    HW119589   0.032   1.051   2.057
 6230SOL    HW219590   0.159   0.956   2.018
 6231SOL     OW19591   6.030   4.476   0.049
 6231SOL    HW119592   6.120   4.434   0.036
 6231SOL    HW219593   5.992   4.447   0.136
 6232SOL     OW19594   5.762   0.649   0.241
 6232SOL    HW119595   5.716   0.655   0.153
 6232SOL    HW219596   5.712   0.704   0.308
 6233SOL     OW19597   0.169   3.076   1.632
 6233SOL    HW119598   0.108   2.996   1.631
 6233SOL    HW219599   0.117   3.157   1.660
 6234SOL     OW19600   6.653   6.709   4.356
 6234SOL    HW119601   6.710   6.777   4.401
 6234SOL    HW219602   6.557   6.723   4.383
 6235SOL     OW19603   6.679   0.867   2.664
 6235SOL    HW119604   6.760   0.920   2.639
 6235SOL    HW219605   6.634   0.834   2.580
 6236SOL     OW19606   0.604   4.548   0.682
 6236SOL    HW119607   0.565   4.471   0.633
 6236SOL    HW219608   0.531   4.610   0.710
 6237SOL     OW19609   4.147   0.161   1.000
 6237SOL    HW119610   4.066   0.148   1.057
 6237SOL    HW219611   4.201   0.237   1.037
 6238SOL     OW19612   2.634   6.539   4.492
 6238SOL    HW119613   2.690   6.538   4.575
 6238SOL    HW219614   2.688   6.576   4.417
 6239SOL     OW19615   5.019   0.830   2.313
 6239SOL    HW119616   5.108   0.802   2.347
 6239SOL    HW219617   4.952   0.825   2.388
 6240SOL     OW19618   3.797   3.162   4.815
 6240SOL    HW119619   3.820   3.065   4.817
 6240SOL    HW219620   3.698   3.174   4.829
 6241SOL     OW19621   2.255   6.816   3.722
 6241SOL    HW119622   2.324   6.745   3.709
 6241SOL    HW219623   2.164   6.777   3.706
 6242SOL     OW19624   2.837   1.978   3.459
 6242SOL    HW119625   2.813   2.016   3.369
 6242SOL    HW219626   2.918   2.025   3.494
 6243SOL     OW19627   6.136   1.954   6.290
 6243SOL    HW119628   6.044   1.984   6.315
 6243SOL    HW219629   6.130   1.870   6.237
 6244SOL     OW19630   4.149   4.738   2.682
 6244SOL    HW119631   4.101   4.778   2.760
 6244SOL    HW219632   4.247   4.733   2.701
 6245SOL     OW19633   0.650   4.694   2.126
 6245SOL    HW119634   0.677   4.600   2.149
 6245SOL    HW219635   0.679   4.715   2.033
 6246SOL     OW19636   1.086   6.303   4.688
 6246SOL    HW119637   1.113   6.388   4.642
 6246SOL    HW219638   1.008   6.263   4.640
 6247SOL     OW19639   0.143   5.412   3.586
 6247SOL    HW119640   0.208   5.484   3.611
 6247SOL    HW219641   0.081   5.446   3.516
 6248SOL     OW19642   3.633   2.814   6.871
 6248SOL    HW119643   3.608   2.910   6.883
 6248SOL    HW219644   3.565   2.767   6.815
 6249SOL     OW19645   6.822   2.614   0.583
 6249SOL    HW119646   6.852   2.577   0.671
 6249SOL    HW219647   6.774   2.700   0.598
 6250SOL     OW19648   0.199   0.516   0.592
 6250SOL    HW119649   0.211   0.416   0.593
 6250SOL    HW219650   0.131   0.541   0.523
 6251SOL     OW19651   2.684   6.816   4.058
 6251SOL    HW119652   2.688   6.751   4.134
 6251SOL    HW219653   2.655   6.769   3.975
 6252SOL     OW19654   2.562   5.033   6.772
 6252SOL    HW119655   2.530   4.938   6.782
 6252SOL    HW219656   2.654   5.041   6.810
 6253SOL     OW19657   3.146   5.000   4.350
 6253SOL    HW119658   3.201   5.081   4.330
 6253SOL    HW219659   3.200   4.917   4.333
 6254SOL     OW19660   0.641   6.158   0.650
 6254SOL    HW119661   0.725   6.207   0.631
 6254SOL    HW219662   0.657   6.059   0.642
 6255SOL     OW19663   0.497   1.906   0.862
 6255SOL    HW119664   0.446   1.842   0.804
 6255SOL    HW219665   0.522   1.987   0.808
 6256SOL     OW19666   5.049   5.712   3.130
 6256SOL    HW119667   5.058   5.614   3.150
 6256SOL    HW219668   4.969   5.748   3.177
 6257SOL     OW19669   4.209   4.280   1.431
 6257SOL    HW119670   4.290   4.331   1.457
 6257SOL    HW219671   4.130   4.313   1.483
 6258SOL     OW19672   4.388   0.043   6.012
 6258SOL    HW119673   4.467   7.016   6.047
 6258SOL    HW219674   4.331   7.003   5.959
 6259SOL     OW19675   2.306   0.118   5.139
 6259SOL    HW119676   2.266   0.210   5.138
 6259SOL    HW219677   2.233   0.050   5.136
 6260SOL     OW19678   2.035   0.926   0.302
 6260SOL    HW119679   2.026   0.898   0.398
 6260SOL    HW219680   2.017   1.024   0.294
 6261SOL     OW19681   4.166   6.522   1.485
 6261SOL    HW119682   4.104   6.575   1.427
 6261SOL    HW219683   4.133   6.428   1.493
 6262SOL     OW19684   6.383   6.288   2.087
 6262SOL    HW119685   6.402   6.349   2.010
 6262SOL    HW219686   6.423   6.198   2.068
 6263SOL     OW19687   6.969   5.834   4.323
 6263SOL    HW119688   6.870   5.839   4.334
 6263SOL    HW219689   7.012   5.819   4.412
 6264SOL     OW19690   0.761   0.218   0.997
 6264SOL    HW119691   0.814   0.197   0.915
 6264SOL    HW219692   0.664   0.208   0.977
 6265SOL     OW19693   4.244   1.907   0.260
 6265SOL    HW119694   4.147   1.890   0.281
 6265SOL    HW219695   4.257   2.003   0.238
 6266SOL     OW19696   3.193   5.569   3.493
 6266SOL    HW119697   3.147   5.640   3.546
 6266SOL    HW219698   3.201   5.598   3.397
 6267SOL     OW19699   1.227   6.865   5.251
 6267SOL    HW119700   1.201   6.873   5.348
 6267SOL    HW219701   1.246   6.769   5.230
 6268SOL     OW19702   3.167   0.655   1.929
 6268SOL    HW119703   3.258   0.621   1.904
 6268SOL    HW219704   3.149   0.634   2.025
 6269SOL     OW19705   5.487   6.399   1.497
 6269SOL    HW119706   5.527   6.322   1.447
 6269SOL    HW219707   5.452   6.367   1.584
 6270SOL     OW19708   1.872   6.392   0.289
 6270SOL    HW119709   1.782   6.394   0.247
 6270SOL    HW219710   1.912   6.301   0.278
 6271SOL     OW19711   6.026   3.221   6.858
 6271SOL    HW119712   5.942   3.205   6.806
 6271SOL    HW219713   6.004   3.273   6.941
 6272SOL     OW19714   5.651   0.045   0.029
 6272SOL    HW119715   5.708   0.118   7.015
 6272SOL    HW219716   5.607   0.077   0.113
 6273SOL     OW19717   0.041   0.089   1.609
 6273SOL    HW119718   0.091   0.134   1.535
 6273SOL    HW219719   0.002   0.158   1.670
 6274SOL     OW19720   3.530   5.991   4.840
 6274SOL    HW119721   3.520   6.007   4.742
 6274SOL    HW219722   3.543   6.078   4.887
 6275SOL     OW19723   1.964   6.118   0.587
 6275SOL    HW119724   1.893   6.049   0.582
 6275SOL    HW219725   1.922   6.208   0.601
 6276SOL     OW19726   1.857   5.401   3.118
 6276SOL    HW119727   1.897   5.491   3.129
 6276SOL    HW219728   1.843   5.382   3.021
 6277SOL     OW19729   4.967   2.584   1.360
 6277SOL    HW119730   5.054   2.557   1.401
 6277SOL    HW219731   4.953   2.682   1.371
 6278SOL     OW19732   3.190   0.126   5.317
 6278SOL    HW119733   3.217   0.142   5.412
 6278SOL    HW219734   3.091   0.133   5.308
 6279SOL     OW19735   3.494   6.398   1.596
 6279SOL    HW119736   3.475   6.368   1.503
 6279SOL    HW219737   3.586   6.435   1.601
 6280SOL     OW19738   0.000   1.594   6.851
 6280SOL    HW119739   0.043   1.581   6.940
 6280SOL    HW219740   0.072   1.605   6.782
 6281SOL     OW19741   6.185   4.124   4.961
 6281SOL    HW119742   6.170   4.216   4.925
 6281SOL    HW219743   6.097   4.078   4.973
 6282SOL     OW19744   0.881   3.485   6.518
 6282SOL    HW119745   0.924   3.421   6.581
 6282SOL    HW219746   0.945   3.508   6.444
 6283SOL     OW19747   1.363   6.283   5.773
 6283SOL    HW119748   1.385   6.372   5.814
 6283SOL    HW219749   1.305   6.231   5.836
 6284SOL     OW19750   2.417   3.940   0.116
 6284SOL    HW119751   2.503   3.979   0.081
 6284SOL    HW219752   2.435   3.852   0.158
 6285SOL     OW19753   1.259   3.541   2.868
 6285SOL    HW119754   1.280   3.579   2.958
 6285SOL    HW219755   1.298   3.600   2.797
 6286SOL     OW19756   0.765   2.938   4.776
 6286SOL    HW119757   0.840   2.993   4.741
 6286SOL    HW219758   0.799   2.847   4.801
 6287SOL     OW19759   4.159   4.753   5.214
 6287SOL    HW119760   4.174   4.758   5.115
 6287SOL    HW219761   4.106   4.832   5.244
 6288SOL     OW19762   3.638   3.081   6.517
 6288SOL    HW119763   3.652   3.180   6.516
 6288SOL    HW219764   3.723   3.036   6.545
 6289SOL     OW19765   2.555   4.880   6.359
 6289SOL    HW119766   2.472   4.928   6.388
 6289SOL    HW219767   2.555   4.788   6.396
 6290SOL     OW19768   5.798   5.583   5.435
 6290SOL    HW119769   5.774   5.572   5.532
 6290SOL    HW219770   5.743   5.521   5.380
 6291SOL     OW19771   3.484   3.426   2.949
 6291SOL    HW119772   3.526   3.339   2.977
 6291SOL    HW219773   3.394   3.408   2.910
 6292SOL     OW19774   2.061   3.143   4.628
 6292SOL    HW119775   1.969   3.136   4.666
 6292SOL    HW219776   2.126   3.098   4.689
 6293SOL     OW19777   4.884   1.088   6.800
 6293SOL    HW119778   4.852   1.008   6.750
 6293SOL    HW219779   4.981   1.078   6.822
 6294SOL     OW19780   2.231   1.204   3.428
 6294SOL    HW119781   2.224   1.222   3.526
 6294SOL    HW219782   2.210   1.288   3.378
 6295SOL     OW19783   5.907   4.538   5.505
 6295SOL    HW119784   5.829   4.523   5.567
 6295SOL    HW219785   5.889   4.619   5.449
 6296SOL     OW19786   0.171   3.030   6.438
 6296SOL    HW119787   0.098   3.075   6.490
 6296SOL    HW219788   0.248   3.093   6.427
 6297SOL     OW19789   5.773   0.613   4.462
 6297SOL    HW119790   5.733   0.524   4.481
 6297SOL    HW219791   5.872   0.608   4.476
 6298SOL     OW19792   5.960   4.398   0.311
 6298SOL    HW119793   5.925   4.446   0.392
 6298SOL    HW219794   5.926   4.303   0.312
 6299SOL     OW19795   4.768   2.173   2.487
 6299SOL    HW119796   4.709   2.238   2.535
 6299SOL    HW219797   4.771   2.198   2.390
 6300SOL     OW19798   3.781   0.451   5.967
 6300SOL    HW119799   3.690   0.425   6.001
 6300SOL    HW219800   3.847   0.379   5.990
 6301SOL     OW19801   3.341   6.833   0.774
 6301SOL    HW119802   3.322   6.836   0.676
 6301SOL    HW219803   3.420   6.773   0.791
 6302SOL     OW19804   3.066   0.949   5.453
 6302SOL    HW119805   3.012   0.929   5.371
 6302SOL    HW219806   3.005   0.973   5.528
 6303SOL     OW19807   1.318   5.812   6.261
 6303SOL    HW119808   1.406   5.860   6.262
 6303SOL    HW219809   1.249   5.868   6.215
 6304SOL     OW19810   4.068   0.863   2.414
 6304SOL    HW119811   3.982   0.859   2.464
 6304SOL    HW219812   4.086   0.957   2.385
 6305SOL     OW19813   0.656   5.516   5.465
 6305SOL    HW119814   0.604   5.595   5.497
 6305SOL    HW219815   0.754   5.533   5.478
 6306SOL     OW19816   6.489   4.666   3.982
 6306SOL    HW119817   6.583   4.687   4.009
 6306SOL    HW219818   6.468   4.572   4.006
 6307SOL     OW19819   4.053   3.785   3.106
 6307SOL    HW119820   4.004   3.737   3.179
 6307SOL    HW219821   4.150   3.766   3.111
 6308SOL     OW19822   0.173   2.745   6.826
 6308SOL    HW119823   0.210   2.758   6.918
 6308SOL    HW219824   0.148   2.649   6.814
 6309SOL     OW19825   1.027   6.536   4.991
 6309SOL    HW119826   0.956   6.601   4.961
 6309SOL    HW219827   1.003   6.444   4.959
 6310SOL     OW19828   1.914   6.838   2.965
 6310SOL    HW119829   1.941   6.871   2.875
 6310SOL    HW219830   1.814   6.840   2.974
 6311SOL     OW19831   5.498   1.360   5.802
 6311SOL    HW119832   5.526   1.444   5.755
 6311SOL    HW219833   5.404   1.370   5.835
 6312SOL     OW19834   3.409   6.920   6.604
 6312SOL    HW119835   3.468   6.919   6.523
 6312SOL    HW219836   3.465   6.942   6.685
 6313SOL     OW19837   5.211   6.197   3.280
 6313SOL    HW119838   5.234   6.138   3.358
 6313SOL    HW219839   5.281   6.268   3.269
 6314SOL     OW19840   2.205   0.529   1.488
 6314SOL    HW119841   2.153   0.554   1.570
 6314SOL    HW219842   2.240   0.436   1.498
 6315SOL     OW19843   2.341   2.718   3.986
 6315SOL    HW119844   2.308   2.628   4.014
 6315SOL    HW219845   2.373   2.714   3.891
 6316SOL     OW19846   5.547   2.040   4.854
 6316SOL    HW119847   5.626   2.016   4.911
 6316SOL    HW219848   5.523   1.962   4.796
 6317SOL     OW19849   5.066   4.209   1.819
 6317SOL    HW119850   5.006   4.204   1.739
 6317SOL    HW219851   5.083   4.305   1.841
 6318SOL     OW19852   6.437   0.506   6.250
 6318SOL    HW119853   6.478   0.426   6.293
 6318SOL    HW219854   6.439   0.583   6.314
 6319SOL     OW19855   5.435   2.279   4.299
 6319SOL    HW119856   5.464   2.235   4.215
 6319SOL    HW219857   5.345   2.320   4.286
 6320SOL     OW19858   0.080   1.303   3.964
 6320SOL    HW119859   0.066   1.213   3.923
 6320SOL    HW219860   7.018   1.334   4.006
 6321SOL     OW19861   5.476   2.396   0.716
 6321SOL    HW119862   5.469   2.474   0.655
 6321SOL    HW219863   5.406   2.401   0.787
 6322SOL     OW19864   1.639   0.927   1.128
 6322SOL    HW119865   1.699   0.940   1.048
 6322SOL    HW219866   1.550   0.968   1.111
 6323SOL     OW19867   2.513   3.111   1.091
 6323SOL    HW119868   2.474   3.091   1.001
 6323SOL    HW219869   2.587   3.046   1.110
 6324SOL     OW19870   4.354   1.691   0.844
 6324SOL    HW119871   4.367   1.726   0.752
 6324SOL    HW219872   4.425   1.625   0.866
 6325SOL     OW19873   1.474   2.418   2.779
 6325SOL    HW119874   1.453   2.391   2.873
 6325SOL    HW219875   1.390   2.418   2.725
 6326SOL     OW19876   5.286   5.075   5.642
 6326SOL    HW119877   5.334   5.022   5.572
 6326SOL    HW219878   5.209   5.123   5.601
 6327SOL     OW19879   0.005   1.008   3.233
 6327SOL    HW119880   6.969   1.043   3.306
 6327SOL    HW219881   0.069   0.941   3.271
 6328SOL     OW19882   4.242   3.363   5.918
 6328SOL    HW119883   4.312   3.343   5.849
 6328SOL    HW219884   4.253   3.458   5.949
 6329SOL     OW19885   1.659   2.898   5.487
 6329SOL    HW119886   1.626   2.985   5.524
 6329SOL    HW219887   1.598   2.824   5.516
 6330SOL     OW19888   5.608   0.595   3.681
 6330SOL    HW119889   5.610   0.533   3.603
 6330SOL    HW219890   5.701   0.608   3.716
 6331SOL     OW19891   6.719   3.660   3.525
 6331SOL    HW119892   6.805   3.702   3.497
 6331SOL    HW219893   6.736   3.600   3.604
 6332SOL     OW19894   2.001   2.079   0.690
 6332SOL    HW119895   1.971   1.984   0.702
 6332SOL    HW219896   2.100   2.081   0.678
 6333SOL     OW19897   5.095   0.564   0.787
 6333SOL    HW119898   5.098   0.622   0.868
 6333SOL    HW219899   5.014   0.586   0.732
 6334SOL     OW19900   2.789   1.167   2.014
 6334SOL    HW119901   2.784   1.222   1.931
 6334SOL    HW219902   2.802   1.226   2.093
 6335SOL     OW19903   5.708   0.931   0.658
 6335SOL    HW119904   5.699   0.851   0.599
 6335SOL    HW219905   5.805   0.955   0.668
 6336SOL     OW19906   0.533   3.584   6.235
 6336SOL    HW119907   0.587   3.604   6.317
 6336SOL    HW219908   0.590   3.596   6.154
 6337SOL     OW19909   4.627   5.501   5.345
 6337SOL    HW119910   4.720   5.509   5.379
 6337SOL    HW219911   4.625   5.518   5.246
 6338SOL     OW19912   2.958   1.838   3.772
 6338SOL    HW119913   2.897   1.794   3.707
 6338SOL    HW219914   3.051   1.807   3.757
 6339SOL     OW19915   0.991   4.186   3.143
 6339SOL    HW119916   0.952   4.158   3.055
 6339SOL    HW219917   0.942   4.141   3.217
 6340SOL     OW19918   2.431   4.073   1.402
 6340SOL    HW119919   2.499   4.084   1.475
 6340SOL    HW219920   2.427   3.977   1.375
 6341SOL     OW19921   1.039   4.597   3.710
 6341SOL    HW119922   1.023   4.522   3.774
 6341SOL    HW219923   1.047   4.560   3.617
 6342SOL     OW19924   2.034   1.530   1.811
 6342SOL    HW119925   2.081   1.606   1.856
 6342SOL    HW219926   1.974   1.565   1.740
 6343SOL     OW19927   2.700   5.985   0.296
 6343SOL    HW119928   2.760   5.943   0.363
 6343SOL    HW219929   2.633   6.042   0.343
 6344SOL     OW19930   6.671   1.898   3.682
 6344SOL    HW119931   6.718   1.892   3.594
 6344SOL    HW219932   6.713   1.835   3.747
 6345SOL     OW19933   5.996   3.370   1.705
 6345SOL    HW119934   6.009   3.347   1.609
 6345SOL    HW219935   6.019   3.466   1.721
 6346SOL     OW19936   0.074   4.450   5.607
 6346SOL    HW119937   0.014   4.384   5.653
 6346SOL    HW219938   0.138   4.401   5.549
 6347SOL     OW19939   2.777   2.180   2.645
 6347SOL    HW119940   2.870   2.194   2.679
 6347SOL    HW219941   2.753   2.083   2.652
 6348SOL     OW19942   0.306   1.993   5.653
 6348SOL    HW119943   0.328   2.066   5.588
 6348SOL    HW219944   0.293   1.907   5.603
 6349SOL     OW19945   0.195   0.543   0.091
 6349SOL    HW119946   0.100   0.510   0.100
 6349SOL    HW219947   0.209   0.576   7.021
 6350SOL     OW19948   0.969   4.201   2.019
 6350SOL    HW119949   1.067   4.202   2.002
 6350SOL    HW219950   0.932   4.293   2.009
 6351SOL     OW19951   5.767   3.435   3.041
 6351SOL    HW119952   5.804   3.366   3.103
 6351SOL    HW219953   5.707   3.496   3.092
 6352SOL     OW19954   2.248   0.351   4.222
 6352SOL    HW119955   2.207   0.442   4.229
 6352SOL    HW219956   2.207   0.302   4.144
 6353SOL     OW19957   3.127   5.640   6.347
 6353SOL    HW119958   3.172   5.639   6.436
 6353SOL    HW219959   3.131   5.549   6.306
 6354SOL     OW19960   4.799   4.123   2.724
 6354SOL    HW119961   4.777   4.026   2.718
 6354SOL    HW219962   4.805   4.150   2.820
 6355SOL     OW19963   2.650   4.631   0.746
 6355SOL    HW119964   2.674   4.711   0.691
 6355SOL    HW219965   2.564   4.592   0.713
 6356SOL     OW19966   5.319   4.815   6.800
 6356SOL    HW119967   5.253   4.740   6.806
 6356SOL    HW219968   5.278   4.892   6.752
 6357SOL     OW19969   5.809   1.899   1.787
 6357SOL    HW119970   5.861   1.917   1.870
 6357SOL    HW219971   5.818   1.803   1.761
 6358SOL     OW19972   1.814   2.693   6.420
 6358SOL    HW119973   1.748   2.627   6.384
 6358SOL    HW219974   1.889   2.704   6.354
 6359SOL     OW19975   5.559   6.270   0.518
 6359SOL    HW119976   5.522   6.180   0.496
 6359SOL    HW219977   5.535   6.294   0.613
 6360SOL     OW19978   0.551   2.337   2.837
 6360SOL    HW119979   0.467   2.392   2.832
 6360SOL    HW219980   0.579   2.311   2.744
 6361SOL     OW19981   0.595   0.114   6.732
 6361SOL    HW119982   0.682   0.067   6.720
 6361SOL    HW219983   0.593   0.158   6.823
 6362SOL     OW19984   1.122   5.493   6.564
 6362SOL    HW119985   1.178   5.530   6.490
 6362SOL    HW219986   1.032   5.538   6.563
 6363SOL     OW19987   2.991   5.319   3.829
 6363SOL    HW119988   3.031   5.298   3.739
 6363SOL    HW219989   2.957   5.234   3.870
 6364SOL     OW19990   2.460   2.261   4.920
 6364SOL    HW119991   2.558   2.272   4.935
 6364SOL    HW219992   2.410   2.330   4.973
 6365SOL     OW19993   5.618   5.576   3.557
 6365SOL    HW119994   5.703   5.595   3.606
 6365SOL    HW219995   5.640   5.534   3.469
 6366SOL     OW19996   6.368   6.683   4.747
 6366SOL    HW119997   6.468   6.692   4.744
 6366SOL    HW219998   6.342   6.621   4.821
 6367SOL     OW19999   3.151   2.001   2.939
 6367SOL    HW120000   3.066   2.053   2.931
 6367SOL    HW220001   3.175   1.963   2.850
 6368SOL     OW20002   5.073   3.401   4.675
 6368SOL    HW120003   5.074   3.428   4.771
 6368SOL    HW220004   5.040   3.306   4.668
 6369SOL     OW20005   3.311   5.989   5.858
 6369SOL    HW120006   3.221   6.031   5.845
 6369SOL    HW220007   3.366   6.001   5.775
 6370SOL     OW20008   5.534   3.896   3.672
 6370SOL    HW120009   5.528   3.995   3.662
 6370SOL    HW220010   5.588   3.874   3.753
 6371SOL     OW20011   5.534   3.618   1.667
 6371SOL    HW120012   5.440   3.608   1.701
 6371SOL    HW220013   5.585   3.680   1.725
 6372SOL     OW20014   0.006   0.728   3.054
 6372SOL    HW120015   6.966   0.707   3.129
 6372SOL    HW220016   0.098   0.742   3.090
 6373SOL     OW20017   4.990   3.912   1.270
 6373SOL    HW120018   5.018   3.816   1.263
 6373SOL    HW220019   4.945   3.940   1.185
 6374SOL     OW20020   4.774   2.940   0.443
 6374SOL    HW120021   4.860   2.989   0.428
 6374SOL    HW220022   4.704   3.004   0.476
 6375SOL     OW20023   6.708   2.723   2.108
 6375SOL    HW120024   6.681   2.646   2.166
 6375SOL    HW220025   6.691   2.809   2.158
 6376SOL     OW20026   3.519   0.828   5.662
 6376SOL    HW120027   3.561   0.887   5.731
 6376SOL    HW220028   3.534   0.733   5.686
 6377SOL     OW20029   6.774   0.278   0.068
 6377SOL    HW120030   6.689   0.323   0.098
 6377SOL    HW220031   6.794   0.201   0.128
 6378SOL     OW20032   5.704   5.474   3.321
 6378SOL    HW120033   5.673   5.388   3.279
 6378SOL    HW220034   5.718   5.542   3.249
 6379SOL     OW20035   3.206   5.649   6.604
 6379SOL    HW120036   3.294   5.696   6.611
 6379SOL    HW220037   3.213   5.559   6.649
 6380SOL     OW20038   1.390   3.211   5.449
 6380SOL    HW120039   1.341   3.140   5.399
 6380SOL    HW220040   1.329   3.256   5.514
 6381SOL     OW20041   4.635   3.200   0.208
 6381SOL    HW120042   4.710   3.133   0.213
 6381SOL    HW220043   4.547   3.152   0.213
 6382SOL     OW20044   2.423   1.395   1.330
 6382SOL    HW120045   2.500   1.365   1.386
 6382SOL    HW220046   2.367   1.460   1.381
 6383SOL     OW20047   2.033   2.025   2.577
 6383SOL    HW120048   2.041   2.099   2.511
 6383SOL    HW220049   2.121   2.013   2.624
 6384SOL     OW20050   6.743   2.399   2.089
 6384SOL    HW120051   6.688   2.458   2.031
 6384SOL    HW220052   6.823   2.366   2.037
 6385SOL     OW20053   0.227   3.010   1.298
 6385SOL    HW120054   0.136   2.968   1.294
 6385SOL    HW220055   0.266   2.996   1.388
 6386SOL     OW20056   2.370   3.300   0.509
 6386SOL    HW120057   2.442   3.230   0.506
 6386SOL    HW220058   2.281   3.256   0.491
 6387SOL     OW20059   6.227   0.693   0.018
 6387SOL    HW120060   6.222   0.608   0.071
 6387SOL    HW220061   6.150   0.698   6.978
 6388SOL     OW20062   6.152   5.181   2.905
 6388SOL    HW120063   6.239   5.134   2.919
 6388SOL    HW220064   6.136   5.194   2.807
 6389SOL     OW20065   1.665   0.693   6.932
 6389SOL    HW120066   1.654   0.596   6.954
 6389SOL    HW220067   1.763   0.714   6.926
 6390SOL     OW20068   6.528   1.287   6.697
 6390SOL    HW120069   6.495   1.366   6.646
 6390SOL    HW220070   6.552   1.314   6.790
 6391SOL     OW20071   1.895   1.596   5.197
 6391SOL    HW120072   1.972   1.589   5.260
 6391SOL    HW220073   1.819   1.641   5.243
 6392SOL     OW20074   3.404   6.125   3.658
 6392SOL    HW120075   3.485   6.072   3.635
 6392SOL    HW220076   3.392   6.199   3.592
 6393SOL     OW20077   6.373   6.124   1.443
 6393SOL    HW120078   6.283   6.141   1.403
 6393SOL    HW220079   6.417   6.048   1.395
 6394SOL     OW20080   1.106   5.072   1.023
 6394SOL    HW120081   1.108   5.172   1.017
 6394SOL    HW220082   1.169   5.041   1.094
 6395SOL     OW20083   1.451   4.100   3.351
 6395SOL    HW120084   1.516   4.134   3.283
 6395SOL    HW220085   1.367   4.071   3.305
 6396SOL     OW20086   6.947   4.222   0.216
 6396SOL    HW120087   6.853   4.191   0.203
 6396SOL    HW220088   6.977   4.272   0.135
 6397SOL     OW20089   5.585   2.571   3.463
 6397SOL    HW120090   5.540   2.515   3.533
 6397SOL    HW220091   5.675   2.532   3.443
 6398SOL     OW20092   0.891   0.002   1.106
 6398SOL    HW120093   0.870   6.931   1.080
 6398SOL    HW220094   0.813   0.061   1.087
 6399SOL     OW20095   2.325   0.363   5.905
 6399SOL    HW120096   2.323   0.267   5.877
 6399SOL    HW220097   2.327   0.369   6.004
 6400SOL     OW20098   1.539   5.534   3.109
 6400SOL    HW120099   1.558   5.629   3.134
 6400SOL    HW220100   1.595   5.474   3.166
 6401SOL     OW20101   3.894   5.318   3.290
 6401SOL    HW120102   3.869   5.248   3.222
 6401SOL    HW220103   3.971   5.372   3.255
 6402SOL     OW20104   2.184   4.588   4.932
 6402SOL    HW120105   2.251   4.514   4.920
 6402SOL    HW220106   2.110   4.577   4.867
 6403SOL     OW20107   5.071   6.217   4.924
 6403SOL    HW120108   4.992   6.170   4.961
 6403SOL    HW220109   5.116   6.270   4.996
 6404SOL     OW20110   3.643   0.412   2.319
 6404SOL    HW120111   3.630   0.360   2.404
 6404SOL    HW220112   3.732   0.388   2.280
 6405SOL     OW20113   5.440   1.679   2.592
 6405SOL    HW120114   5.490   1.671   2.506
 6405SOL    HW220115   5.444   1.592   2.641
 6406SOL     OW20116   1.055   2.819   2.535
 6406SOL    HW120117   0.988   2.804   2.462
 6406SOL    HW220118   1.027   2.899   2.589
 6407SOL     OW20119   2.343   5.911   3.304
 6407SOL    HW120120   2.402   5.869   3.234
 6407SOL    HW220121   2.254   5.931   3.263
 6408SOL     OW20122   6.584   0.438   0.591
 6408SOL    HW120123   6.607   0.495   0.512
 6408SOL    HW220124   6.627   0.475   0.673
 6409SOL     OW20125   6.006   5.082   3.849
 6409SOL    HW120126   6.050   5.169   3.829
 6409SOL    HW220127   6.004   5.068   3.948
 6410SOL     OW20128   3.366   1.561   5.801
 6410SOL    HW120129   3.310   1.643   5.782
 6410SOL    HW220130   3.312   1.479   5.781
 6411SOL     OW20131   0.297   2.455   2.803
 6411SOL    HW120132   0.245   2.493   2.879
 6411SOL    HW220133   0.235   2.412   2.738
 6412SOL     OW20134   2.976   0.882   6.898
 6412SOL    HW120135   2.880   0.864   6.920
 6412SOL    HW220136   3.029   0.887   6.982
 6413SOL     OW20137   4.382   4.903   3.929
 6413SOL    HW120138   4.425   4.944   4.009
 6413SOL    HW220139   4.310   4.963   3.895
 6414SOL     OW20140   1.144   6.758   6.964
 6414SOL    HW120141   1.177   6.731   0.032
 6414SOL    HW220142   1.117   6.854   6.966
 6415SOL     OW20143   1.153   2.476   3.250
 6415SOL    HW120144   1.081   2.479   3.320
 6415SOL    HW220145   1.225   2.542   3.273
 6416SOL     OW20146   2.936   0.679   6.373
 6416SOL    HW120147   2.985   0.640   6.451
 6416SOL    HW220148   2.930   0.611   6.300
 6417SOL     OW20149   4.604   1.603   0.905
 6417SOL    HW120150   4.622   1.619   1.002
 6417SOL    HW220151   4.688   1.573   0.860
 6418SOL     OW20152   4.324   4.737   1.179
 6418SOL    HW120153   4.409   4.763   1.133
 6418SOL    HW220154   4.346   4.689   1.264
 6419SOL     OW20155   0.464   6.382   6.427
 6419SOL    HW120156   0.547   6.331   6.452
 6419SOL    HW220157   0.385   6.339   6.470
 6420SOL     OW20158   1.767   3.262   4.181
 6420SOL    HW120159   1.789   3.287   4.275
 6420SOL    HW220160   1.668   3.251   4.172
 6421SOL     OW20161   4.946   0.227   1.426
 6421SOL    HW120162   4.951   0.223   1.326
 6421SOL    HW220163   5.038   0.231   1.464
 6422SOL     OW20164   6.162   2.611   4.847
 6422SOL    HW120165   6.108   2.527   4.843
 6422SOL    HW220166   6.242   2.597   4.904
 6423SOL     OW20167   2.477   4.449   4.149
 6423SOL    HW120168   2.540   4.393   4.203
 6423SOL    HW220169   2.399   4.394   4.121
 6424SOL     OW20170   0.547   3.873   5.110
 6424SOL    HW120171   0.495   3.938   5.054
 6424SOL    HW220172   0.570   3.915   5.197
 6425SOL     OW20173   0.424   6.448   2.994
 6425SOL    HW120174   0.448   6.541   3.022
 6425SOL    HW220175   0.420   6.389   3.075
 6426SOL     OW20176   4.437   4.583   4.676
 6426SOL    HW120177   4.456   4.491   4.641
 6426SOL    HW220178   4.447   4.584   4.775
 6427SOL     OW20179   2.989   3.402   3.603
 6427SOL    HW120180   3.008   3.324   3.543
 6427SOL    HW220181   3.061   3.470   3.593
 6428SOL     OW20182   4.891   2.572   0.104
 6428SOL    HW120183   4.884   2.669   0.124
 6428SOL    HW220184   4.969   2.533   0.154
 6429SOL     OW20185   2.132   0.647   5.057
 6429SOL    HW120186   2.225   0.634   5.092
 6429SOL    HW220187   2.093   0.730   5.097
 6430SOL     OW20188   6.623   0.345   5.265
 6430SOL    HW120189   6.600   0.250   5.283
 6430SOL    HW220190   6.682   0.380   5.338
 6431SOL     OW20191   4.243   4.992   2.348
 6431SOL    HW120192   4.337   4.994   2.380
 6431SOL    HW220193   4.181   5.003   2.425
 6432SOL     OW20194   4.348   4.278   6.004
 6432SOL    HW120195   4.253   4.300   5.980
 6432SOL    HW220196   4.359   4.284   6.103
 6433SOL     OW20197   2.823   5.884   6.858
 6433SOL    HW120198   2.818   5.960   6.793
 6433SOL    HW220199   2.784   5.802   6.816
 6434SOL     OW20200   3.269   5.610   5.536
 6434SOL    HW120201   3.367   5.628   5.536
 6434SOL    HW220202   3.244   5.562   5.452
 6435SOL     OW20203   5.041   0.759   0.970
 6435SOL    HW120204   5.007   0.850   0.992
 6435SOL    HW220205   5.115   0.734   1.033
 6436SOL     OW20206   0.033   3.940   4.074
 6436SOL    HW120207   7.007   4.027   4.068
 6436SOL    HW220208   0.126   3.951   4.039
 6437SOL     OW20209   0.628   1.112   5.842
 6437SOL    HW120210   0.609   1.210   5.848
 6437SOL    HW220211   0.714   1.097   5.794
 6438SOL     OW20212   0.425   5.650   0.233
 6438SOL    HW120213   0.447   5.743   0.205
 6438SOL    HW220214   0.467   5.631   0.322
 6439SOL     OW20215   5.674   0.481   3.452
 6439SOL    HW120216   5.632   0.531   3.376
 6439SOL    HW220217   5.739   0.414   3.415
 6440SOL     OW20218   2.426   1.026   5.924
 6440SOL    HW120219   2.371   0.945   5.902
 6440SOL    HW220220   2.366   1.103   5.943
 6441SOL     OW20221   0.083   0.706   2.597
 6441SOL    HW120222   0.181   0.719   2.582
 6441SOL    HW220223   0.047   0.781   2.653
 6442SOL     OW20224   3.180   2.507   5.747
 6442SOL    HW120225   3.194   2.423   5.695
 6442SOL    HW220226   3.092   2.548   5.723
 6443SOL     OW20227   4.530   2.434   0.981
 6443SOL    HW120228   4.579   2.391   0.905
 6443SOL    HW220229   4.458   2.493   0.944
 6444SOL     OW20230   0.058   3.150   5.185
 6444SOL    HW120231   0.146   3.185   5.218
 6444SOL    HW220232   0.025   3.079   5.248
 6445SOL     OW20233   3.015   3.831   3.023
 6445SOL    HW120234   2.969   3.811   2.936
 6445SOL    HW220235   3.078   3.907   3.010
 6446SOL     OW20236   2.076   1.605   0.083
 6446SOL    HW120237   2.119   1.552   0.010
 6446SOL    HW220238   1.977   1.590   0.080
 6447SOL     OW20239   5.787   4.699   1.243
 6447SOL    HW120240   5.695   4.722   1.275
 6447SOL    HW220241   5.834   4.645   1.313
 6448SOL     OW20242   4.994   5.473   2.060
 6448SOL    HW120243   5.033   5.487   1.969
 6448SOL    HW220244   4.960   5.379   2.067
 6449SOL     OW20245   2.298   5.652   1.211
 6449SOL    HW120246   2.233   5.582   1.180
 6449SOL    HW220247   2.261   5.699   1.291
 6450SOL     OW20248   0.510   3.833   1.094
 6450SOL    HW120249   0.519   3.759   1.161
 6450SOL    HW220250   0.413   3.849   1.075
 6451SOL     OW20251   3.251   2.634   1.315
 6451SOL    HW120252   3.152   2.625   1.319
 6451SOL    HW220253   3.286   2.656   1.406
 6452SOL     OW20254   5.127   2.691   3.269
 6452SOL    HW120255   5.151   2.598   3.241
 6452SOL    HW220256   5.205   2.752   3.250
 6453SOL     OW20257   3.480   0.064   0.833
 6453SOL    HW120258   3.472   6.991   0.808
 6453SOL    HW220259   3.557   0.075   0.897
 6454SOL     OW20260   5.901   2.714   2.768
 6454SOL    HW120261   5.956   2.768   2.705
 6454SOL    HW220262   5.807   2.706   2.732
 6455SOL     OW20263   6.154   4.065   3.600
 6455SOL    HW120264   6.183   3.992   3.661
 6455SOL    HW220265   6.234   4.116   3.568
 6456SOL     OW20266   6.457   1.189   3.075
 6456SOL    HW120267   6.358   1.188   3.092
 6456SOL    HW220268   6.476   1.151   2.985
 6457SOL     OW20269   4.543   0.268   1.500
 6457SOL    HW120270   4.557   0.239   1.594
 6457SOL    HW220271   4.468   0.216   1.459
 6458SOL     OW20272   1.162   4.833   3.687
 6458SOL    HW120273   1.091   4.763   3.676
 6458SOL    HW220274   1.223   4.808   3.762
 6459SOL     OW20275   6.453   3.011   2.807
 6459SOL    HW120276   6.400   2.977   2.729
 6459SOL    HW220277   6.393   3.067   2.865
 6460SOL     OW20278   0.225   5.698   6.122
 6460SOL    HW120279   0.165   5.625   6.152
 6460SOL    HW220280   0.174   5.763   6.065
 6461SOL     OW20281   2.956   4.873   0.986
 6461SOL    HW120282   2.955   4.829   1.075
 6461SOL    HW220283   2.979   4.806   0.916
 6462SOL     OW20284   1.373   4.277   5.174
 6462SOL    HW120285   1.349   4.217   5.250
 6462SOL    HW220286   1.325   4.364   5.184
 6463SOL     OW20287   4.148   1.113   1.250
 6463SOL    HW120288   4.238   1.139   1.284
 6463SOL    HW220289   4.094   1.076   1.326
 6464SOL     OW20290   1.144   5.745   4.590
 6464SOL    HW120291   1.243   5.738   4.575
 6464SOL    HW220292   1.118   5.841   4.593
 6465SOL     OW20293   4.726   2.158   3.119
 6465SOL    HW120294   4.697   2.254   3.124
 6465SOL    HW220295   4.685   2.114   3.040
 6466SOL     OW20296   0.473   3.328   0.237
 6466SOL    HW120297   0.552   3.360   0.289
 6466SOL    HW220298   0.486   3.351   0.140
 6467SOL     OW20299   3.359   1.156   0.811
 6467SOL    HW120300   3.350   1.245   0.766
 6467SOL    HW220301   3.308   1.087   0.760
 6468SOL     OW20302   3.014   0.350   0.728
 6468SOL    HW120303   3.105   0.333   0.765
 6468SOL    HW220304   2.951   0.375   0.802
 6469SOL     OW20305   3.984   1.812   3.383
 6469SOL    HW120306   4.067   1.756   3.391
 6469SOL    HW220307   4.008   1.909   3.391
 6470SOL     OW20308   6.486   2.436   6.794
 6470SOL    HW120309   6.456   2.488   6.873
 6470SOL    HW220310   6.558   2.372   6.820
 6471SOL     OW20311   0.358   6.211   4.850
 6471SOL    HW120312   0.270   6.258   4.865
 6471SOL    HW220313   0.349   6.115   4.878
 6472SOL     OW20314   6.850   5.705   2.611
 6472SOL    HW120315   6.869   5.799   2.640
 6472SOL    HW220316   6.908   5.682   2.533
 6473SOL     OW20317   1.984   1.143   3.791
 6473SOL    HW120318   2.065   1.164   3.847
 6473SOL    HW220319   1.943   1.228   3.758
 6474SOL     OW20320   4.300   6.483   4.800
 6474SOL    HW120321   4.314   6.390   4.835
 6474SOL    HW220322   4.202   6.505   4.805
 6475SOL     OW20323   5.738   4.935   2.878
 6475SOL    HW120324   5.791   4.966   2.958
 6475SOL    HW220325   5.679   5.010   2.847
 6476SOL     OW20326   4.114   1.470   6.373
 6476SOL    HW120327   4.149   1.456   6.466
 6476SOL    HW220328   4.142   1.561   6.340
 6477SOL     OW20329   6.662   6.037   1.508
 6477SOL    HW120330   6.615   5.989   1.581
 6477SOL    HW220331   6.761   6.032   1.522
 6478SOL     OW20332   3.566   5.868   1.960
 6478SOL    HW120333   3.523   5.781   1.940
 6478SOL    HW220334   3.504   5.943   1.934
 6479SOL     OW20335   3.366   6.228   3.990
 6479SOL    HW120336   3.354   6.138   4.033
 6479SOL    HW220337   3.277   6.263   3.961
 6480SOL     OW20338   3.297   1.367   6.703
 6480SOL    HW120339   3.200   1.353   6.723
 6480SOL    HW220340   3.332   1.290   6.650
 6481SOL     OW20341   3.320   2.429   1.698
 6481SOL    HW120342   3.238   2.485   1.686
 6481SOL    HW220343   3.296   2.333   1.689
 6482SOL     OW20344   6.743   3.368   5.442
 6482SOL    HW120345   6.765   3.404   5.351
 6482SOL    HW220346   6.825   3.325   5.480
 6483SOL     OW20347   1.364   5.812   5.244
 6483SOL    HW120348   1.349   5.752   5.165
 6483SOL    HW220349   1.375   5.757   5.326
 6484SOL     OW20350   2.565   0.904   3.860
 6484SOL    HW120351   2.479   0.863   3.831
 6484SOL    HW220352   2.579   0.887   3.958
 6485SOL     OW20353   2.004   6.487   4.460
 6485SOL    HW120354   2.092   6.482   4.508
 6485SOL    HW220355   1.942   6.546   4.511
 6486SOL     OW20356   1.772   5.379   3.371
 6486SOL    HW120357   1.820   5.404   3.287
 6486SOL    HW220358   1.720   5.295   3.356
 6487SOL     OW20359   0.169   4.674   4.179
 6487SOL    HW120360   0.229   4.644   4.253
 6487SOL    HW220361   0.212   4.749   4.129
 6488SOL     OW20362   4.689   5.745   4.827
 6488SOL    HW120363   4.635   5.695   4.760
 6488SOL    HW220364   4.642   5.829   4.853
 6489SOL     OW20365   4.182   2.878   6.113
 6489SOL    HW120366   4.147   2.832   6.032
 6489SOL    HW220367   4.107   2.922   6.162
 6490SOL     OW20368   1.725   1.987   6.512
 6490SOL    HW120369   1.737   1.972   6.610
 6490SOL    HW220370   1.780   2.066   6.484
 6491SOL     OW20371   1.461   0.380   0.650
 6491SOL    HW120372   1.421   0.303   0.699
 6491SOL    HW220373   1.451   0.464   0.704
 6492SOL     OW20374   3.435   3.814   4.945
 6492SOL    HW120375   3.485   3.729   4.960
 6492SOL    HW220376   3.390   3.809   4.855
 6493SOL     OW20377   0.868   4.202   6.224
 6493SOL    HW120378   0.927   4.152   6.288
 6493SOL    HW220379   0.923   4.267   6.172
 6494SOL     OW20380   6.113   6.501   2.014
 6494SOL    HW120381   6.034   6.561   2.001
 6494SOL    HW220382   6.193   6.543   1.971
 6495SOL     OW20383   0.267   0.185   3.503
 6495SOL    HW120384   0.306   0.177   3.595
 6495SOL    HW220385   0.333   0.231   3.443
 6496SOL     OW20386   4.764   0.490   2.073
 6496SOL    HW120387   4.750   0.559   2.002
 6496SOL    HW220388   4.855   0.501   2.113
 6497SOL     OW20389   0.332   1.679   0.797
 6497SOL    HW120390   0.269   1.612   0.757
 6497SOL    HW220391   0.306   1.696   0.892
 6498SOL     OW20392   0.982   4.348   3.526
 6498SOL    HW120393   0.891   4.331   3.489
 6498SOL    HW220394   0.996   4.293   3.608
 6499SOL     OW20395   6.037   4.095   4.551
 6499SOL    HW120396   5.988   4.115   4.466
 6499SOL    HW220397   6.021   4.000   4.577
 6500SOL     OW20398   1.573   3.838   2.638
 6500SOL    HW120399   1.598   3.859   2.544
 6500SOL    HW220400   1.560   3.923   2.689
 6501SOL     OW20401   6.343   2.132   1.153
 6501SOL    HW120402   6.253   2.151   1.192
 6501SOL    HW220403   6.332   2.104   1.058
 6502SOL     OW20404   6.101   3.483   2.122
 6502SOL    HW120405   6.040   3.432   2.062
 6502SOL    HW220406   6.046   3.536   2.188
 6503SOL     OW20407   6.587   3.072   5.751
 6503SOL    HW120408   6.556   3.161   5.717
 6503SOL    HW220409   6.512   3.007   5.747
 6504SOL     OW20410   4.582   6.516   6.341
 6504SOL    HW120411   4.510   6.457   6.378
 6504SOL    HW220412   4.606   6.585   6.409
 6505SOL     OW20413   5.820   6.069   0.158
 6505SOL    HW120414   5.808   6.153   0.107
 6505SOL    HW220415   5.819   5.991   0.096
 6506SOL     OW20416   0.151   2.903   2.790
 6506SOL    HW120417   0.116   2.809   2.795
 6506SOL    HW220418   0.115   2.948   2.708
 6507SOL     OW20419   3.906   4.383   6.561
 6507SOL    HW120420   3.924   4.397   6.659
 6507SOL    HW220421   3.897   4.471   6.516
 6508SOL     OW20422   1.232   6.528   1.939
 6508SOL    HW120423   1.183   6.456   1.890
 6508SOL    HW220424   1.329   6.506   1.943
 6509SOL     OW20425   3.942   1.621   5.749
 6509SOL    HW120426   3.961   1.718   5.769
 6509SOL    HW220427   3.881   1.584   5.818
 6510SOL     OW20428   4.423   6.222   5.607
 6510SOL    HW120429   4.484   6.195   5.682
 6510SOL    HW220430   4.332   6.240   5.643
 6511SOL     OW20431   3.670   1.231   6.874
 6511SOL    HW120432   3.644   1.259   6.967
 6511SOL    HW220433   3.646   1.303   6.810
 6512SOL     OW20434   3.311   0.798   1.072
 6512SOL    HW120435   3.301   0.809   1.171
 6512SOL    HW220436   3.261   0.871   1.026
 6513SOL     OW20437   2.966   5.407   4.548
 6513SOL    HW120438   3.042   5.404   4.612
 6513SOL    HW220439   2.932   5.500   4.539
 6514SOL     OW20440   5.873   0.559   5.366
 6514SOL    HW120441   5.813   0.487   5.402
 6514SOL    HW220442   5.817   0.636   5.337
 6515SOL     OW20443   2.028   5.004   1.876
 6515SOL    HW120444   1.959   5.023   1.945
 6515SOL    HW220445   2.068   4.914   1.893
 6516SOL     OW20446   0.175   2.957   1.027
 6516SOL    HW120447   0.187   2.940   1.125
 6516SOL    HW220448   0.130   2.877   0.986
 6517SOL     OW20449   0.090   3.025   0.067
 6517SOL    HW120450   0.010   2.999   0.013
 6517SOL    HW220451   0.127   3.111   0.032
 6518SOL     OW20452   1.049   1.437   2.883
 6518SOL    HW120453   1.064   1.348   2.839
 6518SOL    HW220454   1.038   1.423   2.982
 6519SOL     OW20455   0.841   1.704   3.107
 6519SOL    HW120456   0.747   1.700   3.141
 6519SOL    HW220457   0.841   1.733   3.011
 6520SOL     OW20458   7.023   5.535   6.733
 6520SOL    HW120459   0.046   5.502   6.816
 6520SOL    HW220460   6.973   5.619   6.755
 6521SOL     OW20461   1.428   2.949   4.378
 6521SOL    HW120462   1.511   2.932   4.432
 6521SOL    HW220463   1.426   3.046   4.352
 6522SOL     OW20464   2.584   3.995   5.312
 6522SOL    HW120465   2.520   3.989   5.236
 6522SOL    HW220466   2.643   3.914   5.313
 6523SOL     OW20467   5.946   0.245   0.178
 6523SOL    HW120468   6.010   0.183   0.224
 6523SOL    HW220469   5.870   0.265   0.239
 6524SOL     OW20470   2.096   2.284   1.121
 6524SOL    HW120471   2.018   2.340   1.151
 6524SOL    HW220472   2.178   2.314   1.169
 6525SOL     OW20473   1.445   4.938   3.561
 6525SOL    HW120474   1.463   4.985   3.648
 6525SOL    HW220475   1.346   4.931   3.547
 6526SOL     OW20476   0.277   0.255   0.721
 6526SOL    HW120477   0.307   0.251   0.626
 6526SOL    HW220478   0.215   0.179   0.740
 6527SOL     OW20479   0.574   2.481   0.409
 6527SOL    HW120480   0.635   2.545   0.457
 6527SOL    HW220481   0.560   2.400   0.465
 6528SOL     OW20482   6.049   1.052   5.728
 6528SOL    HW120483   6.002   1.023   5.644
 6528SOL    HW220484   6.134   1.001   5.738
 6529SOL     OW20485   6.539   1.271   2.057
 6529SOL    HW120486   6.458   1.214   2.073
 6529SOL    HW220487   6.602   1.262   2.134
 6530SOL     OW20488   0.684   2.402   2.362
 6530SOL    HW120489   0.620   2.464   2.317
 6530SOL    HW220490   0.777   2.419   2.328
 6531SOL     OW20491   4.099   3.135   5.872
 6531SOL    HW120492   4.165   3.210   5.877
 6531SOL    HW220493   4.104   3.080   5.955
 6532SOL     OW20494   1.060   0.935   0.719
 6532SOL    HW120495   1.131   0.981   0.665
 6532SOL    HW220496   0.987   0.903   0.658
 6533SOL     OW20497   4.438   3.841   6.592
 6533SOL    HW120498   4.376   3.798   6.658
 6533SOL    HW220499   4.532   3.816   6.614
 6534SOL     OW20500   5.737   4.607   2.191
 6534SOL    HW120501   5.742   4.569   2.099
 6534SOL    HW220502   5.824   4.593   2.239
 6535SOL     OW20503   6.115   3.293   4.767
 6535SOL    HW120504   6.046   3.221   4.767
 6535SOL    HW220505   6.092   3.362   4.836
 6536SOL     OW20506   0.547   3.048   5.446
 6536SOL    HW120507   0.500   3.036   5.534
 6536SOL    HW220508   0.629   2.990   5.444
 6537SOL     OW20509   6.187   4.768   4.651
 6537SOL    HW120510   6.171   4.840   4.719
 6537SOL    HW220511   6.280   4.775   4.616
 6538SOL     OW20512   1.843   3.800   5.175
 6538SOL    HW120513   1.887   3.799   5.265
 6538SOL    HW220514   1.885   3.729   5.118
 6539SOL     OW20515   6.522   0.781   6.678
 6539SOL    HW120516   6.621   0.768   6.670
 6539SOL    HW220517   6.476   0.736   6.601
 6540SOL     OW20518   4.370   2.604   6.022
 6540SOL    HW120519   4.457   2.645   6.045
 6540SOL    HW220520   4.312   2.671   5.975
 6541SOL     OW20521   6.301   1.449   4.964
 6541SOL    HW120522   6.392   1.465   5.003
 6541SOL    HW220523   6.284   1.351   4.959
 6542SOL     OW20524   1.642   2.983   4.914
 6542SOL    HW120525   1.662   3.051   4.983
 6542SOL    HW220526   1.605   2.901   4.957
 6543SOL     OW20527   3.818   2.085   4.817
 6543SOL    HW120528   3.813   2.091   4.917
 6543SOL    HW220529   3.884   2.153   4.783
 6544SOL     OW20530   1.000   0.170   1.559
 6544SOL    HW120531   0.945   0.086   1.556
 6544SOL    HW220532   1.073   0.164   1.492
 6545SOL     OW20533   4.152   0.013   1.553
 6545SOL    HW120534   4.090   0.078   1.597
 6545SOL    HW220535   4.187   0.052   1.468
 6546SOL     OW20536   5.483   4.283   6.352
 6546SOL    HW120537   5.569   4.308   6.309
 6546SOL    HW220538   5.471   4.335   6.437
 6547SOL     OW20539   5.369   6.161   0.141
 6547SOL    HW120540   5.273   6.147   0.120
 6547SOL    HW220541   5.404   6.084   0.194
 6548SOL     OW20542   0.736   2.627   5.921
 6548SOL    HW120543   0.700   2.704   5.973
 6548SOL    HW220544   0.679   2.610   5.841
 6549SOL     OW20545   4.802   0.073   1.838
 6549SOL    HW120546   4.886   0.122   1.816
 6549SOL    HW220547   4.825   7.014   1.891
 6550SOL     OW20548   6.456   6.744   3.316
 6550SOL    HW120549   6.359   6.756   3.333
 6550SOL    HW220550   6.495   6.831   3.284
 6551SOL     OW20551   3.245   3.324   1.320
 6551SOL    HW120552   3.237   3.422   1.306
 6551SOL    HW220553   3.161   3.279   1.292
 6552SOL     OW20554   2.217   0.090   0.686
 6552SOL    HW120555   2.180   0.066   0.775
 6552SOL    HW220556   2.281   0.166   0.695
 6553SOL     OW20557   6.860   1.062   2.780
 6553SOL    HW120558   6.821   1.137   2.727
 6553SOL    HW220559   6.851   1.081   2.878
 6554SOL     OW20560   3.072   1.034   4.282
 6554SOL    HW120561   3.160   1.032   4.235
 6554SOL    HW220562   3.065   0.957   4.345
 6555SOL     OW20563   6.283   2.052   4.582
 6555SOL    HW120564   6.278   2.135   4.526
 6555SOL    HW220565   6.374   2.043   4.621
 6556SOL     OW20566   5.964   3.118   3.398
 6556SOL    HW120567   5.935   3.203   3.355
 6556SOL    HW220568   5.891   3.082   3.456
 6557SOL     OW20569   1.385   6.769   2.483
 6557SOL    HW120570   1.358   6.834   2.554
 6557SOL    HW220571   1.312   6.761   2.416
 6558SOL     OW20572   5.713   5.213   0.307
 6558SOL    HW120573   5.731   5.211   0.406
 6558SOL    HW220574   5.679   5.123   0.278
 6559SOL     OW20575   6.625   3.511   6.406
 6559SOL    HW120576   6.664   3.419   6.410
 6559SOL    HW220577   6.641   3.549   6.314
 6560SOL     OW20578   4.817   4.740   0.482
 6560SOL    HW120579   4.724   4.775   0.497
 6560SOL    HW220580   4.883   4.813   0.498
 6561SOL     OW20581   3.647   5.036   0.341
 6561SOL    HW120582   3.685   4.959   0.289
 6561SOL    HW220583   3.587   5.090   0.282
 6562SOL     OW20584   5.706   2.697   0.833
 6562SOL    HW120585   5.708   2.658   0.741
 6562SOL    HW220586   5.798   2.726   0.859
 6563SOL     OW20587   5.145   6.695   5.120
 6563SOL    HW120588   5.241   6.723   5.118
 6563SOL    HW220589   5.130   6.630   5.195
 6564SOL     OW20590   6.943   3.978   2.597
 6564SOL    HW120591   6.857   3.985   2.649
 6564SOL    HW220592   6.988   3.892   2.619
 6565SOL     OW20593   6.200   6.729   2.279
 6565SOL    HW120594   6.205   6.816   2.328
 6565SOL    HW220595   6.164   6.658   2.339
 6566SOL     OW20596   3.746   5.968   2.350
 6566SOL    HW120597   3.659   5.973   2.398
 6566SOL    HW220598   3.759   6.052   2.296
 6567SOL     OW20599   4.374   0.832   1.541
 6567SOL    HW120600   4.441   0.881   1.485
 6567SOL    HW220601   4.323   0.898   1.597
 6568SOL     OW20602   3.643   1.160   1.823
 6568SOL    HW120603   3.706   1.226   1.864
 6568SOL    HW220604   3.567   1.144   1.886
 6569SOL     OW20605   1.114   3.106   5.608
 6569SOL    HW120606   1.116   3.204   5.630
 6569SOL    HW220607   1.021   3.079   5.586
 6570SOL     OW20608   3.860   6.975   1.767
 6570SOL    HW120609   3.767   7.008   1.787
 6570SOL    HW220610   3.917   0.030   1.740
 6571SOL     OW20611   2.817   4.831   3.348
 6571SOL    HW120612   2.876   4.813   3.427
 6571SOL    HW220613   2.798   4.745   3.301
 6572SOL     OW20614   0.534   5.215   4.056
 6572SOL    HW120615   0.478   5.155   3.999
 6572SOL    HW220616   0.481   5.296   4.080
 6573SOL     OW20617   1.937   1.102   3.116
 6573SOL    HW120618   1.956   1.056   3.203
 6573SOL    HW220619   1.905   1.035   3.049
 6574SOL     OW20620   2.117   5.797   2.334
 6574SOL    HW120621   2.126   5.853   2.416
 6574SOL    HW220622   2.184   5.723   2.336
 6575SOL     OW20623   0.046   0.228   2.663
 6575SOL    HW120624   0.076   0.257   2.572
 6575SOL    HW220625   0.013   0.308   2.714
 6576SOL     OW20626   3.549   5.359   0.350
 6576SOL    HW120627   3.488   5.317   0.417
 6576SOL    HW220628   3.521   5.454   0.334
 6577SOL     OW20629   2.542   2.045   4.345
 6577SOL    HW120630   2.612   2.044   4.273
 6577SOL    HW220631   2.584   2.075   4.431
 6578SOL     OW20632   1.651   5.238   1.071
 6578SOL    HW120633   1.722   5.249   1.002
 6578SOL    HW220634   1.571   5.292   1.045
 6579SOL     OW20635   0.037   1.041   3.573
 6579SOL    HW120636   6.976   1.080   3.535
 6579SOL    HW220637   0.116   1.094   3.541
 6580SOL     OW20638   1.090   0.045   6.995
 6580SOL    HW120639   1.180   0.014   0.005
 6580SOL    HW220640   1.057   0.118   0.031
 6581SOL     OW20641   1.507   1.802   6.776
 6581SOL    HW120642   1.510   1.702   6.773
 6581SOL    HW220643   1.456   1.836   6.697
 6582SOL     OW20644   6.509   0.329   3.053
 6582SOL    HW120645   6.484   0.341   3.149
 6582SOL    HW220646   6.596   0.375   3.034
 6583SOL     OW20647   4.252   6.787   6.183
 6583SOL    HW120648   4.338   6.832   6.209
 6583SOL    HW220649   4.175   6.837   6.224
 6584SOL     OW20650   3.667   2.543   1.160
 6584SOL    HW120651   3.601   2.468   1.154
 6584SOL    HW220652   3.668   2.594   1.074
 6585SOL     OW20653   6.254   6.874   0.918
 6585SOL    HW120654   6.319   6.947   0.897
 6585SOL    HW220655   6.163   6.899   0.884
 6586SOL     OW20656   6.131   2.364   6.031
 6586SOL    HW120657   6.229   2.370   6.054
 6586SOL    HW220658   6.082   2.439   6.075
 6587SOL     OW20659   1.361   4.171   5.532
 6587SOL    HW120660   1.378   4.136   5.440
 6587SOL    HW220661   1.320   4.262   5.526
 6588SOL     OW20662   0.309   3.126   0.367
 6588SOL    HW120663   0.340   3.209   0.322
 6588SOL    HW220664   0.344   3.124   0.461
 6589SOL     OW20665   6.503   1.014   1.352
 6589SOL    HW120666   6.504   0.925   1.398
 6589SOL    HW220667   6.536   1.084   1.415
 6590SOL     OW20668   0.913   0.930   5.412
 6590SOL    HW120669   0.961   0.977   5.337
 6590SOL    HW220670   0.815   0.944   5.402
 6591SOL     OW20671   4.814   5.512   4.605
 6591SOL    HW120672   4.837   5.476   4.515
 6591SOL    HW220673   4.836   5.609   4.609
 6592SOL     OW20674   5.251   0.026   3.014
 6592SOL    HW120675   5.179   0.023   3.084
 6592SOL    HW220676   5.224   6.992   2.937
 6593SOL     OW20677   3.064   2.159   2.640
 6593SOL    HW120678   3.062   2.063   2.667
 6593SOL    HW220679   3.130   2.173   2.567
 6594SOL     OW20680   3.809   1.460   5.951
 6594SOL    HW120681   3.782   1.457   6.047
 6594SOL    HW220682   3.880   1.391   5.935
 6595SOL     OW20683   2.335   2.238   4.690
 6595SOL    HW120684   2.252   2.182   4.694
 6595SOL    HW220685   2.369   2.253   4.783
 6596SOL     OW20686   5.265   5.560   2.928
 6596SOL    HW120687   5.167   5.573   2.940
 6596SOL    HW220688   5.305   5.643   2.888
 6597SOL     OW20689   0.991   5.522   2.248
 6597SOL    HW120690   1.009   5.542   2.152
 6597SOL    HW220691   0.898   5.486   2.258
 6598SOL     OW20692   1.877   4.206   4.102
 6598SOL    HW120693   1.915   4.298   4.088
 6598SOL    HW220694   1.787   4.214   4.145
 6599SOL     OW20695   5.613   5.941   6.764
 6599SOL    HW120696   5.647   5.924   6.856
 6599SOL    HW220697   5.686   5.924   6.698
 6600SOL     OW20698   4.748   0.376   5.636
 6600SOL    HW120699   4.847   0.361   5.634
 6600SOL    HW220700   4.703   0.309   5.577
 6601SOL     OW20701   1.008   3.086   2.630
 6601SOL    HW120702   1.069   3.164   2.638
 6601SOL    HW220703   0.929   3.111   2.574
 6602SOL     OW20704   1.960   0.402   1.328
 6602SOL    HW120705   1.910   0.437   1.249
 6602SOL    HW220706   2.037   0.463   1.348
 6603SOL     OW20707   0.829   3.103   3.747
 6603SOL    HW120708   0.901   3.092   3.679
 6603SOL    HW220709   0.860   3.165   3.819
 6604SOL     OW20710   2.228   6.917   1.722
 6604SOL    HW120711   2.246   6.912   1.623
 6604SOL    HW220712   2.303   6.964   1.767
 6605SOL     OW20713   5.862   5.435   1.533
 6605SOL    HW120714   5.793   5.397   1.471
 6605SOL    HW220715   5.820   5.456   1.621
 6606SOL     OW20716   1.237   3.426   3.614
 6606SOL    HW120717   1.280   3.338   3.635
 6606SOL    HW220718   1.152   3.411   3.565
 6607SOL     OW20719   5.960   4.548   3.918
 6607SOL    HW120720   6.036   4.609   3.941
 6607SOL    HW220721   5.995   4.456   3.899
 6608SOL     OW20722   0.039   0.068   6.821
 6608SOL    HW120723   7.007   0.133   6.872
 6608SOL    HW220724   0.077   0.112   6.740
 6609SOL     OW20725   5.033   1.973   6.107
 6609SOL    HW120726   5.082   2.031   6.173
 6609SOL    HW220727   4.953   1.933   6.152
 6610SOL     OW20728   2.672   5.541   0.736
 6610SOL    HW120729   2.718   5.463   0.778
 6610SOL    HW220730   2.688   5.623   0.792
 6611SOL     OW20731   5.104   2.210   3.866
 6611SOL    HW120732   5.078   2.126   3.819
 6611SOL    HW220733   5.140   2.276   3.799
 6612SOL     OW20734   5.814   2.301   6.402
 6612SOL    HW120735   5.894   2.341   6.357
 6612SOL    HW220736   5.767   2.372   6.454
 6613SOL     OW20737   5.170   0.597   6.418
 6613SOL    HW120738   5.212   0.679   6.458
 6613SOL    HW220739   5.216   0.515   6.453
 6614SOL     OW20740   4.769   5.592   1.979
 6614SOL    HW120741   4.786   5.514   2.038
 6614SOL    HW220742   4.727   5.561   1.894
 6615SOL     OW20743   3.020   5.656   0.284
 6615SOL    HW120744   3.056   5.663   0.191
 6615SOL    HW220745   2.925   5.626   0.281
 6616SOL     OW20746   4.745   0.510   6.465
 6616SOL    HW120747   4.704   0.443   6.527
 6616SOL    HW220748   4.754   0.469   6.374
 6617SOL     OW20749   3.940   0.536   3.484
 6617SOL    HW120750   3.903   0.486   3.563
 6617SOL    HW220751   3.866   0.554   3.419
 6618SOL     OW20752   0.581   1.618   3.174
 6618SOL    HW120753   0.565   1.714   3.197
 6618SOL    HW220754   0.520   1.560   3.227
 6619SOL     OW20755   4.698   6.643   4.335
 6619SOL    HW120756   4.719   6.631   4.432
 6619SOL    HW220757   4.606   6.681   4.325
 6620SOL     OW20758   0.803   3.777   3.577
 6620SOL    HW120759   0.733   3.732   3.633
 6620SOL    HW220760   0.844   3.711   3.515
 6621SOL     OW20761   4.087   3.229   4.809
 6621SOL    HW120762   4.134   3.165   4.748
 6621SOL    HW220763   3.995   3.194   4.828
 6622SOL     OW20764   6.231   5.671   0.986
 6622SOL    HW120765   6.238   5.733   1.065
 6622SOL    HW220766   6.258   5.720   0.903
 6623SOL     OW20767   3.384   4.412   5.464
 6623SOL    HW120768   3.334   4.375   5.542
 6623SOL    HW220769   3.444   4.342   5.426
 6624SOL     OW20770   0.848   2.404   4.880
 6624SOL    HW120771   0.767   2.363   4.838
 6624SOL    HW220772   0.928   2.386   4.823
 6625SOL     OW20773   6.055   2.958   5.125
 6625SOL    HW120774   5.978   2.897   5.106
 6625SOL    HW220775   6.097   2.934   5.213
 6626SOL     OW20776   3.005   6.747   4.525
 6626SOL    HW120777   2.990   6.654   4.489
 6626SOL    HW220778   2.991   6.813   4.452
 6627SOL     OW20779   1.559   6.276   4.667
 6627SOL    HW120780   1.610   6.254   4.749
 6627SOL    HW220781   1.569   6.202   4.600
 6628SOL     OW20782   5.069   5.672   3.937
 6628SOL    HW120783   5.047   5.578   3.961
 6628SOL    HW220784   4.985   5.724   3.925
 6629SOL     OW20785   5.074   6.408   6.837
 6629SOL    HW120786   5.071   6.389   6.935
 6629SOL    HW220787   5.107   6.327   6.789
 6630SOL     OW20788   2.545   1.469   1.844
 6630SOL    HW120789   2.494   1.525   1.780
 6630SOL    HW220790   2.580   1.526   1.919
 6631SOL     OW20791   1.449   4.844   6.010
 6631SOL    HW120792   1.514   4.779   6.050
 6631SOL    HW220793   1.493   4.933   6.000
 6632SOL     OW20794   1.056   0.364   0.664
 6632SOL    HW120795   1.028   0.279   0.709
 6632SOL    HW220796   1.014   0.442   0.711
 6633SOL     OW20797   3.320   5.749   6.175
 6633SOL    HW120798   3.273   5.736   6.262
 6633SOL    HW220799   3.339   5.660   6.133
 6634SOL     OW20800   5.161   2.106   5.902
 6634SOL    HW120801   5.111   2.036   5.953
 6634SOL    HW220802   5.259   2.093   5.915
 6635SOL     OW20803   4.850   4.590   2.307
 6635SOL    HW120804   4.798   4.515   2.348
 6635SOL    HW220805   4.875   4.656   2.377
 6636SOL     OW20806   2.931   7.016   2.124
 6636SOL    HW120807   2.979   0.070   2.083
 6636SOL    HW220808   2.959   6.931   2.080
 6637SOL     OW20809   1.503   0.889   0.828
 6637SOL    HW120810   1.589   0.870   0.781
 6637SOL    HW220811   1.477   0.810   0.884
 6638SOL     OW20812   3.064   3.874   3.724
 6638SOL    HW120813   3.074   3.956   3.781
 6638SOL    HW220814   3.089   3.896   3.629
 6639SOL     OW20815   4.440   2.789   0.726
 6639SOL    HW120816   4.399   2.720   0.786
 6639SOL    HW220817   4.523   2.825   0.769
 6640SOL     OW20818   0.707   2.935   5.159
 6640SOL    HW120819   0.618   2.945   5.113
 6640SOL    HW220820   0.694   2.883   5.243
 6641SOL     OW20821   3.856   1.771   1.120
 6641SOL    HW120822   3.783   1.815   1.172
 6641SOL    HW220823   3.929   1.743   1.182
 6642SOL     OW20824   1.890   5.479   0.802
 6642SOL    HW120825   1.902   5.465   0.704
 6642SOL    HW220826   1.928   5.568   0.828
 6643SOL     OW20827   5.229   5.983   0.628
 6643SOL    HW120828   5.156   5.972   0.560
 6643SOL    HW220829   5.317   5.961   0.586
 6644SOL     OW20830   1.959   6.266   2.426
 6644SOL    HW120831   1.986   6.254   2.522
 6644SOL    HW220832   1.873   6.217   2.409
 6645SOL     OW20833   6.300   3.138   0.469
 6645SOL    HW120834   6.213   3.098   0.440
 6645SOL    HW220835   6.285   3.191   0.553
 6646SOL     OW20836   3.958   0.700   0.065
 6646SOL    HW120837   3.864   0.675   0.087
 6646SOL    HW220838   3.958   0.769   7.016
 6647SOL     OW20839   4.571   4.780   1.103
 6647SOL    HW120840   4.624   4.851   1.151
 6647SOL    HW220841   4.586   4.788   1.005
 6648SOL     OW20842   2.979   6.321   4.571
 6648SOL    HW120843   2.933   6.305   4.658
 6648SOL    HW220844   2.982   6.236   4.518
 6649SOL     OW20845   5.931   2.790   6.758
 6649SOL    HW120846   5.918   2.698   6.721
 6649SOL    HW220847   5.907   2.858   6.688
 6650SOL     OW20848   3.697   0.755   4.957
 6650SOL    HW120849   3.662   0.661   4.957
 6650SOL    HW220850   3.656   0.807   5.032
 6651SOL     OW20851   0.938   1.271   0.095
 6651SOL    HW120852   0.983   1.186   0.067
 6651SOL    HW220853   0.952   1.286   0.193
 6652SOL     OW20854   0.863   4.580   6.836
 6652SOL    HW120855   0.801   4.502   6.834
 6652SOL    HW220856   0.882   4.605   6.931
 6653SOL     OW20857   5.130   3.050   0.441
 6653SOL    HW120858   5.212   3.012   0.398
 6653SOL    HW220859   5.156   3.100   0.524
 6654SOL     OW20860   0.350   4.753   2.912
 6654SOL    HW120861   0.274   4.767   2.975
 6654SOL    HW220862   0.315   4.714   2.826
 6655SOL     OW20863   6.359   5.395   1.506
 6655SOL    HW120864   6.290   5.336   1.549
 6655SOL    HW220865   6.322   5.488   1.499
 6656SOL     OW20866   4.144   1.580   2.536
 6656SOL    HW120867   4.193   1.612   2.455
 6656SOL    HW220868   4.207   1.532   2.596
 6657SOL     OW20869   5.313   2.074   4.504
 6657SOL    HW120870   5.261   2.146   4.457
 6657SOL    HW220871   5.395   2.053   4.451
 6658SOL     OW20872   6.325   0.181   5.138
 6658SOL    HW120873   6.263   0.171   5.060
 6658SOL    HW220874   6.406   0.125   5.123
 6659SOL     OW20875   0.887   4.808   1.814
 6659SOL    HW120876   0.957   4.876   1.790
 6659SOL    HW220877   0.923   4.746   1.883
 6660SOL     OW20878   0.893   5.870   2.867
 6660SOL    HW120879   0.865   5.966   2.880
 6660SOL    HW220880   0.824   5.823   2.813
 6661SOL     OW20881   2.797   6.606   4.259
 6661SOL    HW120882   2.878   6.575   4.308
 6661SOL    HW220883   2.772   6.538   4.189
 6662SOL     OW20884   2.489   0.258   1.686
 6662SOL    HW120885   2.403   0.259   1.634
 6662SOL    HW220886   2.477   0.307   1.772
 6663SOL     OW20887   1.711   5.347   6.081
 6663SOL    HW120888   1.759   5.398   6.152
 6663SOL    HW220889   1.728   5.388   5.992
 6664SOL     OW20890   2.009   1.002   1.433
 6664SOL    HW120891   2.088   1.064   1.430
 6664SOL    HW220892   1.925   1.056   1.437
 6665SOL     OW20893   3.044   0.301   6.162
 6665SOL    HW120894   2.972   0.233   6.175
 6665SOL    HW220895   3.119   0.282   6.226
 6666SOL     OW20896   6.299   5.724   4.898
 6666SOL    HW120897   6.397   5.710   4.905
 6666SOL    HW220898   6.258   5.647   4.849
 6667SOL     OW20899   6.788   6.492   5.401
 6667SOL    HW120900   6.821   6.411   5.449
 6667SOL    HW220901   6.841   6.506   5.318
 6668SOL     OW20902   6.622   6.309   1.710
 6668SOL    HW120903   6.618   6.303   1.610
 6668SOL    HW220904   6.684   6.239   1.745
 6669SOL     OW20905   2.408   1.597   1.645
 6669SOL    HW120906   2.366   1.671   1.591
 6669SOL    HW220907   2.347   1.518   1.645
 6670SOL     OW20908   3.174   2.020   6.703
 6670SOL    HW120909   3.183   1.921   6.715
 6670SOL    HW220910   3.183   2.065   6.792
 6671SOL     OW20911   5.159   6.490   0.726
 6671SOL    HW120912   5.073   6.484   0.676
 6671SOL    HW220913   5.152   6.437   0.810
 6672SOL     OW20914   1.276   2.508   0.535
 6672SOL    HW120915   1.256   2.484   0.440
 6672SOL    HW220916   1.361   2.561   0.538
 6673SOL     OW20917   5.560   3.517   4.138
 6673SOL    HW120918   5.640   3.517   4.079
 6673SOL    HW220919   5.478   3.501   4.083
 6674SOL     OW20920   0.519   2.926   6.523
 6674SOL    HW120921   0.490   2.966   6.610
 6674SOL    HW220922   0.586   2.986   6.480
 6675SOL     OW20923   4.552   2.459   6.887
 6675SOL    HW120924   4.552   2.368   6.927
 6675SOL    HW220925   4.478   2.514   6.928
 6676SOL     OW20926   1.146   3.764   3.361
 6676SOL    HW120927   1.212   3.769   3.286
 6676SOL    HW220928   1.187   3.715   3.438
 6677SOL     OW20929   0.538   0.844   0.131
 6677SOL    HW120930   0.559   0.839   0.033
 6677SOL    HW220931   0.440   0.829   0.145
 6678SOL     OW20932   1.872   4.169   0.429
 6678SOL    HW120933   1.822   4.097   0.477
 6678SOL    HW220934   1.894   4.139   0.337
 6679SOL     OW20935   2.315   0.799   3.784
 6679SOL    HW120936   2.269   0.824   3.699
 6679SOL    HW220937   2.273   0.716   3.821
 6680SOL     OW20938   5.169   6.774   0.792
 6680SOL    HW120939   5.255   6.782   0.842
 6680SOL    HW220940   5.152   6.678   0.770
 6681SOL     OW20941   4.371   5.125   1.435
 6681SOL    HW120942   4.455   5.177   1.447
 6681SOL    HW220943   4.388   5.029   1.457
 6682SOL     OW20944   3.002   5.444   6.971
 6682SOL    HW120945   3.037   5.530   7.007
 6682SOL    HW220946   3.068   5.370   6.990
 6683SOL     OW20947   6.194   3.830   6.753
 6683SOL    HW120948   6.294   3.823   6.744
 6683SOL    HW220949   6.157   3.741   6.778
 6684SOL     OW20950   3.249   0.122   1.496
 6684SOL    HW120951   3.169   0.063   1.499
 6684SOL    HW220952   3.226   0.207   1.449
 6685SOL     OW20953   3.941   3.426   6.688
 6685SOL    HW120954   4.016   3.426   6.622
 6685SOL    HW220955   3.962   3.364   6.763
 6686SOL     OW20956   6.263   5.786   3.731
 6686SOL    HW120957   6.341   5.760   3.673
 6686SOL    HW220958   6.240   5.882   3.715
 6687SOL     OW20959   6.598   2.266   1.747
 6687SOL    HW120960   6.669   2.225   1.689
 6687SOL    HW220961   6.566   2.198   1.814
 6688SOL     OW20962   3.958   4.647   0.920
 6688SOL    HW120963   3.886   4.712   0.897
 6688SOL    HW220964   3.917   4.557   0.938
 6689SOL     OW20965   3.553   4.522   5.817
 6689SOL    HW120966   3.462   4.559   5.796
 6689SOL    HW220967   3.615   4.597   5.840
 6690SOL     OW20968   0.872   0.465   5.957
 6690SOL    HW120969   0.884   0.369   5.981
 6690SOL    HW220970   0.925   0.522   6.020
 6691SOL     OW20971   1.825   1.185   2.659
 6691SOL    HW120972   1.880   1.244   2.598
 6691SOL    HW220973   1.874   1.173   2.746
 6692SOL     OW20974   4.175   4.655   1.941
 6692SOL    HW120975   4.089   4.687   1.901
 6692SOL    HW220976   4.223   4.597   1.874
 6693SOL     OW20977   4.651   1.374   5.166
 6693SOL    HW120978   4.720   1.318   5.120
 6693SOL    HW220979   4.590   1.414   5.097
 6694SOL     OW20980   3.776   5.521   1.596
 6694SOL    HW120981   3.751   5.610   1.634
 6694SOL    HW220982   3.722   5.503   1.514
 6695SOL     OW20983   2.916   2.131   0.564
 6695SOL    HW120984   2.902   2.175   0.475
 6695SOL    HW220985   3.011   2.099   0.569
 6696SOL     OW20986   3.845   4.066   3.986
 6696SOL    HW120987   3.889   3.980   4.012
 6696SOL    HW220988   3.915   4.137   3.979
 6697SOL     OW20989   5.234   2.162   2.325
 6697SOL    HW120990   5.170   2.117   2.263
 6697SOL    HW220991   5.304   2.097   2.354
 6698SOL     OW20992   3.366   3.834   1.784
 6698SOL    HW120993   3.377   3.838   1.685
 6698SOL    HW220994   3.445   3.877   1.829
 6699SOL     OW20995   1.869   5.730   6.053
 6699SOL    HW120996   1.888   5.797   6.124
 6699SOL    HW220997   1.953   5.681   6.028
 6700SOL     OW20998   5.606   0.464   0.821
 6700SOL    HW120999   5.667   0.544   0.826
 6700SOL    HW221000   5.658   0.385   0.787
 6701SOL     OW21001   6.144   0.001   1.729
 6701SOL    HW121002   6.159   6.927   1.712
 6701SOL    HW221003   6.123   0.047   1.642
 6702SOL     OW21004   2.255   2.156   0.623
 6702SOL    HW121005   2.237   2.207   0.707
 6702SOL    HW221006   2.219   2.207   0.545
 6703SOL     OW21007   1.710   1.579   6.111
 6703SOL    HW121008   1.728   1.677   6.099
 6703SOL    HW221009   1.645   1.566   6.186
 6704SOL     OW21010   3.704   1.689   4.554
 6704SOL    HW121011   3.733   1.780   4.584
 6704SOL    HW221012   3.778   1.646   4.502
 6705SOL     OW21013   6.366   3.481   1.670
 6705SOL    HW121014   6.322   3.453   1.755
 6705SOL    HW221015   6.340   3.575   1.647
 6706SOL     OW21016   1.043   6.152   0.999
 6706SOL    HW121017   1.136   6.177   1.027
 6706SOL    HW221018   0.989   6.129   1.081
 6707SOL     OW21019   5.979   0.126   2.492
 6707SOL    HW121020   5.977   0.226   2.494
 6707SOL    HW221021   5.904   0.093   2.435
 6708SOL     OW21022   6.537   4.493   1.763
 6708SOL    HW121023   6.635   4.507   1.775
 6708SOL    HW221024   6.519   4.458   1.671
 6709SOL     OW21025   1.507   4.766   1.936
 6709SOL    HW121026   1.505   4.865   1.919
 6709SOL    HW221027   1.415   4.735   1.963
 6710SOL     OW21028   4.103   1.234   1.611
 6710SOL    HW121029   4.038   1.304   1.641
 6710SOL    HW221030   4.116   1.241   1.512
 6711SOL     OW21031   4.520   6.112   6.712
 6711SOL    HW121032   4.538   6.042   6.643
 6711SOL    HW221033   4.428   6.150   6.699
 6712SOL     OW21034   6.338   3.783   0.645
 6712SOL    HW121035   6.270   3.818   0.581
 6712SOL    HW221036   6.366   3.691   0.617
 6713SOL     OW21037   1.083   0.866   4.107
 6713SOL    HW121038   1.008   0.920   4.144
 6713SOL    HW221039   1.165   0.924   4.098
 6714SOL     OW21040   5.755   1.330   0.943
 6714SOL    HW121041   5.788   1.364   1.031
 6714SOL    HW221042   5.673   1.380   0.917
 6715SOL     OW21043   1.358   1.053   1.143
 6715SOL    HW121044   1.262   1.061   1.170
 6715SOL    HW221045   1.374   1.105   1.059
 6716SOL     OW21046   6.636   5.415   2.504
 6716SOL    HW121047   6.626   5.452   2.412
 6716SOL    HW221048   6.619   5.487   2.571
 6717SOL     OW21049   3.388   2.669   7.008
 6717SOL    HW121050   3.468   2.639   0.037
 6717SOL    HW221051   3.332   2.730   0.041
 6718SOL     OW21052   3.809   1.421   1.572
 6718SOL    HW121053   3.825   1.377   1.660
 6718SOL    HW221054   3.843   1.515   1.576
 6719SOL     OW21055   1.921   0.193   6.947
 6719SOL    HW121056   1.979   0.274   6.938
 6719SOL    HW221057   1.912   0.170   0.021
 6720SOL     OW21058   2.627   0.913   5.638
 6720SOL    HW121059   2.543   0.966   5.629
 6720SOL    HW221060   2.628   0.866   5.726
 6721SOL     OW21061   0.172   0.832   0.461
 6721SOL    HW121062   0.145   0.774   0.384
 6721SOL    HW221063   0.090   0.859   0.512
 6722SOL     OW21064   0.036   3.196   0.285
 6722SOL    HW121065   0.086   3.135   0.224
 6722SOL    HW221066   7.021   3.144   0.361
 6723SOL     OW21067   1.613   1.514   6.543
 6723SOL    HW121068   1.581   1.495   6.636
 6723SOL    HW221069   1.689   1.453   6.521
 6724SOL     OW21070   2.204   3.044   6.111
 6724SOL    HW121071   2.237   2.951   6.096
 6724SOL    HW221072   2.261   3.108   6.061
 6725SOL     OW21073   5.899   3.041   3.146
 6725SOL    HW121074   5.944   3.031   3.234
 6725SOL    HW221075   5.948   3.109   3.091
 6726SOL     OW21076   0.351   1.529   5.187
 6726SOL    HW121077   0.386   1.437   5.206
 6726SOL    HW221078   0.273   1.548   5.247
 6727SOL     OW21079   1.115   5.211   5.467
 6727SOL    HW121080   1.199   5.158   5.467
 6727SOL    HW221081   1.130   5.299   5.422
 6728SOL     OW21082   4.104   2.066   3.344
 6728SOL    HW121083   4.032   2.135   3.333
 6728SOL    HW221084   4.114   2.014   3.259
 6729SOL     OW21085   5.828   2.210   0.928
 6729SOL    HW121086   5.757   2.151   0.967
 6729SOL    HW221087   5.791   2.258   0.848
 6730SOL     OW21088   1.462   1.226   1.360
 6730SOL    HW121089   1.446   1.157   1.289
 6730SOL    HW221090   1.396   1.213   1.434
 6731SOL     OW21091   2.041   6.576   1.281
 6731SOL    HW121092   2.106   6.517   1.330
 6731SOL    HW221093   2.049   6.669   1.314
 6732SOL     OW21094   5.555   4.196   4.387
 6732SOL    HW121095   5.476   4.152   4.431
 6732SOL    HW221096   5.538   4.204   4.289
 6733SOL     OW21097   3.434   5.558   6.785
 6733SOL    HW121098   3.462   5.654   6.794
 6733SOL    HW221099   3.372   5.534   6.860
 6734SOL     OW21100   5.109   2.037   5.152
 6734SOL    HW121101   5.032   2.095   5.123
 6734SOL    HW221102   5.176   2.033   5.078
 6735SOL     OW21103   6.073   3.305   4.288
 6735SOL    HW121104   6.122   3.322   4.374
 6735SOL    HW221105   6.081   3.208   4.265
 6736SOL     OW21106   2.937   4.622   0.858
 6736SOL    HW121107   2.949   4.537   0.808
 6736SOL    HW221108   2.844   4.657   0.844
 6737SOL     OW21109   0.456   2.470   1.311
 6737SOL    HW121110   0.525   2.529   1.354
 6737SOL    HW221111   0.366   2.511   1.321
 6738SOL     OW21112   1.329   5.685   3.513
 6738SOL    HW121113   1.362   5.738   3.591
 6738SOL    HW221114   1.384   5.602   3.503
 6739SOL     OW21115   0.180   6.966   3.398
 6739SOL    HW121116   0.219   0.022   3.446
 6739SOL    HW221117   0.179   6.887   3.459
 6740SOL     OW21118   6.411   0.129   4.146
 6740SOL    HW121119   6.467   0.171   4.075
 6740SOL    HW221120   6.413   0.186   4.228
 6741SOL     OW21121   4.848   2.338   6.132
 6741SOL    HW121122   4.797   2.277   6.192
 6741SOL    HW221123   4.800   2.347   6.045
 6742SOL     OW21124   5.478   5.403   3.725
 6742SOL    HW121125   5.442   5.422   3.816
 6742SOL    HW221126   5.480   5.487   3.671
 6743SOL     OW21127   3.777   4.188   6.403
 6743SOL    HW121128   3.823   4.252   6.465
 6743SOL    HW221129   3.731   4.240   6.331
 6744SOL     OW21130   6.557   5.610   5.992
 6744SOL    HW121131   6.520   5.691   5.947
 6744SOL    HW221132   6.483   5.561   6.038
 6745SOL     OW21133   0.094   6.075   3.995
 6745SOL    HW121134   0.111   6.158   4.048
 6745SOL    HW221135   0.106   5.995   4.054
 6746SOL     OW21136   1.473   1.633   2.178
 6746SOL    HW121137   1.449   1.621   2.082
 6746SOL    HW221138   1.426   1.714   2.214
 6747SOL     OW21139   6.881   6.829   6.317
 6747SOL    HW121140   6.885   6.817   6.417
 6747SOL    HW221141   6.859   6.742   6.274
 6748SOL     OW21142   3.256   1.609   4.106
 6748SOL    HW121143   3.166   1.643   4.131
 6748SOL    HW221144   3.247   1.520   4.062
 6749SOL     OW21145   3.515   3.943   1.020
 6749SOL    HW121146   3.474   3.884   0.950
 6749SOL    HW221147   3.606   3.971   0.991
 6750SOL     OW21148   2.844   1.420   4.153
 6750SOL    HW121149   2.880   1.331   4.124
 6750SOL    HW221150   2.868   1.435   4.249
 6751SOL     OW21151   4.609   0.542   3.719
 6751SOL    HW121152   4.705   0.515   3.716
 6751SOL    HW221153   4.578   0.565   3.627
 6752SOL     OW21154   1.674   6.805   3.052
 6752SOL    HW121155   1.657   6.726   3.110
 6752SOL    HW221156   1.650   6.889   3.101
 6753SOL     OW21157   3.636   2.365   5.640
 6753SOL    HW121158   3.582   2.291   5.601
 6753SOL    HW221159   3.616   2.374   5.737
 6754SOL     OW21160   5.939   0.674   1.060
 6754SOL    HW121161   5.873   0.696   0.988
 6754SOL    HW221162   5.949   0.754   1.120
 6755SOL     OW21163   3.145   4.934   1.333
 6755SOL    HW121164   3.174   4.898   1.421
 6755SOL    HW221165   3.126   5.032   1.341
 6756SOL     OW21166   2.982   0.842   5.842
 6756SOL    HW121167   3.037   0.762   5.820
 6756SOL    HW221168   2.981   0.857   5.941
 6757SOL     OW21169   3.508   1.547   1.512
 6757SOL    HW121170   3.516   1.647   1.514
 6757SOL    HW221171   3.527   1.510   1.603
 6758SOL     OW21172   5.402   3.277   1.387
 6758SOL    HW121173   5.361   3.326   1.311
 6758SOL    HW221174   5.335   3.270   1.462
 6759SOL     OW21175   6.786   2.991   2.961
 6759SOL    HW121176   6.710   2.986   3.026
 6759SOL    HW221177   6.780   3.076   2.909
 6760SOL     OW21178   5.963   3.536   2.582
 6760SOL    HW121179   5.925   3.485   2.658
 6760SOL    HW221180   6.037   3.595   2.615
 6761SOL     OW21181   4.874   2.556   4.614
 6761SOL    HW121182   4.778   2.560   4.641
 6761SOL    HW221183   4.906   2.648   4.591
 6762SOL     OW21184   0.614   4.439   4.358
 6762SOL    HW121185   0.625   4.450   4.457
 6762SOL    HW221186   0.672   4.505   4.311
 6763SOL     OW21187   5.231   5.722   5.247
 6763SOL    HW121188   5.256   5.817   5.232
 6763SOL    HW221189   5.274   5.664   5.178
 6764SOL     OW21190   1.667   5.755   2.246
 6764SOL    HW121191   1.592   5.807   2.204
 6764SOL    HW221192   1.690   5.794   2.335
 6765SOL     OW21193   6.572   4.417   3.785
 6765SOL    HW121194   6.625   4.494   3.749
 6765SOL    HW221195   6.537   4.440   3.876
 6766SOL     OW21196   4.716   6.201   6.913
 6766SOL    HW121197   4.703   6.296   6.943
 6766SOL    HW221198   4.675   6.189   6.823
 6767SOL     OW21199   2.900   0.470   0.485
 6767SOL    HW121200   2.812   0.424   0.474
 6767SOL    HW221201   2.949   0.429   0.563
 6768SOL     OW21202   2.172   0.625   5.438
 6768SOL    HW121203   2.264   0.662   5.440
 6768SOL    HW221204   2.115   0.679   5.375
 6769SOL     OW21205   3.362   2.358   0.407
 6769SOL    HW121206   3.445   2.394   0.450
 6769SOL    HW221207   3.350   2.262   0.433
 6770SOL     OW21208   6.964   0.302   1.750
 6770SOL    HW121209   0.032   0.343   1.763
 6770SOL    HW221210   6.918   0.294   1.838
 6771SOL     OW21211   4.539   2.554   3.372
 6771SOL    HW121212   4.446   2.520   3.360
 6771SOL    HW221213   4.555   2.628   3.306
 6772SOL     OW21214   2.934   1.175   3.060
 6772SOL    HW121215   2.934   1.205   2.964
 6772SOL    HW221216   3.017   1.206   3.105
 6773SOL     OW21217   6.754   5.004   1.612
 6773SOL    HW121218   6.655   5.009   1.598
 6773SOL    HW221219   6.786   4.912   1.586
 6774SOL     OW21220   0.660   2.822   6.092
 6774SOL    HW121221   0.723   2.785   6.160
 6774SOL    HW221222   0.697   2.907   6.055
 6775SOL     OW21223   2.486   3.242   1.684
 6775SOL    HW121224   2.561   3.189   1.725
 6775SOL    HW221225   2.445   3.301   1.754
 6776SOL     OW21226   4.430   4.632   6.909
 6776SOL    HW121227   4.443   4.597   7.002
 6776SOL    HW221228   4.471   4.568   6.843
 6777SOL     OW21229   3.942   3.873   6.779
 6777SOL    HW121230   3.877   3.821   6.723
 6777SOL    HW221231   3.945   3.967   6.747
 6778SOL     OW21232   0.201   4.148   1.998
 6778SOL    HW121233   0.174   4.123   2.091
 6778SOL    HW221234   0.265   4.079   1.962
 6779SOL     OW21235   6.493   4.313   6.204
 6779SOL    HW121236   6.479   4.248   6.130
 6779SOL    HW221237   6.591   4.327   6.220
 6780SOL     OW21238   0.755   1.810   2.860
 6780SOL    HW121239   0.676   1.860   2.825
 6780SOL    HW221240   0.832   1.821   2.797
 6781SOL     OW21241   5.595   0.023   4.620
 6781SOL    HW121242   5.677   0.015   4.677
 6781SOL    HW221243   5.578   0.120   4.602
 6782SOL     OW21244   0.248   0.340   3.221
 6782SOL    HW121245   0.342   0.307   3.229
 6782SOL    HW221246   0.239   0.395   3.138
 6783SOL     OW21247   6.872   0.177   6.527
 6783SOL    HW121248   6.778   0.156   6.499
 6783SOL    HW221249   6.894   0.271   6.504
 6784SOL     OW21250   3.383   3.928   0.563
 6784SOL    HW121251   3.329   3.993   0.510
 6784SOL    HW221252   3.463   3.900   0.509
 6785SOL     OW21253   5.124   4.453   2.913
 6785SOL    HW121254   5.078   4.391   2.976
 6785SOL    HW221255   5.188   4.400   2.856
 6786SOL     OW21256   0.655   1.835   6.483
 6786SOL    HW121257   0.633   1.849   6.579
 6786SOL    HW221258   0.661   1.923   6.436
 6787SOL     OW21259   1.494   2.858   0.572
 6787SOL    HW121260   1.431   2.914   0.625
 6787SOL    HW221261   1.445   2.814   0.497
 6788SOL     OW21262   2.519   3.769   1.685
 6788SOL    HW121263   2.619   3.779   1.680
 6788SOL    HW221264   2.495   3.673   1.673
 6789SOL     OW21265   0.221   6.850   2.697
 6789SOL    HW121266   0.202   6.763   2.741
 6789SOL    HW221267   0.249   6.917   2.766
 6790SOL     OW21268   1.183   4.207   0.980
 6790SOL    HW121269   1.191   4.129   0.919
 6790SOL    HW221270   1.134   4.179   1.063
 6791SOL     OW21271   3.898   2.398   1.184
 6791SOL    HW121272   3.815   2.449   1.161
 6791SOL    HW221273   3.885   2.350   1.271
 6792SOL     OW21274   6.828   6.075   6.170
 6792SOL    HW121275   6.922   6.052   6.195
 6792SOL    HW221276   6.804   6.031   6.084
 6793SOL     OW21277   0.938   2.280   0.408
 6793SOL    HW121278   0.961   2.340   0.485
 6793SOL    HW221279   0.956   2.328   0.322
 6794SOL     OW21280   5.478   1.378   5.153
 6794SOL    HW121281   5.538   1.452   5.122
 6794SOL    HW221282   5.516   1.337   5.236
 6795SOL     OW21283   2.213   6.002   0.876
 6795SOL    HW121284   2.225   6.068   0.950
 6795SOL    HW221285   2.301   5.960   0.853
 6796SOL     OW21286   6.012   0.610   2.835
 6796SOL    HW121287   5.932   0.552   2.846
 6796SOL    HW221288   6.057   0.623   2.924
 6797SOL     OW21289   5.047   3.264   1.479
 6797SOL    HW121290   5.132   3.246   1.528
 6797SOL    HW221291   5.011   3.179   1.441
 6798SOL     OW21292   5.581   6.099   2.981
 6798SOL    HW121293   5.645   6.083   2.906
 6798SOL    HW221294   5.620   6.067   3.067
 6799SOL     OW21295   6.530   5.806   0.015
 6799SOL    HW121296   6.480   5.774   6.958
 6799SOL    HW221297   6.617   5.757   0.023
 6800SOL     OW21298   2.328   4.529   0.990
 6800SOL    HW121299   2.346   4.458   1.058
 6800SOL    HW221300   2.307   4.615   1.036
 6801SOL     OW21301   1.547   1.391   2.383
 6801SOL    HW121302   1.554   1.465   2.316
 6801SOL    HW221303   1.451   1.365   2.392
 6802SOL     OW21304   2.844   5.834   0.466
 6802SOL    HW121305   2.872   5.867   0.556
 6802SOL    HW221306   2.924   5.802   0.415
 6803SOL     OW21307   4.400   2.576   6.654
 6803SOL    HW121308   4.308   2.537   6.658
 6803SOL    HW221309   4.452   2.548   6.735
 6804SOL     OW21310   2.637   5.089   3.689
 6804SOL    HW121311   2.706   5.079   3.760
 6804SOL    HW221312   2.546   5.085   3.730
 6805SOL     OW21313   5.730   5.698   4.746
 6805SOL    HW121314   5.736   5.688   4.647
 6805SOL    HW221315   5.685   5.785   4.767
 6806SOL     OW21316   5.388   1.256   3.867
 6806SOL    HW121317   5.421   1.233   3.775
 6806SOL    HW221318   5.316   1.192   3.893
 6807SOL     OW21319   2.744   3.020   1.189
 6807SOL    HW121320   2.785   3.008   1.280
 6807SOL    HW221321   2.803   3.080   1.135
 6808SOL     OW21322   0.265   2.471   5.286
 6808SOL    HW121323   0.335   2.401   5.287
 6808SOL    HW221324   0.301   2.554   5.244
 6809SOL     OW21325   1.912   3.707   1.036
 6809SOL    HW121326   1.986   3.746   1.092
 6809SOL    HW221327   1.830   3.696   1.093
 6810SOL     OW21328   1.508   0.004   1.823
 6810SOL    HW121329   1.593   6.981   1.800
 6810SOL    HW221330   1.507   0.095   1.780
 6811SOL     OW21331   4.755   3.845   7.008
 6811SOL    HW121332   4.699   3.921   6.976
 6811SOL    HW221333   4.719   3.809   0.071
 6812SOL     OW21334   3.604   3.468   3.213
 6812SOL    HW121335   3.524   3.426   3.171
 6812SOL    HW221336   3.601   3.453   3.312
 6813SOL     OW21337   4.797   1.828   2.137
 6813SOL    HW121338   4.730   1.868   2.200
 6813SOL    HW221339   4.843   1.752   2.181
 6814SOL     OW21340   3.082   3.279   0.764
 6814SOL    HW121341   2.991   3.283   0.724
 6814SOL    HW221342   3.117   3.185   0.760
 6815SOL     OW21343   2.874   0.580   1.071
 6815SOL    HW121344   2.934   0.649   1.031
 6815SOL    HW221345   2.791   0.625   1.105
 6816SOL     OW21346   0.047   5.971   6.599
 6816SOL    HW121347   0.137   5.994   6.562
 6816SOL    HW221348   7.011   6.052   6.596
 6817SOL     OW21349   7.016   2.006   5.279
 6817SOL    HW121350   0.033   2.097   5.277
 6817SOL    HW221351   0.003   1.963   5.189
 6818SOL     OW21352   2.320   5.790   1.537
 6818SOL    HW121353   2.344   5.693   1.543
 6818SOL    HW221354   2.350   5.837   1.620
 6819SOL     OW21355   4.365   1.435   4.213
 6819SOL    HW121356   4.449   1.444   4.268
 6819SOL    HW221357   4.328   1.526   4.195
 6820SOL     OW21358   1.229   5.305   3.092
 6820SOL    HW121359   1.156   5.365   3.125
 6820SOL    HW221360   1.200   5.261   3.007
 6821SOL     OW21361   2.824   1.598   5.555
 6821SOL    HW121362   2.915   1.579   5.518
 6821SOL    HW221363   2.825   1.586   5.654
 6822SOL     OW21364   5.886   1.990   5.976
 6822SOL    HW121365   5.895   1.896   6.009
 6822SOL    HW221366   5.799   2.000   5.927
 6823SOL     OW21367   4.068   3.298   4.079
 6823SOL    HW121368   4.063   3.385   4.127
 6823SOL    HW221369   4.001   3.235   4.118
 6824SOL     OW21370   0.914   3.168   6.319
 6824SOL    HW121371   0.889   3.216   6.404
 6824SOL    HW221372   0.861   3.084   6.312
 6825SOL     OW21373   5.486   6.673   2.441
 6825SOL    HW121374   5.470   6.750   2.379
 6825SOL    HW221375   5.438   6.592   2.407
 6826SOL     OW21376   2.248   4.129   2.762
 6826SOL    HW121377   2.242   4.039   2.719
 6826SOL    HW221378   2.314   4.186   2.712
 6827SOL     OW21379   4.756   5.937   0.450
 6827SOL    HW121380   4.714   5.925   0.360
 6827SOL    HW221381   4.685   5.955   0.518
 6828SOL     OW21382   2.429   1.622   1.188
 6828SOL    HW121383   2.433   1.522   1.187
 6828SOL    HW221384   2.350   1.651   1.242
 6829SOL     OW21385   4.731   6.961   4.523
 6829SOL    HW121386   4.809   6.902   4.501
 6829SOL    HW221387   4.764   0.028   4.553
 6830SOL     OW21388   5.765   1.311   3.607
 6830SOL    HW121389   5.730   1.219   3.592
 6830SOL    HW221390   5.827   1.311   3.685
 6831SOL     OW21391   1.064   0.126   5.671
 6831SOL    HW121392   0.976   0.098   5.709
 6831SOL    HW221393   1.099   0.053   5.611
 6832SOL     OW21394   2.963   4.449   1.362
 6832SOL    HW121395   2.874   4.407   1.346
 6832SOL    HW221396   3.035   4.379   1.356
 6833SOL     OW21397   4.333   4.879   6.992
 6833SOL    HW121398   4.354   4.784   6.970
 6833SOL    HW221399   4.234   4.889   7.005
 6834SOL     OW21400   5.184   6.911   1.447
 6834SOL    HW121401   5.109   6.973   1.472
 6834SOL    HW221402   5.149   6.818   1.440
 6835SOL     OW21403   4.459   6.987   5.205
 6835SOL    HW121404   4.361   6.973   5.193
 6835SOL    HW221405   4.475   0.008   5.294
 6836SOL     OW21406   3.253   5.761   0.401
 6836SOL    HW121407   3.177   5.712   0.359
 6836SOL    HW221408   3.234   5.775   0.498
 6837SOL     OW21409   1.148   2.530   2.387
 6837SOL    HW121410   1.207   2.494   2.315
 6837SOL    HW221411   1.128   2.626   2.369
 6838SOL     OW21412   1.784   6.587   0.921
 6838SOL    HW121413   1.854   6.603   0.852
 6838SOL    HW221414   1.785   6.661   0.988
 6839SOL     OW21415   4.748   1.052   0.076
 6839SOL    HW121416   4.813   0.986   0.038
 6839SOL    HW221417   4.726   1.121   0.008
 6840SOL     OW21418   2.350   1.850   5.168
 6840SOL    HW121419   2.398   1.888   5.088
 6840SOL    HW221420   2.408   1.781   5.211
 6841SOL     OW21421   5.100   3.729   6.548
 6841SOL    HW121422   5.067   3.694   6.636
 6841SOL    HW221423   5.081   3.661   6.476
 6842SOL     OW21424   2.600   4.601   1.213
 6842SOL    HW121425   2.540   4.545   1.271
 6842SOL    HW221426   2.675   4.544   1.178
 6843SOL     OW21427   5.645   6.730   6.788
 6843SOL    HW121428   5.585   6.746   6.710
 6843SOL    HW221429   5.592   6.729   6.873
 6844SOL     OW21430   5.491   1.031   4.538
 6844SOL    HW121431   5.392   1.030   4.522
 6844SOL    HW221432   5.530   0.942   4.513
 6845SOL     OW21433   6.038   3.168   2.965
 6845SOL    HW121434   5.961   3.218   2.926
 6845SOL    HW221435   6.105   3.148   2.893
 6846SOL     OW21436   3.002   4.706   6.730
 6846SOL    HW121437   2.947   4.766   6.671
 6846SOL    HW221438   3.071   4.660   6.675
 6847SOL     OW21439   0.006   3.474   4.959
 6847SOL    HW121440   6.982   3.387   4.971
 6847SOL    HW221441   0.086   3.478   5.019
 6848SOL     OW21442   5.272   4.197   3.957
 6848SOL    HW121443   5.312   4.126   4.015
 6848SOL    HW221444   5.213   4.256   4.013
 6849SOL     OW21445   3.537   4.236   5.915
 6849SOL    HW121446   3.515   4.324   5.874
 6849SOL    HW221447   3.453   4.189   5.941
 6850SOL     OW21448   4.504   2.343   3.034
 6850SOL    HW121449   4.509   2.305   2.942
 6850SOL    HW221450   4.444   2.287   3.090
 6851SOL     OW21451   1.310   2.765   2.643
 6851SOL    HW121452   1.232   2.792   2.588
 6851SOL    HW221453   1.300   2.669   2.670
 6852SOL     OW21454   2.738   5.621   1.309
 6852SOL    HW121455   2.825   5.611   1.262
 6852SOL    HW221456   2.670   5.660   1.247
 6853SOL     OW21457   5.179   3.746   6.201
 6853SOL    HW121458   5.164   3.689   6.282
 6853SOL    HW221459   5.165   3.842   6.226
 6854SOL     OW21460   5.807   6.965   5.844
 6854SOL    HW121461   5.882   6.899   5.850
 6854SOL    HW221462   5.725   6.920   5.809
 6855SOL     OW21463   4.575   5.810   3.543
 6855SOL    HW121464   4.640   5.872   3.587
 6855SOL    HW221465   4.575   5.826   3.444
 6856SOL     OW21466   0.335   2.349   5.764
 6856SOL    HW121467   0.365   2.256   5.785
 6856SOL    HW221468   0.352   2.369   5.667
 6857SOL     OW21469   0.891   3.346   6.899
 6857SOL    HW121470   0.924   3.437   6.925
 6857SOL    HW221471   0.951   3.308   6.829
 6858SOL     OW21472   3.443   4.521   1.655
 6858SOL    HW121473   3.384   4.601   1.665
 6858SOL    HW221474   3.532   4.539   1.697
 6859SOL     OW21475   0.998   1.020   2.115
 6859SOL    HW121476   1.082   0.968   2.110
 6859SOL    HW221477   1.018   1.118   2.107
 6860SOL     OW21478   6.820   4.679   1.810
 6860SOL    HW121479   6.822   4.634   1.900
 6860SOL    HW221480   6.911   4.714   1.788
 6861SOL     OW21481   4.642   3.506   5.936
 6861SOL    HW121482   4.632   3.605   5.947
 6861SOL    HW221483   4.728   3.486   5.890
 6862SOL     OW21484   0.881   5.270   5.601
 6862SOL    HW121485   0.869   5.229   5.692
 6862SOL    HW221486   0.959   5.228   5.556
 6863SOL     OW21487   6.869   5.980   5.335
 6863SOL    HW121488   6.956   5.977   5.285
 6863SOL    HW221489   6.845   5.887   5.364
 6864SOL     OW21490   1.986   4.483   5.783
 6864SOL    HW121491   2.038   4.490   5.697
 6864SOL    HW221492   1.937   4.568   5.799
 6865SOL     OW21493   1.665   0.331   5.549
 6865SOL    HW121494   1.721   0.413   5.560
 6865SOL    HW221495   1.612   0.315   5.632
 6866SOL     OW21496   6.178   4.760   2.410
 6866SOL    HW121497   6.267   4.752   2.365
 6866SOL    HW221498   6.163   4.680   2.468
 6867SOL     OW21499   1.868   3.983   1.422
 6867SOL    HW121500   1.968   3.983   1.421
 6867SOL    HW221501   1.836   3.997   1.515
 6868SOL     OW21502   2.183   6.115   5.538
 6868SOL    HW121503   2.248   6.157   5.476
 6868SOL    HW221504   2.101   6.172   5.544
 6869SOL     OW21505   4.416   0.299   5.908
 6869SOL    HW121506   4.339   0.350   5.870
 6869SOL    HW221507   4.381   0.232   5.974
 6870SOL     OW21508   0.589   3.646   0.442
 6870SOL    HW121509   0.521   3.716   0.418
 6870SOL    HW221510   0.605   3.648   0.541
 6871SOL     OW21511   0.145   3.832   2.694
 6871SOL    HW121512   0.165   3.799   2.602
 6871SOL    HW221513   0.211   3.903   2.719
 6872SOL     OW21514   0.911   2.484   2.226
 6872SOL    HW121515   0.846   2.490   2.150
 6872SOL    HW221516   0.970   2.564   2.225
 6873SOL     OW21517   1.026   3.891   3.697
 6873SOL    HW121518   0.939   3.860   3.658
 6873SOL    HW221519   1.100   3.830   3.666
 6874SOL     OW21520   6.380   6.012   3.483
 6874SOL    HW121521   6.321   6.031   3.405
 6874SOL    HW221522   6.371   6.086   3.550
 6875SOL     OW21523   2.149   2.084   1.966
 6875SOL    HW121524   2.070   2.082   1.906
 6875SOL    HW221525   2.231   2.057   1.915
 6876SOL     OW21526   3.130   0.297   3.619
 6876SOL    HW121527   3.223   0.287   3.585
 6876SOL    HW221528   3.128   0.277   3.717
 6877SOL     OW21529   3.125   4.245   1.391
 6877SOL    HW121530   3.039   4.202   1.417
 6877SOL    HW221531   3.185   4.251   1.471
 6878SOL     OW21532   2.406   1.603   3.975
 6878SOL    HW121533   2.505   1.609   3.964
 6878SOL    HW221534   2.370   1.692   4.001
 6879SOL     OW21535   2.256   2.425   0.057
 6879SOL    HW121536   2.272   2.462   6.988
 6879SOL    HW221537   2.234   2.499   0.120
 6880SOL     OW21538   1.151   6.052   6.458
 6880SOL    HW121539   1.119   5.989   6.529
 6880SOL    HW221540   1.185   6.000   6.380
 6881SOL     OW21541   1.497   3.635   1.453
 6881SOL    HW121542   1.533   3.649   1.361
 6881SOL    HW221543   1.478   3.538   1.466
 6882SOL     OW21544   2.985   1.316   0.420
 6882SOL    HW121545   3.034   1.311   0.507
 6882SOL    HW221546   2.945   1.408   0.410
 6883SOL     OW21547   5.213   0.531   5.933
 6883SOL    HW121548   5.225   0.623   5.895
 6883SOL    HW221549   5.226   0.463   5.860
 6884SOL     OW21550   1.618   4.182   3.114
 6884SOL    HW121551   1.686   4.249   3.084
 6884SOL    HW221552   1.548   4.172   3.043
 6885SOL     OW21553   4.839   5.161   4.231
 6885SOL    HW121554   4.748   5.124   4.246
 6885SOL    HW221555   4.895   5.148   4.313
 6886SOL     OW21556   6.452   1.230   5.238
 6886SOL    HW121557   6.483   1.295   5.168
 6886SOL    HW221558   6.472   1.267   5.329
 6887SOL     OW21559   4.561   5.884   0.177
 6887SOL    HW121560   4.592   5.979   0.177
 6887SOL    HW221561   4.550   5.852   0.083
 6888SOL     OW21562   5.182   4.458   5.996
 6888SOL    HW121563   5.149   4.524   6.064
 6888SOL    HW221564   5.279   4.472   5.980
 6889SOL     OW21565   1.750   2.558   5.943
 6889SOL    HW121566   1.815   2.605   5.884
 6889SOL    HW221567   1.680   2.622   5.973
 6890SOL     OW21568   3.825   5.806   2.828
 6890SOL    HW121569   3.733   5.842   2.840
 6890SOL    HW221570   3.827   5.748   2.746
 6891SOL     OW21571   2.637   2.774   1.125
 6891SOL    HW121572   2.642   2.787   1.026
 6891SOL    HW221573   2.682   2.850   1.172
 6892SOL     OW21574   3.532   1.313   3.825
 6892SOL    HW121575   3.524   1.413   3.824
 6892SOL    HW221576   3.496   1.277   3.739
 6893SOL     OW21577   6.095   3.439   0.362
 6893SOL    HW121578   6.192   3.451   0.340
 6893SOL    HW221579   6.086   3.405   0.455
 6894SOL     OW21580   5.447   4.138   1.257
 6894SOL    HW121581   5.406   4.057   1.299
 6894SOL    HW221582   5.441   4.215   1.321
 6895SOL     OW21583   1.762   6.028   0.820
 6895SOL    HW121584   1.849   6.077   0.831
 6895SOL    HW221585   1.697   6.085   0.771
 6896SOL     OW21586   3.219   1.567   3.566
 6896SOL    HW121587   3.171   1.519   3.640
 6896SOL    HW221588   3.294   1.620   3.604
 6897SOL     OW21589   4.848   3.903   5.137
 6897SOL    HW121590   4.912   3.860   5.073
 6897SOL    HW221591   4.899   3.961   5.201
 6898SOL     OW21592   3.266   1.089   1.598
 6898SOL    HW121593   3.346   1.040   1.564
 6898SOL    HW221594   3.289   1.186   1.610
 6899SOL     OW21595   5.041   6.393   2.945
 6899SOL    HW121596   4.984   6.452   3.003
 6899SOL    HW221597   5.099   6.450   2.887
 6900SOL     OW21598   6.919   5.093   6.137
 6900SOL    HW121599   6.915   5.187   6.101
 6900SOL    HW221600   6.826   5.057   6.144
 6901SOL     OW21601   4.604   5.358   6.854
 6901SOL    HW121602   4.593   5.269   6.897
 6901SOL    HW221603   4.530   5.373   6.788
 6902SOL     OW21604   6.856   6.220   5.507
 6902SOL    HW121605   6.882   6.159   5.431
 6902SOL    HW221606   6.866   6.171   5.594
 6903SOL     OW21607   3.108   5.115   5.244
 6903SOL    HW121608   3.038   5.181   5.272
 6903SOL    HW221609   3.077   5.023   5.265
 6904SOL     OW21610   6.897   6.482   5.135
 6904SOL    HW121611   6.819   6.514   5.082
 6904SOL    HW221612   6.982   6.510   5.090
 6905SOL     OW21613   5.842   5.471   7.001
 6905SOL    HW121614   5.879   5.392   0.028
 6905SOL    HW221615   5.914   5.539   6.988
 6906SOL     OW21616   3.082   1.731   3.379
 6906SOL    HW121617   3.126   1.677   3.450
 6906SOL    HW221618   3.009   1.677   3.337
 6907SOL     OW21619   6.243   2.271   1.480
 6907SOL    HW121620   6.245   2.189   1.537
 6907SOL    HW221621   6.173   2.260   1.409
 6908SOL     OW21622   2.228   4.626   6.911
 6908SOL    HW121623   2.157   4.696   6.913
 6908SOL    HW221624   2.292   4.646   6.837
 6909SOL     OW21625   4.921   5.191   2.050
 6909SOL    HW121626   4.949   5.152   1.962
 6909SOL    HW221627   4.960   5.138   2.125
 6910SOL     OW21628   1.557   2.874   3.037
 6910SOL    HW121629   1.619   2.886   2.959
 6910SOL    HW221630   1.498   2.954   3.045
 6911SOL     OW21631   3.911   0.122   5.030
 6911SOL    HW121632   3.852   0.184   4.978
 6911SOL    HW221633   3.957   0.059   4.967
 6912SOL     OW21634   2.563   3.110   6.214
 6912SOL    HW121635   2.656   3.079   6.197
 6912SOL    HW221636   2.538   3.181   6.147
 6913SOL     OW21637   5.276   6.079   4.832
 6913SOL    HW121638   5.344   6.111   4.898
 6913SOL    HW221639   5.186   6.116   4.857
 6914SOL     OW21640   5.845   4.083   2.289
 6914SOL    HW121641   5.783   4.005   2.301
 6914SOL    HW221642   5.935   4.060   2.325
 6915SOL     OW21643   1.224   2.670   1.983
 6915SOL    HW121644   1.187   2.658   2.075
 6915SOL    HW221645   1.175   2.744   1.937
 6916SOL     OW21646   5.322   1.270   5.518
 6916SOL    HW121647   5.270   1.222   5.448
 6916SOL    HW221648   5.363   1.204   5.580
 6917SOL     OW21649   4.635   5.766   2.101
 6917SOL    HW121650   4.689   5.697   2.052
 6917SOL    HW221651   4.565   5.804   2.040
 6918SOL     OW21652   0.419   2.837   2.740
 6918SOL    HW121653   0.334   2.888   2.756
 6918SOL    HW221654   0.492   2.902   2.717
 6919SOL     OW21655   6.408   6.182   3.142
 6919SOL    HW121656   6.489   6.152   3.193
 6919SOL    HW221657   6.326   6.153   3.190
 6920SOL     OW21658   5.374   6.588   5.672
 6920SOL    HW121659   5.473   6.598   5.663
 6920SOL    HW221660   5.329   6.642   5.600
 6921SOL     OW21661   4.113   0.342   4.199
 6921SOL    HW121662   4.180   0.390   4.255
 6921SOL    HW221663   4.072   0.267   4.252
 6922SOL     OW21664   1.828   6.236   4.911
 6922SOL    HW121665   1.732   6.206   4.910
 6922SOL    HW221666   1.887   6.156   4.919
 6923SOL     OW21667   5.918   6.505   2.532
 6923SOL    HW121668   6.013   6.481   2.513
 6923SOL    HW221669   5.914   6.581   2.597
 6924SOL     OW21670   2.973   5.557   1.126
 6924SOL    HW121671   3.066   5.571   1.092
 6924SOL    HW221672   2.932   5.480   1.077
 6925SOL     OW21673   4.790   6.106   6.061
 6925SOL    HW121674   4.736   6.117   5.977
 6925SOL    HW221675   4.877   6.153   6.051
 6926SOL     OW21676   2.239   2.153   0.276
 6926SOL    HW121677   2.208   2.060   0.298
 6926SOL    HW221678   2.186   2.189   0.200
 6927SOL     OW21679   3.865   1.068   0.235
 6927SOL    HW121680   3.901   1.076   0.328
 6927SOL    HW221681   3.825   0.978   0.222
 6928SOL     OW21682   4.938   5.622   1.326
 6928SOL    HW121683   5.033   5.602   1.303
 6928SOL    HW221684   4.935   5.672   1.412
 6929SOL     OW21685   5.383   5.741   1.617
 6929SOL    HW121686   5.424   5.813   1.673
 6929SOL    HW221687   5.316   5.781   1.555
 6930SOL     OW21688   0.713   1.015   0.263
 6930SOL    HW121689   0.650   1.012   0.340
 6930SOL    HW221690   0.684   0.948   0.194
 6931SOL     OW21691   1.835   2.381   0.771
 6931SOL    HW121692   1.808   2.301   0.825
 6931SOL    HW221693   1.872   2.351   0.683
 6932SOL     OW21694   4.666   5.049   1.035
 6932SOL    HW121695   4.732   5.116   0.999
 6932SOL    HW221696   4.628   4.996   0.959
 6933SOL     OW21697   3.693   6.729   6.497
 6933SOL    HW121698   3.778   6.772   6.466
 6933SOL    HW221699   3.615   6.776   6.455
 6934SOL     OW21700   4.824   3.491   6.222
 6934SOL    HW121701   4.742   3.502   6.279
 6934SOL    HW221702   4.844   3.578   6.177
 6935SOL     OW21703   4.683   5.503   2.884
 6935SOL    HW121704   4.768   5.538   2.846
 6935SOL    HW221705   4.661   5.415   2.842
 6936SOL     OW21706   0.213   2.287   4.029
 6936SOL    HW121707   0.179   2.233   3.951
 6936SOL    HW221708   0.306   2.258   4.051
 6937SOL     OW21709   5.541   6.052   0.771
 6937SOL    HW121710   5.628   6.040   0.818
 6937SOL    HW221711   5.466   6.028   0.833
 6938SOL     OW21712   0.631   1.455   4.539
 6938SOL    HW121713   0.691   1.506   4.479
 6938SOL    HW221714   0.540   1.496   4.539
 6939SOL     OW21715   6.496   5.412   3.172
 6939SOL    HW121716   6.575   5.351   3.165
 6939SOL    HW221717   6.426   5.370   3.229
 6940SOL     OW21718   4.663   6.701   0.462
 6940SOL    HW121719   4.585   6.760   0.484
 6940SOL    HW221720   4.707   6.735   0.379
 6941SOL     OW21721   2.971   3.522   2.392
 6941SOL    HW121722   2.928   3.465   2.462
 6941SOL    HW221723   3.069   3.531   2.412
 6942SOL     OW21724   6.203   6.732   1.680
 6942SOL    HW121725   6.245   6.648   1.646
 6942SOL    HW221726   6.104   6.724   1.677
 6943SOL     OW21727   4.494   4.683   0.609
 6943SOL    HW121728   4.552   4.704   0.531
 6943SOL    HW221729   4.410   4.737   0.604
 6944SOL     OW21730   1.112   4.825   6.193
 6944SOL    HW121731   1.045   4.891   6.229
 6944SOL    HW221732   1.133   4.848   6.098
 6945SOL     OW21733   6.582   2.487   0.518
 6945SOL    HW121734   6.582   2.404   0.575
 6945SOL    HW221735   6.667   2.538   0.533
 6946SOL     OW21736   3.825   6.087   1.882
 6946SOL    HW121737   3.871   6.009   1.923
 6946SOL    HW221738   3.728   6.084   1.905
 6947SOL     OW21739   4.035   5.612   6.085
 6947SOL    HW121740   4.050   5.552   6.006
 6947SOL    HW221741   4.033   5.707   6.056
 6948SOL     OW21742   0.115   6.232   1.486
 6948SOL    HW121743   0.185   6.269   1.546
 6948SOL    HW221744   0.091   6.301   1.417
 6949SOL     OW21745   2.701   2.275   3.077
 6949SOL    HW121746   2.624   2.328   3.113
 6949SOL    HW221747   2.778   2.336   3.059
 6950SOL     OW21748   1.760   0.205   4.128
 6950SOL    HW121749   1.734   0.157   4.044
 6950SOL    HW221750   1.769   0.138   4.203
 6951SOL     OW21751   6.284   5.434   6.571
 6951SOL    HW121752   6.360   5.375   6.598
 6951SOL    HW221753   6.304   5.475   6.482
 6952SOL     OW21754   2.470   4.512   3.370
 6952SOL    HW121755   2.414   4.580   3.417
 6952SOL    HW221756   2.565   4.518   3.402
 6953SOL     OW21757   5.353   6.627   0.435
 6953SOL    HW121758   5.402   6.653   0.518
 6953SOL    HW221759   5.408   6.564   0.382
 6954SOL     OW21760   0.035   3.542   1.306
 6954SOL    HW121761   0.101   3.486   1.356
 6954SOL    HW221762   6.983   3.569   1.367
 6955SOL     OW21763   5.213   0.453   2.163
 6955SOL    HW121764   5.145   0.525   2.175
 6955SOL    HW221765   5.304   0.494   2.156
 6956SOL     OW21766   5.668   5.601   2.920
 6956SOL    HW121767   5.722   5.517   2.917
 6956SOL    HW221768   5.652   5.635   2.827
 6957SOL     OW21769   5.377   6.008   6.633
 6957SOL    HW121770   5.467   5.976   6.661
 6957SOL    HW221771   5.307   5.945   6.667
 6958SOL     OW21772   3.552   3.540   4.128
 6958SOL    HW121773   3.469   3.509   4.083
 6958SOL    HW221774   3.546   3.638   4.146
 6959SOL     OW21775   1.616   4.137   2.639
 6959SOL    HW121776   1.663   4.063   2.590
 6959SOL    HW221777   1.527   4.153   2.597
 6960SOL     OW21778   1.855   4.445   1.052
 6960SOL    HW121779   1.848   4.542   1.077
 6960SOL    HW221780   1.918   4.399   1.114
 6961SOL     OW21781   4.927   1.185   4.707
 6961SOL    HW121782   4.920   1.096   4.752
 6961SOL    HW221783   5.004   1.183   4.642
 6962SOL     OW21784   3.781   6.023   0.968
 6962SOL    HW121785   3.682   6.017   0.978
 6962SOL    HW221786   3.822   6.052   1.054
 6963SOL     OW21787   5.499   5.699   6.849
 6963SOL    HW121788   5.514   5.788   6.806
 6963SOL    HW221789   5.568   5.635   6.816
 6964SOL     OW21790   3.136   0.020   5.788
 6964SOL    HW121791   3.224   0.041   5.744
 6964SOL    HW221792   3.113   0.093   5.853
 6965SOL     OW21793   1.358   1.671   6.543
 6965SOL    HW121794   1.287   1.618   6.589
 6965SOL    HW221795   1.440   1.616   6.534
 6966SOL     OW21796   1.403   0.777   2.372
 6966SOL    HW121797   1.378   0.831   2.453
 6966SOL    HW221798   1.321   0.754   2.321
 6967SOL     OW21799   3.939   1.466   5.530
 6967SOL    HW121800   3.849   1.434   5.499
 6967SOL    HW221801   3.929   1.515   5.616
 6968SOL     OW21802   2.693   0.483   2.888
 6968SOL    HW121803   2.631   0.499   2.811
 6968SOL    HW221804   2.767   0.550   2.885
 6969SOL     OW21805   3.289   2.069   0.868
 6969SOL    HW121806   3.313   2.000   0.936
 6969SOL    HW221807   3.205   2.042   0.822
 6970SOL     OW21808   3.286   4.616   5.820
 6970SOL    HW121809   3.262   4.541   5.757
 6970SOL    HW221810   3.249   4.702   5.784
 6971SOL     OW21811   5.126   4.877   1.246
 6971SOL    HW121812   5.054   4.839   1.188
 6971SOL    HW221813   5.214   4.872   1.197
 6972SOL     OW21814   5.135   3.578   2.730
 6972SOL    HW121815   5.109   3.625   2.814
 6972SOL    HW221816   5.201   3.634   2.679
 6973SOL     OW21817   0.847   2.276   3.311
 6973SOL    HW121818   0.928   2.262   3.255
 6973SOL    HW221819   0.779   2.328   3.260
 6974SOL     OW21820   2.906   3.535   2.899
 6974SOL    HW121821   2.992   3.496   2.865
 6974SOL    HW221822   2.891   3.624   2.856
 6975SOL     OW21823   2.863   6.083   4.789
 6975SOL    HW121824   2.878   6.171   4.833
 6975SOL    HW221825   2.933   6.018   4.819
 6976SOL     OW21826   5.422   3.853   5.725
 6976SOL    HW121827   5.355   3.837   5.798
 6976SOL    HW221828   5.376   3.892   5.645
 6977SOL     OW21829   4.016   4.340   1.649
 6977SOL    HW121830   3.982   4.255   1.608
 6977SOL    HW221831   3.944   4.409   1.647
 6978SOL     OW21832   5.132   3.088   1.061
 6978SOL    HW121833   5.171   3.031   1.133
 6978SOL    HW221834   5.203   3.146   1.022
 6979SOL     OW21835   1.289   2.915   1.118
 6979SOL    HW121836   1.219   2.974   1.157
 6979SOL    HW221837   1.247   2.829   1.088
 6980SOL     OW21838   1.618   1.032   3.347
 6980SOL    HW121839   1.638   1.070   3.257
 6980SOL    HW221840   1.534   1.073   3.383
 6981SOL     OW21841   3.391   3.588   6.350
 6981SOL    HW121842   3.388   3.489   6.341
 6981SOL    HW221843   3.322   3.630   6.291
 6982SOL     OW21844   1.058   0.911   3.241
 6982SOL    HW121845   1.069   0.812   3.242
 6982SOL    HW221846   0.972   0.936   3.284
 6983SOL     OW21847   4.683   1.464   5.424
 6983SOL    HW121848   4.680   1.422   5.333
 6983SOL    HW221849   4.685   1.392   5.493
 6984SOL     OW21850   1.809   1.897   2.529
 6984SOL    HW121851   1.749   1.928   2.454
 6984SOL    HW221852   1.899   1.940   2.519
 6985SOL     OW21853   6.313   4.666   0.100
 6985SOL    HW121854   6.273   4.625   0.182
 6985SOL    HW221855   6.260   4.747   0.074
 6986SOL     OW21856   3.471   6.497   6.726
 6986SOL    HW121857   3.468   6.576   6.787
 6986SOL    HW221858   3.378   6.472   6.699
 6987SOL     OW21859   0.077   1.837   5.533
 6987SOL    HW121860   0.032   1.814   5.619
 6987SOL    HW221861   0.073   1.936   5.520
 6988SOL     OW21862   2.104   0.107   5.867
 6988SOL    HW121863   2.028   0.112   5.803
 6988SOL    HW221864   2.091   0.174   5.940
 6989SOL     OW21865   6.475   4.714   2.379
 6989SOL    HW121866   6.480   4.742   2.284
 6989SOL    HW221867   6.507   4.619   2.388
 6990SOL     OW21868   3.724   2.713   1.754
 6990SOL    HW121869   3.660   2.637   1.742
 6990SOL    HW221870   3.816   2.684   1.728
 6991SOL     OW21871   5.182   4.502   3.290
 6991SOL    HW121872   5.272   4.472   3.320
 6991SOL    HW221873   5.139   4.431   3.234
 6992SOL     OW21874   6.887   6.235   0.539
 6992SOL    HW121875   6.874   6.271   0.446
 6992SOL    HW221876   6.798   6.205   0.575
 6993SOL     OW21877   6.182   0.553   1.308
 6993SOL    HW121878   6.278   0.578   1.299
 6993SOL    HW221879   6.167   0.509   1.397
 6994SOL     OW21880   1.606   0.099   3.941
 6994SOL    HW121881   1.527   0.110   4.002
 6994SOL    HW221882   1.615   0.181   3.884
 6995SOL     OW21883   0.322   3.791   0.507
 6995SOL    HW121884   0.360   3.855   0.574
 6995SOL    HW221885   0.296   3.841   0.425
 6996SOL     OW21886   0.950   0.766   0.369
 6996SOL    HW121887   0.932   0.725   0.280
 6996SOL    HW221888   1.049   0.780   0.380
 6997SOL     OW21889   7.020   4.712   5.569
 6997SOL    HW121890   0.025   4.617   5.588
 6997SOL    HW221891   6.996   4.720   5.473
 6998SOL     OW21892   0.360   1.655   1.314
 6998SOL    HW121893   0.291   1.609   1.260
 6998SOL    HW221894   0.451   1.628   1.282
 6999SOL     OW21895   0.650   2.639   6.604
 6999SOL    HW121896   0.567   2.694   6.594
 6999SOL    HW221897   0.625   2.547   6.636
 7000SOL     OW21898   6.348   0.138   2.202
 7000SOL    HW121899   6.339   0.139   2.102
 7000SOL    HW221900   6.348   0.231   2.236
 7001SOL     OW21901   1.115   1.657   5.053
 7001SOL    HW121902   1.058   1.734   5.082
 7001SOL    HW221903   1.188   1.690   4.993
 7002SOL     OW21904   1.549   5.390   3.813
 7002SOL    HW121905   1.452   5.404   3.794
 7002SOL    HW221906   1.579   5.303   3.773
 7003SOL     OW21907   5.515   4.801   1.328
 7003SOL    HW121908   5.473   4.731   1.386
 7003SOL    HW221909   5.450   4.830   1.258
 7004SOL     OW21910   1.099   5.305   0.553
 7004SOL    HW121911   1.072   5.237   0.621
 7004SOL    HW221912   1.152   5.259   0.481
 7005SOL     OW21913   1.309   0.020   6.662
 7005SOL    HW121914   1.322   0.094   6.729
 7005SOL    HW221915   1.222   0.033   6.614
 7006SOL     OW21916   6.639   6.536   3.378
 7006SOL    HW121917   6.733   6.570   3.383
 7006SOL    HW221918   6.577   6.612   3.358
 7007SOL     OW21919   4.594   0.824   5.512
 7007SOL    HW121920   4.684   0.810   5.471
 7007SOL    HW221921   4.566   0.741   5.561
 7008SOL     OW21922   6.765   4.398   4.051
 7008SOL    HW121923   6.812   4.484   4.029
 7008SOL    HW221924   6.751   4.392   4.150
 7009SOL     OW21925   3.967   6.806   1.950
 7009SOL    HW121926   4.017   6.738   1.897
 7009SOL    HW221927   3.936   6.880   1.890
 7010SOL     OW21928   5.694   3.908   3.118
 7010SOL    HW121929   5.722   3.980   3.055
 7010SOL    HW221930   5.768   3.890   3.184
 7011SOL     OW21931   3.983   6.797   1.015
 7011SOL    HW121932   3.974   6.862   0.939
 7011SOL    HW221933   4.079   6.790   1.042
 7012SOL     OW21934   1.230   2.681   1.002
 7012SOL    HW121935   1.188   2.618   0.937
 7012SOL    HW221936   1.297   2.633   1.058
 7013SOL     OW21937   2.392   0.833   6.565
 7013SOL    HW121938   2.440   0.919   6.546
 7013SOL    HW221939   2.294   0.845   6.547
 7014SOL     OW21940   6.216   3.363   1.435
 7014SOL    HW121941   6.176   3.275   1.462
 7014SOL    HW221942   6.230   3.419   1.516
 7015SOL     OW21943   5.859   4.557   2.595
 7015SOL    HW121944   5.866   4.651   2.561
 7015SOL    HW221945   5.763   4.527   2.589
 7016SOL     OW21946   3.260   5.545   1.277
 7016SOL    HW121947   3.254   5.462   1.222
 7016SOL    HW221948   3.345   5.593   1.256
 7017SOL     OW21949   3.691   5.233   2.972
 7017SOL    HW121950   3.709   5.139   2.942
 7017SOL    HW221951   3.755   5.257   3.045
 7018SOL     OW21952   5.750   3.590   3.941
 7018SOL    HW121953   5.719   3.534   3.864
 7018SOL    HW221954   5.846   3.617   3.927
 7019SOL     OW21955   4.834   5.353   2.583
 7019SOL    HW121956   4.852   5.451   2.571
 7019SOL    HW221957   4.781   5.339   2.667
 7020SOL     OW21958   0.495   3.724   6.845
 7020SOL    HW121959   0.553   3.646   6.870
 7020SOL    HW221960   0.478   3.723   6.747
 7021SOL     OW21961   1.282   3.088   4.651
 7021SOL    HW121962   1.295   3.121   4.558
 7021SOL    HW221963   1.362   3.036   4.680
 7022SOL     OW21964   4.137   0.899   0.271
 7022SOL    HW121965   4.203   0.865   0.337
 7022SOL    HW221966   4.110   0.826   0.209
 7023SOL     OW21967   0.272   2.070   1.695
 7023SOL    HW121968   0.329   2.152   1.697
 7023SOL    HW221969   0.312   2.003   1.633
 7024SOL     OW21970   3.669   3.172   3.643
 7024SOL    HW121971   3.749   3.125   3.681
 7024SOL    HW221972   3.616   3.211   3.718
 7025SOL     OW21973   3.140   0.657   0.449
 7025SOL    HW121974   3.100   0.746   0.429
 7025SOL    HW221975   3.066   0.589   0.459
 7026SOL     OW21976   3.758   1.816   1.935
 7026SOL    HW121977   3.748   1.764   1.850
 7026SOL    HW221978   3.685   1.885   1.940
 7027SOL     OW21979   2.642   5.956   3.472
 7027SOL    HW121980   2.548   5.964   3.438
 7027SOL    HW221981   2.674   5.862   3.462
 7028SOL     OW21982   2.231   0.296   3.373
 7028SOL    HW121983   2.278   0.305   3.461
 7028SOL    HW221984   2.134   0.278   3.388
 7029SOL     OW21985   2.823   3.735   5.829
 7029SOL    HW121986   2.800   3.796   5.904
 7029SOL    HW221987   2.895   3.776   5.773
 7030SOL     OW21988   0.836   2.000   4.926
 7030SOL    HW121989   0.748   2.048   4.920
 7030SOL    HW221990   0.880   1.999   4.836
 7031SOL     OW21991   4.480   6.438   0.692
 7031SOL    HW121992   4.533   6.462   0.611
 7031SOL    HW221993   4.419   6.514   0.716
 7032SOL     OW21994   4.377   0.618   4.322
 7032SOL    HW121995   4.338   0.679   4.391
 7032SOL    HW221996   4.366   0.523   4.350
 7033SOL     OW21997   1.582   2.636   4.119
 7033SOL    HW121998   1.573   2.731   4.088
 7033SOL    HW221999   1.607   2.634   4.215
 7034SOL     OW22000   6.380   2.898   3.553
 7034SOL    HW122001   6.478   2.909   3.534
 7034SOL    HW222002   6.336   2.857   3.473
 7035SOL     OW22003   2.091   0.246   1.856
 7035SOL    HW122004   2.038   0.221   1.938
 7035SOL    HW222005   2.029   0.254   1.778
 7036SOL     OW22006   0.339   2.143   2.577
 7036SOL    HW122007   0.258   2.139   2.635
 7036SOL    HW222008   0.331   2.220   2.514
 7037SOL     OW22009   0.423   1.032   5.682
 7037SOL    HW122010   0.495   1.057   5.747
 7037SOL    HW222011   0.345   0.993   5.732
 7038SOL     OW22012   2.719   4.429   5.517
 7038SOL    HW122013   2.725   4.496   5.443
 7038SOL    HW222014   2.807   4.384   5.528
 7039SOL     OW22015   1.053   5.226   3.918
 7039SOL    HW122016   1.125   5.284   3.957
 7039SOL    HW222017   0.971   5.232   3.974
 7040SOL     OW22018   4.600   2.268   5.213
 7040SOL    HW122019   4.602   2.178   5.167
 7040SOL    HW222020   4.679   2.276   5.272
 7041SOL     OW22021   0.983   1.343   3.496
 7041SOL    HW122022   0.948   1.346   3.402
 7041SOL    HW222023   1.065   1.286   3.500
 7042SOL     OW22024   4.575   5.996   4.836
 7042SOL    HW122025   4.501   5.990   4.904
 7042SOL    HW222026   4.655   6.040   4.878
 7043SOL     OW22027   2.237   4.324   4.079
 7043SOL    HW122028   2.255   4.365   3.990
 7043SOL    HW222029   2.139   4.326   4.098
 7044SOL     OW22030   4.879   0.136   4.921
 7044SOL    HW122031   4.821   0.192   4.980
 7044SOL    HW222032   4.868   0.164   4.826
 7045SOL     OW22033   5.859   5.323   2.629
 7045SOL    HW122034   5.811   5.387   2.570
 7045SOL    HW222035   5.819   5.325   2.721
 7046SOL     OW22036   3.318   2.068   4.250
 7046SOL    HW122037   3.233   2.097   4.296
 7046SOL    HW222038   3.348   1.981   4.290
 7047SOL     OW22039   0.375   0.980   1.383
 7047SOL    HW122040   0.402   1.026   1.298
 7047SOL    HW222041   0.361   1.048   1.455
 7048SOL     OW22042   6.313   6.511   4.953
 7048SOL    HW122043   6.281   6.581   5.017
 7048SOL    HW222044   6.398   6.471   4.988
 7049SOL     OW22045   3.936   1.251   2.301
 7049SOL    HW122046   3.896   1.327   2.353
 7049SOL    HW222047   3.866   1.182   2.283
 7050SOL     OW22048   3.467   4.956   0.678
 7050SOL    HW122049   3.547   4.922   0.629
 7050SOL    HW222050   3.495   4.992   0.767
 7051SOL     OW22051   0.084   6.950   1.295
 7051SOL    HW122052   0.072   6.891   1.215
 7051SOL    HW222053   0.017   6.924   1.365
 7052SOL     OW22054   5.510   6.763   3.223
 7052SOL    HW122055   5.539   6.799   3.134
 7052SOL    HW222056   5.463   6.836   3.274
 7053SOL     OW22057   1.466   3.396   4.108
 7053SOL    HW122058   1.517   3.422   4.026
 7053SOL    HW222059   1.465   3.472   4.172
 7054SOL     OW22060   0.218   0.226   1.020
 7054SOL    HW122061   0.146   0.271   1.073
 7054SOL    HW222062   0.177   0.177   0.943
 7055SOL     OW22063   2.232   0.092   0.035
 7055SOL    HW122064   2.166   0.102   0.109
 7055SOL    HW222065   2.190   0.043   6.981
 7056SOL     OW22066   6.739   5.964   1.135
 7056SOL    HW122067   6.652   5.993   1.094
 7056SOL    HW222068   6.755   5.868   1.114
 7057SOL     OW22069   3.166   5.453   4.006
 7057SOL    HW122070   3.096   5.415   3.945
 7057SOL    HW222071   3.121   5.498   4.083
 7058SOL     OW22072   5.431   2.123   6.548
 7058SOL    HW122073   5.442   2.160   6.455
 7058SOL    HW222074   5.512   2.144   6.602
 7059SOL     OW22075   1.900   1.528   4.595
 7059SOL    HW122076   1.915   1.580   4.679
 7059SOL    HW222077   1.923   1.432   4.611
 7060SOL     OW22078   3.541   6.665   1.965
 7060SOL    HW122079   3.508   6.576   1.932
 7060SOL    HW222080   3.515   6.736   1.898
 7061SOL     OW22081   1.234   2.246   2.524
 7061SOL    HW122082   1.298   2.269   2.451
 7061SOL    HW222083   1.187   2.329   2.555
 7062SOL     OW22084   4.314   1.842   4.453
 7062SOL    HW122085   4.252   1.766   4.471
 7062SOL    HW222086   4.269   1.909   4.394
 7063SOL     OW22087   0.235   6.374   2.314
 7063SOL    HW122088   0.238   6.381   2.214
 7063SOL    HW222089   0.260   6.281   2.342
 7064SOL     OW22090   5.135   1.633   5.794
 7064SOL    HW122091   5.141   1.669   5.887
 7064SOL    HW222092   5.178   1.543   5.790
 7065SOL     OW22093   3.244   4.686   5.430
 7065SOL    HW122094   3.199   4.737   5.503
 7065SOL    HW222095   3.333   4.655   5.461
 7066SOL     OW22096   4.533   0.876   6.831
 7066SOL    HW122097   4.470   0.950   6.851
 7066SOL    HW222098   4.583   0.851   6.914
 7067SOL     OW22099   1.423   3.595   7.022
 7067SOL    HW122100   1.357   3.653   0.048
 7067SOL    HW222101   1.515   3.631   0.013
 7068SOL     OW22102   5.772   4.493   4.283
 7068SOL    HW122103   5.772   4.563   4.211
 7068SOL    HW222104   5.716   4.416   4.253
 7069SOL     OW22105   6.039   1.631   5.868
 7069SOL    HW122106   6.067   1.716   5.912
 7069SOL    HW222107   6.118   1.590   5.822
 7070SOL     OW22108   0.578   6.374   4.884
 7070SOL    HW122109   0.533   6.284   4.874
 7070SOL    HW222110   0.640   6.388   4.807
 7071SOL     OW22111   5.070   6.610   6.656
 7071SOL    HW122112   4.972   6.631   6.663
 7071SOL    HW222113   5.096   6.547   6.729
 7072SOL     OW22114   1.230   4.385   6.669
 7072SOL    HW122115   1.318   4.351   6.634
 7072SOL    HW222116   1.213   4.345   6.759
 7073SOL     OW22117   4.132   0.396   2.986
 7073SOL    HW122118   4.094   0.384   3.078
 7073SOL    HW222119   4.138   0.494   2.965
 7074SOL     OW22120   6.288   3.873   3.730
 7074SOL    HW122121   6.338   3.928   3.798
 7074SOL    HW222122   6.351   3.808   3.687
 7075SOL     OW22123   3.390   5.080   5.071
 7075SOL    HW122124   3.339   5.008   5.118
 7075SOL    HW222125   3.335   5.163   5.067
 7076SOL     OW22126   6.159   2.852   1.816
 7076SOL    HW122127   6.190   2.946   1.802
 7076SOL    HW222128   6.118   2.818   1.731
 7077SOL     OW22129   2.510   4.939   2.644
 7077SOL    HW122130   2.430   4.954   2.586
 7077SOL    HW222131   2.584   4.999   2.615
 7078SOL     OW22132   5.438   6.816   0.852
 7078SOL    HW122133   5.488   6.775   0.928
 7078SOL    HW222134   5.464   6.772   0.766
 7079SOL     OW22135   1.523   6.624   3.816
 7079SOL    HW122136   1.611   6.586   3.845
 7079SOL    HW222137   1.477   6.560   3.754
 7080SOL     OW22138   4.145   1.632   4.443
 7080SOL    HW122139   4.050   1.610   4.418
 7080SOL    HW222140   4.173   1.576   4.521
 7081SOL     OW22141   1.764   0.429   0.133
 7081SOL    HW122142   1.768   0.352   0.197
 7081SOL    HW222143   1.774   0.514   0.184
 7082SOL     OW22144   0.038   3.971   1.729
 7082SOL    HW122145   0.019   3.990   1.633
 7082SOL    HW222146   6.980   3.991   1.784
 7083SOL     OW22147   7.008   2.122   2.416
 7083SOL    HW122148   6.926   2.067   2.400
 7083SOL    HW222149   0.028   2.145   2.329
 7084SOL     OW22150   0.708   5.527   5.775
 7084SOL    HW122151   0.686   5.619   5.806
 7084SOL    HW222152   0.629   5.486   5.730
 7085SOL     OW22153   0.100   2.403   2.603
 7085SOL    HW122154   0.099   2.312   2.644
 7085SOL    HW222155   0.091   2.395   2.504
 7086SOL     OW22156   5.805   0.255   6.951
 7086SOL    HW122157   5.860   0.201   6.887
 7086SOL    HW222158   5.853   0.262   0.016
 7087SOL     OW22159   4.924   3.247   2.765
 7087SOL    HW122160   4.886   3.334   2.732
 7087SOL    HW222161   4.967   3.261   2.853
 7088SOL     OW22162   5.870   1.366   4.940
 7088SOL    HW122163   5.832   1.331   4.855
 7088SOL    HW222164   5.799   1.414   4.992
 7089SOL     OW22165   3.392   5.281   2.610
 7089SOL    HW122166   3.404   5.263   2.708
 7089SOL    HW222167   3.482   5.296   2.569
 7090SOL     OW22168   3.103   1.307   0.703
 7090SOL    HW122169   3.186   1.362   0.716
 7090SOL    HW222170   3.128   1.219   0.664
 7091SOL     OW22171   1.029   0.399   0.390
 7091SOL    HW122172   1.090   0.473   0.359
 7091SOL    HW222173   1.053   0.375   0.485
 7092SOL     OW22174   3.918   2.100   6.790
 7092SOL    HW122175   3.864   2.156   6.727
 7092SOL    HW222176   4.015   2.115   6.774
 7093SOL     OW22177   3.320   3.896   1.509
 7093SOL    HW122178   3.279   3.964   1.447
 7093SOL    HW222179   3.251   3.829   1.535
 7094SOL     OW22180   1.688   6.568   5.687
 7094SOL    HW122181   1.776   6.585   5.732
 7094SOL    HW222182   1.682   6.473   5.658
 7095SOL     OW22183   3.283   4.854   5.211
 7095SOL    HW122184   3.211   4.858   5.142
 7095SOL    HW222185   3.245   4.820   5.297
 7096SOL     OW22186   6.907   0.675   1.194
 7096SOL    HW122187   6.974   0.710   1.127
 7096SOL    HW222188   6.836   0.624   1.146
 7097SOL     OW22189   5.618   0.322   1.848
 7097SOL    HW122190   5.593   0.329   1.752
 7097SOL    HW222191   5.579   0.239   1.887
 7098SOL     OW22192   1.871   6.696   4.585
 7098SOL    HW122193   1.833   6.788   4.596
 7098SOL    HW222194   1.882   6.653   4.675
 7099SOL     OW22195   3.233   2.030   3.997
 7099SOL    HW122196   3.271   2.023   4.089
 7099SOL    HW222197   3.182   2.115   3.988
 7100SOL     OW22198   0.628   3.608   0.700
 7100SOL    HW122199   0.647   3.670   0.777
 7100SOL    HW222200   0.695   3.534   0.700
 7101SOL     OW22201   2.637   6.116   5.445
 7101SOL    HW122202   2.607   6.211   5.451
 7101SOL    HW222203   2.557   6.056   5.441
 7102SOL     OW22204   5.045   1.028   1.035
 7102SOL    HW122205   5.106   1.014   0.956
 7102SOL    HW222206   5.078   1.104   1.090
 7103SOL     OW22207   4.923   5.112   2.483
 7103SOL    HW122208   4.918   5.042   2.554
 7103SOL    HW222209   4.908   5.202   2.523
 7104SOL     OW22210   5.289   2.910   3.212
 7104SOL    HW122211   5.355   2.905   3.137
 7104SOL    HW222212   5.236   2.994   3.204
 7105SOL     OW22213   3.237   3.880   4.111
 7105SOL    HW122214   3.244   3.902   4.014
 7105SOL    HW222215   3.241   3.964   4.165
 7106SOL     OW22216   3.329   2.835   1.120
 7106SOL    HW122217   3.307   2.930   1.142
 7106SOL    HW222218   3.308   2.777   1.199
 7107SOL     OW22219   4.171   0.544   0.180
 7107SOL    HW122220   4.097   0.582   0.125
 7107SOL    HW222221   4.219   0.474   0.127
 7108SOL     OW22222   2.571   6.477   2.921
 7108SOL    HW122223   2.509   6.534   2.974
 7108SOL    HW222224   2.645   6.533   2.884
 7109SOL     OW22225   1.288   0.316   6.566
 7109SOL    HW122226   1.232   0.396   6.545
 7109SOL    HW222227   1.235   0.233   6.552
 7110SOL     OW22228   3.289   6.532   4.309
 7110SOL    HW122229   3.331   6.555   4.396
 7110SOL    HW222230   3.350   6.556   4.234
 7111SOL     OW22231   1.095   0.851   4.439
 7111SOL    HW122232   1.178   0.845   4.495
 7111SOL    HW222233   1.032   0.778   4.465
 7112SOL     OW22234   2.369   4.550   4.455
 7112SOL    HW122235   2.356   4.580   4.360
 7112SOL    HW222236   2.362   4.451   4.460
 7113SOL     OW22237   2.796   4.892   5.023
 7113SOL    HW122238   2.805   4.792   5.032
 7113SOL    HW222239   2.699   4.916   5.018
 7114SOL     OW22240   4.638   5.178   1.482
 7114SOL    HW122241   4.692   5.118   1.424
 7114SOL    HW222242   4.633   5.269   1.441
 7115SOL     OW22243   5.805   4.309   6.943
 7115SOL    HW122244   5.775   4.243   6.874
 7115SOL    HW222245   5.872   4.372   6.903
 7116SOL     OW22246   5.972   4.272   3.901
 7116SOL    HW122247   5.931   4.215   3.830
 7116SOL    HW222248   5.962   4.227   3.990
 7117SOL     OW22249   6.306   6.867   4.052
 7117SOL    HW122250   6.400   6.864   4.084
 7117SOL    HW222251   6.269   6.959   4.067
 7118SOL     OW22252   4.041   4.209   5.255
 7118SOL    HW122253   4.115   4.256   5.208
 7118SOL    HW222254   4.017   4.126   5.205
 7119SOL     OW22255   5.342   1.009   5.203
 7119SOL    HW122256   5.253   1.023   5.248
 7119SOL    HW222257   5.409   0.980   5.272
 7120SOL     OW22258   5.169   1.187   1.216
 7120SOL    HW122259   5.196   1.254   1.147
 7120SOL    HW222260   5.250   1.153   1.263
 7121SOL     OW22261   1.098   6.590   3.611
 7121SOL    HW122262   1.123   6.498   3.580
 7121SOL    HW222263   1.109   6.597   3.710
 7122SOL     OW22264   2.475   6.730   5.534
 7122SOL    HW122265   2.534   6.703   5.610
 7122SOL    HW222266   2.524   6.796   5.477
 7123SOL     OW22267   5.930   4.923   5.112
 7123SOL    HW122268   5.933   4.824   5.123
 7123SOL    HW222269   5.841   4.950   5.077
 7124SOL     OW22270   1.464   2.696   1.695
 7124SOL    HW122271   1.511   2.771   1.650
 7124SOL    HW222272   1.514   2.669   1.777
 7125SOL     OW22273   0.676   0.248   1.916
 7125SOL    HW122274   0.748   0.310   1.884
 7125SOL    HW222275   0.587   0.286   1.891
 7126SOL     OW22276   4.070   6.278   1.533
 7126SOL    HW122277   4.091   6.228   1.449
 7126SOL    HW222278   3.982   6.248   1.569
 7127SOL     OW22279   3.553   6.105   5.224
 7127SOL    HW122280   3.638   6.109   5.172
 7127SOL    HW222281   3.475   6.107   5.161
 7128SOL     OW22282   3.522   4.507   6.632
 7128SOL    HW122283   3.561   4.572   6.567
 7128SOL    HW222284   3.580   4.502   6.713
 7129SOL     OW22285   0.287   1.936   0.626
 7129SOL    HW122286   0.263   1.848   0.667
 7129SOL    HW222287   0.220   2.005   0.653
 7130SOL     OW22288   2.873   0.122   4.362
 7130SOL    HW122289   2.932   0.042   4.355
 7130SOL    HW222290   2.887   0.181   4.282
 7131SOL     OW22291   3.593   0.773   2.595
 7131SOL    HW122292   3.554   0.768   2.503
 7131SOL    HW222293   3.608   0.681   2.631
 7132SOL     OW22294   5.342   4.398   6.856
 7132SOL    HW122295   5.273   4.410   6.784
 7132SOL    HW222296   5.393   4.314   6.839
 7133SOL     OW22297   3.808   5.689   3.451
 7133SOL    HW122298   3.726   5.642   3.482
 7133SOL    HW222299   3.816   5.682   3.352
 7134SOL     OW22300   5.759   5.869   1.624
 7134SOL    HW122301   5.702   5.790   1.599
 7134SOL    HW222302   5.814   5.846   1.705
 7135SOL     OW22303   2.011   3.382   2.040
 7135SOL    HW122304   1.936   3.420   1.986
 7135SOL    HW222305   2.098   3.418   2.006
 7136SOL     OW22306   2.679   1.798   1.658
 7136SOL    HW122307   2.600   1.804   1.719
 7136SOL    HW222308   2.752   1.856   1.693
 7137SOL     OW22309   2.630   2.136   1.721
 7137SOL    HW122310   2.597   2.067   1.657
 7137SOL    HW222311   2.628   2.098   1.814
 7138SOL     OW22312   1.631   1.372   1.207
 7138SOL    HW122313   1.710   1.320   1.175
 7138SOL    HW222314   1.594   1.330   1.289
 7139SOL     OW22315   5.239   5.801   2.371
 7139SOL    HW122316   5.245   5.896   2.402
 7139SOL    HW222317   5.318   5.750   2.404
 7140SOL     OW22318   5.891   3.780   0.993
 7140SOL    HW122319   5.896   3.801   0.896
 7140SOL    HW222320   5.819   3.835   1.035
 7141SOL     OW22321   4.134   6.554   1.155
 7141SOL    HW122322   4.144   6.621   1.081
 7141SOL    HW222323   4.075   6.592   1.226
 7142SOL     OW22324   3.291   0.942   4.099
 7142SOL    HW122325   3.378   0.953   4.052
 7142SOL    HW222326   3.225   0.898   4.037
 7143SOL     OW22327   2.224   4.814   6.574
 7143SOL    HW122328   2.124   4.819   6.571
 7143SOL    HW222329   2.257   4.774   6.488
 7144SOL     OW22330   0.031   1.449   4.331
 7144SOL    HW122331   0.015   1.544   4.357
 7144SOL    HW222332   6.989   1.422   4.260
 7145SOL     OW22333   4.778   1.543   0.353
 7145SOL    HW122334   4.832   1.582   0.427
 7145SOL    HW222335   4.825   1.558   0.266
 7146SOL     OW22336   2.191   1.237   4.922
 7146SOL    HW122337   2.268   1.297   4.901
 7146SOL    HW222338   2.106   1.289   4.916
 7147SOL     OW22339   5.536   4.739   2.866
 7147SOL    HW122340   5.601   4.815   2.871
 7147SOL    HW222341   5.444   4.776   2.855
 7148SOL     OW22342   6.261   6.120   1.695
 7148SOL    HW122343   6.321   6.141   1.618
 7148SOL    HW222344   6.265   6.022   1.716
 7149SOL     OW22345   6.725   4.660   3.736
 7149SOL    HW122346   6.716   4.715   3.818
 7149SOL    HW222347   6.797   4.696   3.678
 7150SOL     OW22348   4.229   3.556   0.124
 7150SOL    HW122349   4.251   3.545   0.027
 7150SOL    HW222350   4.198   3.649   0.141
 7151SOL     OW22351   3.639   0.476   0.911
 7151SOL    HW122352   3.644   0.459   0.813
 7151SOL    HW222353   3.727   0.512   0.942
 7152SOL     OW22354   6.976   0.873   6.625
 7152SOL    HW122355   6.881   0.900   6.613
 7152SOL    HW222356   7.013   0.841   6.538
 7153SOL     OW22357   4.264   6.295   1.702
 7153SOL    HW122358   4.338   6.360   1.686
 7153SOL    HW222359   4.198   6.300   1.627
 7154SOL     OW22360   4.287   1.595   2.307
 7154SOL    HW122361   4.250   1.650   2.232
 7154SOL    HW222362   4.385   1.616   2.318
 7155SOL     OW22363   3.181   1.825   2.337
 7155SOL    HW122364   3.194   1.896   2.267
 7155SOL    HW222365   3.258   1.827   2.401
 7156SOL     OW22366   5.751   3.630   1.465
 7156SOL    HW122367   5.656   3.640   1.491
 7156SOL    HW222368   5.771   3.533   1.449
 7157SOL     OW22369   5.972   4.399   6.729
 7157SOL    HW122370   5.893   4.448   6.693
 7157SOL    HW222371   6.055   4.454   6.713
 7158SOL     OW22372   5.446   6.824   3.999
 7158SOL    HW122373   5.474   6.820   3.903
 7158SOL    HW222374   5.460   6.917   4.034
 7159SOL     OW22375   6.782   4.972   4.159
 7159SOL    HW122376   6.787   5.051   4.097
 7159SOL    HW222377   6.871   4.958   4.202
 7160SOL     OW22378   5.478   6.907   2.754
 7160SOL    HW122379   5.498   6.955   2.669
 7160SOL    HW222380   5.499   6.810   2.743
 7161SOL     OW22381   4.143   3.526   3.263
 7161SOL    HW122382   4.047   3.548   3.281
 7161SOL    HW222383   4.187   3.496   3.348
 7162SOL     OW22384   7.005   5.420   2.137
 7162SOL    HW122385   0.004   5.328   2.104
 7162SOL    HW222386   0.049   5.485   2.099
 7163SOL     OW22387   1.178   1.983   2.453
 7163SOL    HW122388   1.221   1.913   2.511
 7163SOL    HW222389   1.221   2.071   2.471
 7164SOL     OW22390   1.393   0.941   6.000
 7164SOL    HW122391   1.476   0.892   6.027
 7164SOL    HW222392   1.361   0.997   6.077
 7165SOL     OW22393   5.708   6.798   0.451
 7165SOL    HW122394   5.664   6.802   0.361
 7165SOL    HW222395   5.766   6.878   0.463
 7166SOL     OW22396   5.041   6.918   5.911
 7166SOL    HW122397   4.949   6.943   5.942
 7166SOL    HW222398   5.050   6.818   5.911
 7167SOL     OW22399   5.969   1.753   4.774
 7167SOL    HW122400   6.035   1.828   4.763
 7167SOL    HW222401   5.993   1.699   4.854
 7168SOL     OW22402   2.191   0.925   2.454
 7168SOL    HW122403   2.200   0.975   2.540
 7168SOL    HW222404   2.126   0.974   2.395
 7169SOL     OW22405   1.933   4.150   5.280
 7169SOL    HW122406   1.851   4.130   5.334
 7169SOL    HW222407   1.907   4.193   5.194
 7170SOL     OW22408   4.250   0.411   1.824
 7170SOL    HW122409   4.306   0.458   1.756
 7170SOL    HW222410   4.180   0.473   1.858
 7171SOL     OW22411   5.506   5.043   0.989
 7171SOL    HW122412   5.585   4.987   0.963
 7171SOL    HW222413   5.532   5.108   1.060
 7172SOL     OW22414   2.003   1.258   4.611
 7172SOL    HW122415   2.027   1.165   4.637
 7172SOL    HW222416   1.982   1.261   4.513
 7173SOL     OW22417   5.783   5.836   0.012
 7173SOL    HW122418   5.695   5.790   0.024
 7173SOL    HW222419   5.855   5.768   7.019
 7174SOL     OW22420   5.702   4.514   1.450
 7174SOL    HW122421   5.604   4.537   1.456
 7174SOL    HW222422   5.719   4.461   1.368
 7175SOL     OW22423   5.876   3.700   4.920
 7175SOL    HW122424   5.795   3.652   4.955
 7175SOL    HW222425   5.958   3.647   4.943
 7176SOL     OW22426   0.520   1.822   4.296
 7176SOL    HW122427   0.580   1.881   4.350
 7176SOL    HW222428   0.437   1.871   4.271
 7177SOL     OW22429   2.054   5.171   5.522
 7177SOL    HW122430   2.095   5.262   5.528
 7177SOL    HW222431   1.979   5.173   5.455
 7178SOL     OW22432   0.488   0.798   5.545
 7178SOL    HW122433   0.468   0.853   5.626
 7178SOL    HW222434   0.547   0.721   5.571
 7179SOL     OW22435   3.125   5.383   6.212
 7179SOL    HW122436   3.187   5.352   6.284
 7179SOL    HW222437   3.059   5.311   6.191
 7180SOL     OW22438   1.641   4.983   1.182
 7180SOL    HW122439   1.636   5.072   1.136
 7180SOL    HW222440   1.718   4.983   1.246
 7181SOL     OW22441   2.389   1.482   5.633
 7181SOL    HW122442   2.433   1.400   5.595
 7181SOL    HW222443   2.434   1.563   5.596
 7182SOL     OW22444   0.453   3.060   3.895
 7182SOL    HW122445   0.441   3.137   3.833
 7182SOL    HW222446   0.414   3.082   3.985
 7183SOL     OW22447   1.475   6.387   1.877
 7183SOL    HW122448   1.545   6.444   1.921
 7183SOL    HW222449   1.434   6.437   1.800
 7184SOL     OW22450   6.154   0.873   3.295
 7184SOL    HW122451   6.174   0.954   3.351
 7184SOL    HW222452   6.078   0.822   3.337
 7185SOL     OW22453   4.989   0.898   5.169
 7185SOL    HW122454   4.995   0.997   5.185
 7185SOL    HW222455   4.936   0.881   5.086
 7186SOL     OW22456   0.179   0.254   0.166
 7186SOL    HW122457   0.190   0.217   0.259
 7186SOL    HW222458   0.191   0.180   0.099
 7187SOL     OW22459   3.185   2.990   4.976
 7187SOL    HW122460   3.187   2.912   4.914
 7187SOL    HW222461   3.162   3.073   4.924
 7188SOL     OW22462   4.073   4.954   0.067
 7188SOL    HW122463   4.095   5.050   0.052
 7188SOL    HW222464   4.116   4.922   0.151
 7189SOL     OW22465   6.247   2.912   5.451
 7189SOL    HW122466   6.174   2.857   5.493
 7189SOL    HW222467   6.219   3.008   5.449
 7190SOL     OW22468   5.984   5.564   1.169
 7190SOL    HW122469   6.047   5.576   1.093
 7190SOL    HW222470   5.912   5.633   1.165
 7191SOL     OW22471   0.633   3.962   3.163
 7191SOL    HW122472   0.677   3.973   3.252
 7191SOL    HW222473   0.649   3.869   3.129
 7192SOL     OW22474   1.705   4.700   6.508
 7192SOL    HW122475   1.726   4.618   6.454
 7192SOL    HW222476   1.655   4.674   6.590
 7193SOL     OW22477   2.938   1.679   2.439
 7193SOL    HW122478   2.852   1.725   2.459
 7193SOL    HW222479   2.996   1.737   2.383
 7194SOL     OW22480   2.999   2.528   0.034
 7194SOL    HW122481   2.911   2.522   0.081
 7194SOL    HW222482   3.073   2.527   0.101
 7195SOL     OW22483   0.256   3.638   6.941
 7195SOL    HW122484   0.351   3.664   6.926
 7195SOL    HW222485   0.229   3.569   6.873
 7196SOL     OW22486   3.072   3.840   2.521
 7196SOL    HW122487   3.116   3.787   2.449
 7196SOL    HW222488   3.074   3.937   2.496
 7197SOL     OW22489   1.510   3.732   5.294
 7197SOL    HW122490   1.587   3.738   5.357
 7197SOL    HW222491   1.492   3.637   5.270
 7198SOL     OW22492   6.923   1.067   0.440
 7198SOL    HW122493   6.958   1.022   0.522
 7198SOL    HW222494   6.903   1.163   0.459
 7199SOL     OW22495   0.921   0.820   2.575
 7199SOL    HW122496   0.862   0.899   2.590
 7199SOL    HW222497   0.913   0.790   2.480
 7200SOL     OW22498   2.197   2.477   0.492
 7200SOL    HW122499   2.190   2.476   0.592
 7200SOL    HW222500   2.171   2.567   0.458
 7201SOL     OW22501   6.123   5.465   4.025
 7201SOL    HW122502   6.127   5.551   3.974
 7201SOL    HW222503   6.095   5.484   4.119
 7202SOL     OW22504   5.253   6.551   6.092
 7202SOL    HW122505   5.301   6.638   6.083
 7202SOL    HW222506   5.225   6.539   6.188
 7203SOL     OW22507   0.569   1.102   2.120
 7203SOL    HW122508   0.485   1.139   2.159
 7203SOL    HW222509   0.607   1.167   2.054
 7204SOL     OW22510   6.723   1.688   0.729
 7204SOL    HW122511   6.700   1.634   0.649
 7204SOL    HW222512   6.674   1.653   0.809
 7205SOL     OW22513   1.903   2.425   5.167
 7205SOL    HW122514   1.985   2.433   5.110
 7205SOL    HW222515   1.875   2.515   5.198
 7206SOL     OW22516   1.796   2.143   0.895
 7206SOL    HW122517   1.710   2.098   0.875
 7206SOL    HW222518   1.870   2.099   0.845
 7207SOL     OW22519   1.708   2.165   3.986
 7207SOL    HW122520   1.727   2.263   3.990
 7207SOL    HW222521   1.793   2.115   3.968
 7208SOL     OW22522   3.980   0.530   4.395
 7208SOL    HW122523   3.963   0.516   4.297
 7208SOL    HW222524   3.976   0.627   4.416
 7209SOL     OW22525   2.246   2.478   2.316
 7209SOL    HW122526   2.211   2.527   2.397
 7209SOL    HW222527   2.345   2.483   2.314
 7210SOL     OW22528   2.679   1.649   2.937
 7210SOL    HW122529   2.776   1.632   2.920
 7210SOL    HW222530   2.667   1.683   3.031
 7211SOL     OW22531   3.340   6.159   5.071
 7211SOL    HW122532   3.310   6.211   5.151
 7211SOL    HW222533   3.289   6.188   4.991
 7212SOL     OW22534   5.822   5.281   5.723
 7212SOL    HW122535   5.773   5.368   5.720
 7212SOL    HW222536   5.890   5.283   5.796
 7213SOL     OW22537   3.402   0.277   0.401
 7213SOL    HW122538   3.456   0.197   0.374
 7213SOL    HW222539   3.396   0.341   0.324
 7214SOL     OW22540   0.527   0.825   6.468
 7214SOL    HW122541   0.438   0.828   6.513
 7214SOL    HW222542   0.525   0.757   6.395
 7215SOL     OW22543   0.369   2.603   3.170
 7215SOL    HW122544   0.354   2.634   3.264
 7215SOL    HW222545   0.464   2.577   3.158
 7216SOL     OW22546   3.119   6.457   2.389
 7216SOL    HW122547   3.065   6.520   2.333
 7216SOL    HW222548   3.095   6.468   2.485
 7217SOL     OW22549   0.997   4.169   3.730
 7217SOL    HW122550   1.085   4.211   3.751
 7217SOL    HW222551   1.012   4.075   3.697
 7218SOL     OW22552   6.673   3.139   4.340
 7218SOL    HW122553   6.723   3.226   4.348
 7218SOL    HW222554   6.643   3.109   4.430
 7219SOL     OW22555   2.947   6.541   1.481
 7219SOL    HW122556   2.920   6.626   1.436
 7219SOL    HW222557   3.043   6.547   1.508
 7220SOL     OW22558   6.912   3.734   4.917
 7220SOL    HW122559   6.882   3.727   5.012
 7220SOL    HW222560   6.987   3.670   4.901
 7221SOL     OW22561   3.180   6.249   4.851
 7221SOL    HW122562   3.133   6.160   4.848
 7221SOL    HW222563   3.113   6.320   4.873
 7222SOL     OW22564   6.302   6.382   3.491
 7222SOL    HW122565   6.278   6.416   3.400
 7222SOL    HW222566   6.271   6.448   3.560
 7223SOL     OW22567   2.444   1.948   0.619
 7223SOL    HW122568   2.541   1.964   0.598
 7223SOL    HW222569   2.392   2.030   0.596
 7224SOL     OW22570   4.506   2.154   3.873
 7224SOL    HW122571   4.592   2.114   3.840
 7224SOL    HW222572   4.524   2.210   3.954
 7225SOL     OW22573   1.973   6.585   0.697
 7225SOL    HW122574   2.067   6.606   0.721
 7225SOL    HW222575   1.922   6.670   0.683
 7226SOL     OW22576   5.832   0.659   0.600
 7226SOL    HW122577   5.923   0.636   0.566
 7226SOL    HW222578   5.777   0.695   0.524
 7227SOL     OW22579   2.665   0.769   2.354
 7227SOL    HW122580   2.676   0.778   2.453
 7227SOL    HW222581   2.749   0.800   2.309
 7228SOL     OW22582   0.286   1.979   2.977
 7228SOL    HW122583   0.249   2.054   2.923
 7228SOL    HW222584   0.373   2.007   3.019
 7229SOL     OW22585   0.079   6.716   4.346
 7229SOL    HW122586   0.131   6.635   4.320
 7229SOL    HW222587   7.020   6.688   4.396
 7230SOL     OW22588   2.815   5.125   3.946
 7230SOL    HW122589   2.775   5.151   4.033
 7230SOL    HW222590   2.824   5.025   3.942
 7231SOL     OW22591   3.664   0.676   0.498
 7231SOL    HW122592   3.715   0.743   0.552
 7231SOL    HW222593   3.663   0.588   0.546
 7232SOL     OW22594   5.044   6.660   2.635
 7232SOL    HW122595   5.017   6.706   2.552
 7232SOL    HW222596   5.118   6.711   2.680
 7233SOL     OW22597   6.140   1.889   5.934
 7233SOL    HW122598   6.145   1.874   5.835
 7233SOL    HW222599   6.070   1.958   5.954
 7234SOL     OW22600   5.019   3.951   3.385
 7234SOL    HW122601   4.971   3.866   3.359
 7234SOL    HW222602   5.075   3.934   3.466
 7235SOL     OW22603   5.942   5.856   1.836
 7235SOL    HW122604   6.039   5.854   1.810
 7235SOL    HW222605   5.933   5.827   1.931
 7236SOL     OW22606   1.652   2.618   2.715
 7236SOL    HW122607   1.566   2.579   2.747
 7236SOL    HW222608   1.727   2.590   2.774
 7237SOL     OW22609   4.897   6.733   0.021
 7237SOL    HW122610   4.843   6.762   0.100
 7237SOL    HW222611   4.959   6.808   7.018
 7238SOL     OW22612   4.813   2.475   6.899
 7238SOL    HW122613   4.713   2.479   6.893
 7238SOL    HW222614   4.841   2.487   6.994
 7239SOL     OW22615   0.457   3.697   2.281
 7239SOL    HW122616   0.424   3.610   2.245
 7239SOL    HW222617   0.530   3.680   2.347
 7240SOL     OW22618   6.720   1.414   6.136
 7240SOL    HW122619   6.696   1.484   6.068
 7240SOL    HW222620   6.664   1.427   6.218
 7241SOL     OW22621   2.051   0.569   0.561
 7241SOL    HW122622   2.020   0.630   0.488
 7241SOL    HW222623   2.114   0.618   0.621
 7242SOL     OW22624   0.090   6.044   5.204
 7242SOL    HW122625   0.101   6.142   5.217
 7242SOL    HW222626   0.104   6.021   5.107
 7243SOL     OW22627   0.007   3.527   6.485
 7243SOL    HW122628   0.021   3.510   6.583
 7243SOL    HW222629   6.986   3.616   6.473
 7244SOL     OW22630   0.427   6.942   0.462
 7244SOL    HW122631   0.494   6.973   0.529
 7244SOL    HW222632   0.346   6.908   0.509
 7245SOL     OW22633   1.421   2.652   6.103
 7245SOL    HW122634   1.389   2.731   6.051
 7245SOL    HW222635   1.366   2.572   6.078
 7246SOL     OW22636   2.744   0.524   4.241
 7246SOL    HW122637   2.654   0.483   4.221
 7246SOL    HW222638   2.785   0.557   4.156
 7247SOL     OW22639   3.225   2.252   5.591
 7247SOL    HW122640   3.323   2.249   5.576
 7247SOL    HW222641   3.178   2.226   5.506
 7248SOL     OW22642   2.858   0.488   3.974
 7248SOL    HW122643   2.767   0.516   3.945
 7248SOL    HW222644   2.921   0.492   3.896
 7249SOL     OW22645   4.384   4.621   2.174
 7249SOL    HW122646   4.341   4.627   2.264
 7249SOL    HW222647   4.319   4.652   2.105
 7250SOL     OW22648   5.299   4.843   5.981
 7250SOL    HW122649   5.228   4.846   5.910
 7250SOL    HW222650   5.290   4.760   6.034
 7251SOL     OW22651   0.980   6.973   6.051
 7251SOL    HW122652   0.930   6.947   6.133
 7251SOL    HW222653   0.940   6.927   5.972
 7252SOL     OW22654   2.924   3.677   2.190
 7252SOL    HW122655   2.916   3.608   2.263
 7252SOL    HW222656   2.973   3.638   2.113
 7253SOL     OW22657   1.711   6.886   6.002
 7253SOL    HW122658   1.758   6.871   5.915
 7253SOL    HW222659   1.765   6.846   6.076
 7254SOL     OW22660   5.590   5.166   3.980
 7254SOL    HW122661   5.650   5.210   3.914
 7254SOL    HW222662   5.641   5.148   4.064
 7255SOL     OW22663   4.748   3.308   6.978
 7255SOL    HW122664   4.710   3.400   6.989
 7255SOL    HW222665   4.699   3.245   0.017
 7256SOL     OW22666   4.065   6.659   5.611
 7256SOL    HW122667   3.968   6.636   5.612
 7256SOL    HW222668   4.079   6.744   5.561
 7257SOL     OW22669   0.318   1.587   4.891
 7257SOL    HW122670   0.371   1.598   4.976
 7257SOL    HW222671   0.312   1.490   4.868
 7258SOL     OW22672   5.615   2.209   1.805
 7258SOL    HW122673   5.659   2.126   1.772
 7258SOL    HW222674   5.685   2.276   1.829
 7259SOL     OW22675   1.157   3.508   2.557
 7259SOL    HW122676   1.190   3.596   2.591
 7259SOL    HW222677   1.235   3.446   2.545
 7260SOL     OW22678   4.941   2.495   1.110
 7260SOL    HW122679   4.878   2.418   1.107
 7260SOL    HW222680   4.959   2.520   1.205
 7261SOL     OW22681   0.280   3.948   1.089
 7261SOL    HW122682   0.335   4.025   1.124
 7261SOL    HW222683   0.213   3.921   1.158
 7262SOL     OW22684   5.631   0.828   6.406
 7262SOL    HW122685   5.553   0.890   6.405
 7262SOL    HW222686   5.598   0.734   6.414
 7263SOL     OW22687   0.227   6.412   0.277
 7263SOL    HW122688   0.311   6.457   0.306
 7263SOL    HW222689   0.202   6.340   0.342
 7264SOL     OW22690   5.463   1.192   1.104
 7264SOL    HW122691   5.448   1.155   1.196
 7264SOL    HW222692   5.551   1.161   1.070
 7265SOL     OW22693   5.881   5.465   4.748
 7265SOL    HW122694   5.818   5.539   4.771
 7265SOL    HW222695   5.899   5.410   4.829
 7266SOL     OW22696   6.377   0.885   3.875
 7266SOL    HW122697   6.358   0.914   3.968
 7266SOL    HW222698   6.424   0.797   3.876
 7267SOL     OW22699   6.637   6.715   4.762
 7267SOL    HW122700   6.689   6.792   4.725
 7267SOL    HW222701   6.668   6.630   4.720
 7268SOL     OW22702   0.097   5.153   4.513
 7268SOL    HW122703   0.080   5.243   4.472
 7268SOL    HW222704   0.161   5.163   4.589
 7269SOL     OW22705   1.964   6.146   5.869
 7269SOL    HW122706   1.892   6.207   5.902
 7269SOL    HW222707   2.043   6.153   5.929
 7270SOL     OW22708   0.130   2.139   3.809
 7270SOL    HW122709   0.093   2.195   3.735
 7270SOL    HW222710   0.200   2.078   3.772
 7271SOL     OW22711   1.730   5.137   4.037
 7271SOL    HW122712   1.820   5.106   4.006
 7271SOL    HW222713   1.741   5.216   4.098
 7272SOL     OW22714   6.424   5.999   2.080
 7272SOL    HW122715   6.353   5.938   2.047
 7272SOL    HW222716   6.512   5.952   2.080
 7273SOL     OW22717   5.067   3.511   6.766
 7273SOL    HW122718   5.025   3.439   6.820
 7273SOL    HW222719   5.123   3.471   6.694
 7274SOL     OW22720   0.382   4.315   6.974
 7274SOL    HW122721   0.380   4.222   7.011
 7274SOL    HW222722   0.288   4.344   6.952
 7275SOL     OW22723   0.157   5.629   2.926
 7275SOL    HW122724   0.241   5.577   2.917
 7275SOL    HW222725   0.125   5.625   3.021
 7276SOL     OW22726   5.471   0.358   3.802
 7276SOL    HW122727   5.423   0.317   3.725
 7276SOL    HW222728   5.570   0.350   3.787
 7277SOL     OW22729   5.008   0.608   5.554
 7277SOL    HW122730   4.946   0.582   5.628
 7277SOL    HW222731   5.085   0.545   5.552
 7278SOL     OW22732   3.274   3.631   1.248
 7278SOL    HW122733   3.214   3.641   1.327
 7278SOL    HW222734   3.222   3.596   1.170
 7279SOL     OW22735   4.355   6.135   0.198
 7279SOL    HW122736   4.452   6.126   0.175
 7279SOL    HW222737   4.345   6.185   0.284
 7280SOL     OW22738   6.479   0.268   4.358
 7280SOL    HW122739   6.526   0.356   4.360
 7280SOL    HW222740   6.433   0.253   4.445
 7281SOL     OW22741   3.169   2.151   6.948
 7281SOL    HW122742   3.224   2.224   6.989
 7281SOL    HW222743   3.088   2.135   7.004
 7282SOL     OW22744   6.099   4.952   2.617
 7282SOL    HW122745   6.086   5.051   2.606
 7282SOL    HW222746   6.121   4.911   2.529
 7283SOL     OW22747   2.839   1.616   3.296
 7283SOL    HW122748   2.819   1.520   3.277
 7283SOL    HW222749   2.764   1.673   3.263
 7284SOL     OW22750   0.935   3.368   5.528
 7284SOL    HW122751   0.854   3.312   5.546
 7284SOL    HW222752   0.952   3.371   5.430
 7285SOL     OW22753   5.293   3.714   2.547
 7285SOL    HW122754   5.386   3.680   2.560
 7285SOL    HW222755   5.296   3.812   2.526
 7286SOL     OW22756   3.034   1.958   0.802
 7286SOL    HW122757   3.024   1.875   0.747
 7286SOL    HW222758   2.963   2.024   0.777
 7287SOL     OW22759   0.101   2.079   6.439
 7287SOL    HW122760   0.179   2.041   6.488
 7287SOL    HW222761   0.115   2.177   6.424
 7288SOL     OW22762   3.416   0.870   6.803
 7288SOL    HW122763   3.454   0.938   6.866
 7288SOL    HW222764   3.468   0.871   6.718
 7289SOL     OW22765   6.396   1.588   3.426
 7289SOL    HW122766   6.352   1.508   3.386
 7289SOL    HW222767   6.328   1.642   3.475
 7290SOL     OW22768   3.177   6.697   5.483
 7290SOL    HW122769   3.091   6.740   5.514
 7290SOL    HW222770   3.239   6.689   5.561
 7291SOL     OW22771   1.532   6.722   1.270
 7291SOL    HW122772   1.490   6.652   1.212
 7291SOL    HW222773   1.498   6.812   1.243
 7292SOL     OW22774   2.575   0.773   4.114
 7292SOL    HW122775   2.665   0.813   4.129
 7292SOL    HW222776   2.510   0.813   4.179
 7293SOL     OW22777   1.757   1.681   5.435
 7293SOL    HW122778   1.659   1.686   5.414
 7293SOL    HW222779   1.774   1.715   5.527
 7294SOL     OW22780   2.419   5.269   0.242
 7294SOL    HW122781   2.347   5.214   0.201
 7294SOL    HW222782   2.394   5.366   0.236
 7295SOL     OW22783   0.744   2.522   1.021
 7295SOL    HW122784   0.744   2.614   1.062
 7295SOL    HW222785   0.797   2.524   0.936
 7296SOL     OW22786   2.875   5.288   1.118
 7296SOL    HW122787   2.930   5.292   1.201
 7296SOL    HW222788   2.834   5.197   1.110
 7297SOL     OW22789   4.048   5.546   0.869
 7297SOL    HW122790   3.997   5.633   0.875
 7297SOL    HW222791   4.117   5.543   0.941
 7298SOL     OW22792   4.779   4.334   5.565
 7298SOL    HW122793   4.794   4.264   5.636
 7298SOL    HW222794   4.859   4.340   5.506
 7299SOL     OW22795   0.027   1.676   0.154
 7299SOL    HW122796   6.951   1.676   0.148
 7299SOL    HW222797   0.064   1.591   0.116
 7300SOL     OW22798   6.199   5.832   2.359
 7300SOL    HW122799   6.112   5.878   2.340
 7300SOL    HW222800   6.271   5.872   2.302
 7301SOL     OW22801   6.570   0.842   4.817
 7301SOL    HW122802   6.616   0.896   4.887
 7301SOL    HW222803   6.497   0.897   4.775
 7302SOL     OW22804   0.751   1.390   6.123
 7302SOL    HW122805   0.841   1.432   6.113
 7302SOL    HW222806   0.688   1.455   6.165
 7303SOL     OW22807   4.596   0.467   6.762
 7303SOL    HW122808   4.563   0.528   6.690
 7303SOL    HW222809   4.563   0.499   6.850
 7304SOL     OW22810   3.691   4.391   0.246
 7304SOL    HW122811   3.781   4.347   0.239
 7304SOL    HW222812   3.679   4.430   0.337
 7305SOL     OW22813   4.614   1.458   0.577
 7305SOL    HW122814   4.523   1.481   0.612
 7305SOL    HW222815   4.651   1.537   0.528
 7306SOL     OW22816   5.232   2.984   1.279
 7306SOL    HW122817   5.253   2.887   1.277
 7306SOL    HW222818   5.313   3.036   1.306
 7307SOL     OW22819   2.719   0.127   1.709
 7307SOL    HW122820   2.766   0.192   1.768
 7307SOL    HW222821   2.635   0.168   1.673
 7308SOL     OW22822   7.018   4.193   5.460
 7308SOL    HW122823   6.931   4.156   5.493
 7308SOL    HW222824   0.067   4.172   5.526
 7309SOL     OW22825   5.199   5.764   0.323
 7309SOL    HW122826   5.232   5.702   0.395
 7309SOL    HW222827   5.272   5.826   0.296
 7310SOL     OW22828   2.166   3.949   1.482
 7310SOL    HW122829   2.128   3.866   1.524
 7310SOL    HW222830   2.251   3.974   1.528
 7311SOL     OW22831   3.516   2.073   2.282
 7311SOL    HW122832   3.546   2.143   2.218
 7311SOL    HW222833   3.565   1.988   2.264
 7312SOL     OW22834   0.215   3.285   5.909
 7312SOL    HW122835   0.288   3.343   5.945
 7312SOL    HW222836   0.244   3.245   5.822
 7313SOL     OW22837   3.981   2.051   6.300
 7313SOL    HW122838   4.080   2.063   6.309
 7313SOL    HW222839   3.956   2.056   6.203
 7314SOL     OW22840   6.454   3.393   5.196
 7314SOL    HW122841   6.436   3.384   5.294
 7314SOL    HW222842   6.459   3.302   5.154
 7315SOL     OW22843   6.810   0.280   2.869
 7315SOL    HW122844   6.813   0.334   2.953
 7315SOL    HW222845   6.759   0.330   2.799
 7316SOL     OW22846   2.986   3.702   6.238
 7316SOL    HW122847   2.992   3.675   6.334
 7316SOL    HW222848   3.074   3.738   6.208
 7317SOL     OW22849   4.817   0.859   2.541
 7317SOL    HW122850   4.774   0.771   2.560
 7317SOL    HW222851   4.747   0.925   2.513
 7318SOL     OW22852   1.118   1.647   0.649
 7318SOL    HW122853   1.196   1.696   0.687
 7318SOL    HW222854   1.042   1.651   0.714
 7319SOL     OW22855   6.077   3.701   5.972
 7319SOL    HW122856   5.999   3.704   6.035
 7319SOL    HW222857   6.150   3.647   6.012
 7320SOL     OW22858   6.473   3.657   1.919
 7320SOL    HW122859   6.396   3.673   1.857
 7320SOL    HW222860   6.557   3.645   1.867
 7321SOL     OW22861   3.439   6.352   5.359
 7321SOL    HW122862   3.377   6.409   5.306
 7321SOL    HW222863   3.480   6.283   5.300
 7322SOL     OW22864   0.049   2.624   2.788
 7322SOL    HW122865   0.075   2.561   2.716
 7322SOL    HW222866   0.087   2.593   2.875
 7323SOL     OW22867   2.261   2.098   1.493
 7323SOL    HW122868   2.178   2.150   1.475
 7323SOL    HW222869   2.293   2.055   1.409
 7324SOL     OW22870   5.147   6.440   2.561
 7324SOL    HW122871   5.086   6.363   2.541
 7324SOL    HW222872   5.092   6.523   2.573
 7325SOL     OW22873   3.803   6.779   0.436
 7325SOL    HW122874   3.756   6.756   0.351
 7325SOL    HW222875   3.868   6.853   0.419
 7326SOL     OW22876   2.977   6.846   5.608
 7326SOL    HW122877   2.928   6.807   5.686
 7326SOL    HW222878   3.031   6.924   5.637
 7327SOL     OW22879   6.900   2.738   5.168
 7327SOL    HW122880   6.854   2.686   5.097
 7327SOL    HW222881   6.884   2.835   5.155
 7328SOL     OW22882   3.748   0.706   5.903
 7328SOL    HW122883   3.833   0.758   5.905
 7328SOL    HW222884   3.765   0.613   5.937
 7329SOL     OW22885   4.541   3.944   1.493
 7329SOL    HW122886   4.475   3.873   1.517
 7329SOL    HW222887   4.495   4.032   1.489
 7330SOL     OW22888   2.934   2.140   0.072
 7330SOL    HW122889   2.878   2.177   7.021
 7330SOL    HW222890   2.895   2.168   0.160
 7331SOL     OW22891   5.858   0.190   1.882
 7331SOL    HW122892   5.872   0.093   1.859
 7331SOL    HW222893   5.788   0.229   1.822
 7332SOL     OW22894   1.943   6.151   0.233
 7332SOL    HW122895   1.890   6.121   0.312
 7332SOL    HW222896   2.027   6.097   0.227
 7333SOL     OW22897   0.031   3.357   3.777
 7333SOL    HW122898   0.038   3.396   3.868
 7333SOL    HW222899   0.122   3.328   3.746
 7334SOL     OW22900   3.638   6.411   0.161
 7334SOL    HW122901   3.604   6.419   0.255
 7334SOL    HW222902   3.560   6.397   0.099
 7335SOL     OW22903   2.049   2.978   2.634
 7335SOL    HW122904   2.095   2.989   2.722
 7335SOL    HW222905   2.112   3.002   2.560
 7336SOL     OW22906   1.623   6.266   3.012
 7336SOL    HW122907   1.571   6.246   3.095
 7336SOL    HW222908   1.720   6.271   3.034
 7337SOL     OW22909   0.494   2.867   2.026
 7337SOL    HW122910   0.477   2.891   1.930
 7337SOL    HW222911   0.407   2.865   2.075
 7338SOL     OW22912   6.192   2.995   1.079
 7338SOL    HW122913   6.276   2.941   1.087
 7338SOL    HW222914   6.116   2.942   1.117
 7339SOL     OW22915   5.037   6.599   3.633
 7339SOL    HW122916   4.983   6.516   3.620
 7339SOL    HW222917   5.021   6.635   3.725
 7340SOL     OW22918   1.297   0.774   0.681
 7340SOL    HW122919   1.220   0.813   0.730
 7340SOL    HW222920   1.376   0.835   0.690
 7341SOL     OW22921   6.719   2.975   6.674
 7341SOL    HW122922   6.727   2.887   6.627
 7341SOL    HW222923   6.623   2.992   6.697
 7342SOL     OW22924   6.386   1.474   1.622
 7342SOL    HW122925   6.453   1.420   1.674
 7342SOL    HW222926   6.297   1.428   1.624
 7343SOL     OW22927   4.609   2.941   0.062
 7343SOL    HW122928   4.678   2.955   7.014
 7343SOL    HW222929   4.523   2.983   0.034
 7344SOL     OW22930   1.099   6.568   6.580
 7344SOL    HW122931   1.161   6.519   6.519
 7344SOL    HW222932   1.004   6.547   6.555
 7345SOL     OW22933   3.724   3.513   5.725
 7345SOL    HW122934   3.635   3.473   5.700
 7345SOL    HW222935   3.726   3.609   5.698
 7346SOL     OW22936   3.900   5.568   2.656
 7346SOL    HW122937   3.860   5.562   2.565
 7346SOL    HW222938   3.873   5.488   2.710
 7347SOL     OW22939   0.790   1.948   0.679
 7347SOL    HW122940   0.693   1.928   0.684
 7347SOL    HW222941   0.831   1.943   0.770
 7348SOL     OW22942   1.442   3.537   3.784
 7348SOL    HW122943   1.364   3.500   3.732
 7348SOL    HW222944   1.414   3.552   3.878
 7349SOL     OW22945   4.366   0.183   2.206
 7349SOL    HW122946   4.284   0.133   2.232
 7349SOL    HW222947   4.440   0.119   2.184
 7350SOL     OW22948   2.650   1.876   5.588
 7350SOL    HW122949   2.736   1.847   5.547
 7350SOL    HW222950   2.660   1.969   5.625
 7351SOL     OW22951   5.640   5.963   3.483
 7351SOL    HW122952   5.734   5.931   3.471
 7351SOL    HW222953   5.587   5.895   3.533
 7352SOL     OW22954   0.518   1.515   2.754
 7352SOL    HW122955   0.594   1.525   2.818
 7352SOL    HW222956   0.519   1.592   2.689
 7353SOL     OW22957   0.322   0.159   6.697
 7353SOL    HW122958   0.409   0.120   6.725
 7353SOL    HW222959   0.313   0.252   6.733
 7354SOL     OW22960   1.762   1.087   4.770
 7354SOL    HW122961   1.677   1.107   4.819
 7354SOL    HW222962   1.811   1.173   4.752
 7355SOL     OW22963   0.582   1.772   6.965
 7355SOL    HW122964   0.499   1.815   6.999
 7355SOL    HW222965   0.561   1.682   6.927
 7356SOL     OW22966   3.929   3.475   6.322
 7356SOL    HW122967   3.971   3.401   6.374
 7356SOL    HW222968   3.998   3.517   6.263
 7357SOL     OW22969   3.107   5.833   2.279
 7357SOL    HW122970   3.113   5.884   2.364
 7357SOL    HW222971   3.017   5.791   2.270
 7358SOL     OW22972   6.614   3.607   2.780
 7358SOL    HW122973   6.684   3.607   2.708
 7358SOL    HW222974   6.659   3.608   2.869
 7359SOL     OW22975   4.287   2.089   5.721
 7359SOL    HW122976   4.336   2.161   5.771
 7359SOL    HW222977   4.304   2.001   5.766
 7360SOL     OW22978   2.545   3.447   5.508
 7360SOL    HW122979   2.627   3.491   5.470
 7360SOL    HW222980   2.567   3.352   5.534
 7361SOL     OW22981   5.595   1.056   2.711
 7361SOL    HW122982   5.496   1.059   2.699
 7361SOL    HW222983   5.616   1.027   2.805
 7362SOL     OW22984   3.034   5.830   6.002
 7362SOL    HW122985   3.022   5.851   6.099
 7362SOL    HW222986   3.025   5.914   5.948
 7363SOL     OW22987   4.601   0.981   1.396
 7363SOL    HW122988   4.642   0.923   1.326
 7363SOL    HW222989   4.594   1.075   1.361
 7364SOL     OW22990   4.351   0.166   1.910
 7364SOL    HW122991   4.337   0.175   2.009
 7364SOL    HW222992   4.305   0.241   1.863
 7365SOL     OW22993   0.311   6.121   2.374
 7365SOL    HW122994   0.358   6.082   2.453
 7365SOL    HW222995   0.218   6.085   2.369
 7366SOL     OW22996   2.567   6.373   5.451
 7366SOL    HW122997   2.639   6.439   5.469
 7366SOL    HW222998   2.527   6.390   5.361
 7367SOL     OW22999   3.920   2.596   0.441
 7367SOL    HW123000   4.005   2.596   0.388
 7367SOL    HW223001   3.860   2.522   0.408
 7368SOL     OW23002   3.484   2.869   3.077
 7368SOL    HW123003   3.527   2.860   3.167
 7368SOL    HW223004   3.401   2.923   3.085
 7369SOL     OW23005   3.832   2.797   1.131
 7369SOL    HW123006   3.885   2.874   1.097
 7369SOL    HW223007   3.735   2.822   1.133
 7370SOL     OW23008   3.015   2.266   5.889
 7370SOL    HW123009   3.113   2.244   5.887
 7370SOL    HW223010   2.979   2.267   5.796
 7371SOL     OW23011   3.114   6.554   3.866
 7371SOL    HW123012   3.031   6.583   3.818
 7371SOL    HW223013   3.111   6.455   3.880
 7372SOL     OW23014   4.363   6.859   4.867
 7372SOL    HW123015   4.416   6.828   4.947
 7372SOL    HW223016   4.421   6.859   4.786
 7373SOL     OW23017   5.801   1.943   4.959
 7373SOL    HW123018   5.878   2.006   4.965
 7373SOL    HW223019   5.828   1.862   4.907
 7374SOL     OW23020   1.718   2.180   4.967
 7374SOL    HW123021   1.728   2.267   4.919
 7374SOL    HW223022   1.708   2.197   5.065
 7375SOL     OW23023   2.264   2.667   1.914
 7375SOL    HW123024   2.278   2.588   1.855
 7375SOL    HW223025   2.310   2.652   2.002
 7376SOL     OW23026   1.101   3.080   1.258
 7376SOL    HW123027   1.054   3.160   1.220
 7376SOL    HW223028   1.096   3.083   1.358
 7377SOL     OW23029   3.794   4.843   0.858
 7377SOL    HW123030   3.818   4.935   0.890
 7377SOL    HW223031   3.841   4.824   0.772
 7378SOL     OW23032   1.460   6.906   4.842
 7378SOL    HW123033   1.399   6.955   4.903
 7378SOL    HW223034   1.507   6.834   4.892
 7379SOL     OW23035   2.804   0.814   1.942
 7379SOL    HW123036   2.707   0.830   1.921
 7379SOL    HW223037   2.859   0.888   1.904
 7380SOL     OW23038   6.521   4.198   3.609
 7380SOL    HW123039   6.585   4.126   3.634
 7380SOL    HW223040   6.533   4.276   3.669
 7381SOL     OW23041   4.192   2.860   0.627
 7381SOL    HW123042   4.179   2.957   0.604
 7381SOL    HW223043   4.286   2.845   0.658
 7382SOL     OW23044   6.738   2.164   5.982
 7382SOL    HW123045   6.665   2.201   6.039
 7382SOL    HW223046   6.726   2.066   5.972
 7383SOL     OW23047   2.013   5.900   1.692
 7383SOL    HW123048   2.036   5.803   1.686
 7383SOL    HW223049   1.921   5.915   1.657
 7384SOL     OW23050   6.635   0.107   1.457
 7384SOL    HW123051   6.547   0.075   1.495
 7384SOL    HW223052   6.631   0.206   1.443
 7385SOL     OW23053   2.732   5.069   2.618
 7385SOL    HW123054   2.756   5.089   2.713
 7385SOL    HW223055   2.807   5.098   2.558
 7386SOL     OW23056   6.462   2.988   6.833
 7386SOL    HW123057   6.376   3.014   6.789
 7386SOL    HW223058   6.444   2.965   6.929
 7387SOL     OW23059   6.744   5.477   5.851
 7387SOL    HW123060   6.676   5.506   5.918
 7387SOL    HW223061   6.791   5.558   5.815
 7388SOL     OW23062   1.290   5.033   2.207
 7388SOL    HW123063   1.266   4.966   2.137
 7388SOL    HW223064   1.296   4.987   2.296
 7389SOL     OW23065   6.991   3.791   0.705
 7389SOL    HW123066   7.009   3.692   0.701
 7389SOL    HW223067   0.053   3.840   0.724
 7390SOL     OW23068   2.744   1.812   2.235
 7390SOL    HW123069   2.798   1.733   2.205
 7390SOL    HW223070   2.786   1.895   2.199
 7391SOL     OW23071   4.159   3.584   2.834
 7391SOL    HW123072   4.152   3.497   2.884
 7391SOL    HW223073   4.226   3.643   2.880
 7392SOL     OW23074   3.398   6.400   7.015
 7392SOL    HW123075   3.363   6.363   6.930
 7392SOL    HW223076   3.432   6.493   6.999
 7393SOL     OW23077   6.262   4.477   3.547
 7393SOL    HW123078   6.231   4.569   3.569
 7393SOL    HW223079   6.246   4.416   3.625
 7394SOL     OW23080   1.907   3.153   6.221
 7394SOL    HW123081   1.858   3.067   6.203
 7394SOL    HW223082   2.001   3.144   6.188
 7395SOL     OW23083   2.189   3.138   1.525
 7395SOL    HW123084   2.151   3.133   1.618
 7395SOL    HW223085   2.267   3.075   1.518
 7396SOL     OW23086   2.255   6.454   1.691
 7396SOL    HW123087   2.185   6.410   1.747
 7396SOL    HW223088   2.264   6.404   1.604
 7397SOL     OW23089   4.890   3.397   4.404
 7397SOL    HW123090   4.902   3.298   4.396
 7397SOL    HW223091   4.914   3.426   4.496
 7398SOL     OW23092   1.133   4.881   3.128
 7398SOL    HW123093   1.157   4.923   3.215
 7398SOL    HW223094   1.200   4.907   3.058
 7399SOL     OW23095   6.663   2.785   4.740
 7399SOL    HW123096   6.584   2.765   4.682
 7399SOL    HW223097   6.730   2.838   4.688
 7400SOL     OW23098   5.194   2.062   5.633
 7400SOL    HW123099   5.229   1.990   5.692
 7400SOL    HW223100   5.122   2.112   5.680
 7401SOL     OW23101   2.139   2.536   3.370
 7401SOL    HW123102   2.086   2.480   3.306
 7401SOL    HW223103   2.106   2.630   3.368
 7402SOL     OW23104   2.847   4.808   5.851
 7402SOL    HW123105   2.765   4.756   5.825
 7402SOL    HW223106   2.891   4.764   5.930
 7403SOL     OW23107   1.813   2.982   2.878
 7403SOL    HW123108   1.869   3.011   2.956
 7403SOL    HW223109   1.871   2.938   2.810
 7404SOL     OW23110   2.927   3.781   1.869
 7404SOL    HW123111   2.918   3.773   1.968
 7404SOL    HW223112   2.998   3.718   1.836
 7405SOL     OW23113   3.042   5.386   5.023
 7405SOL    HW123114   2.993   5.299   5.021
 7405SOL    HW223115   3.136   5.371   5.053
 7406SOL     OW23116   1.016   1.484   5.362
 7406SOL    HW123117   0.960   1.413   5.405
 7406SOL    HW223118   1.036   1.457   5.267
 7407SOL     OW23119   1.240   6.241   6.708
 7407SOL    HW123120   1.193   6.196   6.632
 7407SOL    HW223121   1.337   6.217   6.706
 7408SOL     OW23122   3.372   4.129   5.584
 7408SOL    HW123123   3.389   4.100   5.490
 7408SOL    HW223124   3.455   4.170   5.622
 7409SOL     OW23125   5.350   4.476   0.096
 7409SOL    HW123126   5.396   4.409   0.155
 7409SOL    HW223127   5.339   4.437   0.004
 7410SOL     OW23128   0.429   0.399   0.420
 7410SOL    HW123129   0.409   0.488   0.379
 7410SOL    HW223130   0.522   0.400   0.458
 7411SOL     OW23131   1.707   1.175   6.187
 7411SOL    HW123132   1.767   1.101   6.216
 7411SOL    HW223133   1.762   1.253   6.156
 7412SOL     OW23134   3.948   6.591   0.647
 7412SOL    HW123135   3.863   6.633   0.614
 7412SOL    HW223136   3.934   6.493   0.659
 7413SOL     OW23137   4.659   4.302   3.201
 7413SOL    HW123138   4.739   4.291   3.260
 7413SOL    HW223139   4.581   4.330   3.257
 7414SOL     OW23140   2.084   1.974   4.422
 7414SOL    HW123141   2.038   2.036   4.487
 7414SOL    HW223142   2.041   1.884   4.426
 7415SOL     OW23143   3.516   6.138   6.225
 7415SOL    HW123144   3.424   6.106   6.202
 7415SOL    HW223145   3.558   6.075   6.290
 7416SOL     OW23146   1.859   1.561   2.401
 7416SOL    HW123147   1.882   1.615   2.481
 7416SOL    HW223148   1.774   1.595   2.360
 7417SOL     OW23149   1.850   2.087   2.136
 7417SOL    HW123150   1.837   2.157   2.206
 7417SOL    HW223151   1.946   2.060   2.132
 7418SOL     OW23152   1.818   4.774   0.198
 7418SOL    HW123153   1.838   4.695   0.140
 7418SOL    HW223154   1.791   4.743   0.289
 7419SOL     OW23155   6.200   3.700   3.927
 7419SOL    HW123156   6.135   3.629   3.901
 7419SOL    HW223157   6.215   3.762   3.849
 7420SOL     OW23158   6.596   5.866   1.731
 7420SOL    HW123159   6.596   5.783   1.675
 7420SOL    HW223160   6.502   5.889   1.756
 7421SOL     OW23161   4.309   3.826   1.591
 7421SOL    HW123162   4.239   3.878   1.543
 7421SOL    HW223163   4.341   3.878   1.671
 7422SOL     OW23164   6.141   3.827   2.270
 7422SOL    HW123165   6.069   3.765   2.298
 7422SOL    HW223166   6.219   3.775   2.234
 7423SOL     OW23167   5.656   2.287   5.147
 7423SOL    HW123168   5.734   2.270   5.206
 7423SOL    HW223169   5.581   2.226   5.173
 7424SOL     OW23170   6.570   1.784   5.338
 7424SOL    HW123171   6.667   1.808   5.339
 7424SOL    HW223172   6.515   1.867   5.341
 7425SOL     OW23173   5.423   0.039   0.422
 7425SOL    HW123174   5.418   6.984   0.360
 7425SOL    HW223175   5.352   0.030   0.492
 7426SOL     OW23176   3.473   2.199   5.513
 7426SOL    HW123177   3.448   2.103   5.525
 7426SOL    HW223178   3.435   2.233   5.427
 7427SOL     OW23179   3.799   1.257   3.648
 7427SOL    HW123180   3.801   1.301   3.738
 7427SOL    HW223181   3.889   1.219   3.627
 7428SOL     OW23182   4.459   0.071   5.476
 7428SOL    HW123183   4.486   7.009   5.522
 7428SOL    HW223184   4.372   0.103   5.512
 7429SOL     OW23185   0.930   6.682   3.073
 7429SOL    HW123186   0.868   6.713   3.144
 7429SOL    HW223187   0.887   6.609   3.019
 7430SOL     OW23188   6.906   4.326   1.890
 7430SOL    HW123189   6.962   4.348   1.970
 7430SOL    HW223190   6.947   4.366   1.808
 7431SOL     OW23191   1.963   2.062   3.924
 7431SOL    HW123192   2.003   2.062   4.016
 7431SOL    HW223193   1.947   1.968   3.895
 7432SOL     OW23194   1.803   0.403   3.371
 7432SOL    HW123195   1.845   0.494   3.367
 7432SOL    HW223196   1.852   0.346   3.437
 7433SOL     OW23197   3.220   6.725   6.687
 7433SOL    HW123198   3.172   6.776   6.758
 7433SOL    HW223199   3.291   6.782   6.647
 7434SOL     OW23200   4.950   6.100   5.748
 7434SOL    HW123201   4.998   6.050   5.820
 7434SOL    HW223202   4.919   6.188   5.784
 7435SOL     OW23203   4.506   5.866   1.888
 7435SOL    HW123204   4.418   5.823   1.868
 7435SOL    HW223205   4.564   5.862   1.806
 7436SOL     OW23206   4.631   4.385   6.219
 7436SOL    HW123207   4.664   4.348   6.132
 7436SOL    HW223208   4.645   4.483   6.221
 7437SOL     OW23209   3.026   6.151   1.390
 7437SOL    HW123210   3.042   6.055   1.414
 7437SOL    HW223211   2.968   6.193   1.459
 7438SOL     OW23212   1.799   0.669   0.292
 7438SOL    HW123213   1.764   0.760   0.270
 7438SOL    HW223214   1.750   0.633   0.371
 7439SOL     OW23215   1.881   5.306   5.316
 7439SOL    HW123216   1.798   5.252   5.302
 7439SOL    HW223217   1.905   5.353   5.230
 7440SOL     OW23218   6.214   2.996   3.888
 7440SOL    HW123219   6.313   2.995   3.871
 7440SOL    HW223220   6.168   3.043   3.812
 7441SOL     OW23221   5.932   6.582   3.793
 7441SOL    HW123222   5.920   6.606   3.890
 7441SOL    HW223223   5.858   6.521   3.765
 7442SOL     OW23224   5.900   0.841   6.093
 7442SOL    HW123225   5.927   0.755   6.050
 7442SOL    HW223226   5.970   0.870   6.158
 7443SOL     OW23227   6.895   5.483   1.621
 7443SOL    HW123228   6.805   5.445   1.641
 7443SOL    HW223229   6.885   5.577   1.587
 7444SOL     OW23230   6.393   1.286   6.282
 7444SOL    HW123231   6.381   1.358   6.214
 7444SOL    HW223232   6.463   1.313   6.348
 7445SOL     OW23233   3.538   6.937   1.342
 7445SOL    HW123234   3.452   6.923   1.293
 7445SOL    HW223235   3.574   0.005   1.321
 7446SOL     OW23236   5.296   2.662   0.395
 7446SOL    HW123237   5.266   2.716   0.316
 7446SOL    HW223238   5.274   2.712   0.479
 7447SOL     OW23239   6.619   4.505   6.427
 7447SOL    HW123240   6.534   4.515   6.477
 7447SOL    HW223241   6.611   4.431   6.360
 7448SOL     OW23242   5.453   6.325   5.907
 7448SOL    HW123243   5.422   6.420   5.903
 7448SOL    HW223244   5.393   6.273   5.967
 7449SOL     OW23245   0.244   5.292   0.592
 7449SOL    HW123246   0.331   5.341   0.591
 7449SOL    HW223247   0.208   5.285   0.499
 7450SOL     OW23248   5.356   2.295   5.607
 7450SOL    HW123249   5.384   2.357   5.680
 7450SOL    HW223250   5.300   2.221   5.646
 7451SOL     OW23251   5.580   5.457   2.595
 7451SOL    HW123252   5.507   5.423   2.655
 7451SOL    HW223253   5.594   5.554   2.612
 7452SOL     OW23254   6.266   6.194   4.381
 7452SOL    HW123255   6.293   6.244   4.299
 7452SOL    HW223256   6.172   6.161   4.370
 7453SOL     OW23257   4.921   5.589   6.438
 7453SOL    HW123258   4.901   5.617   6.532
 7453SOL    HW223259   4.840   5.604   6.381
 7454SOL     OW23260   3.235   1.612   0.594
 7454SOL    HW123261   3.238   1.634   0.496
 7454SOL    HW223262   3.162   1.666   0.638
 7455SOL     OW23263   6.363   3.024   2.530
 7455SOL    HW123264   6.367   3.123   2.527
 7455SOL    HW223265   6.344   2.988   2.439
 7456SOL     OW23266   2.575   1.989   5.311
 7456SOL    HW123267   2.567   1.923   5.386
 7456SOL    HW223268   2.671   1.998   5.284
 7457SOL     OW23269   2.528   0.118   3.802
 7457SOL    HW123270   2.579   0.112   3.888
 7457SOL    HW223271   2.549   0.039   3.745
 7458SOL     OW23272   1.063   0.160   5.325
 7458SOL    HW123273   1.111   0.236   5.281
 7458SOL    HW223274   1.013   0.194   5.405
 7459SOL     OW23275   5.947   1.250   2.407
 7459SOL    HW123276   5.999   1.228   2.490
 7459SOL    HW223277   6.010   1.280   2.335
 7460SOL     OW23278   1.667   6.428   0.093
 7460SOL    HW123279   1.586   6.417   0.151
 7460SOL    HW223280   1.645   6.485   0.014
 7461SOL     OW23281   6.495   6.442   5.137
 7461SOL    HW123282   6.511   6.484   5.226
 7461SOL    HW223283   6.493   6.342   5.147
 7462SOL     OW23284   1.248   5.560   1.020
 7462SOL    HW123285   1.226   5.607   0.934
 7462SOL    HW223286   1.295   5.623   1.081
 7463SOL     OW23287   3.233   4.600   0.528
 7463SOL    HW123288   3.208   4.670   0.461
 7463SOL    HW223289   3.198   4.627   0.618
 7464SOL     OW23290   0.084   5.711   4.541
 7464SOL    HW123291   0.013   5.641   4.545
 7464SOL    HW223292   0.157   5.688   4.606
 7465SOL     OW23293   2.757   5.551   0.274
 7465SOL    HW123294   2.687   5.538   0.204
 7465SOL    HW223295   2.713   5.562   0.363
 7466SOL     OW23296   0.521   0.812   6.071
 7466SOL    HW123297   0.550   0.763   6.152
 7466SOL    HW223298   0.597   0.820   6.006
 7467SOL     OW23299   0.569   2.473   6.167
 7467SOL    HW123300   0.611   2.506   6.252
 7467SOL    HW223301   0.541   2.551   6.111
 7468SOL     OW23302   5.276   2.804   3.948
 7468SOL    HW123303   5.190   2.775   3.990
 7468SOL    HW223304   5.348   2.806   4.018
 7469SOL     OW23305   6.476   2.075   0.166
 7469SOL    HW123306   6.549   2.118   0.113
 7469SOL    HW223307   6.388   2.109   0.133
 7470SOL     OW23308   5.510   4.174   3.814
 7470SOL    HW123309   5.565   4.136   3.888
 7470SOL    HW223310   5.413   4.173   3.841
 7471SOL     OW23311   5.204   5.900   6.123
 7471SOL    HW123312   5.163   5.859   6.042
 7471SOL    HW223313   5.190   5.840   6.202
 7472SOL     OW23314   6.446   0.977   5.438
 7472SOL    HW123315   6.368   1.039   5.425
 7472SOL    HW223316   6.467   0.971   5.535
 7473SOL     OW23317   4.825   7.009   3.946
 7473SOL    HW123318   4.761   6.972   3.878
 7473SOL    HW223319   4.776   0.001   4.033
 7474SOL     OW23320   6.480   2.618   6.999
 7474SOL    HW123321   6.396   2.653   0.017
 7474SOL    HW223322   6.558   2.645   0.031
 7475SOL     OW23323   4.297   2.353   2.278
 7475SOL    HW123324   4.240   2.279   2.242
 7475SOL    HW223325   4.248   2.439   2.272
 7476SOL     OW23326   2.273   2.185   2.847
 7476SOL    HW123327   2.372   2.176   2.855
 7476SOL    HW223328   2.230   2.167   2.935
 7477SOL     OW23329   0.461   3.200   4.477
 7477SOL    HW123330   0.385   3.139   4.453
 7477SOL    HW223331   0.521   3.153   4.542
 7478SOL     OW23332   5.609   3.107   4.974
 7478SOL    HW123333   5.603   3.017   4.931
 7478SOL    HW223334   5.684   3.107   5.041
 7479SOL     OW23335   5.606   3.263   0.324
 7479SOL    HW123336   5.560   3.292   0.240
 7479SOL    HW223337   5.597   3.164   0.334
 7480SOL     OW23338   1.968   5.146   2.479
 7480SOL    HW123339   2.063   5.139   2.448
 7480SOL    HW223340   1.932   5.236   2.455
 7481SOL     OW23341   6.215   4.527   6.791
 7481SOL    HW123342   6.214   4.464   6.870
 7481SOL    HW223343   6.185   4.618   6.821
 7482SOL     OW23344   4.368   2.314   2.774
 7482SOL    HW123345   4.384   2.405   2.735
 7482SOL    HW223346   4.310   2.322   2.855
 7483SOL     OW23347   4.647   2.238   4.628
 7483SOL    HW123348   4.578   2.242   4.556
 7483SOL    HW223349   4.736   2.220   4.588
 7484SOL     OW23350   2.084   5.423   4.557
 7484SOL    HW123351   2.105   5.326   4.547
 7484SOL    HW223352   2.157   5.478   4.517
 7485SOL     OW23353   2.834   6.895   3.533
 7485SOL    HW123354   2.862   6.948   3.453
 7485SOL    HW223355   2.858   6.945   3.616
 7486SOL     OW23356   0.783   5.921   0.153
 7486SOL    HW123357   0.845   5.909   0.075
 7486SOL    HW223358   0.802   6.009   0.196
 7487SOL     OW23359   4.732   1.074   2.773
 7487SOL    HW123360   4.662   1.124   2.723
 7487SOL    HW223361   4.737   0.980   2.738
 7488SOL     OW23362   1.489   6.235   4.122
 7488SOL    HW123363   1.469   6.262   4.216
 7488SOL    HW223364   1.410   6.254   4.064
 7489SOL     OW23365   6.388   3.750   7.006
 7489SOL    HW123366   6.328   3.672   6.988
 7489SOL    HW223367   6.469   3.743   6.948
 7490SOL     OW23368   1.426   1.992   2.154
 7490SOL    HW123369   1.364   1.923   2.191
 7490SOL    HW223370   1.411   2.002   2.056
 7491SOL     OW23371   4.932   2.619   0.460
 7491SOL    HW123372   4.957   2.705   0.415
 7491SOL    HW223373   4.842   2.629   0.501
 7492SOL     OW23374   1.609   0.923   4.075
 7492SOL    HW123375   1.697   0.970   4.072
 7492SOL    HW223376   1.620   0.828   4.044
 7493SOL     OW23377   6.619   3.696   5.514
 7493SOL    HW123378   6.560   3.769   5.479
 7493SOL    HW223379   6.570   3.609   5.512
 7494SOL     OW23380   5.714   0.978   3.789
 7494SOL    HW123381   5.659   0.926   3.723
 7494SOL    HW223382   5.688   0.951   3.882
 7495SOL     OW23383   2.294   2.907   4.639
 7495SOL    HW123384   2.307   2.820   4.687
 7495SOL    HW223385   2.342   2.980   4.688
 7496SOL     OW23386   6.045   3.157   3.708
 7496SOL    HW123387   6.007   3.122   3.623
 7496SOL    HW223388   6.098   3.240   3.689
 7497SOL     OW23389   1.454   6.146   1.270
 7497SOL    HW123390   1.515   6.097   1.208
 7497SOL    HW223391   1.504   6.173   1.352
 7498SOL     OW23392   2.773   0.761   3.703
 7498SOL    HW123393   2.789   0.694   3.775
 7498SOL    HW223394   2.737   0.845   3.744
 7499SOL     OW23395   4.619   1.684   3.614
 7499SOL    HW123396   4.685   1.739   3.562
 7499SOL    HW223397   4.543   1.659   3.554
 7500SOL     OW23398   3.638   6.286   3.845
 7500SOL    HW123399   3.549   6.249   3.873
 7500SOL    HW223400   3.632   6.386   3.842
 7501SOL     OW23401   5.701   3.094   4.134
 7501SOL    HW123402   5.730   3.112   4.041
 7501SOL    HW223403   5.735   3.165   4.195
 7502SOL     OW23404   3.743   0.025   3.970
 7502SOL    HW123405   3.668   7.023   4.031
 7502SOL    HW223406   3.788   0.107   4.004
 7503SOL     OW23407   1.633   6.263   0.720
 7503SOL    HW123408   1.555   6.252   0.658
 7503SOL    HW223409   1.711   6.301   0.670
 7504SOL     OW23410   0.479   6.049   2.171
 7504SOL    HW123411   0.425   6.074   2.252
 7504SOL    HW223412   0.568   6.094   2.176
 7505SOL     OW23413   0.275   1.489   5.704
 7505SOL    HW123414   0.349   1.444   5.654
 7505SOL    HW223415   0.207   1.421   5.730
 7506SOL     OW23416   3.538   2.108   3.329
 7506SOL    HW123417   3.563   2.012   3.344
 7506SOL    HW223418   3.473   2.113   3.252
 7507SOL     OW23419   6.498   3.613   4.549
 7507SOL    HW123420   6.419   3.674   4.547
 7507SOL    HW223421   6.493   3.549   4.472
 7508SOL     OW23422   1.692   5.899   0.197
 7508SOL    HW123423   1.762   5.829   0.186
 7508SOL    HW223424   1.651   5.920   0.109
 7509SOL     OW23425   5.273   3.924   0.399
 7509SOL    HW123426   5.238   3.836   0.430
 7509SOL    HW223427   5.243   3.942   0.306
 7510SOL     OW23428   4.138   3.613   3.968
 7510SOL    HW123429   4.062   3.548   3.972
 7510SOL    HW223430   4.225   3.563   3.974
 7511SOL     OW23431   3.005   5.889   3.156
 7511SOL    HW123432   3.009   5.957   3.230
 7511SOL    HW223433   3.077   5.908   3.090
 7512SOL     OW23434   2.785   0.920   6.459
 7512SOL    HW123435   2.691   0.926   6.426
 7512SOL    HW223436   2.822   0.829   6.437
 7513SOL     OW23437   1.944   2.141   3.125
 7513SOL    HW123438   1.916   2.152   3.221
 7513SOL    HW223439   2.043   2.139   3.119
 7514SOL     OW23440   1.457   4.667   3.683
 7514SOL    HW123441   1.393   4.666   3.606
 7514SOL    HW223442   1.407   4.687   3.768
 7515SOL     OW23443   6.592   4.221   5.154
 7515SOL    HW123444   6.615   4.286   5.226
 7515SOL    HW223445   6.509   4.171   5.179
 7516SOL     OW23446   1.338   5.388   6.140
 7516SOL    HW123447   1.389   5.303   6.157
 7516SOL    HW223448   1.253   5.367   6.093
 7517SOL     OW23449   1.750   2.739   6.685
 7517SOL    HW123450   1.758   2.647   6.723
 7517SOL    HW223451   1.762   2.735   6.586
 7518SOL     OW23452   4.636   2.708   3.838
 7518SOL    HW123453   4.614   2.631   3.778
 7518SOL    HW223454   4.600   2.793   3.799
 7519SOL     OW23455   5.143   0.155   4.537
 7519SOL    HW123456   5.203   0.092   4.488
 7519SOL    HW223457   5.185   0.245   4.541
 7520SOL     OW23458   1.200   1.508   2.417
 7520SOL    HW123459   1.273   1.473   2.474
 7520SOL    HW223460   1.113   1.465   2.443
 7521SOL     OW23461   4.631   1.783   4.664
 7521SOL    HW123462   4.639   1.844   4.585
 7521SOL    HW223463   4.715   1.729   4.673
 7522SOL     OW23464   0.936   6.891   4.573
 7522SOL    HW123465   1.012   6.929   4.624
 7522SOL    HW223466   0.966   6.871   4.479
 7523SOL     OW23467   4.993   0.670   6.194
 7523SOL    HW123468   5.045   0.743   6.150
 7523SOL    HW223469   5.049   0.627   6.264
 7524SOL     OW23470   6.957   2.711   4.537
 7524SOL    HW123471   6.872   2.752   4.506
 7524SOL    HW223472   6.992   2.648   4.466
 7525SOL     OW23473   4.175   6.615   0.096
 7525SOL    HW123474   4.231   6.532   0.091
 7525SOL    HW223475   4.120   6.613   0.179
 7526SOL     OW23476   2.099   3.226   1.777
 7526SOL    HW123477   2.150   3.295   1.830
 7526SOL    HW223478   2.016   3.201   1.825
 7527SOL     OW23479   3.353   5.662   4.147
 7527SOL    HW123480   3.431   5.724   4.143
 7527SOL    HW223481   3.280   5.696   4.088
 7528SOL     OW23482   5.208   1.822   6.875
 7528SOL    HW123483   5.187   1.730   6.841
 7528SOL    HW223484   5.123   1.870   6.893
 7529SOL     OW23485   5.590   1.730   3.353
 7529SOL    HW123486   5.665   1.666   3.365
 7529SOL    HW223487   5.614   1.818   3.395
 7530SOL     OW23488   6.749   1.548   2.110
 7530SOL    HW123489   6.739   1.639   2.070
 7530SOL    HW223490   6.662   1.521   2.153
 7531SOL     OW23491   4.693   2.828   3.202
 7531SOL    HW123492   4.757   2.753   3.180
 7531SOL    HW223493   4.606   2.812   3.157
 7532SOL     OW23494   4.552   5.898   6.533
 7532SOL    HW123495   4.586   5.818   6.583
 7532SOL    HW223496   4.500   5.867   6.453
 7533SOL     OW23497   4.297   2.840   1.591
 7533SOL    HW123498   4.337   2.757   1.632
 7533SOL    HW223499   4.338   2.921   1.634
 7534SOL     OW23500   4.942   6.807   4.409
 7534SOL    HW123501   4.959   6.866   4.330
 7534SOL    HW223502   5.027   6.792   4.459
 7535SOL     OW23503   1.264   6.583   5.078
 7535SOL    HW123504   1.325   6.626   5.012
 7535SOL    HW223505   1.174   6.570   5.037
 7536SOL     OW23506   5.281   6.138   3.984
 7536SOL    HW123507   5.226   6.064   4.022
 7536SOL    HW223508   5.341   6.102   3.912
 7537SOL     OW23509   1.740   5.385   1.980
 7537SOL    HW123510   1.792   5.300   1.972
 7537SOL    HW223511   1.729   5.409   2.076
 7538SOL     OW23512   1.173   2.710   1.700
 7538SOL    HW123513   1.255   2.661   1.729
 7538SOL    HW223514   1.189   2.809   1.705
 7539SOL     OW23515   1.591   5.173   3.304
 7539SOL    HW123516   1.600   5.076   3.323
 7539SOL    HW223517   1.595   5.188   3.205
 7540SOL     OW23518   5.216   5.980   4.471
 7540SOL    HW123519   5.191   5.884   4.485
 7540SOL    HW223520   5.138   6.039   4.492
 7541SOL     OW23521   0.487   4.083   6.694
 7541SOL    HW123522   0.445   4.169   6.666
 7541SOL    HW223523   0.447   4.054   6.781
 7542SOL     OW23524   6.655   5.689   5.458
 7542SOL    HW123525   6.610   5.612   5.413
 7542SOL    HW223526   6.645   5.772   5.403
 7543SOL     OW23527   2.818   0.449   4.783
 7543SOL    HW123528   2.816   0.547   4.763
 7543SOL    HW223529   2.848   0.399   4.702
 7544SOL     OW23530   0.294   2.532   4.234
 7544SOL    HW123531   0.294   2.453   4.172
 7544SOL    HW223532   0.368   2.522   4.300
 7545SOL     OW23533   0.427   5.811   6.241
 7545SOL    HW123534   0.357   5.759   6.192
 7545SOL    HW223535   0.416   5.908   6.222
 7546SOL     OW23536   4.422   2.430   1.898
 7546SOL    HW123537   4.444   2.508   1.839
 7546SOL    HW223538   4.328   2.401   1.880
 7547SOL     OW23539   4.645   0.604   1.510
 7547SOL    HW123540   4.712   0.553   1.563
 7547SOL    HW223541   4.690   0.649   1.433
 7548SOL     OW23542   4.347   1.952   6.961
 7548SOL    HW123543   4.253   1.943   6.992
 7548SOL    HW223544   4.400   1.872   6.989
 7549SOL     OW23545   3.684   2.506   6.343
 7549SOL    HW123546   3.748   2.493   6.267
 7549SOL    HW223547   3.730   2.555   6.417
 7550SOL     OW23548   1.823   4.198   3.700
 7550SOL    HW123549   1.871   4.189   3.613
 7550SOL    HW223550   1.785   4.109   3.727
 7551SOL     OW23551   4.939   2.901   5.334
 7551SOL    HW123552   4.995   2.983   5.344
 7551SOL    HW223553   4.999   2.821   5.324
 7552SOL     OW23554   1.713   5.838   4.860
 7552SOL    HW123555   1.784   5.859   4.793
 7552SOL    HW223556   1.738   5.878   4.948
 7553SOL     OW23557   6.250   6.082   5.902
 7553SOL    HW123558   6.266   6.167   5.952
 7553SOL    HW223559   6.152   6.071   5.886
 7554SOL     OW23560   5.434   1.090   0.663
 7554SOL    HW123561   5.457   1.052   0.573
 7554SOL    HW223562   5.508   1.072   0.727
 7555SOL     OW23563   3.087   6.364   6.265
 7555SOL    HW123564   3.135   6.376   6.352
 7555SOL    HW223565   3.154   6.353   6.191
 7556SOL     OW23566   1.221   1.355   0.671
 7556SOL    HW123567   1.156   1.318   0.737
 7556SOL    HW223568   1.191   1.446   0.642
 7557SOL     OW23569   4.816   0.268   0.266
 7557SOL    HW123570   4.857   0.348   0.310
 7557SOL    HW223571   4.888   0.209   0.231
 7558SOL     OW23572   1.652   2.513   3.523
 7558SOL    HW123573   1.720   2.508   3.449
 7558SOL    HW223574   1.568   2.467   3.494
 7559SOL     OW23575   3.821   2.188   5.349
 7559SOL    HW123576   3.832   2.133   5.431
 7559SOL    HW223577   3.906   2.237   5.330
 7560SOL     OW23578   6.122   0.041   0.287
 7560SOL    HW123579   6.105   0.001   0.197
 7560SOL    HW223580   6.219   0.035   0.308
 7561SOL     OW23581   5.356   3.081   5.538
 7561SOL    HW123582   5.273   3.137   5.542
 7561SOL    HW223583   5.435   3.140   5.518
 7562SOL     OW23584   1.107   4.772   4.852
 7562SOL    HW123585   1.178   4.722   4.801
 7562SOL    HW223586   1.022   4.771   4.799
 7563SOL     OW23587   2.822   6.258   2.547
 7563SOL    HW123588   2.741   6.310   2.518
 7563SOL    HW223589   2.839   6.185   2.482
 7564SOL     OW23590   4.421   0.511   4.981
 7564SOL    HW123591   4.362   0.591   4.985
 7564SOL    HW223592   4.417   0.462   5.068
 7565SOL     OW23593   6.066   4.023   6.087
 7565SOL    HW123594   6.112   4.111   6.085
 7565SOL    HW223595   6.134   3.950   6.092
 7566SOL     OW23596   5.566   4.922   2.468
 7566SOL    HW123597   5.664   4.942   2.479
 7566SOL    HW223598   5.554   4.827   2.440
 7567SOL     OW23599   1.158   1.614   4.673
 7567SOL    HW123600   1.204   1.642   4.757
 7567SOL    HW223601   1.111   1.527   4.688
 7568SOL     OW23602   5.845   5.706   2.313
 7568SOL    HW123603   5.813   5.615   2.340
 7568SOL    HW223604   5.839   5.769   2.391
 7569SOL     OW23605   3.674   4.893   6.676
 7569SOL    HW123606   3.591   4.866   6.628
 7569SOL    HW223607   3.686   4.992   6.669
 7570SOL     OW23608   0.315   2.685   3.435
 7570SOL    HW123609   0.400   2.702   3.484
 7570SOL    HW223610   0.254   2.629   3.490
 7571SOL     OW23611   5.525   3.183   3.003
 7571SOL    HW123612   5.617   3.147   2.991
 7571SOL    HW223613   5.464   3.144   2.934
 7572SOL     OW23614   4.702   6.572   3.058
 7572SOL    HW123615   4.777   6.619   3.104
 7572SOL    HW223616   4.721   6.565   2.960
 7573SOL     OW23617   5.868   0.273   5.923
 7573SOL    HW123618   5.936   0.294   5.852
 7573SOL    HW223619   5.777   0.270   5.881
 7574SOL     OW23620   5.762   1.518   3.952
 7574SOL    HW123621   5.765   1.419   3.939
 7574SOL    HW223622   5.714   1.560   3.875
 7575SOL     OW23623   6.081   6.407   0.924
 7575SOL    HW123624   6.146   6.415   0.999
 7575SOL    HW223625   6.007   6.473   0.937
 7576SOL     OW23626   4.707   2.627   0.961
 7576SOL    HW123627   4.748   2.664   1.045
 7576SOL    HW223628   4.658   2.542   0.983
 7577SOL     OW23629   6.996   6.568   0.404
 7577SOL    HW123630   6.979   6.479   0.363
 7577SOL    HW223631   0.072   6.580   0.417
 7578SOL     OW23632   0.696   5.409   2.298
 7578SOL    HW123633   0.745   5.332   2.258
 7578SOL    HW223634   0.611   5.424   2.247
 7579SOL     OW23635   6.609   1.877   1.470
 7579SOL    HW123636   6.605   1.923   1.381
 7579SOL    HW223637   6.594   1.944   1.542
 7580SOL     OW23638   1.715   4.426   3.331
 7580SOL    HW123639   1.670   4.516   3.330
 7580SOL    HW223640   1.802   4.432   3.282
 7581SOL     OW23641   0.799   1.254   1.210
 7581SOL    HW123642   0.739   1.291   1.282
 7581SOL    HW223643   0.895   1.268   1.237
 7582SOL     OW23644   4.652   1.581   4.059
 7582SOL    HW123645   4.630   1.564   4.155
 7582SOL    HW223646   4.714   1.659   4.053
 7583SOL     OW23647   5.208   3.601   3.347
 7583SOL    HW123648   5.121   3.581   3.304
 7583SOL    HW223649   5.275   3.627   3.277
 7584SOL     OW23650   0.688   6.890   2.543
 7584SOL    HW123651   0.740   6.923   2.622
 7584SOL    HW223652   0.615   6.829   2.574
 7585SOL     OW23653   0.986   1.912   6.816
 7585SOL    HW123654   1.044   1.894   6.896
 7585SOL    HW223655   1.043   1.945   6.741
 7586SOL     OW23656   1.327   0.527   2.055
 7586SOL    HW123657   1.405   0.475   2.090
 7586SOL    HW223658   1.360   0.609   2.008
 7587SOL     OW23659   3.181   1.051   0.582
 7587SOL    HW123660   3.138   0.961   0.580
 7587SOL    HW223661   3.253   1.055   0.513
 7588SOL     OW23662   1.349   2.520   4.071
 7588SOL    HW123663   1.286   2.598   4.067
 7588SOL    HW223664   1.443   2.553   4.069
 7589SOL     OW23665   0.210   1.205   3.206
 7589SOL    HW123666   0.129   1.148   3.191
 7589SOL    HW223667   0.218   1.272   3.131
 7590SOL     OW23668   6.443   1.862   6.866
 7590SOL    HW123669   6.511   1.866   6.940
 7590SOL    HW223670   6.353   1.843   6.904
 7591SOL     OW23671   4.820   2.696   6.670
 7591SOL    HW123672   4.770   2.720   6.587
 7591SOL    HW223673   4.814   2.597   6.685
 7592SOL     OW23674   6.113   4.480   4.745
 7592SOL    HW123675   6.158   4.448   4.829
 7592SOL    HW223676   6.116   4.580   4.742
 7593SOL     OW23677   6.562   2.349   6.129
 7593SOL    HW123678   6.649   2.349   6.178
 7593SOL    HW223679   6.487   2.339   6.194
 7594SOL     OW23680   0.700   4.585   1.239
 7594SOL    HW123681   0.743   4.659   1.291
 7594SOL    HW223682   0.620   4.552   1.289
 7595SOL     OW23683   6.707   3.190   6.366
 7595SOL    HW123684   6.725   3.121   6.295
 7595SOL    HW223685   6.794   3.227   6.399
 7596SOL     OW23686   3.097   0.392   5.039
 7596SOL    HW123687   3.144   0.464   4.988
 7596SOL    HW223688   3.020   0.431   5.089
 7597SOL     OW23689   2.161   5.988   2.537
 7597SOL    HW123690   2.167   5.912   2.602
 7597SOL    HW223691   2.107   6.062   2.578
 7598SOL     OW23692   5.848   0.351   2.849
 7598SOL    HW123693   5.932   0.298   2.860
 7598SOL    HW223694   5.780   0.296   2.800
 7599SOL     OW23695   4.595   3.426   1.336
 7599SOL    HW123696   4.590   3.368   1.255
 7599SOL    HW223697   4.504   3.437   1.374
 7600SOL     OW23698   1.561   1.096   3.695
 7600SOL    HW123699   1.598   1.145   3.774
 7600SOL    HW223700   1.515   1.160   3.635
 7601SOL     OW23701   3.290   5.334   1.896
 7601SOL    HW123702   3.194   5.335   1.925
 7601SOL    HW223703   3.349   5.329   1.977
 7602SOL     OW23704   0.419   2.595   7.007
 7602SOL    HW123705   0.389   2.686   0.012
 7602SOL    HW223706   0.514   2.598   6.977
 7603SOL     OW23707   2.288   6.695   5.802
 7603SOL    HW123708   2.260   6.599   5.813
 7603SOL    HW223709   2.382   6.698   5.767
 7604SOL     OW23710   1.440   2.201   5.043
 7604SOL    HW123711   1.421   2.110   5.078
 7604SOL    HW223712   1.517   2.198   4.980
 7605SOL     OW23713   1.400   0.368   0.177
 7605SOL    HW123714   1.313   0.335   0.213
 7605SOL    HW223715   1.419   0.460   0.213
 7606SOL     OW23716   6.006   2.016   4.608
 7606SOL    HW123717   5.926   2.012   4.549
 7606SOL    HW223718   6.089   2.021   4.552
 7607SOL     OW23719   3.659   5.839   0.522
 7607SOL    HW123720   3.614   5.873   0.605
 7607SOL    HW223721   3.626   5.747   0.502
 7608SOL     OW23722   5.610   2.732   6.415
 7608SOL    HW123723   5.610   2.827   6.384
 7608SOL    HW223724   5.640   2.672   6.341
 7609SOL     OW23725   0.334   3.380   3.915
 7609SOL    HW123726   0.426   3.407   3.889
 7609SOL    HW223727   0.292   3.329   3.840
 7610SOL     OW23728   3.456   5.279   6.709
 7610SOL    HW123729   3.520   5.289   6.633
 7610SOL    HW223730   3.413   5.367   6.728
 7611SOL     OW23731   4.971   3.519   1.489
 7611SOL    HW123732   4.871   3.519   1.483
 7611SOL    HW223733   5.004   3.425   1.492
 7612SOL     OW23734   3.643   1.952   2.981
 7612SOL    HW123735   3.717   1.904   3.028
 7612SOL    HW223736   3.607   2.024   3.040
 7613SOL     OW23737   1.087   2.294   2.042
 7613SOL    HW123738   1.074   2.340   2.130
 7613SOL    HW223739   1.182   2.305   2.013
 7614SOL     OW23740   4.990   3.339   0.943
 7614SOL    HW123741   4.974   3.241   0.944
 7614SOL    HW223742   5.005   3.371   1.037
 7615SOL     OW23743   5.773   3.759   5.492
 7615SOL    HW123744   5.822   3.693   5.550
 7615SOL    HW223745   5.762   3.845   5.540
 7616SOL     OW23746   5.941   0.055   3.428
 7616SOL    HW123747   6.024   0.028   3.478
 7616SOL    HW223748   5.967   0.091   3.339
 7617SOL     OW23749   5.236   4.714   3.120
 7617SOL    HW123750   5.271   4.789   3.177
 7617SOL    HW223751   5.255   4.627   3.166
 7618SOL     OW23752   1.688   2.857   0.098
 7618SOL    HW123753   1.719   2.931   0.157
 7618SOL    HW223754   1.732   2.865   0.009
 7619SOL     OW23755   0.264   2.724   4.079
 7619SOL    HW123756   0.258   2.685   4.170
 7619SOL    HW223757   0.178   2.710   4.030
 7620SOL     OW23758   3.444   4.478   0.197
 7620SOL    HW123759   3.536   4.441   0.211
 7620SOL    HW223760   3.415   4.461   0.103
 7621SOL     OW23761   0.350   6.150   0.930
 7621SOL    HW123762   0.348   6.158   0.830
 7621SOL    HW223763   0.304   6.228   0.971
 7622SOL     OW23764   4.185   4.460   0.121
 7622SOL    HW123765   4.174   4.368   0.083
 7622SOL    HW223766   4.279   4.471   0.154
 7623SOL     OW23767   4.392   4.611   1.428
 7623SOL    HW123768   4.372   4.690   1.486
 7623SOL    HW223769   4.389   4.528   1.484
 7624SOL     OW23770   0.305   2.614   2.417
 7624SOL    HW123771   0.337   2.592   2.509
 7624SOL    HW223772   0.278   2.710   2.414
 7625SOL     OW23773   5.599   2.051   0.286
 7625SOL    HW123774   5.658   2.116   0.238
 7625SOL    HW223775   5.599   1.964   0.237
 7626SOL     OW23776   6.303   0.633   5.780
 7626SOL    HW123777   6.398   0.603   5.771
 7626SOL    HW223778   6.279   0.640   5.877
 7627SOL     OW23779   3.504   2.146   0.197
 7627SOL    HW123780   3.460   2.229   0.162
 7627SOL    HW223781   3.553   2.101   0.123
 7628SOL     OW23782   3.863   3.068   0.974
 7628SOL    HW123783   3.827   3.125   1.048
 7628SOL    HW223784   3.868   3.122   0.890
 7629SOL     OW23785   6.001   3.608   4.124
 7629SOL    HW123786   5.984   3.516   4.089
 7629SOL    HW223787   6.030   3.602   4.220
 7630SOL     OW23788   1.262   6.871   5.783
 7630SOL    HW123789   1.174   6.825   5.777
 7630SOL    HW223790   1.272   6.914   5.873
 7631SOL     OW23791   2.133   6.947   5.125
 7631SOL    HW123792   2.160   6.897   5.207
 7631SOL    HW223793   2.033   6.950   5.119
 7632SOL     OW23794   4.121   5.160   1.355
 7632SOL    HW123795   4.220   5.167   1.366
 7632SOL    HW223796   4.093   5.065   1.365
 7633SOL     OW23797   6.154   0.201   1.950
 7633SOL    HW123798   6.181   0.142   1.874
 7633SOL    HW223799   6.058   0.186   1.972
 7634SOL     OW23800   1.350   1.870   1.041
 7634SOL    HW123801   1.262   1.857   1.086
 7634SOL    HW223802   1.422   1.879   1.110
 7635SOL     OW23803   2.598   4.988   4.558
 7635SOL    HW123804   2.683   4.949   4.594
 7635SOL    HW223805   2.577   4.946   4.470
 7636SOL     OW23806   0.357   4.632   4.359
 7636SOL    HW123807   0.414   4.714   4.357
 7636SOL    HW223808   0.416   4.551   4.360
 7637SOL     OW23809   0.763   6.064   4.016
 7637SOL    HW123810   0.698   6.059   3.940
 7637SOL    HW223811   0.821   6.145   4.005
 7638SOL     OW23812   0.962   5.519   1.537
 7638SOL    HW123813   0.988   5.445   1.475
 7638SOL    HW223814   0.971   5.607   1.490
 7639SOL     OW23815   6.919   0.955   0.044
 7639SOL    HW123816   6.987   0.957   6.994
 7639SOL    HW223817   6.837   0.908   0.013
 7640SOL     OW23818   3.390   1.675   6.628
 7640SOL    HW123819   3.391   1.606   6.700
 7640SOL    HW223820   3.483   1.688   6.593
 7641SOL     OW23821   6.762   3.788   2.981
 7641SOL    HW123822   6.701   3.768   3.058
 7641SOL    HW223823   6.844   3.730   2.988
 7642SOL     OW23824   5.821   1.206   2.794
 7642SOL    HW123825   5.751   1.143   2.760
 7642SOL    HW223826   5.798   1.300   2.768
 7643SOL     OW23827   5.251   1.835   3.010
 7643SOL    HW123828   5.225   1.825   2.914
 7643SOL    HW223829   5.346   1.805   3.023
 7644SOL     OW23830   4.903   3.142   2.243
 7644SOL    HW123831   4.850   3.095   2.171
 7644SOL    HW223832   4.983   3.086   2.267
 7645SOL     OW23833   3.511   3.624   5.475
 7645SOL    HW123834   3.438   3.642   5.540
 7645SOL    HW223835   3.490   3.542   5.422
 7646SOL     OW23836   0.798   2.818   2.835
 7646SOL    HW123837   0.860   2.750   2.797
 7646SOL    HW223838   0.851   2.886   2.886
 7647SOL     OW23839   0.274   2.877   4.302
 7647SOL    HW123840   0.287   2.974   4.280
 7647SOL    HW223841   0.241   2.828   4.222
 7648SOL     OW23842   2.233   2.117   3.110
 7648SOL    HW123843   2.208   2.020   3.104
 7648SOL    HW223844   2.256   2.140   3.204
 7649SOL     OW23845   0.581   1.064   4.921
 7649SOL    HW123846   0.602   1.159   4.898
 7649SOL    HW223847   0.591   1.006   4.840
 7650SOL     OW23848   4.586   1.202   0.982
 7650SOL    HW123849   4.530   1.264   0.927
 7650SOL    HW223850   4.683   1.219   0.964
 7651SOL     OW23851   2.350   5.321   4.773
 7651SOL    HW123852   2.323   5.243   4.717
 7651SOL    HW223853   2.436   5.359   4.740
 7652SOL     OW23854   6.036   2.167   4.832
 7652SOL    HW123855   6.018   2.089   4.772
 7652SOL    HW223856   6.014   2.252   4.784
 7653SOL     OW23857   0.751   1.333   6.932
 7653SOL    HW123858   0.666   1.303   6.974
 7653SOL    HW223859   0.828   1.298   6.985
 7654SOL     OW23860   5.637   2.622   4.691
 7654SOL    HW123861   5.684   2.552   4.744
 7654SOL    HW223862   5.687   2.639   4.606
 7655SOL     OW23863   3.392   0.344   3.524
 7655SOL    HW123864   3.390   0.424   3.584
 7655SOL    HW223865   3.476   0.345   3.470
 7656SOL     OW23866   6.170   3.443   5.782
 7656SOL    HW123867   6.148   3.478   5.873
 7656SOL    HW223868   6.227   3.362   5.790
 7657SOL     OW23869   1.518   3.961   4.432
 7657SOL    HW123870   1.468   3.941   4.347
 7657SOL    HW223871   1.615   3.971   4.412
 7658SOL     OW23872   2.754   0.721   0.699
 7658SOL    HW123873   2.715   0.638   0.658
 7658SOL    HW223874   2.852   0.709   0.711
 7659SOL     OW23875   4.658   4.178   5.822
 7659SOL    HW123876   4.563   4.160   5.846
 7659SOL    HW223877   4.718   4.122   5.878
 7660SOL     OW23878   6.826   5.613   4.738
 7660SOL    HW123879   6.814   5.517   4.763
 7660SOL    HW223880   6.856   5.665   4.817
 7661SOL     OW23881   4.440   2.299   6.536
 7661SOL    HW123882   4.535   2.324   6.552
 7661SOL    HW223883   4.381   2.379   6.552
 7662SOL     OW23884   0.989   1.910   2.742
 7662SOL    HW123885   1.089   1.918   2.737
 7662SOL    HW223886   0.948   1.998   2.716
 7663SOL     OW23887   5.711   5.787   5.913
 7663SOL    HW123888   5.618   5.770   5.942
 7663SOL    HW223889   5.769   5.710   5.939
 7664SOL     OW23890   4.325   0.958   2.714
 7664SOL    HW123891   4.336   0.883   2.779
 7664SOL    HW223892   4.235   1.000   2.726
 7665SOL     OW23893   5.523   2.366   3.632
 7665SOL    HW123894   5.560   2.376   3.724
 7665SOL    HW223895   5.571   2.293   3.584
 7666SOL     OW23896   6.304   6.088   4.010
 7666SOL    HW123897   6.348   6.002   4.038
 7666SOL    HW223898   6.363   6.165   4.037
 7667SOL     OW23899   4.755   6.710   2.163
 7667SOL    HW123900   4.721   6.621   2.133
 7667SOL    HW223901   4.686   6.756   2.219
 7668SOL     OW23902   2.728   5.069   1.034
 7668SOL    HW123903   2.817   5.023   1.027
 7668SOL    HW223904   2.657   5.010   0.997
 7669SOL     OW23905   3.826   0.094   6.076
 7669SOL    HW123906   3.916   0.055   6.057
 7669SOL    HW223907   3.828   0.140   6.165
 7670SOL     OW23908   0.866   6.746   0.298
 7670SOL    HW123909   0.775   6.714   0.325
 7670SOL    HW223910   0.913   6.674   0.247
 7671SOL     OW23911   5.296   6.924   2.268
 7671SOL    HW123912   5.287   7.020   2.240
 7671SOL    HW223913   5.208   6.891   2.302
 7672SOL     OW23914   6.538   4.545   3.121
 7672SOL    HW123915   6.557   4.462   3.069
 7672SOL    HW223916   6.564   4.531   3.217
 7673SOL     OW23917   1.330   5.630   2.952
 7673SOL    HW123918   1.386   5.601   3.029
 7673SOL    HW223919   1.381   5.618   2.867
 7674SOL     OW23920   4.089   0.857   4.370
 7674SOL    HW123921   4.138   0.882   4.454
 7674SOL    HW223922   3.991   0.857   4.387
 7675SOL     OW23923   3.188   6.818   3.527
 7675SOL    HW123924   3.132   6.773   3.597
 7675SOL    HW223925   3.272   6.766   3.513
 7676SOL     OW23926   3.310   2.821   5.907
 7676SOL    HW123927   3.293   2.735   5.955
 7676SOL    HW223928   3.403   2.852   5.927
 7677SOL     OW23929   6.711   4.882   1.167
 7677SOL    HW123930   6.773   4.853   1.240
 7677SOL    HW223931   6.735   4.835   1.083
 7678SOL     OW23932   1.501   2.245   5.350
 7678SOL    HW123933   1.458   2.225   5.438
 7678SOL    HW223934   1.453   2.196   5.277
 7679SOL     OW23935   1.889   4.988   5.673
 7679SOL    HW123936   1.837   5.033   5.745
 7679SOL    HW223937   1.967   5.045   5.649
 7680SOL     OW23938   1.349   0.116   5.362
 7680SOL    HW123939   1.251   0.100   5.372
 7680SOL    HW223940   1.365   0.185   5.292
 7681SOL     OW23941   3.005   2.152   6.518
 7681SOL    HW123942   2.943   2.221   6.556
 7681SOL    HW223943   3.063   2.115   6.591
 7682SOL     OW23944   3.420   1.763   2.930
 7682SOL    HW123945   3.478   1.844   2.939
 7682SOL    HW223946   3.345   1.769   2.996
 7683SOL     OW23947   0.406   1.101   4.588
 7683SOL    HW123948   0.417   1.038   4.511
 7683SOL    HW223949   0.409   1.196   4.554
 7684SOL     OW23950   4.116   1.897   1.751
 7684SOL    HW123951   4.030   1.907   1.801
 7684SOL    HW223952   4.116   1.957   1.671
 7685SOL     OW23953   3.853   1.549   6.665
 7685SOL    HW123954   3.785   1.542   6.738
 7685SOL    HW223955   3.905   1.634   6.675
 7686SOL     OW23956   4.713   0.232   4.708
 7686SOL    HW123957   4.674   0.284   4.632
 7686SOL    HW223958   4.646   0.167   4.742
 7687SOL     OW23959   5.214   5.533   4.852
 7687SOL    HW123960   5.120   5.499   4.856
 7687SOL    HW223961   5.213   5.628   4.819
 7688SOL     OW23962   0.403   5.413   5.625
 7688SOL    HW123963   0.323   5.353   5.617
 7688SOL    HW223964   0.484   5.366   5.590
 7689SOL     OW23965   4.761   0.694   1.894
 7689SOL    HW123966   4.667   0.716   1.921
 7689SOL    HW223967   4.821   0.771   1.918
 7690SOL     OW23968   5.648   4.946   0.322
 7690SOL    HW123969   5.738   4.907   0.342
 7690SOL    HW223970   5.596   4.884   0.264
 7691SOL     OW23971   4.643   4.713   2.166
 7691SOL    HW123972   4.552   4.672   2.161
 7691SOL    HW223973   4.709   4.645   2.196
 7692SOL     OW23974   1.037   6.042   1.412
 7692SOL    HW123975   0.969   6.069   1.344
 7692SOL    HW223976   1.118   6.006   1.366
 7693SOL     OW23977   3.259   0.693   0.740
 7693SOL    HW123978   3.233   0.645   0.657
 7693SOL    HW223979   3.357   0.682   0.755
 7694SOL     OW23980   5.625   2.292   4.467
 7694SOL    HW123981   5.591   2.281   4.561
 7694SOL    HW223982   5.548   2.292   4.404
 7695SOL     OW23983   6.243   0.125   2.702
 7695SOL    HW123984   6.335   0.115   2.663
 7695SOL    HW223985   6.176   0.118   2.628
 7696SOL     OW23986   0.347   1.958   6.092
 7696SOL    HW123987   0.285   1.972   6.015
 7696SOL    HW223988   0.437   1.995   6.069
 7697SOL     OW23989   3.356   0.123   2.777
 7697SOL    HW123990   3.350   0.025   2.792
 7697SOL    HW223991   3.417   0.163   2.846
 7698SOL     OW23992   6.056   2.746   6.432
 7698SOL    HW123993   6.109   2.812   6.485
 7698SOL    HW223994   6.085   2.749   6.337
 7699SOL     OW23995   2.364   5.176   6.881
 7699SOL    HW123996   2.439   5.118   6.850
 7699SOL    HW223997   2.368   5.264   6.833
 7700SOL     OW23998   4.525   6.210   3.170
 7700SOL    HW123999   4.608   6.154   3.161
 7700SOL    HW224000   4.543   6.285   3.233
 7701SOL     OW24001   0.079   1.737   6.023
 7701SOL    HW124002   0.063   1.641   6.048
 7701SOL    HW224003   0.080   1.793   6.105
 7702SOL     OW24004   4.646   0.156   5.772
 7702SOL    HW124005   4.682   0.249   5.772
 7702SOL    HW224006   4.548   0.158   5.792
 7703SOL     OW24007   6.251   0.505   5.070
 7703SOL    HW124008   6.287   0.443   5.001
 7703SOL    HW224009   6.317   0.515   5.145
 7704SOL     OW24010   6.895   1.433   4.076
 7704SOL    HW124011   6.926   1.528   4.071
 7704SOL    HW224012   6.836   1.413   3.998
 7705SOL     OW24013   2.172   5.158   0.554
 7705SOL    HW124014   2.085   5.151   0.603
 7705SOL    HW224015   2.170   5.098   0.474
 7706SOL     OW24016   3.642   2.888   3.332
 7706SOL    HW124017   3.624   2.881   3.430
 7706SOL    HW224018   3.677   2.980   3.311
 7707SOL     OW24019   6.702   5.629   6.917
 7707SOL    HW124020   6.711   5.637   6.818
 7707SOL    HW224021   6.767   5.690   6.961
 7708SOL     OW24022   1.877   6.951   3.959
 7708SOL    HW124023   1.932   6.870   3.938
 7708SOL    HW224024   1.870   7.009   3.877
 7709SOL     OW24025   6.701   5.147   1.179
 7709SOL    HW124026   6.707   5.050   1.205
 7709SOL    HW224027   6.619   5.187   1.220
 7710SOL     OW24028   1.697   2.888   0.743
 7710SOL    HW124029   1.637   2.909   0.820
 7710SOL    HW224030   1.641   2.876   0.661
 7711SOL     OW24031   6.318   5.291   5.646
 7711SOL    HW124032   6.290   5.359   5.578
 7711SOL    HW224033   6.401   5.324   5.692
 7712SOL     OW24034   6.428   4.584   6.136
 7712SOL    HW124035   6.420   4.485   6.142
 7712SOL    HW224036   6.371   4.627   6.206
 7713SOL     OW24037   1.814   4.432   0.793
 7713SOL    HW124038   1.836   4.421   0.890
 7713SOL    HW224039   1.718   4.409   0.778
 7714SOL     OW24040   7.004   0.273   4.739
 7714SOL    HW124041   0.063   0.298   4.790
 7714SOL    HW224042   6.933   0.341   4.756
 7715SOL     OW24043   2.353   2.746   6.028
 7715SOL    HW124044   2.294   2.665   6.017
 7715SOL    HW224045   2.443   2.717   6.061
 7716SOL     OW24046   0.919   4.948   6.711
 7716SOL    HW124047   0.875   5.007   6.644
 7716SOL    HW224048   0.922   4.854   6.676
 7717SOL     OW24049   1.402   2.235   5.635
 7717SOL    HW124050   1.356   2.170   5.696
 7717SOL    HW224051   1.422   2.319   5.686
 7718SOL     OW24052   0.518   3.365   2.457
 7718SOL    HW124053   0.536   3.462   2.471
 7718SOL    HW224054   0.502   3.348   2.360
 7719SOL     OW24055   1.683   4.327   4.724
 7719SOL    HW124056   1.711   4.263   4.796
 7719SOL    HW224057   1.746   4.318   4.647
 7720SOL     OW24058   6.043   2.446   6.369
 7720SOL    HW124059   6.040   2.489   6.459
 7720SOL    HW224060   6.137   2.420   6.347
 7721SOL     OW24061   1.341   0.531   2.567
 7721SOL    HW124062   1.347   0.600   2.496
 7721SOL    HW224063   1.310   0.445   2.528
 7722SOL     OW24064   2.270   5.105   4.085
 7722SOL    HW124065   2.303   5.121   4.177
 7722SOL    HW224066   2.245   5.192   4.042
 7723SOL     OW24067   5.063   3.040   6.730
 7723SOL    HW124068   4.972   3.079   6.746
 7723SOL    HW224069   5.053   2.946   6.699
 7724SOL     OW24070   3.236   4.024   1.235
 7724SOL    HW124071   3.296   4.074   1.297
 7724SOL    HW224072   3.286   3.999   1.152
 7725SOL     OW24073   6.171   2.488   2.448
 7725SOL    HW124074   6.188   2.586   2.432
 7725SOL    HW224075   6.097   2.478   2.514
 7726SOL     OW24076   1.144   3.037   6.158
 7726SOL    HW124077   1.228   3.052   6.209
 7726SOL    HW224078   1.067   3.077   6.208
 7727SOL     OW24079   5.214   2.166   1.763
 7727SOL    HW124080   5.183   2.252   1.802
 7727SOL    HW224081   5.268   2.116   1.830
 7728SOL     OW24082   2.147   2.890   5.272
 7728SOL    HW124083   2.225   2.848   5.226
 7728SOL    HW224084   2.163   2.988   5.282
 7729SOL     OW24085   6.366   1.651   2.240
 7729SOL    HW124086   6.280   1.629   2.193
 7729SOL    HW224087   6.425   1.570   2.242
 7730SOL     OW24088   5.589   4.559   5.206
 7730SOL    HW124089   5.627   4.600   5.124
 7730SOL    HW224090   5.591   4.625   5.281
 7731SOL     OW24091   5.906   0.274   0.536
 7731SOL    HW124092   5.821   0.312   0.499
 7731SOL    HW224093   5.895   0.257   0.633
 7732SOL     OW24094   4.296   0.347   0.065
 7732SOL    HW124095   4.366   0.348   7.017
 7732SOL    HW224096   4.238   0.267   0.054
 7733SOL     OW24097   6.581   5.662   2.660
 7733SOL    HW124098   6.677   5.678   2.680
 7733SOL    HW224099   6.524   5.696   2.735
 7734SOL     OW24100   2.526   4.595   4.978
 7734SOL    HW124101   2.625   4.595   4.971
 7734SOL    HW224102   2.486   4.575   4.888
 7735SOL     OW24103   6.472   6.431   0.270
 7735SOL    HW124104   6.504   6.404   0.361
 7735SOL    HW224105   6.395   6.374   0.243
 7736SOL     OW24106   2.926   2.688   0.551
 7736SOL    HW124107   2.845   2.661   0.499
 7736SOL    HW224108   2.985   2.609   0.565
 7737SOL     OW24109   3.870   5.180   1.522
 7737SOL    HW124110   3.810   5.112   1.565
 7737SOL    HW224111   3.941   5.206   1.586
 7738SOL     OW24112   2.820   6.106   6.694
 7738SOL    HW124113   2.780   6.184   6.645
 7738SOL    HW224114   2.872   6.050   6.630
 7739SOL     OW24115   1.333   2.428   1.917
 7739SOL    HW124116   1.280   2.510   1.936
 7739SOL    HW224117   1.347   2.420   1.818
 7740SOL     OW24118   1.909   0.960   2.480
 7740SOL    HW124119   1.939   0.935   2.572
 7740SOL    HW224120   1.865   1.050   2.482
 7741SOL     OW24121   1.532   4.864   5.310
 7741SOL    HW124122   1.514   4.816   5.225
 7741SOL    HW224123   1.626   4.897   5.311
 7742SOL     OW24124   4.321   1.301   3.649
 7742SOL    HW124125   4.315   1.232   3.721
 7742SOL    HW224126   4.354   1.387   3.689
 7743SOL     OW24127   5.179   1.121   6.771
 7743SOL    HW124128   5.224   1.128   6.682
 7743SOL    HW224129   5.248   1.100   6.841
 7744SOL     OW24130   0.876   5.741   5.162
 7744SOL    HW124131   0.849   5.647   5.143
 7744SOL    HW224132   0.975   5.750   5.150
 7745SOL     OW24133   2.157   6.424   6.815
 7745SOL    HW124134   2.244   6.379   6.795
 7745SOL    HW224135   2.168   6.488   6.891
 7746SOL     OW24136   1.128   6.439   1.259
 7746SOL    HW124137   1.175   6.410   1.176
 7746SOL    HW224138   1.162   6.528   1.288
 7747SOL     OW24139   6.708   6.190   0.759
 7747SOL    HW124140   6.799   6.228   0.778
 7747SOL    HW224141   6.638   6.251   0.798
 7748SOL     OW24142   3.894   2.934   5.291
 7748SOL    HW124143   3.922   2.838   5.298
 7748SOL    HW224144   3.796   2.939   5.274
 7749SOL     OW24145   3.467   3.903   3.211
 7749SOL    HW124146   3.540   3.854   3.163
 7749SOL    HW224147   3.415   3.840   3.268
 7750SOL     OW24148   5.294   5.314   6.026
 7750SOL    HW124149   5.247   5.329   6.113
 7750SOL    HW224150   5.342   5.226   6.028
 7751SOL     OW24151   0.415   1.514   3.509
 7751SOL    HW124152   0.445   1.483   3.599
 7751SOL    HW224153   0.317   1.534   3.511
 7752SOL     OW24154   5.388   5.076   5.294
 7752SOL    HW124155   5.454   5.121   5.354
 7752SOL    HW224156   5.401   4.977   5.299
 7753SOL     OW24157   2.458   0.331   4.657
 7753SOL    HW124158   2.387   0.321   4.727
 7753SOL    HW224159   2.468   0.245   4.608
 7754SOL     OW24160   5.763   0.713   0.862
 7754SOL    HW124161   5.713   0.800   0.861
 7754SOL    HW224162   5.796   0.692   0.770
 7755SOL     OW24163   0.263   6.743   5.860
 7755SOL    HW124164   0.279   6.680   5.936
 7755SOL    HW224165   0.348   6.794   5.841
 7756SOL     OW24166   2.452   5.847   2.056
 7756SOL    HW124167   2.414   5.940   2.063
 7756SOL    HW224168   2.394   5.783   2.106
 7757SOL     OW24169   4.540   6.093   5.176
 7757SOL    HW124170   4.537   6.054   5.268
 7757SOL    HW224171   4.501   6.185   5.178
 7758SOL     OW24172   2.146   2.520   6.082
 7758SOL    HW124173   2.104   2.476   6.003
 7758SOL    HW224174   2.227   2.467   6.110
 7759SOL     OW24175   1.807   0.570   4.996
 7759SOL    HW124176   1.774   0.573   4.902
 7759SOL    HW224177   1.888   0.629   5.004
 7760SOL     OW24178   6.154   2.875   2.107
 7760SOL    HW124179   6.062   2.891   2.143
 7760SOL    HW224180   6.147   2.856   2.009
 7761SOL     OW24181   2.909   6.950   6.361
 7761SOL    HW124182   2.970   6.873   6.378
 7761SOL    HW224183   2.814   6.920   6.371
 7762SOL     OW24184   3.977   0.900   6.391
 7762SOL    HW124185   4.075   0.913   6.406
 7762SOL    HW224186   3.934   0.989   6.376
 7763SOL     OW24187   1.341   1.811   0.752
 7763SOL    HW124188   1.435   1.826   0.723
 7763SOL    HW224189   1.328   1.850   0.844
 7764SOL     OW24190   3.901   3.305   2.583
 7764SOL    HW124191   3.843   3.224   2.575
 7764SOL    HW224192   3.843   3.387   2.590
 7765SOL     OW24193   6.600   3.500   4.116
 7765SOL    HW124194   6.569   3.407   4.098
 7765SOL    HW224195   6.522   3.558   4.136
 7766SOL     OW24196   5.474   1.866   6.810
 7766SOL    HW124197   5.494   1.784   6.756
 7766SOL    HW224198   5.375   1.878   6.816
 7767SOL     OW24199   3.706   6.198   3.491
 7767SOL    HW124200   3.688   6.192   3.393
 7767SOL    HW224201   3.671   6.117   3.538
 7768SOL     OW24202   3.727   4.998   2.865
 7768SOL    HW124203   3.634   4.961   2.864
 7768SOL    HW224204   3.782   4.947   2.932
 7769SOL     OW24205   4.415   1.521   1.714
 7769SOL    HW124206   4.478   1.595   1.735
 7769SOL    HW224207   4.389   1.526   1.617
 7770SOL     OW24208   2.543   4.603   2.017
 7770SOL    HW124209   2.641   4.579   2.015
 7770SOL    HW224210   2.523   4.667   1.943
 7771SOL     OW24211   2.731   2.334   4.617
 7771SOL    HW124212   2.781   2.383   4.545
 7771SOL    HW224213   2.657   2.392   4.651
 7772SOL     OW24214   5.233   1.153   3.352
 7772SOL    HW124215   5.224   1.251   3.334
 7772SOL    HW224216   5.209   1.135   3.448
 7773SOL     OW24217   3.874   4.656   6.434
 7773SOL    HW124218   3.894   4.731   6.497
 7773SOL    HW224219   3.951   4.642   6.372
 7774SOL     OW24220   5.626   1.594   5.682
 7774SOL    HW124221   5.593   1.551   5.598
 7774SOL    HW224222   5.583   1.683   5.693
 7775SOL     OW24223   3.550   6.384   3.300
 7775SOL    HW124224   3.592   6.444   3.368
 7775SOL    HW224225   3.587   6.404   3.210
 7776SOL     OW24226   3.128   3.450   5.880
 7776SOL    HW124227   3.151   3.475   5.787
 7776SOL    HW224228   3.212   3.429   5.931
 7777SOL     OW24229   2.476   1.216   5.554
 7777SOL    HW124230   2.483   1.215   5.654
 7777SOL    HW224231   2.552   1.269   5.516
 7778SOL     OW24232   5.710   0.376   0.375
 7778SOL    HW124233   5.638   0.323   0.330
 7778SOL    HW224234   5.743   0.446   0.313
 7779SOL     OW24235   3.704   2.897   0.811
 7779SOL    HW124236   3.759   2.874   0.731
 7779SOL    HW224237   3.762   2.936   0.882
 7780SOL     OW24238   1.588   6.093   4.467
 7780SOL    HW124239   1.684   6.118   4.452
 7780SOL    HW224240   1.562   6.021   4.403
 7781SOL     OW24241   1.218   4.036   5.985
 7781SOL    HW124242   1.194   4.005   6.077
 7781SOL    HW224243   1.263   3.962   5.936
 7782SOL     OW24244   1.692   3.980   5.845
 7782SOL    HW124245   1.613   4.042   5.841
 7782SOL    HW224246   1.705   3.937   5.756
 7783SOL     OW24247   2.581   6.598   6.014
 7783SOL    HW124248   2.530   6.514   5.994
 7783SOL    HW224249   2.643   6.583   6.091
 7784SOL     OW24250   1.383   3.010   0.135
 7784SOL    HW124251   1.349   3.037   0.045
 7784SOL    HW224252   1.482   3.002   0.133
 7785SOL     OW24253   2.063   6.545   4.162
 7785SOL    HW124254   2.083   6.510   4.254
 7785SOL    HW224255   2.089   6.476   4.094
 7786SOL     OW24256   2.989   4.875   5.285
 7786SOL    HW124257   2.953   4.897   5.376
 7786SOL    HW224258   2.956   4.784   5.257
 7787SOL     OW24259   2.252   2.597   5.251
 7787SOL    HW124260   2.271   2.649   5.168
 7787SOL    HW224261   2.202   2.654   5.316
 7788SOL     OW24262   1.701   1.335   1.698
 7788SOL    HW124263   1.638   1.382   1.636
 7788SOL    HW224264   1.717   1.392   1.779
 7789SOL     OW24265   2.193   0.377   0.911
 7789SOL    HW124266   2.094   0.380   0.924
 7789SOL    HW224267   2.234   0.324   0.985
 7790SOL     OW24268   6.257   4.502   3.105
 7790SOL    HW124269   6.257   4.590   3.057
 7790SOL    HW224270   6.347   4.486   3.144
 7791SOL     OW24271   2.581   5.979   4.563
 7791SOL    HW124272   2.567   5.938   4.653
 7791SOL    HW224273   2.652   6.049   4.569
 7792SOL     OW24274   1.724   5.089   6.292
 7792SOL    HW124275   1.762   5.079   6.199
 7792SOL    HW224276   1.790   5.138   6.349
 7793SOL     OW24277   1.825   1.393   5.463
 7793SOL    HW124278   1.924   1.386   5.456
 7793SOL    HW224279   1.798   1.489   5.464
 7794SOL     OW24280   4.971   5.023   4.460
 7794SOL    HW124281   4.891   5.002   4.516
 7794SOL    HW224282   5.051   5.036   4.518
 7795SOL     OW24283   2.137   4.198   5.055
 7795SOL    HW124284   2.190   4.133   5.000
 7795SOL    HW224285   2.178   4.207   5.146
 7796SOL     OW24286   3.253   4.059   3.622
 7796SOL    HW124287   3.234   4.120   3.545
 7796SOL    HW224288   3.341   4.013   3.607
 7797SOL     OW24289   0.342   5.518   3.341
 7797SOL    HW124290   0.345   5.568   3.427
 7797SOL    HW224291   0.434   5.487   3.317
 7798SOL     OW24292   2.580   5.490   0.034
 7798SOL    HW124293   2.514   5.416   0.049
 7798SOL    HW224294   2.636   5.468   6.976
 7799SOL     OW24295   6.601   5.460   1.677
 7799SOL    HW124296   6.510   5.423   1.659
 7799SOL    HW224297   6.616   5.463   1.776
 7800SOL     OW24298   0.819   4.138   1.452
 7800SOL    HW124299   0.800   4.226   1.495
 7800SOL    HW224300   0.851   4.153   1.358
 7801SOL     OW24301   2.599   1.675   0.966
 7801SOL    HW124302   2.558   1.638   1.050
 7801SOL    HW224303   2.696   1.654   0.964
 7802SOL     OW24304   6.182   3.250   0.936
 7802SOL    HW124305   6.201   3.157   0.969
 7802SOL    HW224306   6.150   3.307   1.012
 7803SOL     OW24307   4.215   3.706   5.658
 7803SOL    HW124308   4.249   3.613   5.642
 7803SOL    HW224309   4.271   3.770   5.606
 7804SOL     OW24310   6.464   0.974   4.148
 7804SOL    HW124311   6.421   0.893   4.187
 7804SOL    HW224312   6.548   0.995   4.199
 7805SOL     OW24313   5.297   2.469   0.892
 7805SOL    HW124314   5.240   2.549   0.911
 7805SOL    HW224315   5.254   2.388   0.932
 7806SOL     OW24316   5.730   3.489   5.955
 7806SOL    HW124317   5.746   3.574   6.004
 7806SOL    HW224318   5.769   3.413   6.006
 7807SOL     OW24319   0.087   5.018   6.314
 7807SOL    HW124320   0.021   5.058   6.250
 7807SOL    HW224321   0.176   5.011   6.270
 7808SOL     OW24322   0.347   2.501   4.782
 7808SOL    HW124323   0.432   2.539   4.744
 7808SOL    HW224324   0.305   2.568   4.842
 7809SOL     OW24325   2.267   6.064   5.007
 7809SOL    HW124326   2.356   6.054   5.051
 7809SOL    HW224327   2.275   6.126   4.929
 7810SOL     OW24328   2.898   0.547   5.632
 7810SOL    HW124329   2.835   0.610   5.587
 7810SOL    HW224330   2.967   0.599   5.682
 7811SOL     OW24331   6.162   4.399   4.097
 7811SOL    HW124332   6.114   4.423   4.181
 7811SOL    HW224333   6.097   4.367   4.029
 7812SOL     OW24334   1.498   1.766   3.949
 7812SOL    HW124335   1.468   1.688   3.894
 7812SOL    HW224336   1.548   1.733   4.029
 7813SOL     OW24337   4.829   2.593   6.210
 7813SOL    HW124338   4.806   2.660   6.139
 7813SOL    HW224339   4.874   2.514   6.168
 7814SOL     OW24340   6.906   1.776   3.237
 7814SOL    HW124341   6.999   1.751   3.210
 7814SOL    HW224342   6.862   1.829   3.164
 7815SOL     OW24343   4.947   1.497   6.417
 7815SOL    HW124344   4.994   1.585   6.421
 7815SOL    HW224345   4.852   1.508   6.447
 7816SOL     OW24346   1.978   2.913   5.930
 7816SOL    HW124347   1.908   2.944   5.865
 7816SOL    HW224348   1.939   2.913   6.022
 7817SOL     OW24349   6.275   3.320   3.938
 7817SOL    HW124350   6.343   3.272   3.994
 7817SOL    HW224351   6.192   3.335   3.992
 7818SOL     OW24352   5.478   0.555   2.153
 7818SOL    HW124353   5.459   0.565   2.055
 7818SOL    HW224354   5.457   0.641   2.200
 7819SOL     OW24355   0.424   3.082   1.760
 7819SOL    HW124356   0.493   3.018   1.728
 7819SOL    HW224357   0.346   3.082   1.697
 7820SOL     OW24358   1.709   2.413   4.828
 7820SOL    HW124359   1.614   2.443   4.821
 7820SOL    HW224360   1.764   2.486   4.869
 7821SOL     OW24361   4.203   5.510   1.119
 7821SOL    HW124362   4.140   5.567   1.173
 7821SOL    HW224363   4.296   5.543   1.130
 7822SOL     OW24364   0.064   0.467   5.398
 7822SOL    HW124365   0.041   0.373   5.425
 7822SOL    HW224366   0.117   0.511   5.470
 7823SOL     OW24367   2.324   4.279   4.499
 7823SOL    HW124368   2.321   4.195   4.444
 7823SOL    HW224369   2.274   4.265   4.584
 7824SOL     OW24370   6.808   2.624   4.910
 7824SOL    HW124371   6.791   2.528   4.890
 7824SOL    HW224372   6.759   2.681   4.844
 7825SOL     OW24373   2.524   3.046   6.861
 7825SOL    HW124374   2.570   2.986   6.926
 7825SOL    HW224375   2.592   3.104   6.815
 7826SOL     OW24376   6.942   1.370   0.316
 7826SOL    HW124377   7.022   1.427   0.337
 7826SOL    HW224378   6.965   1.306   0.243
 7827SOL     OW24379   0.653   5.727   2.511
 7827SOL    HW124380   0.615   5.696   2.598
 7827SOL    HW224381   0.626   5.663   2.438
 7828SOL     OW24382   6.382   4.453   6.570
 7828SOL    HW124383   6.371   4.354   6.581
 7828SOL    HW224384   6.359   4.498   6.657
 7829SOL     OW24385   3.410   3.091   1.640
 7829SOL    HW124386   3.481   3.133   1.696
 7829SOL    HW224387   3.452   3.028   1.575
 7830SOL     OW24388   3.384   5.059   5.642
 7830SOL    HW124389   3.432   4.999   5.578
 7830SOL    HW224390   3.415   5.153   5.628
 7831SOL     OW24391   1.816   1.200   1.100
 7831SOL    HW124392   1.894   1.187   1.161
 7831SOL    HW224393   1.817   1.130   1.028
 7832SOL     OW24394   5.283   0.377   4.499
 7832SOL    HW124395   5.328   0.438   4.434
 7832SOL    HW224396   5.225   0.430   4.561
 7833SOL     OW24397   1.663   0.441   4.461
 7833SOL    HW124398   1.659   0.503   4.383
 7833SOL    HW224399   1.595   0.368   4.449
 7834SOL     OW24400   6.928   1.629   3.665
 7834SOL    HW124401   6.908   1.705   3.603
 7834SOL    HW224402   6.892   1.649   3.756
 7835SOL     OW24403   3.896   1.855   4.701
 7835SOL    HW124404   3.854   1.938   4.736
 7835SOL    HW224405   3.973   1.829   4.760
 7836SOL     OW24406   3.673   4.121   5.542
 7836SOL    HW124407   3.760   4.121   5.590
 7836SOL    HW224408   3.652   4.028   5.511
 7837SOL     OW24409   5.596   6.307   0.028
 7837SOL    HW124410   5.573   6.301   6.954
 7837SOL    HW224411   5.533   6.249   0.081
 7838SOL     OW24412   4.868   4.796   1.473
 7838SOL    HW124413   4.869   4.840   1.383
 7838SOL    HW224414   4.807   4.716   1.469
 7839SOL     OW24415   5.438   3.775   4.988
 7839SOL    HW124416   5.456   3.827   5.071
 7839SOL    HW224417   5.463   3.829   4.908
 7840SOL     OW24418   0.923   4.393   3.942
 7840SOL    HW124419   0.823   4.388   3.935
 7840SOL    HW224420   0.964   4.317   3.892
 7841SOL     OW24421   4.710   2.217   6.467
 7841SOL    HW124422   4.755   2.306   6.473
 7841SOL    HW224423   4.692   2.195   6.371
 7842SOL     OW24424   2.425   1.649   2.274
 7842SOL    HW124425   2.446   1.742   2.244
 7842SOL    HW224426   2.350   1.651   2.340
 7843SOL     OW24427   6.854   0.408   4.162
 7843SOL    HW124428   6.838   0.448   4.072
 7843SOL    HW224429   6.892   0.316   4.151
 7844SOL     OW24430   3.660   0.552   2.077
 7844SOL    HW124431   3.667   0.475   2.014
 7844SOL    HW224432   3.635   0.519   2.168
 7845SOL     OW24433   5.236   2.216   1.287
 7845SOL    HW124434   5.211   2.141   1.227
 7845SOL    HW224435   5.258   2.180   1.378
 7846SOL     OW24436   1.283   2.243   0.614
 7846SOL    HW124437   1.310   2.180   0.541
 7846SOL    HW224438   1.285   2.337   0.580
 7847SOL     OW24439   6.288   1.820   3.577
 7847SOL    HW124440   6.228   1.900   3.588
 7847SOL    HW224441   6.235   1.737   3.593
 7848SOL     OW24442   2.908   4.340   0.866
 7848SOL    HW124443   3.003   4.359   0.889
 7848SOL    HW224444   2.853   4.341   0.950
 7849SOL     OW24445   5.776   3.094   5.230
 7849SOL    HW124446   5.709   3.161   5.261
 7849SOL    HW224447   5.841   3.137   5.168
 7850SOL     OW24448   6.553   1.518   3.759
 7850SOL    HW124449   6.618   1.444   3.779
 7850SOL    HW224450   6.508   1.499   3.671
 7851SOL     OW24451   0.748   3.088   1.950
 7851SOL    HW124452   0.759   3.183   1.922
 7851SOL    HW224453   0.723   3.085   2.047
 7852SOL     OW24454   2.955   1.093   0.252
 7852SOL    HW124455   2.866   1.091   0.206
 7852SOL    HW224456   2.960   1.173   0.311
 7853SOL     OW24457   4.394   3.068   1.673
 7853SOL    HW124458   4.490   3.095   1.673
 7853SOL    HW224459   4.347   3.112   1.749
 7854SOL     OW24460   3.988   2.165   6.014
 7854SOL    HW124461   4.061   2.200   6.073
 7854SOL    HW224462   3.985   2.218   5.929
 7855SOL     OW24463   4.625   6.162   4.300
 7855SOL    HW124464   4.661   6.079   4.342
 7855SOL    HW224465   4.700   6.226   4.283
 7856SOL     OW24466   1.806   4.690   5.052
 7856SOL    HW124467   1.830   4.724   4.961
 7856SOL    HW224468   1.786   4.592   5.047
 7857SOL     OW24469   5.030   4.018   0.640
 7857SOL    HW124470   5.046   3.960   0.720
 7857SOL    HW224471   5.072   3.976   0.560
 7858SOL     OW24472   0.207   5.721   4.795
 7858SOL    HW124473   0.280   5.685   4.853
 7858SOL    HW224474   0.118   5.696   4.834
 7859SOL     OW24475   4.651   3.262   6.481
 7859SOL    HW124476   4.716   3.199   6.440
 7859SOL    HW224477   4.562   3.252   6.436
 7860SOL     OW24478   3.692   1.345   4.117
 7860SOL    HW124479   3.647   1.271   4.067
 7860SOL    HW224480   3.715   1.314   4.210
 7861SOL     OW24481   2.480   5.839   1.776
 7861SOL    HW124482   2.563   5.791   1.746
 7861SOL    HW224483   2.468   5.824   1.874
 7862SOL     OW24484   2.589   5.263   2.144
 7862SOL    HW124485   2.504   5.269   2.196
 7862SOL    HW224486   2.628   5.171   2.155
 7863SOL     OW24487   0.135   4.127   3.078
 7863SOL    HW124488   0.048   4.087   3.105
 7863SOL    HW224489   0.207   4.096   3.140
 7864SOL     OW24490   2.173   6.197   6.532
 7864SOL    HW124491   2.190   6.107   6.491
 7864SOL    HW224492   2.203   6.196   6.627
 7865SOL     OW24493   6.148   6.289   3.918
 7865SOL    HW124494   6.062   6.259   3.876
 7865SOL    HW224495   6.195   6.211   3.958
 7866SOL     OW24496   1.705   0.240   4.936
 7866SOL    HW124497   1.735   0.301   4.863
 7866SOL    HW224498   1.708   0.145   4.905
 7867SOL     OW24499   5.228   0.051   3.823
 7867SOL    HW124500   5.309   0.049   3.881
 7867SOL    HW224501   5.244   7.017   3.742
 7868SOL     OW24502   3.701   5.477   1.051
 7868SOL    HW124503   3.749   5.405   1.102
 7868SOL    HW224504   3.720   5.468   0.954
 7869SOL     OW24505   5.071   4.700   5.289
 7869SOL    HW124506   5.010   4.744   5.224
 7869SOL    HW224507   5.155   4.672   5.242
 7870SOL     OW24508   4.743   0.307   5.097
 7870SOL    HW124509   4.656   0.280   5.056
 7870SOL    HW224510   4.732   0.316   5.196
 7871SOL     OW24511   5.361   1.254   1.807
 7871SOL    HW124512   5.325   1.218   1.893
 7871SOL    HW224513   5.291   1.308   1.761
 7872SOL     OW24514   1.804   4.752   2.575
 7872SOL    HW124515   1.790   4.661   2.536
 7872SOL    HW224516   1.883   4.749   2.637
 7873SOL     OW24517   6.645   1.540   0.980
 7873SOL    HW124518   6.552   1.509   0.958
 7873SOL    HW224519   6.704   1.460   0.993
 7874SOL     OW24520   5.500   2.865   0.963
 7874SOL    HW124521   5.555   2.919   1.026
 7874SOL    HW224522   5.555   2.790   0.926
 7875SOL     OW24523   3.963   3.633   6.956
 7875SOL    HW124524   3.961   3.709   6.891
 7875SOL    HW224525   4.009   3.661   0.017
 7876SOL     OW24526   0.898   0.310   2.851
 7876SOL    HW124527   0.894   0.389   2.789
 7876SOL    HW224528   0.993   0.282   2.864
 7877SOL     OW24529   6.259   1.329   2.645
 7877SOL    HW124530   6.223   1.419   2.670
 7877SOL    HW224531   6.195   1.258   2.673
 7878SOL     OW24532   4.829   3.729   3.301
 7878SOL    HW124533   4.862   3.635   3.289
 7878SOL    HW224534   4.741   3.727   3.347
 7879SOL     OW24535   3.491   5.367   3.294
 7879SOL    HW124536   3.545   5.286   3.269
 7879SOL    HW224537   3.476   5.369   3.393
 7880SOL     OW24538   2.251   3.410   0.828
 7880SOL    HW124539   2.324   3.442   0.767
 7880SOL    HW224540   2.163   3.419   0.781
 7881SOL     OW24541   5.186   4.125   4.291
 7881SOL    HW124542   5.246   4.077   4.355
 7881SOL    HW224543   5.123   4.059   4.249
 7882SOL     OW24544   2.618   4.066   1.705
 7882SOL    HW124545   2.632   4.165   1.697
 7882SOL    HW224546   2.520   4.047   1.714
 7883SOL     OW24547   0.915   0.467   5.316
 7883SOL    HW124548   0.885   0.562   5.303
 7883SOL    HW224549   0.965   0.437   5.235
 7884SOL     OW24550   0.895   3.649   3.897
 7884SOL    HW124551   0.809   3.656   3.948
 7884SOL    HW224552   0.928   3.740   3.875
 7885SOL     OW24553   6.528   5.626   1.250
 7885SOL    HW124554   6.450   5.688   1.258
 7885SOL    HW224555   6.496   5.535   1.222
 7886SOL     OW24556   4.619   5.645   0.476
 7886SOL    HW124557   4.595   5.573   0.541
 7886SOL    HW224558   4.536   5.684   0.437
 7887SOL     OW24559   3.619   1.823   6.861
 7887SOL    HW124560   3.525   1.858   6.866
 7887SOL    HW224561   3.649   1.824   6.765
 7888SOL     OW24562   5.176   0.316   3.856
 7888SOL    HW124563   5.196   0.220   3.837
 7888SOL    HW224564   5.221   0.373   3.788
 7889SOL     OW24565   0.851   6.289   1.670
 7889SOL    HW124566   0.847   6.364   1.604
 7889SOL    HW224567   0.817   6.321   1.759
 7890SOL     OW24568   2.016   3.973   2.211
 7890SOL    HW124569   1.954   4.010   2.142
 7890SOL    HW224570   1.997   3.875   2.223
 7891SOL     OW24571   2.461   4.953   2.104
 7891SOL    HW124572   2.533   4.990   2.163
 7891SOL    HW224573   2.390   4.911   2.161
 7892SOL     OW24574   1.939   2.731   5.188
 7892SOL    HW124575   1.849   2.770   5.203
 7892SOL    HW224576   2.009   2.800   5.203
 7893SOL     OW24577   6.105   6.820   1.329
 7893SOL    HW124578   6.006   6.816   1.336
 7893SOL    HW224579   6.145   6.738   1.371
 7894SOL     OW24580   2.600   6.354   2.381
 7894SOL    HW124581   2.501   6.342   2.389
 7894SOL    HW224582   2.621   6.398   2.294
 7895SOL     OW24583   6.609   1.249   4.869
 7895SOL    HW124584   6.540   1.221   4.802
 7895SOL    HW224585   6.605   1.348   4.883
 7896SOL     OW24586   4.731   3.847   5.571
 7896SOL    HW124587   4.647   3.840   5.625
 7896SOL    HW224588   4.708   3.847   5.474
 7897SOL     OW24589   2.128   4.438   6.424
 7897SOL    HW124590   2.065   4.361   6.417
 7897SOL    HW224591   2.169   4.457   6.335
 7898SOL     OW24592   4.906   2.103   3.557
 7898SOL    HW124593   4.913   2.106   3.656
 7898SOL    HW224594   4.925   2.194   3.519
 7899SOL     OW24595   6.686   2.158   2.194
 7899SOL    HW124596   6.685   2.255   2.169
 7899SOL    HW224597   6.626   2.143   2.273
 7900SOL     OW24598   1.346   5.447   1.401
 7900SOL    HW124599   1.310   5.533   1.364
 7900SOL    HW224600   1.421   5.414   1.343
 7901SOL     OW24601   5.747   0.061   6.079
 7901SOL    HW124602   5.735   7.022   6.001
 7901SOL    HW224603   5.802   0.140   6.052
 7902SOL     OW24604   4.662   4.594   1.566
 7902SOL    HW124605   4.604   4.614   1.486
 7902SOL    HW224606   4.631   4.509   1.609
 7903SOL     OW24607   6.134   1.849   0.186
 7903SOL    HW124608   6.126   1.927   0.247
 7903SOL    HW224609   6.144   1.881   0.092
 7904SOL     OW24610   6.570   0.682   2.490
 7904SOL    HW124611   6.471   0.691   2.479
 7904SOL    HW224612   6.614   0.674   2.401
 7905SOL     OW24613   4.110   1.801   1.234
 7905SOL    HW124614   4.059   1.883   1.259
 7905SOL    HW224615   4.191   1.826   1.182
 7906SOL     OW24616   6.180   5.726   6.780
 7906SOL    HW124617   6.134   5.711   6.693
 7906SOL    HW224618   6.279   5.717   6.769
 7907SOL     OW24619   6.370   2.594   4.242
 7907SOL    HW124620   6.422   2.534   4.303
 7907SOL    HW224621   6.409   2.589   4.150
 7908SOL     OW24622   0.815   1.016   3.330
 7908SOL    HW124623   0.751   1.084   3.294
 7908SOL    HW224624   0.803   1.008   3.429
 7909SOL     OW24625   4.947   3.756   4.952
 7909SOL    HW124626   4.953   3.749   4.852
 7909SOL    HW224627   4.900   3.675   4.988
 7910SOL     OW24628   4.162   2.721   5.875
 7910SOL    HW124629   4.171   2.630   5.836
 7910SOL    HW224630   4.164   2.789   5.802
 7911SOL     OW24631   6.968   5.283   0.319
 7911SOL    HW124632   6.937   5.192   0.347
 7911SOL    HW224633   0.045   5.283   0.310
 7912SOL     OW24634   6.088   5.373   6.736
 7912SOL    HW124635   6.159   5.400   6.671
 7912SOL    HW224636   6.011   5.332   6.687
 7913SOL     OW24637   0.195   5.294   6.399
 7913SOL    HW124638   0.156   5.216   6.350
 7913SOL    HW224639   0.211   5.270   6.495
 7914SOL     OW24640   6.449   5.244   1.296
 7914SOL    HW124641   6.428   5.296   1.379
 7914SOL    HW224642   6.420   5.297   1.216
 7915SOL     OW24643   4.932   2.081   2.939
 7915SOL    HW124644   4.869   2.086   3.016
 7915SOL    HW224645   4.989   1.999   2.948
 7916SOL     OW24646   5.579   3.313   5.326
 7916SOL    HW124647   5.489   3.281   5.299
 7916SOL    HW224648   5.594   3.295   5.424
 7917SOL     OW24649   3.994   3.513   4.315
 7917SOL    HW124650   4.048   3.466   4.385
 7917SOL    HW224651   3.900   3.479   4.318
 7918SOL     OW24652   5.812   1.536   1.736
 7918SOL    HW124653   5.738   1.498   1.792
 7918SOL    HW224654   5.773   1.598   1.668
 7919SOL     OW24655   6.160   4.063   2.899
 7919SOL    HW124656   6.162   4.163   2.909
 7919SOL    HW224657   6.109   4.024   2.975
 7920SOL     OW24658   0.036   4.779   1.793
 7920SOL    HW124659   0.031   4.792   1.694
 7920SOL    HW224660   0.033   4.868   1.839
 7921SOL     OW24661   2.926   6.501   1.160
 7921SOL    HW124662   2.868   6.440   1.214
 7921SOL    HW224663   2.991   6.447   1.107
 7922SOL     OW24664   6.847   5.264   7.004
 7922SOL    HW124665   6.831   5.169   0.006
 7922SOL    HW224666   6.769   5.320   0.012
 7923SOL     OW24667   1.833   1.574   2.922
 7923SOL    HW124668   1.792   1.525   2.845
 7923SOL    HW224669   1.847   1.670   2.897
 7924SOL     OW24670   2.855   6.390   3.656
 7924SOL    HW124671   2.870   6.486   3.677
 7924SOL    HW224672   2.760   6.366   3.676
 7925SOL     OW24673   6.574   1.769   6.119
 7925SOL    HW124674   6.503   1.839   6.110
 7925SOL    HW224675   6.556   1.713   6.200
 7926SOL     OW24676   3.464   0.911   3.416
 7926SOL    HW124677   3.368   0.939   3.421
 7926SOL    HW224678   3.520   0.974   3.471
 7927SOL     OW24679   4.499   5.459   4.900
 7927SOL    HW124680   4.432   5.387   4.884
 7927SOL    HW224681   4.488   5.495   4.993
 7928SOL     OW24682   1.716   4.775   3.042
 7928SOL    HW124683   1.811   4.746   3.052
 7928SOL    HW224684   1.663   4.746   3.122
 7929SOL     OW24685   4.119   3.587   4.898
 7929SOL    HW124686   4.095   3.517   4.965
 7929SOL    HW224687   4.211   3.621   4.915
 7930SOL     OW24688   4.619   5.119   3.665
 7930SOL    HW124689   4.652   5.195   3.609
 7930SOL    HW224690   4.653   5.130   3.759
 7931SOL     OW24691   2.021   2.712   7.005
 7931SOL    HW124692   2.057   2.753   6.922
 7931SOL    HW224693   2.097   2.689   0.043
 7932SOL     OW24694   2.766   0.548   6.737
 7932SOL    HW124695   2.745   0.612   6.811
 7932SOL    HW224696   2.684   0.531   6.683
 7933SOL     OW24697   0.891   6.226   0.053
 7933SOL    HW124698   0.852   6.152   7.022
 7933SOL    HW224699   0.940   6.289   7.017
 7934SOL     OW24700   2.425   3.539   0.603
 7934SOL    HW124701   2.409   3.447   0.567
 7934SOL    HW224702   2.404   3.606   0.532
 7935SOL     OW24703   4.846   5.760   0.189
 7935SOL    HW124704   4.862   5.781   0.092
 7935SOL    HW224705   4.748   5.746   0.203
 7936SOL     OW24706   3.490   6.118   3.280
 7936SOL    HW124707   3.514   6.214   3.271
 7936SOL    HW224708   3.572   6.062   3.267
 7937SOL     OW24709   5.721   6.763   5.395
 7937SOL    HW124710   5.669   6.842   5.364
 7937SOL    HW224711   5.817   6.789   5.409
 7938SOL     OW24712   4.246   5.117   4.725
 7938SOL    HW124713   4.305   5.041   4.699
 7938SOL    HW224714   4.256   5.191   4.660
 7939SOL     OW24715   1.228   1.473   5.752
 7939SOL    HW124716   1.269   1.437   5.836
 7939SOL    HW224717   1.229   1.402   5.681
 7940SOL     OW24718   2.195   6.139   1.581
 7940SOL    HW124719   2.137   6.094   1.649
 7940SOL    HW224720   2.287   6.150   1.619
 7941SOL     OW24721   0.134   1.046   1.072
 7941SOL    HW124722   0.211   0.986   1.095
 7941SOL    HW224723   0.096   1.085   1.155
 7942SOL     OW24724   0.269   6.505   2.065
 7942SOL    HW124725   0.233   6.421   2.024
 7942SOL    HW224726   0.217   6.584   2.030
 7943SOL     OW24727   5.476   2.294   1.148
 7943SOL    HW124728   5.514   2.372   1.098
 7943SOL    HW224729   5.404   2.326   1.210
 7944SOL     OW24730   7.003   2.867   1.689
 7944SOL    HW124731   6.924   2.807   1.697
 7944SOL    HW224732   7.017   2.917   1.775
 7945SOL     OW24733   4.850   0.233   2.420
 7945SOL    HW124734   4.946   0.243   2.396
 7945SOL    HW224735   4.797   0.212   2.338
 7946SOL     OW24736   1.556   2.446   5.759
 7946SOL    HW124737   1.516   2.403   5.840
 7946SOL    HW224738   1.656   2.451   5.769
 7947SOL     OW24739   3.867   2.731   6.733
 7947SOL    HW124740   3.814   2.779   6.802
 7947SOL    HW224741   3.953   2.779   6.717
 7948SOL     OW24742   6.949   6.816   0.729
 7948SOL    HW124743   6.882   6.746   0.706
 7948SOL    HW224744   6.927   6.900   0.679
 7949SOL     OW24745   5.078   4.847   4.259
 7949SOL    HW124746   5.151   4.916   4.257
 7949SOL    HW224747   4.992   4.891   4.281
 7950SOL     OW24748   4.351   5.209   3.539
 7950SOL    HW124749   4.404   5.148   3.598
 7950SOL    HW224750   4.377   5.194   3.444
 7951SOL     OW24751   2.808   3.310   1.191
 7951SOL    HW124752   2.785   3.390   1.137
 7951SOL    HW224753   2.728   3.279   1.241
 7952SOL     OW24754   6.777   2.795   6.482
 7952SOL    HW124755   6.782   2.837   6.392
 7952SOL    HW224756   6.869   2.779   6.518
 7953SOL     OW24757   2.341   2.647   3.196
 7953SOL    HW124758   2.353   2.746   3.189
 7953SOL    HW224759   2.260   2.628   3.251
 7954SOL     OW24760   4.662   5.313   4.721
 7954SOL    HW124761   4.604   5.350   4.794
 7954SOL    HW224762   4.724   5.385   4.689
 7955SOL     OW24763   0.005   6.583   6.828
 7955SOL    HW124764   0.052   6.533   6.902
 7955SOL    HW224765   6.998   6.519   6.758
 7956SOL     OW24766   0.352   5.859   4.009
 7956SOL    HW124767   0.264   5.829   4.047
 7956SOL    HW224768   0.396   5.782   3.961
 7957SOL     OW24769   1.452   1.846   0.026
 7957SOL    HW124770   1.460   1.850   6.949
 7957SOL    HW224771   1.534   1.885   0.067
 7958SOL     OW24772   3.580   5.878   4.181
 7958SOL    HW124773   3.649   5.857   4.250
 7958SOL    HW224774   3.625   5.913   4.099
 7959SOL     OW24775   5.726   4.281   0.569
 7959SOL    HW124776   5.788   4.217   0.523
 7959SOL    HW224777   5.645   4.294   0.512
 7960SOL     OW24778   3.169   1.581   1.157
 7960SOL    HW124779   3.163   1.656   1.223
 7960SOL    HW224780   3.238   1.514   1.188
 7961SOL     OW24781   1.724   6.629   6.260
 7961SOL    HW124782   1.801   6.631   6.196
 7961SOL    HW224783   1.698   6.722   6.285
 7962SOL     OW24784   2.109   1.162   0.878
 7962SOL    HW124785   2.071   1.119   0.796
 7962SOL    HW224786   2.204   1.133   0.890
 7963SOL     OW24787   0.006   1.168   5.491
 7963SOL    HW124788   6.984   1.079   5.479
 7963SOL    HW224789   0.054   1.192   5.406
 7964SOL     OW24790   5.476   5.148   3.651
 7964SOL    HW124791   5.546   5.099   3.704
 7964SOL    HW224792   5.480   5.245   3.673
 7965SOL     OW24793   4.086   2.327   0.064
 7965SOL    HW124794   4.102   2.233   0.035
 7965SOL    HW224795   4.076   2.386   7.007
 7966SOL     OW24796   1.278   4.178   4.922
 7966SOL    HW124797   1.320   4.199   5.010
 7966SOL    HW224798   1.188   4.138   4.936
 7967SOL     OW24799   2.860   5.350   3.092
 7967SOL    HW124800   2.894   5.442   3.108
 7967SOL    HW224801   2.872   5.327   2.995
 7968SOL     OW24802   2.511   2.447   3.484
 7968SOL    HW124803   2.603   2.418   3.513
 7968SOL    HW224804   2.458   2.474   3.564
 7969SOL     OW24805   3.842   0.138   2.199
 7969SOL    HW124806   3.767   0.110   2.139
 7969SOL    HW224807   3.841   0.237   2.210
 7970SOL     OW24808   6.981   3.590   3.024
 7970SOL    HW124809   0.026   3.566   2.955
 7970SOL    HW224810   6.924   3.510   3.043
 7971SOL     OW24811   2.720   1.098   2.318
 7971SOL    HW124812   2.794   1.032   2.313
 7971SOL    HW224813   2.747   1.183   2.274
 7972SOL     OW24814   6.642   4.485   1.440
 7972SOL    HW124815   6.566   4.438   1.394
 7972SOL    HW224816   6.727   4.437   1.422
 7973SOL     OW24817   5.245   3.510   3.796
 7973SOL    HW124818   5.213   3.597   3.759
 7973SOL    HW224819   5.279   3.452   3.722
 7974SOL     OW24820   5.802   0.291   4.314
 7974SOL    HW124821   5.758   0.288   4.224
 7974SOL    HW224822   5.749   0.237   4.380
 7975SOL     OW24823   4.515   0.625   4.082
 7975SOL    HW124824   4.485   0.586   4.169
 7975SOL    HW224825   4.449   0.693   4.051
 7976SOL     OW24826   0.602   6.714   5.779
 7976SOL    HW124827   0.547   6.797   5.785
 7976SOL    HW224828   0.587   6.671   5.690
 7977SOL     OW24829   5.004   6.196   2.530
 7977SOL    HW124830   5.026   6.135   2.606
 7977SOL    HW224831   4.914   6.174   2.494
 7978SOL     OW24832   4.685   4.111   6.202
 7978SOL    HW124833   4.723   4.096   6.294
 7978SOL    HW224834   4.736   4.057   6.135
 7979SOL     OW24835   3.298   0.259   4.786
 7979SOL    HW124836   3.320   0.341   4.734
 7979SOL    HW224837   3.220   0.213   4.744
 7980SOL     OW24838   3.675   5.790   0.125
 7980SOL    HW124839   3.759   5.737   0.138
 7980SOL    HW224840   3.696   5.888   0.125
 7981SOL     OW24841   0.850   5.218   2.148
 7981SOL    HW124842   0.772   5.165   2.182
 7981SOL    HW224843   0.833   5.244   2.053
 7982SOL     OW24844   6.655   2.424   0.245
 7982SOL    HW124845   6.668   2.447   0.342
 7982SOL    HW224846   6.736   2.451   0.193
 7983SOL     OW24847   5.732   1.526   2.952
 7983SOL    HW124848   5.664   1.483   3.011
 7983SOL    HW224849   5.787   1.589   3.007
 7984SOL     OW24850   1.029   2.021   2.002
 7984SOL    HW124851   1.114   1.975   1.978
 7984SOL    HW224852   1.050   2.109   2.044
 7985SOL     OW24853   1.562   0.433   2.174
 7985SOL    HW124854   1.634   0.413   2.108
 7985SOL    HW224855   1.568   0.529   2.202
 7986SOL     OW24856   3.669   1.509   6.877
 7986SOL    HW124857   3.706   1.488   6.967
 7986SOL    HW224858   3.575   1.542   6.886
 7987SOL     OW24859   7.011   3.319   5.656
 7987SOL    HW124860   6.994   3.412   5.625
 7987SOL    HW224861   0.087   3.306   5.670
 7988SOL     OW24862   2.709   2.343   4.967
 7988SOL    HW124863   2.652   2.417   5.002
 7988SOL    HW224864   2.781   2.322   5.033
 7989SOL     OW24865   3.613   2.689   5.340
 7989SOL    HW124866   3.520   2.652   5.339
 7989SOL    HW224867   3.666   2.644   5.411
 7990SOL     OW24868   1.250   2.768   4.075
 7990SOL    HW124869   1.322   2.835   4.056
 7990SOL    HW224870   1.208   2.788   4.163
 7991SOL     OW24871   0.112   2.561   6.136
 7991SOL    HW124872   0.171   2.599   6.206
 7991SOL    HW224873   0.166   2.505   6.073
 7992SOL     OW24874   1.234   6.687   1.299
 7992SOL    HW124875   1.176   6.768   1.288
 7992SOL    HW224876   1.302   6.704   1.369
 7993SOL     OW24877   2.023   5.796   6.938
 7993SOL    HW124878   1.926   5.779   6.953
 7993SOL    HW224879   2.035   5.841   6.849
 7994SOL     OW24880   4.767   0.708   4.021
 7994SOL    HW124881   4.759   0.775   4.094
 7994SOL    HW224882   4.709   0.629   4.040
 7995SOL     OW24883   4.097   5.664   4.117
 7995SOL    HW124884   4.048   5.634   4.198
 7995SOL    HW224885   4.094   5.592   4.048
 7996SOL     OW24886   3.634   6.629   4.240
 7996SOL    HW124887   3.664   6.534   4.237
 7996SOL    HW224888   3.623   6.658   4.335
 7997SOL     OW24889   6.353   1.915   0.902
 7997SOL    HW124890   6.439   1.895   0.855
 7997SOL    HW224891   6.346   1.858   0.984
 7998SOL     OW24892   4.864   4.889   0.205
 7998SOL    HW124893   4.922   4.920   0.280
 7998SOL    HW224894   4.839   4.966   0.147
 7999SOL     OW24895   1.102   6.945   5.487
 7999SOL    HW124896   1.043   6.980   5.414
 7999SOL    HW224897   1.050   6.881   5.544
 8000SOL     OW24898   5.650   0.446   6.260
 8000SOL    HW124899   5.616   0.498   6.338
 8000SOL    HW224900   5.590   0.461   6.181
 8001SOL     OW24901   2.075   6.300   1.844
 8001SOL    HW124902   2.091   6.207   1.876
 8001SOL    HW224903   2.007   6.345   1.902
 8002SOL     OW24904   0.241   3.440   5.084
 8002SOL    HW124905   0.254   3.342   5.067
 8002SOL    HW224906   0.329   3.484   5.099
 8003SOL     OW24907   3.148   4.899   2.973
 8003SOL    HW124908   3.245   4.911   2.998
 8003SOL    HW224909   3.142   4.858   2.882
 8004SOL     OW24910   2.362   4.281   3.302
 8004SOL    HW124911   2.393   4.219   3.230
 8004SOL    HW224912   2.427   4.356   3.313
 8005SOL     OW24913   2.551   0.998   2.001
 8005SOL    HW124914   2.503   1.011   2.088
 8005SOL    HW224915   2.648   1.019   2.013
 8006SOL     OW24916   2.395   5.820   0.104
 8006SOL    HW124917   2.388   5.728   0.065
 8006SOL    HW224918   2.484   5.859   0.080
 8007SOL     OW24919   1.149   0.113   3.704
 8007SOL    HW124920   1.065   0.078   3.746
 8007SOL    HW224921   1.227   0.094   3.764
 8008SOL     OW24922   5.427   6.363   6.421
 8008SOL    HW124923   5.409   6.265   6.428
 8008SOL    HW224924   5.343   6.410   6.395
 8009SOL     OW24925   6.559   0.470   3.415
 8009SOL    HW124926   6.480   0.419   3.381
 8009SOL    HW224927   6.632   0.406   3.440
 8010SOL     OW24928   2.509   1.648   6.687
 8010SOL    HW124929   2.606   1.647   6.663
 8010SOL    HW224930   2.491   1.725   6.749
 8011SOL     OW24931   2.462   2.196   1.050
 8011SOL    HW124932   2.548   2.222   1.095
 8011SOL    HW224933   2.467   2.100   1.023
 8012SOL     OW24934   1.421   6.463   1.427
 8012SOL    HW124935   1.414   6.519   1.345
 8012SOL    HW224936   1.465   6.377   1.405
 8013SOL     OW24937   6.018   4.734   4.445
 8013SOL    HW124938   6.081   4.759   4.519
 8013SOL    HW224939   6.044   4.644   4.409
 8014SOL     OW24940   1.772   5.811   6.396
 8014SOL    HW124941   1.712   5.732   6.380
 8014SOL    HW224942   1.801   5.811   6.492
 8015SOL     OW24943   3.131   2.498   0.603
 8015SOL    HW124944   3.222   2.457   0.599
 8015SOL    HW224945   3.084   2.467   0.686
 8016SOL     OW24946   4.481   0.503   0.275
 8016SOL    HW124947   4.427   0.440   0.220
 8016SOL    HW224948   4.503   0.460   0.363
 8017SOL     OW24949   0.306   3.992   5.843
 8017SOL    HW124950   0.295   3.893   5.836
 8017SOL    HW224951   0.316   4.018   5.939
 8018SOL     OW24952   5.091   1.683   5.497
 8018SOL    HW124953   5.110   1.679   5.595
 8018SOL    HW224954   5.073   1.778   5.470
 8019SOL     OW24955   1.585   4.656   0.387
 8019SOL    HW124956   1.666   4.638   0.443
 8019SOL    HW224957   1.504   4.660   0.447
 8020SOL     OW24958   5.617   6.239   6.747
 8020SOL    HW124959   5.681   6.260   6.673
 8020SOL    HW224960   5.610   6.140   6.758
 8021SOL     OW24961   0.703   1.273   1.950
 8021SOL    HW124962   0.803   1.265   1.950
 8021SOL    HW224963   0.673   1.321   1.867
 8022SOL     OW24964   4.134   0.658   2.605
 8022SOL    HW124965   4.105   0.732   2.545
 8022SOL    HW224966   4.213   0.611   2.566
 8023SOL     OW24967   6.176   6.601   3.054
 8023SOL    HW124968   6.206   6.542   3.128
 8023SOL    HW224969   6.252   6.615   2.990
 8024SOL     OW24970   3.926   5.626   6.485
 8024SOL    HW124971   3.954   5.539   6.445
 8024SOL    HW224972   3.864   5.608   6.562
 8025SOL     OW24973   3.344   6.590   6.246
 8025SOL    HW124974   3.318   6.500   6.281
 8025SOL    HW224975   3.264   6.651   6.248
 8026SOL     OW24976   0.441   3.996   6.942
 8026SOL    HW124977   0.497   4.027   7.018
 8026SOL    HW224978   0.478   3.910   6.907
 8027SOL     OW24979   4.860   1.877   5.144
 8027SOL    HW124980   4.862   1.780   5.168
 8027SOL    HW224981   4.947   1.920   5.170
 8028SOL     OW24982   4.525   5.224   5.914
 8028SOL    HW124983   4.594   5.166   5.870
 8028SOL    HW224984   4.435   5.185   5.900
 8029SOL     OW24985   4.955   4.298   6.656
 8029SOL    HW124986   4.880   4.300   6.589
 8029SOL    HW224987   4.987   4.204   6.666
 8030SOL     OW24988   5.306   4.266   5.603
 8030SOL    HW124989   5.307   4.339   5.535
 8030SOL    HW224990   5.378   4.282   5.670
 8031SOL     OW24991   4.812   4.909   2.216
 8031SOL    HW124992   4.757   4.826   2.203
 8031SOL    HW224993   4.908   4.889   2.198
 8032SOL     OW24994   6.165   3.654   4.984
 8032SOL    HW124995   6.185   3.718   4.909
 8032SOL    HW224996   6.242   3.653   5.048
 8033SOL     OW24997   5.496   2.704   6.968
 8033SOL    HW124998   5.582   2.676   7.011
 8033SOL    HW224999   5.421   2.647   7.002
 8034SOL     OW25000   6.523   0.087   5.330
 8034SOL    HW125001   6.424   0.072   5.328
 8034SOL    HW225002   6.549   0.128   5.417
 8035SOL     OW25003   5.877   6.341   5.624
 8035SOL    HW125004   5.784   6.346   5.659
 8035SOL    HW225005   5.896   6.248   5.594
 8036SOL     OW25006   1.939   3.727   1.624
 8036SOL    HW125007   1.951   3.676   1.538
 8036SOL    HW225008   2.024   3.723   1.677
 8037SOL     OW25009   2.163   3.444   1.151
 8037SOL    HW125010   2.166   3.509   1.075
 8037SOL    HW225011   2.252   3.399   1.161
 8038SOL     OW25012   6.498   2.161   3.515
 8038SOL    HW125013   6.513   2.088   3.449
 8038SOL    HW225014   6.582   2.178   3.567
 8039SOL     OW25015   1.759   6.570   2.628
 8039SOL    HW125016   1.731   6.657   2.670
 8039SOL    HW225017   1.717   6.494   2.677
 8040SOL     OW25018   0.581   5.603   0.911
 8040SOL    HW125019   0.528   5.520   0.930
 8040SOL    HW225020   0.606   5.605   0.815
 8041SOL     OW25021   3.440   1.168   1.265
 8041SOL    HW125022   3.367   1.153   1.198
 8041SOL    HW225023   3.399   1.173   1.357
 8042SOL     OW25024   3.651   2.863   1.969
 8042SOL    HW125025   3.696   2.812   1.897
 8042SOL    HW225026   3.720   2.896   2.034
 8043SOL     OW25027   2.484   0.842   0.776
 8043SOL    HW125028   2.482   0.747   0.809
 8043SOL    HW225029   2.579   0.870   0.762
 8044SOL     OW25030   3.172   2.970   1.485
 8044SOL    HW125031   3.246   3.036   1.472
 8044SOL    HW225032   3.207   2.877   1.476
 8045SOL     OW25033   6.163   1.585   2.754
 8045SOL    HW125034   6.081   1.569   2.698
 8045SOL    HW225035   6.141   1.572   2.850
 8046SOL     OW25036   5.516   4.343   5.778
 8046SOL    HW125037   5.505   4.375   5.872
 8046SOL    HW225038   5.586   4.397   5.732
 8047SOL     OW25039   3.170   5.393   4.732
 8047SOL    HW125040   3.270   5.392   4.722
 8047SOL    HW225041   3.146   5.391   4.829
 8048SOL     OW25042   5.755   0.805   5.461
 8048SOL    HW125043   5.698   0.729   5.429
 8048SOL    HW225044   5.723   0.835   5.551
 8049SOL     OW25045   0.810   6.748   1.001
 8049SOL    HW125046   0.815   6.656   1.041
 8049SOL    HW225047   0.724   6.791   1.026
 8050SOL     OW25048   1.477   3.068   1.305
 8050SOL    HW125049   1.514   3.142   1.247
 8050SOL    HW225050   1.407   3.018   1.254
 8051SOL     OW25051   4.779   0.292   2.682
 8051SOL    HW125052   4.801   0.252   2.593
 8051SOL    HW225053   4.799   0.390   2.681
 8052SOL     OW25054   3.477   1.481   2.382
 8052SOL    HW125055   3.395   1.510   2.333
 8052SOL    HW225056   3.466   1.386   2.413
 8053SOL     OW25057   3.943   3.928   2.845
 8053SOL    HW125058   3.992   3.861   2.900
 8053SOL    HW225059   3.861   3.957   2.893
 8054SOL     OW25060   4.572   6.796   4.675
 8054SOL    HW125061   4.627   6.844   4.607
 8054SOL    HW225062   4.630   6.771   4.752
 8055SOL     OW25063   0.479   0.367   6.292
 8055SOL    HW125064   0.509   0.356   6.197
 8055SOL    HW225065   0.540   0.316   6.352
 8056SOL     OW25066   4.264   1.277   2.788
 8056SOL    HW125067   4.176   1.257   2.746
 8056SOL    HW225068   4.314   1.344   2.733
 8057SOL     OW25069   2.958   0.256   2.509
 8057SOL    HW125070   2.865   0.229   2.484
 8057SOL    HW225071   3.020   0.233   2.435
 8058SOL     OW25072   3.100   0.028   2.410
 8058SOL    HW125073   3.035   0.066   2.476
 8058SOL    HW225074   3.052   6.993   2.345
 8059SOL     OW25075   4.032   2.243   4.778
 8059SOL    HW125076   4.115   2.186   4.776
 8059SOL    HW225077   4.040   2.312   4.849
 8060SOL     OW25078   0.074   1.195   4.863
 8060SOL    HW125079   0.138   1.125   4.831
 8060SOL    HW225080   7.007   1.179   4.822
 8061SOL     OW25081   6.329   5.429   2.622
 8061SOL    HW125082   6.388   5.413   2.542
 8061SOL    HW225083   6.274   5.511   2.606
 8062SOL     OW25084   1.466   4.264   4.414
 8062SOL    HW125085   1.477   4.166   4.430
 8062SOL    HW225086   1.467   4.312   4.502
 8063SOL     OW25087   2.160   3.887   0.122
 8063SOL    HW125088   2.233   3.953   0.140
 8063SOL    HW225089   2.138   3.887   0.024
 8064SOL     OW25090   0.413   4.536   0.096
 8064SOL    HW125091   0.434   4.449   0.051
 8064SOL    HW225092   0.322   4.531   0.137
 8065SOL     OW25093   4.158   0.183   4.682
 8065SOL    HW125094   4.104   0.263   4.706
 8065SOL    HW225095   4.250   0.211   4.654
 8066SOL     OW25096   1.476   1.132   6.928
 8066SOL    HW125097   1.398   1.082   6.889
 8066SOL    HW225098   1.560   1.080   6.914
 8067SOL     OW25099   4.081   3.045   1.671
 8067SOL    HW125100   3.984   3.020   1.668
 8067SOL    HW225101   4.137   2.965   1.647
 8068SOL     OW25102   6.810   5.351   4.856
 8068SOL    HW125103   6.818   5.335   4.954
 8068SOL    HW225104   6.845   5.272   4.806
 8069SOL     OW25105   2.166   6.353   1.377
 8069SOL    HW125106   2.105   6.273   1.376
 8069SOL    HW225107   2.242   6.338   1.314
 8070SOL     OW25108   3.424   5.510   1.624
 8070SOL    HW125109   3.355   5.577   1.654
 8070SOL    HW225110   3.474   5.476   1.703
 8071SOL     OW25111   4.205   6.666   5.103
 8071SOL    HW125112   4.300   6.634   5.097
 8071SOL    HW225113   4.157   6.645   5.018
 8072SOL     OW25114   4.583   1.143   0.541
 8072SOL    HW125115   4.563   1.087   0.461
 8072SOL    HW225116   4.500   1.190   0.571
 8073SOL     OW25117   4.658   6.872   6.159
 8073SOL    HW125118   4.653   6.966   6.193
 8073SOL    HW225119   4.722   6.820   6.216
 8074SOL     OW25120   2.716   3.485   0.685
 8074SOL    HW125121   2.784   3.558   0.688
 8074SOL    HW225122   2.672   3.484   0.595
 8075SOL     OW25123   6.642   1.168   1.560
 8075SOL    HW125124   6.657   1.260   1.524
 8075SOL    HW225125   6.729   1.132   1.594
 8076SOL     OW25126   5.245   2.585   5.213
 8076SOL    HW125127   5.162   2.620   5.256
 8076SOL    HW225128   5.301   2.538   5.282
 8077SOL     OW25129   1.086   6.708   1.668
 8077SOL    HW125130   1.132   6.760   1.739
 8077SOL    HW225131   1.152   6.651   1.620
 8078SOL     OW25132   6.735   1.838   0.462
 8078SOL    HW125133   6.717   1.935   0.449
 8078SOL    HW225134   6.682   1.804   0.540
 8079SOL     OW25135   6.463   2.195   2.941
 8079SOL    HW125136   6.482   2.162   3.034
 8079SOL    HW225137   6.371   2.235   2.939
 8080SOL     OW25138   2.025   3.711   0.725
 8080SOL    HW125139   2.000   3.762   0.808
 8080SOL    HW225140   2.057   3.775   0.655
 8081SOL     OW25141   5.518   1.106   5.658
 8081SOL    HW125142   5.584   1.031   5.669
 8081SOL    HW225143   5.556   1.190   5.697
 8082SOL     OW25144   5.844   2.494   3.426
 8082SOL    HW125145   5.875   2.438   3.350
 8082SOL    HW225146   5.899   2.475   3.507
 8083SOL     OW25147   5.241   3.169   2.539
 8083SOL    HW125148   5.232   3.263   2.573
 8083SOL    HW225149   5.283   3.171   2.448
 8084SOL     OW25150   6.499   5.925   1.302
 8084SOL    HW125151   6.495   5.972   1.214
 8084SOL    HW225152   6.576   5.961   1.355
 8085SOL     OW25153   5.646   6.990   1.286
 8085SOL    HW125154   5.574   6.975   1.354
 8085SOL    HW225155   5.635   0.058   1.245
 8086SOL     OW25156   4.394   0.257   4.267
 8086SOL    HW125157   4.400   0.197   4.347
 8086SOL    HW225158   4.486   0.282   4.238
 8087SOL     OW25159   2.707   2.447   1.004
 8087SOL    HW125160   2.730   2.365   1.055
 8087SOL    HW225161   2.790   2.494   0.977
 8088SOL     OW25162   5.924   0.933   2.247
 8088SOL    HW125163   5.938   1.021   2.292
 8088SOL    HW225164   5.961   0.937   2.154
 8089SOL     OW25165   4.999   3.277   0.019
 8089SOL    HW125166   5.034   3.188   7.014
 8089SOL    HW225167   4.907   3.290   7.005
 8090SOL     OW25168   5.355   1.840   6.511
 8090SOL    HW125169   5.403   1.914   6.558
 8090SOL    HW225170   5.394   1.752   6.537
 8091SOL     OW25171   3.242   4.714   6.880
 8091SOL    HW125172   3.285   4.756   6.960
 8091SOL    HW225173   3.143   4.721   6.888
 8092SOL     OW25174   1.423   1.308   4.638
 8092SOL    HW125175   1.523   1.314   4.645
 8092SOL    HW225176   1.383   1.398   4.650
 8093SOL     OW25177   5.683   5.543   1.718
 8093SOL    HW125178   5.622   5.464   1.714
 8093SOL    HW225179   5.742   5.535   1.799
 8094SOL     OW25180   1.489   4.294   6.507
 8094SOL    HW125181   1.478   4.214   6.567
 8094SOL    HW225182   1.515   4.262   6.415
 8095SOL     OW25183   6.018   3.649   4.523
 8095SOL    HW125184   5.992   3.565   4.570
 8095SOL    HW225185   6.097   3.632   4.465
 8096SOL     OW25186   2.963   5.607   2.649
 8096SOL    HW125187   2.996   5.521   2.687
 8096SOL    HW225188   2.912   5.589   2.564
 8097SOL     OW25189   4.981   0.246   3.068
 8097SOL    HW125190   4.913   0.236   3.141
 8097SOL    HW225191   4.976   0.338   3.030
 8098SOL     OW25192   2.214   6.030   4.094
 8098SOL    HW125193   2.188   5.938   4.063
 8098SOL    HW225194   2.132   6.079   4.124
 8099SOL     OW25195   5.728   6.897   4.397
 8099SOL    HW125196   5.673   6.977   4.419
 8099SOL    HW225197   5.775   6.865   4.480
 8100SOL     OW25198   0.512   6.755   0.266
 8100SOL    HW125199   0.466   6.789   0.184
 8100SOL    HW225200   0.495   6.816   0.342
 8101SOL     OW25201   1.330   7.014   5.056
 8101SOL    HW125202   1.400   0.057   5.082
 8101SOL    HW225203   1.299   6.964   5.137
 8102SOL     OW25204   0.741   5.342   6.313
 8102SOL    HW125205   0.641   5.340   6.303
 8102SOL    HW225206   0.766   5.303   6.401
 8103SOL     OW25207   3.886   1.384   1.852
 8103SOL    HW125208   3.831   1.396   1.934
 8103SOL    HW225209   3.977   1.423   1.866
 8104SOL     OW25210   3.833   6.745   5.938
 8104SOL    HW125211   3.914   6.692   5.916
 8104SOL    HW225212   3.777   6.757   5.856
 8105SOL     OW25213   2.474   2.035   3.918
 8105SOL    HW125214   2.443   2.130   3.922
 8105SOL    HW225215   2.455   1.997   3.828
 8106SOL     OW25216   1.430   4.291   3.554
 8106SOL    HW125217   1.396   4.236   3.631
 8106SOL    HW225218   1.433   4.234   3.472
 8107SOL     OW25219   2.285   6.436   5.924
 8107SOL    HW125220   2.303   6.339   5.939
 8107SOL    HW225221   2.216   6.447   5.853
 8108SOL     OW25222   6.716   3.710   4.660
 8108SOL    HW125223   6.626   3.673   4.636
 8108SOL    HW225224   6.742   3.677   4.751
 8109SOL     OW25225   2.289   4.731   5.334
 8109SOL    HW125226   2.224   4.661   5.307
 8109SOL    HW225227   2.277   4.812   5.277
 8110SOL     OW25228   2.193   6.808   0.650
 8110SOL    HW125229   2.269   6.743   0.659
 8110SOL    HW225230   2.222   6.897   0.685
 8111SOL     OW25231   2.724   6.413   5.168
 8111SOL    HW125232   2.763   6.449   5.252
 8111SOL    HW225233   2.733   6.313   5.167
 8112SOL     OW25234   2.833   0.439   5.344
 8112SOL    HW125235   2.815   0.526   5.388
 8112SOL    HW225236   2.850   0.453   5.247
 8113SOL     OW25237   3.651   2.336   0.356
 8113SOL    HW125238   3.589   2.258   0.355
 8113SOL    HW225239   3.694   2.346   0.267
 8114SOL     OW25240   2.221   3.013   2.423
 8114SOL    HW125241   2.235   2.921   2.388
 8114SOL    HW225242   2.191   3.073   2.349
 8115SOL     OW25243   3.048   1.297   1.490
 8115SOL    HW125244   2.963   1.349   1.478
 8115SOL    HW225245   3.088   1.319   1.579
 8116SOL     OW25246   6.247   0.013   5.469
 8116SOL    HW125247   6.170   0.049   5.416
 8116SOL    HW225248   6.237   0.042   5.565
 8117SOL     OW25249   1.478   1.628   4.443
 8117SOL    HW125250   1.474   1.720   4.406
 8117SOL    HW225251   1.391   1.581   4.425
 8118SOL     OW25252   1.108   4.288   5.684
 8118SOL    HW125253   1.078   4.382   5.672
 8118SOL    HW225254   1.108   4.265   5.781
 8119SOL     OW25255   0.473   5.605   3.884
 8119SOL    HW125256   0.572   5.593   3.896
 8119SOL    HW225257   0.424   5.551   3.951
 8120SOL     OW25258   4.220   4.433   0.519
 8120SOL    HW125259   4.295   4.369   0.500
 8120SOL    HW225260   4.234   4.473   0.610
 8121SOL     OW25261   0.075   6.865   2.966
 8121SOL    HW125262   7.013   6.876   3.019
 8121SOL    HW225263   0.095   6.950   2.918
 8122SOL     OW25264   0.587   5.719   1.330
 8122SOL    HW125265   0.536   5.662   1.266
 8122SOL    HW225266   0.524   5.779   1.378
 8123SOL     OW25267   1.051   6.802   6.312
 8123SOL    HW125268   1.123   6.759   6.366
 8123SOL    HW225269   0.981   6.734   6.290
 8124SOL     OW25270   1.628   5.634   0.962
 8124SOL    HW125271   1.556   5.565   0.964
 8124SOL    HW225272   1.662   5.648   1.055
 8125SOL     OW25273   6.137   4.546   2.597
 8125SOL    HW125274   6.040   4.529   2.579
 8125SOL    HW225275   6.148   4.579   2.691
 8126SOL     OW25276   5.823   4.184   3.190
 8126SOL    HW125277   5.736   4.232   3.181
 8126SOL    HW225278   5.853   4.187   3.285
 8127SOL     OW25279   2.181   5.410   0.733
 8127SOL    HW125280   2.230   5.484   0.688
 8127SOL    HW225281   2.097   5.389   0.683
 8128SOL     OW25282   3.063   2.768   6.500
 8128SOL    HW125283   2.974   2.774   6.454
 8128SOL    HW225284   3.050   2.777   6.599
 8129SOL     OW25285   5.570   0.575   6.485
 8129SOL    HW125286   5.618   0.569   6.572
 8129SOL    HW225287   5.482   0.528   6.492
 8130SOL     OW25288   0.990   5.238   6.233
 8130SOL    HW125289   0.911   5.297   6.250
 8130SOL    HW225290   1.042   5.275   6.156
 8131SOL     OW25291   3.408   0.783   0.437
 8131SOL    HW125292   3.337   0.715   0.452
 8131SOL    HW225293   3.498   0.740   0.447
 8132SOL     OW25294   6.138   5.283   4.530
 8132SOL    HW125295   6.204   5.285   4.455
 8132SOL    HW225296   6.051   5.321   4.498
 8133SOL     OW25297   3.076   5.175   3.310
 8133SOL    HW125298   2.981   5.158   3.285
 8133SOL    HW225299   3.117   5.237   3.243
 8134SOL     OW25300   2.089   2.040   4.162
 8134SOL    HW125301   2.087   2.041   4.262
 8134SOL    HW225302   2.172   2.087   4.130
 8135SOL     OW25303   3.487   5.272   2.128
 8135SOL    HW125304   3.555   5.259   2.200
 8135SOL    HW225305   3.395   5.262   2.167
 8136SOL     OW25306   3.764   5.192   2.266
 8136SOL    HW125307   3.851   5.208   2.312
 8136SOL    HW225308   3.778   5.130   2.189
 8137SOL     OW25309   1.778   3.203   5.056
 8137SOL    HW125310   1.872   3.220   5.029
 8137SOL    HW225311   1.733   3.291   5.075
 8138SOL     OW25312   5.824   1.751   2.326
 8138SOL    HW125313   5.896   1.683   2.340
 8138SOL    HW225314   5.849   1.835   2.375
 8139SOL     OW25315   0.898   3.080   3.259
 8139SOL    HW125316   0.822   3.031   3.216
 8139SOL    HW225317   0.863   3.160   3.307
 8140SOL     OW25318   4.663   0.052   0.287
 8140SOL    HW125319   4.728   0.129   0.282
 8140SOL    HW225320   4.571   0.086   0.271
 8141SOL     OW25321   5.197   1.362   5.769
 8141SOL    HW125322   5.221   1.340   5.675
 8141SOL    HW225323   5.138   1.290   5.806
 8142SOL     OW25324   2.276   6.101   0.081
 8142SOL    HW125325   2.263   6.168   0.154
 8142SOL    HW225326   2.302   6.013   0.121
 8143SOL     OW25327   5.115   4.431   0.593
 8143SOL    HW125328   5.170   4.362   0.640
 8143SOL    HW225329   5.026   4.438   0.637
 8144SOL     OW25330   0.611   5.783   5.833
 8144SOL    HW125331   0.515   5.795   5.808
 8144SOL    HW225332   0.621   5.799   5.931
 8145SOL     OW25333   5.677   5.705   0.746
 8145SOL    HW125334   5.759   5.754   0.776
 8145SOL    HW225335   5.608   5.708   0.818
 8146SOL     OW25336   6.050   0.310   4.435
 8146SOL    HW125337   5.952   0.319   4.413
 8146SOL    HW225338   6.094   0.252   4.367
 8147SOL     OW25339   0.776   0.519   6.407
 8147SOL    HW125340   0.792   0.424   6.383
 8147SOL    HW225341   0.762   0.527   6.506
 8148SOL     OW25342   4.067   4.160   6.684
 8148SOL    HW125343   4.060   4.181   6.587
 8148SOL    HW225344   4.155   4.115   6.702
 8149SOL     OW25345   1.073   0.042   4.788
 8149SOL    HW125346   1.029   0.124   4.827
 8149SOL    HW225347   1.119   0.066   4.703
 8150SOL     OW25348   0.823   3.416   1.006
 8150SOL    HW125349   0.732   3.398   1.041
 8150SOL    HW225350   0.834   3.371   0.917
 8151SOL     OW25351   6.071   4.821   3.794
 8151SOL    HW125352   6.040   4.914   3.815
 8151SOL    HW225353   6.117   4.782   3.873
 8152SOL     OW25354   4.533   1.645   2.995
 8152SOL    HW125355   4.441   1.608   2.981
 8152SOL    HW225356   4.527   1.745   3.001
 8153SOL     OW25357   1.051   0.802   3.833
 8153SOL    HW125358   1.141   0.782   3.796
 8153SOL    HW225359   1.046   0.775   3.929
 8154SOL     OW25360   2.304   1.514   3.365
 8154SOL    HW125361   2.375   1.519   3.435
 8154SOL    HW225362   2.295   1.603   3.320
 8155SOL     OW25363   1.343   4.322   2.737
 8155SOL    HW125364   1.391   4.402   2.773
 8155SOL    HW225365   1.244   4.334   2.749
 8156SOL     OW25366   5.890   5.295   1.215
 8156SOL    HW125367   5.794   5.308   1.240
 8156SOL    HW225368   5.930   5.382   1.189
 8157SOL     OW25369   6.194   3.204   6.449
 8157SOL    HW125370   6.235   3.283   6.403
 8157SOL    HW225371   6.100   3.193   6.418
 8158SOL     OW25372   5.506   4.733   6.150
 8158SOL    HW125373   5.528   4.673   6.227
 8158SOL    HW225374   5.587   4.785   6.124
 8159SOL     OW25375   3.819   6.413   5.986
 8159SOL    HW125376   3.788   6.462   6.068
 8159SOL    HW225377   3.752   6.342   5.963
 8160SOL     OW25378   5.511   1.757   3.078
 8160SOL    HW125379   5.520   1.741   3.176
 8160SOL    HW225380   5.494   1.670   3.031
 8161SOL     OW25381   5.338   3.597   0.208
 8161SOL    HW125382   5.354   3.592   0.306
 8161SOL    HW225383   5.241   3.583   0.189
 8162SOL     OW25384   0.091   4.813   6.753
 8162SOL    HW125385   0.067   4.894   6.806
 8162SOL    HW225386   0.131   4.841   6.666
 8163SOL     OW25387   4.520   4.709   5.334
 8163SOL    HW125388   4.604   4.667   5.301
 8163SOL    HW225389   4.525   4.721   5.434
 8164SOL     OW25390   5.122   0.821   6.975
 8164SOL    HW125391   5.184   0.900   6.976
 8164SOL    HW225392   5.128   0.776   6.886
 8165SOL     OW25393   6.236   2.896   6.550
 8165SOL    HW125394   6.325   2.851   6.558
 8165SOL    HW225395   6.229   2.968   6.619
 8166SOL     OW25396   1.542   2.015   3.823
 8166SOL    HW125397   1.531   1.931   3.875
 8166SOL    HW225398   1.621   2.066   3.856
 8167SOL     OW25399   6.375   1.371   4.199
 8167SOL    HW125400   6.327   1.291   4.163
 8167SOL    HW225401   6.309   1.442   4.222
 8168SOL     OW25402   1.962   0.791   1.274
 8168SOL    HW125403   1.871   0.757   1.249
 8168SOL    HW225404   1.953   0.873   1.330
 8169SOL     OW25405   4.859   1.969   0.199
 8169SOL    HW125406   4.928   1.960   0.271
 8169SOL    HW225407   4.768   1.972   0.241
 8170SOL     OW25408   6.658   4.231   2.088
 8170SOL    HW125409   6.685   4.324   2.064
 8170SOL    HW225410   6.739   4.174   2.099
 8171SOL     OW25411   1.578   1.358   0.022
 8171SOL    HW125412   1.546   1.271   7.007
 8171SOL    HW225413   1.519   1.385   0.099
 8172SOL     OW25414   0.379   1.854   1.542
 8172SOL    HW125415   0.363   1.855   1.444
 8172SOL    HW225416   0.470   1.818   1.561
 8173SOL     OW25417   6.010   2.365   2.265
 8173SOL    HW125418   6.062   2.408   2.340
 8173SOL    HW225419   5.994   2.269   2.287
 8174SOL     OW25420   1.402   6.083   2.452
 8174SOL    HW125421   1.423   6.172   2.493
 8174SOL    HW225422   1.344   6.097   2.372
 8175SOL     OW25423   1.030   2.219   4.098
 8175SOL    HW125424   1.023   2.132   4.146
 8175SOL    HW225425   1.119   2.225   4.053
 8176SOL     OW25426   1.801   4.432   1.420
 8176SOL    HW125427   1.782   4.408   1.516
 8176SOL    HW225428   1.775   4.356   1.361
 8177SOL     OW25429   3.573   1.181   2.820
 8177SOL    HW125430   3.514   1.118   2.768
 8177SOL    HW225431   3.541   1.185   2.915
 8178SOL     OW25432   2.755   6.637   0.477
 8178SOL    HW125433   2.711   6.664   0.563
 8178SOL    HW225434   2.836   6.694   0.462
 8179SOL     OW25435   5.191   1.045   4.295
 8179SOL    HW125436   5.248   1.072   4.218
 8179SOL    HW225437   5.208   1.105   4.373
 8180SOL     OW25438   5.477   6.770   6.558
 8180SOL    HW125439   5.381   6.774   6.532
 8180SOL    HW225440   5.519   6.859   6.542
 8181SOL     OW25441   0.995   1.233   0.841
 8181SOL    HW125442   0.913   1.289   0.854
 8181SOL    HW225443   0.975   1.138   0.862
 8182SOL     OW25444   3.718   3.742   4.686
 8182SOL    HW125445   3.621   3.755   4.671
 8182SOL    HW225446   3.762   3.711   4.602
 8183SOL     OW25447   6.718   0.674   5.203
 8183SOL    HW125448   6.693   0.635   5.114
 8183SOL    HW225449   6.648   0.740   5.230
 8184SOL     OW25450   1.505   6.869   6.607
 8184SOL    HW125451   1.507   6.787   6.665
 8184SOL    HW225452   1.434   6.931   6.639
 8185SOL     OW25453   1.400   0.561   0.866
 8185SOL    HW125454   1.371   0.611   0.785
 8185SOL    HW225455   1.337   0.579   0.941
 8186SOL     OW25456   1.561   5.133   6.645
 8186SOL    HW125457   1.527   5.042   6.623
 8186SOL    HW225458   1.512   5.202   6.591
 8187SOL     OW25459   2.139   1.664   5.310
 8187SOL    HW125460   2.194   1.740   5.275
 8187SOL    HW225461   2.176   1.578   5.276
 8188SOL     OW25462   4.280   1.970   4.153
 8188SOL    HW125463   4.305   2.064   4.176
 8188SOL    HW225464   4.185   1.967   4.122
 8189SOL     OW25465   4.850   4.853   3.627
 8189SOL    HW125466   4.915   4.927   3.649
 8189SOL    HW225467   4.880   4.769   3.670
 8190SOL     OW25468   5.374   3.658   3.147
 8190SOL    HW125469   5.372   3.755   3.123
 8190SOL    HW225470   5.468   3.628   3.159
 8191SOL     OW25471   4.515   4.964   2.139
 8191SOL    HW125472   4.590   5.021   2.173
 8191SOL    HW225473   4.537   4.867   2.155
 8192SOL     OW25474   1.641   5.151   3.032
 8192SOL    HW125475   1.588   5.232   3.004
 8192SOL    HW225476   1.605   5.070   2.985
 8193SOL     OW25477   6.865   5.107   4.684
 8193SOL    HW125478   6.957   5.109   4.645
 8193SOL    HW225479   6.801   5.075   4.615
 8194SOL     OW25480   4.660   6.939   0.998
 8194SOL    HW125481   4.727   6.946   1.072
 8194SOL    HW225482   4.582   6.999   1.018
 8195SOL     OW25483   5.856   6.531   4.052
 8195SOL    HW125484   5.943   6.552   4.098
 8195SOL    HW225485   5.780   6.544   4.116
 8196SOL     OW25486   4.421   0.992   0.218
 8196SOL    HW125487   4.396   1.085   0.194
 8196SOL    HW225488   4.518   0.989   0.242
 8197SOL     OW25489   4.546   1.776   1.759
 8197SOL    HW125490   4.643   1.772   1.732
 8197SOL    HW225491   4.509   1.866   1.736
 8198SOL     OW25492   2.856   0.484   1.718
 8198SOL    HW125493   2.894   0.576   1.711
 8198SOL    HW225494   2.761   0.489   1.748
 8199SOL     OW25495   4.730   2.633   5.889
 8199SOL    HW125496   4.804   2.689   5.850
 8199SOL    HW225497   4.753   2.536   5.880
 8200SOL     OW25498   5.765   3.938   1.993
 8200SOL    HW125499   5.684   3.997   1.990
 8200SOL    HW225500   5.842   3.986   1.951
 8201SOL     OW25501   0.550   0.812   5.111
 8201SOL    HW125502   0.520   0.846   5.201
 8201SOL    HW225503   0.609   0.879   5.068
 8202SOL     OW25504   0.140   6.260   2.030
 8202SOL    HW125505   0.044   6.282   2.048
 8202SOL    HW225506   0.148   6.162   2.009
 8203SOL     OW25507   1.897   2.411   6.722
 8203SOL    HW125508   1.948   2.463   6.654
 8203SOL    HW225509   1.952   2.402   6.806
 8204SOL     OW25510   4.264   3.705   0.951
 8204SOL    HW125511   4.302   3.616   0.978
 8204SOL    HW225512   4.269   3.715   0.852
 8205SOL     OW25513   0.659   2.452   0.145
 8205SOL    HW125514   0.626   2.449   0.239
 8205SOL    HW225515   0.658   2.547   0.112
 8206SOL     OW25516   4.310   1.424   6.960
 8206SOL    HW125517   4.221   1.423   6.916
 8206SOL    HW225518   4.374   1.476   6.904
 8207SOL     OW25519   3.380   3.204   4.007
 8207SOL    HW125520   3.306   3.141   3.982
 8207SOL    HW225521   3.342   3.284   4.053
 8208SOL     OW25522   0.526   1.191   0.041
 8208SOL    HW125523   0.584   1.126   0.091
 8208SOL    HW225524   0.531   1.171   6.966
 8209SOL     OW25525   0.292   0.678   5.125
 8209SOL    HW125526   0.388   0.704   5.120
 8209SOL    HW225527   0.285   0.587   5.167
 8210SOL     OW25528   1.750   2.995   6.892
 8210SOL    HW125529   1.785   2.922   6.833
 8210SOL    HW225530   1.759   3.083   6.844
 8211SOL     OW25531   3.158   4.329   1.142
 8211SOL    HW125532   3.177   4.264   1.215
 8211SOL    HW225533   3.148   4.280   1.055
 8212SOL     OW25534   1.271   1.959   2.959
 8212SOL    HW125535   1.295   1.945   2.864
 8212SOL    HW225536   1.201   2.030   2.966
 8213SOL     OW25537   6.744   4.935   2.225
 8213SOL    HW125538   6.800   4.853   2.210
 8213SOL    HW225539   6.647   4.910   2.223
 8214SOL     OW25540   5.787   5.009   3.320
 8214SOL    HW125541   5.860   5.027   3.385
 8214SOL    HW225542   5.760   5.095   3.276
 8215SOL     OW25543   3.506   5.545   4.983
 8215SOL    HW125544   3.570   5.483   5.029
 8215SOL    HW225545   3.557   5.614   4.932
 8216SOL     OW25546   5.288   5.463   4.242
 8216SOL    HW125547   5.193   5.490   4.255
 8216SOL    HW225548   5.344   5.544   4.225
 8217SOL     OW25549   1.836   4.689   0.488
 8217SOL    HW125550   1.843   4.628   0.567
 8217SOL    HW225551   1.925   4.729   0.469
 8218SOL     OW25552   0.712   1.904   6.754
 8218SOL    HW125553   0.806   1.930   6.776
 8218SOL    HW225554   0.664   1.878   6.838
 8219SOL     OW25555   4.959   2.336   0.820
 8219SOL    HW125556   5.023   2.311   0.893
 8219SOL    HW225557   5.004   2.397   0.755
 8220SOL     OW25558   3.818   2.964   3.097
 8220SOL    HW125559   3.779   2.886   3.147
 8220SOL    HW225560   3.886   2.931   3.032
 8221SOL     OW25561   4.941   6.077   4.187
 8221SOL    HW125562   4.907   6.045   4.275
 8221SOL    HW225563   5.020   6.022   4.160
 8222SOL     OW25564   5.335   1.813   2.307
 8222SOL    HW125565   5.283   1.771   2.381
 8222SOL    HW225566   5.282   1.812   2.223
 8223SOL     OW25567   0.882   4.599   5.377
 8223SOL    HW125568   0.886   4.510   5.332
 8223SOL    HW225569   0.810   4.654   5.335
 8224SOL     OW25570   1.100   2.773   3.168
 8224SOL    HW125571   1.055   2.791   3.080
 8224SOL    HW225572   1.036   2.792   3.243
 8225SOL     OW25573   4.307   1.231   0.569
 8225SOL    HW125574   4.241   1.164   0.604
 8225SOL    HW225575   4.288   1.248   0.472
 8226SOL     OW25576   4.944   0.610   1.677
 8226SOL    HW125577   4.906   0.523   1.646
 8226SOL    HW225578   4.885   0.650   1.747
 8227SOL     OW25579   0.671   2.461   3.980
 8227SOL    HW125580   0.740   2.405   3.935
 8227SOL    HW225581   0.709   2.552   3.998
 8228SOL     OW25582   6.943   2.809   5.723
 8228SOL    HW125583   6.917   2.903   5.701
 8228SOL    HW225584   6.860   2.755   5.740
 8229SOL     OW25585   3.386   5.126   0.168
 8229SOL    HW125586   3.369   5.113   0.266
 8229SOL    HW225587   3.418   5.219   0.152
 8230SOL     OW25588   5.562   6.988   5.374
 8230SOL    HW125589   5.595   0.025   5.301
 8230SOL    HW225590   5.470   6.957   5.352
 8231SOL     OW25591   3.875   6.080   1.622
 8231SOL    HW125592   3.873   6.059   1.720
 8231SOL    HW225593   3.794   6.042   1.578
 8232SOL     OW25594   4.447   0.817   0.782
 8232SOL    HW125595   4.414   0.756   0.711
 8232SOL    HW225596   4.534   0.858   0.753
 8233SOL     OW25597   0.819   5.761   6.487
 8233SOL    HW125598   0.831   5.704   6.406
 8233SOL    HW225599   0.905   5.764   6.539
 8234SOL     OW25600   2.420   3.272   0.169
 8234SOL    HW125601   2.359   3.337   0.124
 8234SOL    HW225602   2.368   3.193   0.199
 8235SOL     OW25603   2.309   2.870   0.614
 8235SOL    HW125604   2.313   2.889   0.712
 8235SOL    HW225605   2.373   2.930   0.566
 8236SOL     OW25606   6.675   4.124   0.223
 8236SOL    HW125607   6.607   4.062   0.263
 8236SOL    HW225608   6.631   4.211   0.201
 8237SOL     OW25609   4.987   6.112   4.539
 8237SOL    HW125610   4.906   6.063   4.508
 8237SOL    HW225611   4.974   6.210   4.524
 8238SOL     OW25612   1.675   3.962   0.082
 8238SOL    HW125613   1.668   3.940   0.179
 8238SOL    HW225614   1.629   4.049   0.064
 8239SOL     OW25615   6.205   1.908   5.670
 8239SOL    HW125616   6.172   1.831   5.615
 8239SOL    HW225617   6.160   1.992   5.639
 8240SOL     OW25618   3.772   3.553   2.572
 8240SOL    HW125619   3.821   3.638   2.550
 8240SOL    HW225620   3.705   3.570   2.643
 8241SOL     OW25621   3.298   6.729   0.468
 8241SOL    HW125622   3.340   6.645   0.432
 8241SOL    HW225623   3.326   6.807   0.412
 8242SOL     OW25624   1.246   4.532   5.897
 8242SOL    HW125625   1.148   4.542   5.914
 8242SOL    HW225626   1.283   4.461   5.957
 8243SOL     OW25627   0.993   3.050   6.704
 8243SOL    HW125628   0.913   2.992   6.694
 8243SOL    HW225629   1.072   3.005   6.663
 8244SOL     OW25630   0.817   6.725   3.482
 8244SOL    HW125631   0.904   6.693   3.520
 8244SOL    HW225632   0.760   6.764   3.555
 8245SOL     OW25633   3.823   1.363   2.547
 8245SOL    HW125634   3.801   1.457   2.572
 8245SOL    HW225635   3.740   1.316   2.518
 8246SOL     OW25636   6.744   4.131   5.581
 8246SOL    HW125637   6.671   4.196   5.558
 8246SOL    HW225638   6.792   4.162   5.663
 8247SOL     OW25639   0.999   1.254   1.692
 8247SOL    HW125640   1.049   1.219   1.614
 8247SOL    HW225641   0.910   1.208   1.698
 8248SOL     OW25642   5.805   4.773   3.724
 8248SOL    HW125643   5.777   4.724   3.641
 8248SOL    HW225644   5.904   4.770   3.733
 8249SOL     OW25645   1.828   3.973   4.857
 8249SOL    HW125646   1.854   4.070   4.858
 8249SOL    HW225647   1.766   3.954   4.934
 8250SOL     OW25648   3.363   4.103   2.319
 8250SOL    HW125649   3.375   4.140   2.411
 8250SOL    HW225650   3.269   4.118   2.289
 8251SOL     OW25651   5.968   2.439   4.772
 8251SOL    HW125652   5.953   2.460   4.675
 8251SOL    HW225653   5.887   2.464   4.824
 8252SOL     OW25654   2.980   3.483   0.378
 8252SOL    HW125655   3.057   3.480   0.314
 8252SOL    HW225656   3.007   3.532   0.461
 8253SOL     OW25657   3.141   3.324   5.102
 8253SOL    HW125658   3.136   3.290   5.196
 8253SOL    HW225659   3.231   3.306   5.064
 8254SOL     OW25660   3.951   4.850   4.679
 8254SOL    HW125661   3.947   4.763   4.728
 8254SOL    HW225662   3.923   4.835   4.584
 8255SOL     OW25663   3.741   6.219   4.474
 8255SOL    HW125664   3.760   6.223   4.376
 8255SOL    HW225665   3.772   6.131   4.511
 8256SOL     OW25666   6.379   0.031   3.143
 8256SOL    HW125667   6.474   0.017   3.171
 8256SOL    HW225668   6.323   6.980   3.177
 8257SOL     OW25669   6.795   4.235   3.419
 8257SOL    HW125670   6.891   4.255   3.399
 8257SOL    HW225671   6.790   4.157   3.481
 8258SOL     OW25672   5.094   1.106   0.563
 8258SOL    HW125673   5.163   1.070   0.626
 8258SOL    HW225674   5.074   1.038   0.492
 8259SOL     OW25675   4.031   1.558   3.922
 8259SOL    HW125676   4.128   1.571   3.902
 8259SOL    HW225677   3.979   1.637   3.888
 8260SOL     OW25678   2.646   0.693   1.173
 8260SOL    HW125679   2.562   0.714   1.123
 8260SOL    HW225680   2.678   0.775   1.221
 8261SOL     OW25681   6.090   1.351   1.201
 8261SOL    HW125682   6.074   1.353   1.102
 8261SOL    HW225683   6.187   1.336   1.219
 8262SOL     OW25684   0.245   2.458   0.781
 8262SOL    HW125685   0.295   2.544   0.770
 8262SOL    HW225686   0.199   2.436   0.694
 8263SOL     OW25687   0.294   2.101   0.330
 8263SOL    HW125688   0.278   2.006   0.302
 8263SOL    HW225689   0.220   2.158   0.295
 8264SOL     OW25690   1.382   5.838   2.561
 8264SOL    HW125691   1.332   5.779   2.497
 8264SOL    HW225692   1.387   5.931   2.524
 8265SOL     OW25693   1.253   6.823   1.881
 8265SOL    HW125694   1.262   6.732   1.921
 8265SOL    HW225695   1.338   6.874   1.895
 8266SOL     OW25696   2.116   0.567   2.820
 8266SOL    HW125697   2.186   0.503   2.851
 8266SOL    HW225698   2.091   0.545   2.726
 8267SOL     OW25699   1.822   3.359   1.569
 8267SOL    HW125700   1.777   3.376   1.482
 8267SOL    HW225701   1.921   3.370   1.559
 8268SOL     OW25702   2.307   6.359   6.201
 8268SOL    HW125703   2.294   6.417   6.121
 8268SOL    HW225704   2.241   6.385   6.272
 8269SOL     OW25705   5.842   1.446   1.181
 8269SOL    HW125706   5.939   1.422   1.187
 8269SOL    HW225707   5.795   1.414   1.263
 8270SOL     OW25708   2.451   0.061   4.586
 8270SOL    HW125709   2.404   6.997   4.569
 8270SOL    HW225710   2.549   0.043   4.596
 8271SOL     OW25711   6.865   0.743   2.083
 8271SOL    HW125712   6.864   0.843   2.087
 8271SOL    HW225713   6.952   0.710   2.119
 8272SOL     OW25714   4.899   0.851   1.366
 8272SOL    HW125715   4.902   0.944   1.329
 8272SOL    HW225716   4.976   0.838   1.428
 8273SOL     OW25717   1.447   6.653   0.832
 8273SOL    HW125718   1.429   6.602   0.748
 8273SOL    HW225719   1.486   6.592   0.901
 8274SOL     OW25720   4.663   4.677   3.496
 8274SOL    HW125721   4.578   4.724   3.518
 8274SOL    HW225722   4.741   4.732   3.527
 8275SOL     OW25723   4.378   1.345   6.117
 8275SOL    HW125724   4.414   1.393   6.037
 8275SOL    HW225725   4.278   1.348   6.115
 8276SOL     OW25726   1.147   2.228   3.704
 8276SOL    HW125727   1.111   2.136   3.723
 8276SOL    HW225728   1.167   2.237   3.606
 8277SOL     OW25729   0.574   0.543   6.953
 8277SOL    HW125730   0.531   0.468   7.004
 8277SOL    HW225731   0.637   0.593   7.014
 8278SOL     OW25732   2.612   2.020   6.567
 8278SOL    HW125733   2.544   1.997   6.637
 8278SOL    HW225734   2.592   2.111   6.530
 8279SOL     OW25735   1.209   0.609   4.206
 8279SOL    HW125736   1.276   0.591   4.134
 8279SOL    HW225737   1.173   0.702   4.195
 8280SOL     OW25738   2.655   2.944   0.257
 8280SOL    HW125739   2.652   2.927   0.158
 8280SOL    HW225740   2.746   2.924   0.292
 8281SOL     OW25741   1.588   5.327   1.344
 8281SOL    HW125742   1.632   5.304   1.257
 8281SOL    HW225743   1.652   5.377   1.402
 8282SOL     OW25744   5.507   3.503   6.796
 8282SOL    HW125745   5.471   3.594   6.819
 8282SOL    HW225746   5.506   3.492   6.696
 8283SOL     OW25747   1.055   4.619   6.363
 8283SOL    HW125748   1.055   4.534   6.310
 8283SOL    HW225749   1.078   4.696   6.304
 8284SOL     OW25750   0.614   3.765   1.849
 8284SOL    HW125751   0.706   3.742   1.817
 8284SOL    HW225752   0.569   3.825   1.782
 8285SOL     OW25753   3.926   3.203   5.248
 8285SOL    HW125754   3.907   3.254   5.331
 8285SOL    HW225755   3.933   3.105   5.269
 8286SOL     OW25756   5.277   3.304   6.855
 8286SOL    HW125757   5.281   3.279   6.951
 8286SOL    HW225758   5.336   3.383   6.838
 8287SOL     OW25759   2.128   5.154   4.454
 8287SOL    HW125760   2.154   5.121   4.545
 8287SOL    HW225761   2.206   5.146   4.392
 8288SOL     OW25762   2.987   1.942   2.140
 8288SOL    HW125763   2.985   1.842   2.135
 8288SOL    HW225764   3.057   1.977   2.078
 8289SOL     OW25765   0.341   6.578   1.451
 8289SOL    HW125766   0.376   6.663   1.488
 8289SOL    HW225767   0.348   6.506   1.519
 8290SOL     OW25768   6.168   0.993   0.426
 8290SOL    HW125769   6.112   0.992   0.343
 8290SOL    HW225770   6.264   0.976   0.402
 8291SOL     OW25771   4.562   6.471   6.948
 8291SOL    HW125772   4.528   6.453   6.856
 8291SOL    HW225773   4.491   6.445   7.015
 8292SOL     OW25774   2.601   6.430   6.841
 8292SOL    HW125775   2.639   6.372   6.913
 8292SOL    HW225776   2.654   6.515   6.835
 8293SOL     OW25777   3.198   0.069   0.416
 8293SOL    HW125778   3.116   0.095   0.365
 8293SOL    HW225779   3.187   0.097   0.512
 8294SOL     OW25780   6.016   4.368   5.309
 8294SOL    HW125781   5.933   4.343   5.259
 8294SOL    HW225782   5.992   4.427   5.386
 8295SOL     OW25783   5.260   5.343   2.198
 8295SOL    HW125784   5.160   5.338   2.204
 8295SOL    HW225785   5.299   5.252   2.213
 8296SOL     OW25786   2.261   6.746   6.380
 8296SOL    HW125787   2.243   6.688   6.301
 8296SOL    HW225788   2.174   6.780   6.416
 8297SOL     OW25789   6.637   2.916   2.370
 8297SOL    HW125790   6.587   2.839   2.408
 8297SOL    HW225791   6.574   2.992   2.354
 8298SOL     OW25792   5.887   2.422   1.438
 8298SOL    HW125793   5.839   2.447   1.522
 8298SOL    HW225794   5.889   2.322   1.429
 8299SOL     OW25795   0.035   2.552   1.885
 8299SOL    HW125796   6.965   2.562   1.849
 8299SOL    HW225797   0.053   2.625   1.951
 8300SOL     OW25798   1.150   5.928   5.869
 8300SOL    HW125799   1.197   5.862   5.810
 8300SOL    HW225800   1.122   6.008   5.815
 8301SOL     OW25801   3.646   1.829   1.286
 8301SOL    HW125802   3.623   1.850   1.381
 8301SOL    HW225803   3.634   1.731   1.270
 8302SOL     OW25804   5.962   5.926   5.887
 8302SOL    HW125805   5.884   5.867   5.908
 8302SOL    HW225806   5.981   5.923   5.789
 8303SOL     OW25807   6.857   0.504   3.901
 8303SOL    HW125808   6.939   0.515   3.844
 8303SOL    HW225809   6.806   0.423   3.872
 8304SOL     OW25810   1.248   3.183   6.977
 8304SOL    HW125811   1.170   3.175   0.016
 8304SOL    HW225812   1.240   3.267   6.923
 8305SOL     OW25813   3.937   5.175   4.403
 8305SOL    HW125814   3.898   5.145   4.491
 8305SOL    HW225815   4.033   5.201   4.417
 8306SOL     OW25816   0.475   2.946   5.005
 8306SOL    HW125817   0.410   2.879   5.040
 8306SOL    HW225818   0.465   2.953   4.905
 8307SOL     OW25819   4.339   5.253   1.960
 8307SOL    HW125820   4.287   5.249   1.874
 8307SOL    HW225821   4.375   5.345   1.972
 8308SOL     OW25822   4.371   5.832   1.292
 8308SOL    HW125823   4.380   5.911   1.231
 8308SOL    HW225824   4.416   5.852   1.379
 8309SOL     OW25825   6.436   5.753   3.472
 8309SOL    HW125826   6.509   5.734   3.407
 8309SOL    HW225827   6.404   5.847   3.462
 8310SOL     OW25828   1.239   4.078   0.644
 8310SOL    HW125829   1.160   4.019   0.627
 8310SOL    HW225830   1.216   4.172   0.619
 8311SOL     OW25831   0.300   1.266   5.299
 8311SOL    HW125832   0.376   1.208   5.269
 8311SOL    HW225833   0.219   1.245   5.244
 8312SOL     OW25834   4.279   5.801   1.756
 8312SOL    HW125835   4.234   5.874   1.704
 8312SOL    HW225836   4.211   5.755   1.814
 8313SOL     OW25837   4.392   1.234   1.969
 8313SOL    HW125838   4.412   1.247   1.872
 8313SOL    HW225839   4.295   1.249   1.985
 8314SOL     OW25840   4.704   6.406   1.332
 8314SOL    HW125841   4.604   6.413   1.338
 8314SOL    HW225842   4.745   6.437   1.418
 8315SOL     OW25843   3.855   3.602   0.943
 8315SOL    HW125844   3.802   3.599   1.028
 8315SOL    HW225845   3.935   3.542   0.951
 8316SOL     OW25846   0.918   2.630   1.737
 8316SOL    HW125847   0.934   2.536   1.765
 8316SOL    HW225848   0.998   2.665   1.689
 8317SOL     OW25849   2.117   3.175   2.212
 8317SOL    HW125850   2.025   3.152   2.246
 8317SOL    HW225851   2.112   3.259   2.158
 8318SOL     OW25852   4.378   1.775   4.787
 8318SOL    HW125853   4.464   1.775   4.736
 8318SOL    HW225854   4.325   1.856   4.764
 8319SOL     OW25855   3.284   1.703   6.358
 8319SOL    HW125856   3.249   1.789   6.320
 8319SOL    HW225857   3.289   1.709   6.458
 8320SOL     OW25858   3.546   4.827   1.157
 8320SOL    HW125859   3.548   4.786   1.066
 8320SOL    HW225860   3.491   4.771   1.218
 8321SOL     OW25861   6.882   1.362   6.765
 8321SOL    HW125862   6.939   1.438   6.797
 8321SOL    HW225863   6.840   1.318   6.844
 8322SOL     OW25864   0.297   0.146   0.410
 8322SOL    HW125865   0.361   0.221   0.394
 8322SOL    HW225866   0.348   0.060   0.419
 8323SOL     OW25867   6.799   6.703   2.835
 8323SOL    HW125868   6.758   6.769   2.899
 8323SOL    HW225869   6.890   6.734   2.809
 8324SOL     OW25870   6.365   0.441   2.114
 8324SOL    HW125871   6.297   0.458   2.043
 8324SOL    HW225872   6.453   0.480   2.085
 8325SOL     OW25873   3.330   3.337   4.402
 8325SOL    HW125874   3.268   3.259   4.398
 8325SOL    HW225875   3.411   3.313   4.456
 8326SOL     OW25876   4.279   3.223   5.319
 8326SOL    HW125877   4.334   3.292   5.272
 8326SOL    HW225878   4.183   3.252   5.320
 8327SOL     OW25879   5.687   2.664   6.159
 8327SOL    HW125880   5.606   2.638   6.106
 8327SOL    HW225881   5.704   2.762   6.148
 8328SOL     OW25882   2.668   4.202   6.295
 8328SOL    HW125883   2.579   4.190   6.250
 8328SOL    HW225884   2.741   4.194   6.227
 8329SOL     OW25885   0.416   3.833   6.243
 8329SOL    HW125886   0.443   3.737   6.251
 8329SOL    HW225887   0.444   3.882   6.326
 8330SOL     OW25888   1.711   0.213   0.604
 8330SOL    HW125889   1.810   0.225   0.596
 8330SOL    HW225890   1.666   0.254   0.524
 8331SOL     OW25891   2.739   1.124   0.978
 8331SOL    HW125892   2.828   1.080   0.989
 8331SOL    HW225893   2.728   1.155   0.883
 8332SOL     OW25894   4.964   4.695   2.820
 8332SOL    HW125895   4.893   4.670   2.754
 8332SOL    HW225896   5.019   4.614   2.842
 8333SOL     OW25897   0.452   6.076   6.567
 8333SOL    HW125898   0.463   5.976   6.565
 8333SOL    HW225899   0.444   6.107   6.662
 8334SOL     OW25900   5.063   1.582   3.683
 8334SOL    HW125901   5.033   1.496   3.642
 8334SOL    HW225902   5.147   1.613   3.639
 8335SOL     OW25903   6.359   5.475   5.097
 8335SOL    HW125904   6.407   5.511   5.177
 8335SOL    HW225905   6.421   5.474   5.018
 8336SOL     OW25906   0.200   0.659   1.607
 8336SOL    HW125907   0.189   0.573   1.656
 8336SOL    HW225908   0.118   0.678   1.553
 8337SOL     OW25909   1.150   6.819   2.976
 8337SOL    HW125910   1.206   6.825   3.059
 8337SOL    HW225911   1.067   6.767   2.996
 8338SOL     OW25912   1.685   5.144   2.300
 8338SOL    HW125913   1.624   5.213   2.262
 8338SOL    HW225914   1.660   5.054   2.265
 8339SOL     OW25915   5.988   0.802   1.356
 8339SOL    HW125916   6.025   0.894   1.345
 8339SOL    HW225917   6.052   0.736   1.317
 8340SOL     OW25918   4.811   4.187   0.704
 8340SOL    HW125919   4.897   4.149   0.671
 8340SOL    HW225920   4.829   4.267   0.762
 8341SOL     OW25921   2.552   6.170   0.468
 8341SOL    HW125922   2.473   6.206   0.419
 8341SOL    HW225923   2.563   6.219   0.554
 8342SOL     OW25924   3.378   0.437   1.551
 8342SOL    HW125925   3.395   0.419   1.454
 8342SOL    HW225926   3.294   0.491   1.560
 8343SOL     OW25927   0.873   4.998   6.277
 8343SOL    HW125928   0.926   5.082   6.273
 8343SOL    HW225929   0.784   5.017   6.319
 8344SOL     OW25930   5.025   6.886   5.529
 8344SOL    HW125931   4.948   6.872   5.591
 8344SOL    HW225932   5.000   6.952   5.458
 8345SOL     OW25933   5.209   2.075   3.377
 8345SOL    HW125934   5.140   2.143   3.402
 8345SOL    HW225935   5.250   2.100   3.289
 8346SOL     OW25936   3.134   4.999   0.215
 8346SOL    HW125937   3.061   4.942   0.253
 8346SOL    HW225938   3.118   5.013   0.117
 8347SOL     OW25939   3.392   6.882   4.796
 8347SOL    HW125940   3.302   6.864   4.755
 8347SOL    HW225941   3.437   6.956   4.746
 8348SOL     OW25942   1.386   0.030   1.530
 8348SOL    HW125943   1.414   6.957   1.533
 8348SOL    HW225944   1.337   0.053   1.615
 8349SOL     OW25945   5.850   5.019   1.805
 8349SOL    HW125946   5.758   5.054   1.787
 8349SOL    HW225947   5.889   4.983   1.721
 8350SOL     OW25948   4.283   1.014   4.794
 8350SOL    HW125949   4.381   0.995   4.801
 8350SOL    HW225950   4.254   1.001   4.699
 8351SOL     OW25951   4.436   4.869   4.676
 8351SOL    HW125952   4.439   4.771   4.657
 8351SOL    HW225953   4.516   4.913   4.635
 8352SOL     OW25954   6.579   0.075   1.962
 8352SOL    HW125955   6.552   7.005   1.940
 8352SOL    HW225956   6.667   0.075   2.010
 8353SOL     OW25957   5.673   3.709   1.891
 8353SOL    HW125958   5.696   3.799   1.927
 8353SOL    HW225959   5.666   3.644   1.967
 8354SOL     OW25960   3.437   0.630   6.945
 8354SOL    HW125961   3.379   0.668   7.018
 8354SOL    HW225962   3.443   0.696   6.870
 8355SOL     OW25963   3.451   0.602   6.655
 8355SOL    HW125964   3.409   0.561   6.735
 8355SOL    HW225965   3.391   0.590   6.575
 8356SOL     OW25966   1.339   6.809   0.362
 8356SOL    HW125967   1.324   6.803   0.461
 8356SOL    HW225968   1.310   6.899   0.330
 8357SOL     OW25969   3.646   6.424   6.384
 8357SOL    HW125970   3.658   6.504   6.444
 8357SOL    HW225971   3.620   6.455   6.293
 8358SOL     OW25972   1.864   2.796   4.700
 8358SOL    HW125973   1.939   2.783   4.636
 8358SOL    HW225974   1.779   2.811   4.650
 8359SOL     OW25975   3.375   6.264   4.326
 8359SOL    HW125976   3.310   6.339   4.313
 8359SOL    HW225977   3.344   6.184   4.275
 8360SOL     OW25978   3.402   6.407   2.360
 8360SOL    HW125979   3.305   6.402   2.381
 8360SOL    HW225980   3.420   6.488   2.304
 8361SOL     OW25981   1.642   1.011   1.913
 8361SOL    HW125982   1.728   1.056   1.890
 8361SOL    HW225983   1.613   1.039   2.004
 8362SOL     OW25984   2.606   2.254   0.059
 8362SOL    HW125985   2.607   2.158   0.087
 8362SOL    HW225986   2.514   2.280   0.031
 8363SOL     OW25987   0.931   2.696   0.211
 8363SOL    HW125988   1.019   2.744   0.207
 8363SOL    HW225989   0.940   2.607   0.166
 8364SOL     OW25990   6.920   3.460   3.395
 8364SOL    HW125991   6.936   3.557   3.380
 8364SOL    HW225992   6.990   3.407   3.347
 8365SOL     OW25993   1.516   3.973   1.829
 8365SOL    HW125994   1.449   3.919   1.778
 8365SOL    HW225995   1.474   4.005   1.914
 8366SOL     OW25996   4.004   5.713   2.270
 8366SOL    HW125997   4.065   5.762   2.208
 8366SOL    HW225998   4.049   5.701   2.358
 8367SOL     OW25999   3.940   6.105   4.026
 8367SOL    HW126000   3.945   6.018   3.978
 8367SOL    HW226001   4.031   6.131   4.058
 8368SOL     OW26002   3.272   6.412   6.031
 8368SOL    HW126003   3.333   6.340   5.998
 8368SOL    HW226004   3.326   6.489   6.065
 8369SOL     OW26005   1.996   0.849   6.781
 8369SOL    HW126006   2.023   0.774   6.842
 8369SOL    HW226007   2.059   0.926   6.792
 8370SOL     OW26008   3.506   2.108   5.917
 8370SOL    HW126009   3.499   2.054   5.832
 8370SOL    HW226010   3.532   2.202   5.894
 8371SOL     OW26011   1.652   4.250   1.040
 8371SOL    HW126012   1.706   4.334   1.041
 8371SOL    HW226013   1.555   4.273   1.046
 8372SOL     OW26014   0.808   6.113   2.961
 8372SOL    HW126015   0.755   6.072   3.035
 8372SOL    HW226016   0.752   6.184   2.917
 8373SOL     OW26017   0.710   0.197   4.938
 8373SOL    HW126018   0.734   0.179   4.843
 8373SOL    HW226019   0.760   0.277   4.971
 8374SOL     OW26020   6.622   0.305   6.442
 8374SOL    HW126021   6.597   0.372   6.512
 8374SOL    HW226022   6.560   0.226   6.449
 8375SOL     OW26023   3.527   6.295   5.992
 8375SOL    HW126024   3.522   6.218   5.930
 8375SOL    HW226025   3.542   6.262   6.085
 8376SOL     OW26026   2.301   6.851   4.134
 8376SOL    HW126027   2.347   6.893   4.056
 8376SOL    HW226028   2.210   6.891   4.145
 8377SOL     OW26029   5.550   5.905   1.775
 8377SOL    HW126030   5.515   5.997   1.794
 8377SOL    HW226031   5.643   5.912   1.740
 8378SOL     OW26032   4.491   4.493   2.952
 8378SOL    HW126033   4.589   4.500   2.970
 8378SOL    HW226034   4.475   4.496   2.853
 8379SOL     OW26035   6.830   2.960   0.912
 8379SOL    HW126036   6.833   3.028   0.985
 8379SOL    HW226037   6.893   2.884   0.934
 8380SOL     OW26038   6.389   0.945   2.353
 8380SOL    HW126039   6.342   0.999   2.283
 8380SOL    HW226040   6.420   1.005   2.426
 8381SOL     OW26041   0.659   4.239   4.854
 8381SOL    HW126042   0.604   4.169   4.809
 8381SOL    HW226043   0.689   4.307   4.787
 8382SOL     OW26044   1.097   1.492   2.173
 8382SOL    HW126045   1.013   1.539   2.200
 8382SOL    HW226046   1.147   1.462   2.254
 8383SOL     OW26047   2.475   1.904   6.289
 8383SOL    HW126048   2.445   1.825   6.235
 8383SOL    HW226049   2.521   1.872   6.372
 8384SOL     OW26050   0.238   6.808   0.603
 8384SOL    HW126051   0.288   6.829   0.687
 8384SOL    HW226052   0.145   6.780   0.625
 8385SOL     OW26053   5.786   2.745   1.583
 8385SOL    HW126054   5.867   2.698   1.618
 8385SOL    HW226055   5.809   2.793   1.498
 8386SOL     OW26056   0.962   4.104   2.660
 8386SOL    HW126057   0.919   4.079   2.573
 8386SOL    HW226058   1.000   4.196   2.653
 8387SOL     OW26059   0.948   1.522   1.398
 8387SOL    HW126060   1.000   1.437   1.393
 8387SOL    HW226061   0.996   1.594   1.348
 8388SOL     OW26062   1.648   6.279   1.017
 8388SOL    HW126063   1.738   6.242   1.041
 8388SOL    HW226064   1.654   6.330   0.932
 8389SOL     OW26065   5.371   3.245   2.306
 8389SOL    HW126066   5.313   3.302   2.247
 8389SOL    HW226067   5.429   3.187   2.249
 8390SOL     OW26068   3.723   1.481   6.199
 8390SOL    HW126069   3.762   1.573   6.193
 8390SOL    HW226070   3.625   1.487   6.214
 8391SOL     OW26071   5.732   6.311   1.052
 8391SOL    HW126072   5.784   6.336   1.133
 8391SOL    HW226073   5.791   6.262   0.988
 8392SOL     OW26074   5.706   4.069   4.002
 8392SOL    HW126075   5.726   3.983   4.048
 8392SOL    HW226076   5.752   4.070   3.913
 8393SOL     OW26077   5.760   0.539   2.531
 8393SOL    HW126078   5.858   0.532   2.550
 8393SOL    HW226079   5.733   0.470   2.464
 8394SOL     OW26080   5.933   3.106   1.834
 8394SOL    HW126081   6.003   3.158   1.786
 8394SOL    HW226082   5.858   3.085   1.771
 8395SOL     OW26083   3.071   6.575   5.910
 8395SOL    HW126084   3.116   6.502   5.962
 8395SOL    HW226085   3.129   6.657   5.913
 8396SOL     OW26086   4.306   4.672   3.560
 8396SOL    HW126087   4.375   4.743   3.572
 8396SOL    HW226088   4.343   4.599   3.503
 8397SOL     OW26089   0.656   0.960   3.607
 8397SOL    HW126090   0.671   1.059   3.598
 8397SOL    HW226091   0.744   0.912   3.598
 8398SOL     OW26092   5.142   2.017   6.572
 8398SOL    HW126093   5.129   2.068   6.657
 8398SOL    HW226094   5.231   1.972   6.574
 8399SOL     OW26095   6.443   6.467   6.468
 8399SOL    HW126096   6.369   6.410   6.504
 8399SOL    HW226097   6.457   6.546   6.527
 8400SOL     OW26098   1.442   2.092   4.145
 8400SOL    HW126099   1.359   2.117   4.096
 8400SOL    HW226100   1.522   2.106   4.086
 8401SOL     OW26101   2.120   1.018   5.390
 8401SOL    HW126102   2.136   0.992   5.485
 8401SOL    HW226103   2.192   1.081   5.360
 8402SOL     OW26104   5.435   1.393   6.192
 8402SOL    HW126105   5.356   1.373   6.250
 8402SOL    HW226106   5.450   1.491   6.190
 8403SOL     OW26107   0.175   3.742   4.602
 8403SOL    HW126108   0.083   3.726   4.566
 8403SOL    HW226109   0.173   3.822   4.662
 8404SOL     OW26110   3.130   0.643   5.736
 8404SOL    HW126111   3.194   0.688   5.674
 8404SOL    HW226112   3.181   0.586   5.801
 8405SOL     OW26113   3.866   1.721   6.169
 8405SOL    HW126114   3.879   1.801   6.111
 8405SOL    HW226115   3.948   1.706   6.225
 8406SOL     OW26116   4.553   0.346   0.479
 8406SOL    HW126117   4.475   0.301   0.522
 8406SOL    HW226118   4.632   0.285   0.482
 8407SOL     OW26119   4.702   6.347   3.748
 8407SOL    HW126120   4.753   6.303   3.822
 8407SOL    HW226121   4.652   6.278   3.695
 8408SOL     OW26122   5.108   5.334   0.036
 8408SOL    HW126123   5.173   5.314   0.110
 8408SOL    HW226124   5.142   5.412   7.006
 8409SOL     OW26125   4.778   2.504   1.865
 8409SOL    HW126126   4.735   2.429   1.916
 8409SOL    HW226127   4.771   2.589   1.917
 8410SOL     OW26128   5.876   2.117   1.612
 8410SOL    HW126129   5.877   2.024   1.649
 8410SOL    HW226130   5.905   2.182   1.683
 8411SOL     OW26131   0.403   5.982   1.118
 8411SOL    HW126132   0.484   5.939   1.077
 8411SOL    HW226133   0.370   6.055   1.059
 8412SOL     OW26134   4.051   2.802   0.899
 8412SOL    HW126135   4.033   2.847   0.811
 8412SOL    HW226136   3.982   2.732   0.915
 8413SOL     OW26137   4.054   5.867   6.362
 8413SOL    HW126138   4.037   5.786   6.417
 8413SOL    HW226139   4.111   5.842   6.283
 8414SOL     OW26140   1.936   1.636   2.126
 8414SOL    HW126141   1.869   1.710   2.133
 8414SOL    HW226142   1.943   1.589   2.214
 8415SOL     OW26143   2.631   6.692   3.810
 8415SOL    HW126144   2.583   6.759   3.753
 8415SOL    HW226145   2.570   6.615   3.829
 8416SOL     OW26146   6.286   1.529   4.720
 8416SOL    HW126147   6.215   1.486   4.664
 8416SOL    HW226148   6.290   1.484   4.809
 8417SOL     OW26149   2.048   3.421   5.455
 8417SOL    HW126150   2.135   3.373   5.444
 8417SOL    HW226151   2.065   3.516   5.482
 8418SOL     OW26152   0.445   5.526   2.170
 8418SOL    HW126153   0.475   5.604   2.116
 8418SOL    HW226154   0.382   5.556   2.241
 8419SOL     OW26155   6.015   1.552   3.427
 8419SOL    HW126156   6.036   1.574   3.522
 8419SOL    HW226157   5.916   1.560   3.412
 8420SOL     OW26158   3.161   6.868   1.987
 8420SOL    HW126159   3.163   6.768   1.992
 8420SOL    HW226160   3.221   6.906   2.057
 8421SOL     OW26161   3.061   5.946   6.993
 8421SOL    HW126162   3.002   5.892   6.933
 8421SOL    HW226163   3.073   6.037   6.953
 8422SOL     OW26164   4.538   2.446   2.186
 8422SOL    HW126165   4.471   2.391   2.236
 8422SOL    HW226166   4.511   2.453   2.090
 8423SOL     OW26167   4.458   4.236   5.581
 8423SOL    HW126168   4.542   4.208   5.629
 8423SOL    HW226169   4.468   4.216   5.484
 8424SOL     OW26170   1.872   1.481   3.542
 8424SOL    HW126171   1.928   1.491   3.624
 8424SOL    HW226172   1.900   1.399   3.492
 8425SOL     OW26173   3.454   3.761   4.645
 8425SOL    HW126174   3.407   3.687   4.597
 8425SOL    HW226175   3.450   3.844   4.590
 8426SOL     OW26176   3.486   3.219   2.492
 8426SOL    HW126177   3.512   3.183   2.402
 8426SOL    HW226178   3.534   3.169   2.563
 8427SOL     OW26179   3.211   3.543   3.214
 8427SOL    HW126180   3.120   3.570   3.245
 8427SOL    HW226181   3.230   3.586   3.125
 8428SOL     OW26182   0.583   0.069   1.384
 8428SOL    HW126183   0.639   0.140   1.341
 8428SOL    HW226184   0.627   7.003   1.373
 8429SOL     OW26185   2.149   5.656   5.999
 8429SOL    HW126186   2.180   5.739   6.046
 8429SOL    HW226187   2.205   5.579   6.029
 8430SOL     OW26188   3.738   4.894   3.863
 8430SOL    HW126189   3.830   4.868   3.893
 8430SOL    HW226190   3.731   4.881   3.764
 8431SOL     OW26191   3.066   4.354   6.720
 8431SOL    HW126192   3.108   4.429   6.669
 8431SOL    HW226193   3.136   4.304   6.771
 8432SOL     OW26194   6.579   5.312   5.712
 8432SOL    HW126195   6.639   5.295   5.634
 8432SOL    HW226196   6.632   5.348   5.788
 8433SOL     OW26197   4.342   2.583   0.867
 8433SOL    HW126198   4.283   2.612   0.943
 8433SOL    HW226199   4.286   2.542   0.796
 8434SOL     OW26200   2.189   5.774   4.887
 8434SOL    HW126201   2.188   5.868   4.922
 8434SOL    HW226202   2.282   5.751   4.856
 8435SOL     OW26203   5.298   0.663   3.021
 8435SOL    HW126204   5.253   0.631   3.104
 8435SOL    HW226205   5.252   0.744   2.987
 8436SOL     OW26206   2.689   5.960   3.766
 8436SOL    HW126207   2.788   5.951   3.753
 8436SOL    HW226208   2.641   5.914   3.691
 8437SOL     OW26209   1.975   2.614   2.259
 8437SOL    HW126210   2.073   2.618   2.280
 8437SOL    HW226211   1.928   2.689   2.306
 8438SOL     OW26212   2.195   3.896   2.952
 8438SOL    HW126213   2.242   3.974   2.910
 8438SOL    HW226214   2.208   3.899   3.051
 8439SOL     OW26215   6.448   5.509   3.581
 8439SOL    HW126216   6.440   5.588   3.521
 8439SOL    HW226217   6.444   5.539   3.677
 8440SOL     OW26218   2.373   1.659   3.708
 8440SOL    HW126219   2.411   1.608   3.785
 8440SOL    HW226220   2.446   1.710   3.662
 8441SOL     OW26221   5.539   5.562   5.313
 8441SOL    HW126222   5.514   5.577   5.217
 8441SOL    HW226223   5.458   5.532   5.364
 8442SOL     OW26224   3.390   0.487   5.095
 8442SOL    HW126225   3.375   0.537   5.181
 8442SOL    HW226226   3.311   0.431   5.074
 8443SOL     OW26227   2.306   4.944   3.690
 8443SOL    HW126228   2.376   4.894   3.741
 8443SOL    HW226229   2.222   4.950   3.744
 8444SOL     OW26230   3.640   6.494   3.540
 8444SOL    HW126231   3.631   6.399   3.570
 8444SOL    HW226232   3.675   6.549   3.615
 8445SOL     OW26233   2.370   0.334   0.412
 8445SOL    HW126234   2.398   0.248   0.369
 8445SOL    HW226235   2.355   0.320   0.510
 8446SOL     OW26236   0.146   5.978   4.931
 8446SOL    HW126237   0.191   5.897   4.895
 8446SOL    HW226238   0.070   6.003   4.871
 8447SOL     OW26239   3.499   1.241   2.108
 8447SOL    HW126240   3.468   1.154   2.147
 8447SOL    HW226241   3.434   1.271   2.038
 8448SOL     OW26242   4.878   5.874   3.940
 8448SOL    HW126243   4.832   5.921   3.864
 8448SOL    HW226244   4.912   5.943   4.005
 8449SOL     OW26245   0.901   3.327   3.898
 8449SOL    HW126246   0.840   3.400   3.929
 8449SOL    HW226247   0.915   3.335   3.800
 8450SOL     OW26248   0.394   0.689   0.597
 8450SOL    HW126249   0.348   0.777   0.589
 8450SOL    HW226250   0.325   0.617   0.613
 8451SOL     OW26251   2.961   0.872   0.398
 8451SOL    HW126252   2.892   0.908   0.461
 8451SOL    HW226253   2.974   0.936   0.322
 8452SOL     OW26254   4.843   2.202   4.256
 8452SOL    HW126255   4.890   2.242   4.334
 8452SOL    HW226256   4.860   2.104   4.253
 8453SOL     OW26257   0.582   5.100   6.783
 8453SOL    HW126258   0.660   5.071   6.839
 8453SOL    HW226259   0.533   5.020   6.749
 8454SOL     OW26260   0.652   4.677   0.048
 8454SOL    HW126261   0.657   4.684   6.972
 8454SOL    HW226262   0.560   4.647   0.074
 8455SOL     OW26263   0.044   0.864   2.829
 8455SOL    HW126264   0.038   0.840   2.926
 8455SOL    HW226265   7.015   0.947   2.811
 8456SOL     OW26266   4.849   0.555   3.581
 8456SOL    HW126267   4.940   0.571   3.620
 8456SOL    HW226268   4.827   0.628   3.516
 8457SOL     OW26269   6.614   6.510   4.552
 8457SOL    HW126270   6.626   6.575   4.478
 8457SOL    HW226271   6.525   6.466   4.544
 8458SOL     OW26272   0.755   0.436   0.467
 8458SOL    HW126273   0.843   0.408   0.427
 8458SOL    HW226274   0.712   0.504   0.407
 8459SOL     OW26275   1.905   5.831   3.399
 8459SOL    HW126276   1.840   5.770   3.443
 8459SOL    HW226277   1.857   5.891   3.334
 8460SOL     OW26278   4.415   3.837   5.483
 8460SOL    HW126279   4.344   3.881   5.428
 8460SOL    HW226280   4.495   3.818   5.427
 8461SOL     OW26281   0.539   2.444   5.524
 8461SOL    HW126282   0.507   2.426   5.431
 8461SOL    HW226283   0.578   2.360   5.563
 8462SOL     OW26284   3.149   1.788   1.315
 8462SOL    HW126285   3.064   1.838   1.300
 8462SOL    HW226286   3.222   1.853   1.337
 8463SOL     OW26287   6.281   6.742   1.940
 8463SOL    HW126288   6.209   6.780   1.999
 8463SOL    HW226289   6.255   6.754   1.844
 8464SOL     OW26290   5.625   3.580   4.575
 8464SOL    HW126291   5.705   3.524   4.557
 8464SOL    HW226292   5.544   3.536   4.534
 8465SOL     OW26293   1.662   1.954   0.212
 8465SOL    HW126294   1.650   1.879   0.277
 8465SOL    HW226295   1.589   2.021   0.226
 8466SOL     OW26296   1.281   5.483   3.721
 8466SOL    HW126297   1.219   5.561   3.715
 8466SOL    HW226298   1.241   5.404   3.675
 8467SOL     OW26299   2.748   5.945   0.855
 8467SOL    HW126300   2.779   6.025   0.905
 8467SOL    HW226301   2.761   5.863   0.912
 8468SOL     OW26302   3.845   2.213   0.543
 8468SOL    HW126303   3.786   2.274   0.596
 8468SOL    HW226304   3.819   2.216   0.446
 8469SOL     OW26305   2.836   3.086   6.909
 8469SOL    HW126306   2.932   3.097   6.885
 8469SOL    HW226307   2.794   3.175   6.923
 8470SOL     OW26308   2.169   2.788   1.153
 8470SOL    HW126309   2.144   2.738   1.236
 8470SOL    HW226310   2.102   2.860   1.137
 8471SOL     OW26311   2.334   0.569   3.517
 8471SOL    HW126312   2.343   0.476   3.552
 8471SOL    HW226313   2.406   0.626   3.557
 8472SOL     OW26314   0.482   6.659   4.713
 8472SOL    HW126315   0.439   6.576   4.749
 8472SOL    HW226316   0.582   6.651   4.725
 8473SOL     OW26317   0.107   5.728   6.998
 8473SOL    HW126318   0.161   5.812   7.011
 8473SOL    HW226319   0.039   5.744   6.927
 8474SOL     OW26320   3.224   3.078   1.880
 8474SOL    HW126321   3.252   2.986   1.906
 8474SOL    HW226322   3.282   3.111   1.805
 8475SOL     OW26323   6.274   2.024   2.285
 8475SOL    HW126324   6.214   1.947   2.307
 8475SOL    HW226325   6.264   2.047   2.188
 8476SOL     OW26326   6.071   6.863   2.080
 8476SOL    HW126327   6.086   6.801   2.157
 8476SOL    HW226328   6.057   6.956   2.115
 8477SOL     OW26329   2.789   6.603   0.939
 8477SOL    HW126330   2.863   6.630   0.878
 8477SOL    HW226331   2.828   6.575   1.027
 8478SOL     OW26332   1.880   0.466   5.697
 8478SOL    HW126333   1.868   0.562   5.670
 8478SOL    HW226334   1.976   0.451   5.722
 8479SOL     OW26335   6.099   0.951   0.131
 8479SOL    HW126336   6.114   0.865   0.081
 8479SOL    HW226337   6.175   1.013   0.111
 8480SOL     OW26338   3.022   1.054   1.334
 8480SOL    HW126339   3.070   0.968   1.350
 8480SOL    HW226340   3.062   1.126   1.392
 8481SOL     OW26341   3.915   1.303   4.594
 8481SOL    HW126342   3.931   1.262   4.683
 8481SOL    HW226343   3.992   1.282   4.533
 8482SOL     OW26344   2.194   0.023   2.145
 8482SOL    HW126345   2.128   0.097   2.156
 8482SOL    HW226346   2.209   0.005   2.048
 8483SOL     OW26347   3.342   5.547   2.659
 8483SOL    HW126348   3.385   5.578   2.575
 8483SOL    HW226349   3.333   5.447   2.658
 8484SOL     OW26350   0.128   4.832   3.090
 8484SOL    HW126351   0.039   4.793   3.064
 8484SOL    HW226352   0.113   4.914   3.145
 8485SOL     OW26353   1.861   3.742   0.482
 8485SOL    HW126354   1.867   3.707   0.576
 8485SOL    HW226355   1.807   3.679   0.427
 8486SOL     OW26356   5.332   1.078   2.738
 8486SOL    HW126357   5.270   1.083   2.660
 8486SOL    HW226358   5.290   1.022   2.810
 8487SOL     OW26359   5.199   0.355   0.911
 8487SOL    HW126360   5.158   0.265   0.928
 8487SOL    HW226361   5.132   0.414   0.868
 8488SOL     OW26362   5.478   5.409   4.593
 8488SOL    HW126363   5.410   5.355   4.544
 8488SOL    HW226364   5.567   5.400   4.548
 8489SOL     OW26365   5.605   5.284   1.520
 8489SOL    HW126366   5.656   5.198   1.526
 8489SOL    HW226367   5.516   5.268   1.478
 8490SOL     OW26368   4.802   5.823   3.211
 8490SOL    HW126369   4.718   5.778   3.239
 8490SOL    HW226370   4.785   5.921   3.196
 8491SOL     OW26371   2.637   0.510   1.853
 8491SOL    HW126372   2.553   0.541   1.808
 8491SOL    HW226373   2.631   0.528   1.951
 8492SOL     OW26374   5.184   3.493   5.546
 8492SOL    HW126375   5.165   3.573   5.603
 8492SOL    HW226376   5.255   3.516   5.480
 8493SOL     OW26377   3.544   1.609   0.253
 8493SOL    HW126378   3.498   1.655   0.329
 8493SOL    HW226379   3.604   1.537   0.289
 8494SOL     OW26380   2.375   5.439   6.796
 8494SOL    HW126381   2.281   5.471   6.782
 8494SOL    HW226382   2.430   5.513   6.834
 8495SOL     OW26383   6.773   3.406   0.708
 8495SOL    HW126384   6.774   3.306   0.702
 8495SOL    HW226385   6.867   3.439   0.718
 8496SOL     OW26386   0.548   1.769   3.733
 8496SOL    HW126387   0.520   1.680   3.768
 8496SOL    HW226388   0.594   1.820   3.806
 8497SOL     OW26389   5.414   5.714   4.232
 8497SOL    HW126390   5.443   5.779   4.303
 8497SOL    HW226391   5.494   5.686   4.179
 8498SOL     OW26392   0.245   6.942   1.747
 8498SOL    HW126393   0.336   6.979   1.768
 8498SOL    HW226394   0.199   7.002   1.681
 8499SOL     OW26395   2.826   5.393   6.415
 8499SOL    HW126396   2.728   5.391   6.432
 8499SOL    HW226397   2.844   5.437   6.327
 8500SOL     OW26398   2.852   0.168   5.303
 8500SOL    HW126399   2.853   0.259   5.345
 8500SOL    HW226400   2.811   0.174   5.212
 8501SOL     OW26401   1.748   3.247   6.803
 8501SOL    HW126402   1.672   3.308   6.826
 8501SOL    HW226403   1.835   3.295   6.817
 8502SOL     OW26404   0.626   5.503   1.553
 8502SOL    HW126405   0.608   5.600   1.537
 8502SOL    HW226406   0.717   5.479   1.519
 8503SOL     OW26407   0.948   5.036   3.586
 8503SOL    HW126408   0.877   5.081   3.531
 8503SOL    HW226409   0.910   4.956   3.631
 8504SOL     OW26410   2.002   6.213   3.753
 8504SOL    HW126411   1.943   6.270   3.696
 8504SOL    HW226412   2.095   6.250   3.752
 8505SOL     OW26413   5.359   4.256   3.514
 8505SOL    HW126414   5.334   4.195   3.438
 8505SOL    HW226415   5.287   4.255   3.583
 8506SOL     OW26416   0.983   6.450   0.235
 8506SOL    HW126417   1.081   6.426   0.237
 8506SOL    HW226418   0.933   6.377   0.189
 8507SOL     OW26419   2.332   0.889   5.633
 8507SOL    HW126420   2.354   0.887   5.535
 8507SOL    HW226421   2.268   0.965   5.650
 8508SOL     OW26422   6.491   2.876   5.204
 8508SOL    HW126423   6.512   2.843   5.112
 8508SOL    HW226424   6.414   2.823   5.241
 8509SOL     OW26425   6.387   1.008   4.461
 8509SOL    HW126426   6.347   0.917   4.462
 8509SOL    HW226427   6.486   1.002   4.447
 8510SOL     OW26428   6.734   5.677   3.356
 8510SOL    HW126429   6.807   5.611   3.375
 8510SOL    HW226430   6.753   5.763   3.403
 8511SOL     OW26431   5.646   3.921   1.693
 8511SOL    HW126432   5.603   3.971   1.768
 8511SOL    HW226433   5.685   3.836   1.727
 8512SOL     OW26434   4.222   2.237   0.309
 8512SOL    HW126435   4.202   2.317   0.366
 8512SOL    HW226436   4.151   2.228   0.239
 8513SOL     OW26437   4.930   3.802   0.884
 8513SOL    HW126438   5.012   3.818   0.829
 8513SOL    HW226439   4.950   3.734   0.954
 8514SOL     OW26440   2.609   2.438   3.825
 8514SOL    HW126441   2.633   2.390   3.741
 8514SOL    HW226442   2.539   2.507   3.806
 8515SOL     OW26443   0.288   1.365   6.779
 8515SOL    HW126444   0.241   1.422   6.712
 8515SOL    HW226445   0.223   1.302   6.822
 8516SOL     OW26446   6.033   2.835   2.562
 8516SOL    HW126447   5.985   2.919   2.535
 8516SOL    HW226448   6.100   2.811   2.491
 8517SOL     OW26449   2.177   2.857   5.711
 8517SOL    HW126450   2.120   2.860   5.793
 8517SOL    HW226451   2.125   2.890   5.632
 8518SOL     OW26452   5.017   4.139   6.046
 8518SOL    HW126453   4.930   4.098   6.022
 8518SOL    HW226454   5.054   4.190   5.968
 8519SOL     OW26455   1.021   4.628   0.391
 8519SOL    HW126456   1.061   4.708   0.346
 8519SOL    HW226457   0.935   4.653   0.434
 8520SOL     OW26458   3.177   3.195   5.372
 8520SOL    HW126459   3.110   3.173   5.443
 8520SOL    HW226460   3.169   3.129   5.298
 8521SOL     OW26461   2.265   6.472   5.481
 8521SOL    HW126462   2.280   6.454   5.383
 8521SOL    HW226463   2.349   6.508   5.521
 8522SOL     OW26464   0.722   0.502   1.017
 8522SOL    HW126465   0.741   0.404   1.027
 8522SOL    HW226466   0.625   0.519   1.037
 8523SOL     OW26467   3.170   0.044   6.600
 8523SOL    HW126468   3.258   0.001   6.580
 8523SOL    HW226469   3.108   6.999   6.638
 8524SOL     OW26470   1.286   4.470   4.918
 8524SOL    HW126471   1.251   4.503   5.006
 8524SOL    HW226472   1.225   4.400   4.882
 8525SOL     OW26473   5.690   5.003   1.420
 8525SOL    HW126474   5.649   4.928   1.370
 8525SOL    HW226475   5.770   4.970   1.471
 8526SOL     OW26476   3.197   6.514   0.665
 8526SOL    HW126477   3.235   6.519   0.573
 8526SOL    HW226478   3.270   6.491   0.730
 8527SOL     OW26479   3.353   0.469   0.172
 8527SOL    HW126480   3.292   0.547   0.188
 8527SOL    HW226481   3.448   0.499   0.179
 8528SOL     OW26482   4.832   1.915   1.217
 8528SOL    HW126483   4.789   1.978   1.283
 8528SOL    HW226484   4.768   1.898   1.142
 8529SOL     OW26485   1.300   6.531   6.865
 8529SOL    HW126486   1.241   6.603   6.903
 8529SOL    HW226487   1.243   6.456   6.832
 8530SOL     OW26488   2.984   3.946   4.617
 8530SOL    HW126489   2.939   3.977   4.533
 8530SOL    HW226490   2.917   3.898   4.675
 8531SOL     OW26491   0.135   5.352   3.267
 8531SOL    HW126492   0.136   5.336   3.168
 8531SOL    HW226493   0.203   5.421   3.290
 8532SOL     OW26494   3.980   6.686   4.278
 8532SOL    HW126495   4.047   6.733   4.221
 8532SOL    HW226496   3.969   6.592   4.245
 8533SOL     OW26497   1.371   5.981   7.002
 8533SOL    HW126498   1.339   6.016   6.914
 8533SOL    HW226499   1.470   5.997   7.011
 8534SOL     OW26500   4.559   2.522   3.643
 8534SOL    HW126501   4.550   2.547   3.547
 8534SOL    HW226502   4.483   2.462   3.670
 8535SOL     OW26503   6.137   1.149   4.414
 8535SOL    HW126504   6.234   1.128   4.407
 8535SOL    HW226505   6.107   1.143   4.510
 8536SOL     OW26506   1.193   2.322   4.991
 8536SOL    HW126507   1.110   2.278   5.024
 8536SOL    HW226508   1.272   2.267   5.018
 8537SOL     OW26509   6.220   1.419   3.350
 8537SOL    HW126510   6.193   1.323   3.359
 8537SOL    HW226511   6.140   1.478   3.363
 8538SOL     OW26512   1.793   1.548   0.066
 8538SOL    HW126513   1.826   1.455   0.059
 8538SOL    HW226514   1.713   1.560   0.006
 8539SOL     OW26515   6.457   2.196   2.365
 8539SOL    HW126516   6.414   2.280   2.331
 8539SOL    HW226517   6.400   2.117   2.341
 8540SOL     OW26518   5.073   0.303   6.966
 8540SOL    HW126519   5.163   0.280   6.928
 8540SOL    HW226520   5.002   0.257   6.914
 8541SOL     OW26521   3.118   2.049   3.458
 8541SOL    HW126522   3.192   2.040   3.524
 8541SOL    HW226523   3.111   1.964   3.406
 8542SOL     OW26524   3.206   4.500   6.212
 8542SOL    HW126525   3.263   4.478   6.292
 8542SOL    HW226526   3.170   4.416   6.173
 8543SOL     OW26527   1.609   1.863   0.729
 8543SOL    HW126528   1.643   1.917   0.805
 8543SOL    HW226529   1.679   1.857   0.658
 8544SOL     OW26530   5.599   3.059   3.805
 8544SOL    HW126531   5.613   2.960   3.809
 8544SOL    HW226532   5.514   3.079   3.756
 8545SOL     OW26533   4.868   6.707   6.262
 8545SOL    HW126534   4.871   6.664   6.353
 8545SOL    HW226535   4.871   6.636   6.192
 8546SOL     OW26536   6.247   2.340   3.572
 8546SOL    HW126537   6.309   2.383   3.507
 8546SOL    HW226538   6.242   2.242   3.553
 8547SOL     OW26539   1.871   5.964   6.196
 8547SOL    HW126540   1.930   6.044   6.205
 8547SOL    HW226541   1.828   5.944   6.284
 8548SOL     OW26542   6.193   2.101   5.355
 8548SOL    HW126543   6.117   2.085   5.418
 8548SOL    HW226544   6.158   2.140   5.270
 8549SOL     OW26545   6.893   3.827   4.308
 8549SOL    HW126546   6.855   3.904   4.359
 8549SOL    HW226547   6.941   3.861   4.227
 8550SOL     OW26548   1.881   5.033   0.114
 8550SOL    HW126549   1.844   4.948   0.150
 8550SOL    HW226550   1.922   5.016   0.024
 8551SOL     OW26551   3.444   4.267   6.421
 8551SOL    HW126552   3.540   4.244   6.406
 8551SOL    HW226553   3.437   4.329   6.500
 8552SOL     OW26554   2.890   5.639   3.133
 8552SOL    HW126555   2.837   5.637   3.218
 8552SOL    HW226556   2.926   5.731   3.118
 8553SOL     OW26557   5.136   5.747   0.067
 8553SOL    HW126558   5.142   5.734   0.166
 8553SOL    HW226559   5.096   5.665   0.025
 8554SOL     OW26560   0.302   4.656   0.459
 8554SOL    HW126561   0.239   4.643   0.535
 8554SOL    HW226562   0.308   4.754   0.436
 8555SOL     OW26563   1.208   0.623   2.793
 8555SOL    HW126564   1.265   0.565   2.735
 8555SOL    HW226565   1.120   0.640   2.747
 8556SOL     OW26566   0.732   0.320   3.290
 8556SOL    HW126567   0.722   0.293   3.194
 8556SOL    HW226568   0.779   0.408   3.295
 8557SOL     OW26569   6.513   0.311   1.842
 8557SOL    HW126570   6.576   0.387   1.854
 8557SOL    HW226571   6.547   0.231   1.891
 8558SOL     OW26572   2.156   5.446   2.684
 8558SOL    HW126573   2.214   5.368   2.708
 8558SOL    HW226574   2.160   5.514   2.756
 8559SOL     OW26575   0.551   0.532   2.190
 8559SOL    HW126576   0.597   0.533   2.279
 8559SOL    HW226577   0.527   0.625   2.164
 8560SOL     OW26578   0.026   0.598   0.386
 8560SOL    HW126579   6.965   0.652   0.384
 8560SOL    HW226580   0.033   0.545   0.301
 8561SOL     OW26581   4.215   5.816   2.496
 8561SOL    HW126582   4.250   5.896   2.545
 8561SOL    HW226583   4.252   5.814   2.404
 8562SOL     OW26584   4.949   6.466   4.897
 8562SOL    HW126585   5.008   6.541   4.868
 8562SOL    HW226586   5.000   6.380   4.894
 8563SOL     OW26587   2.787   3.348   6.954
 8563SOL    HW126588   2.759   3.346   0.028
 8563SOL    HW226589   2.746   3.428   6.910
 8564SOL     OW26590   1.364   0.970   3.067
 8564SOL    HW126591   1.328   1.062   3.084
 8564SOL    HW226592   1.367   0.920   3.154
 8565SOL     OW26593   3.912   6.875   1.467
 8565SOL    HW126594   3.824   6.917   1.447
 8565SOL    HW226595   3.944   6.906   1.556
 8566SOL     OW26596   1.186   1.673   2.852
 8566SOL    HW126597   1.134   1.590   2.832
 8566SOL    HW226598   1.138   1.727   2.921
 8567SOL     OW26599   6.096   1.546   1.394
 8567SOL    HW126600   6.098   1.501   1.484
 8567SOL    HW226601   6.083   1.478   1.323
 8568SOL     OW26602   5.090   1.576   6.838
 8568SOL    HW126603   5.057   1.492   6.795
 8568SOL    HW226604   5.092   1.564   6.937
 8569SOL     OW26605   4.950   1.168   5.160
 8569SOL    HW126606   4.929   1.237   5.091
 8569SOL    HW226607   5.000   1.211   5.236
 8570SOL     OW26608   1.409   4.162   6.264
 8570SOL    HW126609   1.358   4.202   6.341
 8570SOL    HW226610   1.387   4.211   6.180
 8571SOL     OW26611   0.176   5.223   5.622
 8571SOL    HW126612   0.092   5.268   5.591
 8571SOL    HW226613   0.157   5.127   5.641
 8572SOL     OW26614   2.318   5.310   5.757
 8572SOL    HW126615   2.342   5.219   5.790
 8572SOL    HW226616   2.331   5.314   5.658
 8573SOL     OW26617   3.839   5.879   6.701
 8573SOL    HW126618   3.805   5.911   6.613
 8573SOL    HW226619   3.939   5.885   6.703
 8574SOL     OW26620   1.002   4.728   5.813
 8574SOL    HW126621   0.968   4.656   5.874
 8574SOL    HW226622   1.075   4.779   5.859
 8575SOL     OW26623   2.842   2.347   6.633
 8575SOL    HW126624   2.929   2.374   6.675
 8575SOL    HW226625   2.785   2.303   6.702
 8576SOL     OW26626   0.709   6.838   1.370
 8576SOL    HW126627   0.769   6.819   1.292
 8576SOL    HW226628   0.654   6.757   1.390
 8577SOL     OW26629   6.205   5.195   4.046
 8577SOL    HW126630   6.178   5.290   4.034
 8577SOL    HW226631   6.284   5.175   3.988
 8578SOL     OW26632   4.578   0.358   4.502
 8578SOL    HW126633   4.627   0.321   4.423
 8578SOL    HW226634   4.480   0.363   4.481
 8579SOL     OW26635   1.210   5.021   3.366
 8579SOL    HW126636   1.269   5.101   3.377
 8579SOL    HW226637   1.132   5.029   3.428
 8580SOL     OW26638   2.020   0.010   1.548
 8580SOL    HW126639   2.062   6.998   1.632
 8580SOL    HW226640   1.952   0.079   1.572
 8581SOL     OW26641   3.547   1.905   1.530
 8581SOL    HW126642   3.601   1.959   1.596
 8581SOL    HW226643   3.469   1.959   1.499
 8582SOL     OW26644   5.048   4.749   2.171
 8582SOL    HW126645   4.988   4.670   2.182
 8582SOL    HW226646   5.076   4.758   2.075
 8583SOL     OW26647   6.051   0.651   6.368
 8583SOL    HW126648   6.072   0.593   6.447
 8583SOL    HW226649   5.997   0.599   6.302
 8584SOL     OW26650   0.295   4.403   0.335
 8584SOL    HW126651   0.235   4.420   0.257
 8584SOL    HW226652   0.281   4.474   0.404
 8585SOL     OW26653   0.255   0.513   0.870
 8585SOL    HW126654   0.230   0.418   0.891
 8585SOL    HW226655   0.235   0.532   0.774
 8586SOL     OW26656   2.979   6.269   2.864
 8586SOL    HW126657   3.013   6.186   2.819
 8586SOL    HW226658   2.958   6.338   2.795
 8587SOL     OW26659   0.520   1.042   2.896
 8587SOL    HW126660   0.503   1.140   2.900
 8587SOL    HW226661   0.433   0.993   2.891
 8588SOL     OW26662   3.155   1.670   0.900
 8588SOL    HW126663   3.151   1.645   0.997
 8588SOL    HW226664   3.074   1.636   0.854
 8589SOL     OW26665   3.599   1.457   4.715
 8589SOL    HW126666   3.691   1.495   4.716
 8589SOL    HW226667   3.565   1.453   4.621
 8590SOL     OW26668   6.597   5.743   4.607
 8590SOL    HW126669   6.552   5.829   4.633
 8590SOL    HW226670   6.653   5.711   4.683
 8591SOL     OW26671   0.701   4.632   6.398
 8591SOL    HW126672   0.744   4.653   6.311
 8591SOL    HW226673   0.766   4.646   6.473
 8592SOL     OW26674   0.132   4.497   0.131
 8592SOL    HW126675   0.049   4.448   0.106
 8592SOL    HW226676   0.111   4.594   0.143
 8593SOL     OW26677   1.015   6.718   2.239
 8593SOL    HW126678   1.100   6.770   2.235
 8593SOL    HW226679   0.992   6.682   2.149
 8594SOL     OW26680   3.160   3.676   4.289
 8594SOL    HW126681   3.177   3.747   4.221
 8594SOL    HW226682   3.062   3.668   4.304
 8595SOL     OW26683   2.051   2.356   2.776
 8595SOL    HW126684   2.125   2.289   2.779
 8595SOL    HW226685   1.985   2.328   2.706
 8596SOL     OW26686   5.621   5.426   2.014
 8596SOL    HW126687   5.539   5.482   2.027
 8596SOL    HW226688   5.622   5.353   2.083
 8597SOL     OW26689   3.481   2.201   1.174
 8597SOL    HW126690   3.489   2.139   1.095
 8597SOL    HW226691   3.447   2.289   1.143
 8598SOL     OW26692   6.933   5.234   1.028
 8598SOL    HW126693   6.870   5.194   1.094
 8598SOL    HW226694   6.900   5.324   1.000
 8599SOL     OW26695   1.012   2.858   3.955
 8599SOL    HW126696   0.919   2.824   3.965
 8599SOL    HW226697   1.075   2.797   4.002
 8600SOL     OW26698   6.319   4.723   6.338
 8600SOL    HW126699   6.349   4.765   6.424
 8600SOL    HW226700   6.261   4.788   6.288
 8601SOL     OW26701   0.313   1.331   4.814
 8601SOL    HW126702   0.245   1.272   4.856
 8601SOL    HW226703   0.308   1.324   4.714
 8602SOL     OW26704   2.935   6.668   2.759
 8602SOL    HW126705   2.993   6.749   2.751
 8602SOL    HW226706   2.852   6.692   2.809
 8603SOL     OW26707   3.456   3.918   6.995
 8603SOL    HW126708   3.430   4.014   7.004
 8603SOL    HW226709   3.387   3.869   6.942
 8604SOL     OW26710   6.637   2.788   3.955
 8604SOL    HW126711   6.542   2.763   3.972
 8604SOL    HW226712   6.676   2.723   3.889
 8605SOL     OW26713   3.864   5.223   4.148
 8605SOL    HW126714   3.898   5.218   4.242
 8605SOL    HW226715   3.810   5.141   4.128
 8606SOL     OW26716   2.475   4.119   5.899
 8606SOL    HW126717   2.414   4.150   5.826
 8606SOL    HW226718   2.565   4.099   5.860
 8607SOL     OW26719   3.673   5.643   1.263
 8607SOL    HW126720   3.703   5.600   1.178
 8607SOL    HW226721   3.627   5.576   1.320
 8608SOL     OW26722   4.404   4.736   2.733
 8608SOL    HW126723   4.432   4.719   2.828
 8608SOL    HW226724   4.451   4.818   2.699
 8609SOL     OW26725   3.730   0.317   4.168
 8609SOL    HW126726   3.652   0.378   4.182
 8609SOL    HW226727   3.801   0.366   4.118
 8610SOL     OW26728   1.132   0.107   3.140
 8610SOL    HW126729   1.100   0.119   3.234
 8610SOL    HW226730   1.206   0.039   3.139
 8611SOL     OW26731   1.345   2.231   4.670
 8611SOL    HW126732   1.396   2.236   4.584
 8611SOL    HW226733   1.397   2.180   4.738
 8612SOL     OW26734   3.007   3.637   6.501
 8612SOL    HW126735   2.946   3.652   6.579
 8612SOL    HW226736   3.081   3.705   6.503
 8613SOL     OW26737   2.182   1.588   0.950
 8613SOL    HW126738   2.212   1.554   0.861
 8613SOL    HW226739   2.194   1.687   0.954
 8614SOL     OW26740   0.765   3.891   2.822
 8614SOL    HW126741   0.838   3.829   2.853
 8614SOL    HW226742   0.738   3.950   2.897
 8615SOL     OW26743   4.761   2.004   5.418
 8615SOL    HW126744   4.695   1.931   5.408
 8615SOL    HW226745   4.854   1.966   5.421
 8616SOL     OW26746   0.557   4.608   0.323
 8616SOL    HW126747   0.503   4.679   0.369
 8616SOL    HW226748   0.517   4.588   0.234
 8617SOL     OW26749   6.666   2.140   0.397
 8617SOL    HW126750   6.703   2.217   0.343
 8617SOL    HW226751   6.572   2.121   0.368
 8618SOL     OW26752   4.347   6.715   1.980
 8618SOL    HW126753   4.439   6.746   1.957
 8618SOL    HW226754   4.299   6.787   2.031
 8619SOL     OW26755   4.324   5.176   0.305
 8619SOL    HW126756   4.387   5.238   0.352
 8619SOL    HW226757   4.282   5.115   0.372
 8620SOL     OW26758   6.234   6.649   2.712
 8620SOL    HW126759   6.208   6.626   2.618
 8620SOL    HW226760   6.180   6.728   2.743
 8621SOL     OW26761   6.221   1.280   3.861
 8621SOL    HW126762   6.247   1.235   3.946
 8621SOL    HW226763   6.269   1.367   3.852
 8622SOL     OW26764   4.802   4.341   6.910
 8622SOL    HW126765   4.860   4.326   6.830
 8622SOL    HW226766   4.852   4.393   6.979
 8623SOL     OW26767   0.571   4.658   3.243
 8623SOL    HW126768   0.495   4.722   3.251
 8623SOL    HW226769   0.651   4.705   3.205
 8624SOL     OW26770   1.259   4.511   3.492
 8624SOL    HW126771   1.340   4.480   3.541
 8624SOL    HW226772   1.181   4.453   3.516
 8625SOL     OW26773   4.662   0.640   4.428
 8625SOL    HW126774   4.636   0.567   4.490
 8625SOL    HW226775   4.581   0.676   4.383
 8626SOL     OW26776   3.699   3.384   4.302
 8626SOL    HW126777   3.642   3.328   4.362
 8626SOL    HW226778   3.641   3.432   4.236
 8627SOL     OW26779   1.443   0.999   1.682
 8627SOL    HW126780   1.464   0.998   1.584
 8627SOL    HW226781   1.528   0.998   1.734
 8628SOL     OW26782   6.357   0.016   0.466
 8628SOL    HW126783   6.347   0.096   0.524
 8628SOL    HW226784   6.286   6.973   0.487
 8629SOL     OW26785   1.738   4.669   4.379
 8629SOL    HW126786   1.799   4.594   4.356
 8629SOL    HW226787   1.789   4.755   4.379
 8630SOL     OW26788   5.890   4.104   4.834
 8630SOL    HW126789   5.944   4.050   4.769
 8630SOL    HW226790   5.892   4.060   4.923
 8631SOL     OW26791   4.194   6.340   5.904
 8631SOL    HW126792   4.112   6.311   5.855
 8631SOL    HW226793   4.205   6.286   5.987
 8632SOL     OW26794   3.442   6.756   4.133
 8632SOL    HW126795   3.421   6.740   4.037
 8632SOL    HW226796   3.528   6.710   4.157
 8633SOL     OW26797   5.328   1.408   4.126
 8633SOL    HW126798   5.363   1.337   4.067
 8633SOL    HW226799   5.367   1.398   4.218
 8634SOL     OW26800   6.573   3.756   1.490
 8634SOL    HW126801   6.533   3.750   1.399
 8634SOL    HW226802   6.528   3.828   1.542
 8635SOL     OW26803   5.872   3.856   5.810
 8635SOL    HW126804   5.943   3.791   5.837
 8635SOL    HW226805   5.788   3.836   5.861
 8636SOL     OW26806   6.078   5.078   6.674
 8636SOL    HW126807   6.112   5.140   6.744
 8636SOL    HW226808   6.154   5.048   6.615
 8637SOL     OW26809   2.145   0.635   0.241
 8637SOL    HW126810   2.068   0.586   0.200
 8637SOL    HW226811   2.129   0.733   0.236
 8638SOL     OW26812   2.159   3.444   0.240
 8638SOL    HW126813   2.172   3.398   0.328
 8638SOL    HW226814   2.131   3.539   0.256
 8639SOL     OW26815   5.437   2.636   1.796
 8639SOL    HW126816   5.349   2.614   1.839
 8639SOL    HW226817   5.464   2.561   1.735
 8640SOL     OW26818   4.555   3.957   0.333
 8640SOL    HW126819   4.611   3.970   0.415
 8640SOL    HW226820   4.584   4.020   0.262
 8641SOL     OW26821   6.800   3.946   3.830
 8641SOL    HW126822   6.728   3.986   3.887
 8641SOL    HW226823   6.813   3.850   3.855
 8642SOL     OW26824   4.458   0.435   2.221
 8642SOL    HW126825   4.554   0.450   2.199
 8642SOL    HW226826   4.434   0.340   2.201
 8643SOL     OW26827   4.911   7.006   6.962
 8643SOL    HW126828   4.811   7.002   6.966
 8643SOL    HW226829   4.941   6.989   6.868
 8644SOL     OW26830   5.441   2.419   5.020
 8644SOL    HW126831   5.382   2.434   5.099
 8644SOL    HW226832   5.522   2.367   5.047
 8645SOL     OW26833   5.953   4.918   1.561
 8645SOL    HW126834   6.001   4.948   1.479
 8645SOL    HW226835   5.993   4.833   1.595
 8646SOL     OW26836   4.807   1.016   1.149
 8646SOL    HW126837   4.895   0.990   1.108
 8646SOL    HW226838   4.732   0.982   1.092
 8647SOL     OW26839   3.591   4.799   6.974
 8647SOL    HW126840   3.678   4.842   6.952
 8647SOL    HW226841   3.516   4.856   6.941
 8648SOL     OW26842   5.887   1.011   4.601
 8648SOL    HW126843   5.865   0.915   4.618
 8648SOL    HW226844   5.803   1.065   4.598
 8649SOL     OW26845   6.387   4.510   5.654
 8649SOL    HW126846   6.288   4.518   5.643
 8649SOL    HW226847   6.415   4.416   5.635
 8650SOL     OW26848   2.123   4.947   3.890
 8650SOL    HW126849   2.025   4.962   3.875
 8650SOL    HW226850   2.160   5.021   3.947
 8651SOL     OW26851   3.999   1.252   0.745
 8651SOL    HW126852   3.917   1.204   0.775
 8651SOL    HW226853   4.074   1.233   0.808
 8652SOL     OW26854   1.679   4.018   3.516
 8652SOL    HW126855   1.589   4.015   3.473
 8652SOL    HW226856   1.724   4.105   3.494
 8653SOL     OW26857   6.916   2.526   6.394
 8653SOL    HW126858   6.998   2.571   6.361
 8653SOL    HW226859   6.901   2.550   6.490
 8654SOL     OW26860   0.305   6.057   2.740
 8654SOL    HW126861   0.319   5.991   2.814
 8654SOL    HW226862   0.239   6.126   2.770
 8655SOL     OW26863   6.051   0.368   3.795
 8655SOL    HW126864   6.090   0.434   3.859
 8655SOL    HW226865   6.103   0.282   3.801
 8656SOL     OW26866   6.045   1.027   1.167
 8656SOL    HW126867   6.031   1.089   1.090
 8656SOL    HW226868   6.115   0.960   1.144
 8657SOL     OW26869   4.126   5.218   6.167
 8657SOL    HW126870   4.034   5.180   6.173
 8657SOL    HW226871   4.162   5.204   6.074
 8658SOL     OW26872   4.783   5.074   0.005
 8658SOL    HW126873   4.828   5.057   6.941
 8658SOL    HW226874   4.687   5.048   7.022
 8659SOL     OW26875   4.823   0.811   3.085
 8659SOL    HW126876   4.769   0.779   3.007
 8659SOL    HW226877   4.891   0.877   3.052
 8660SOL     OW26878   5.789   3.848   0.433
 8660SOL    HW126879   5.793   3.790   0.351
 8660SOL    HW226880   5.694   3.863   0.459
 8661SOL     OW26881   5.932   4.166   2.013
 8661SOL    HW126882   5.901   4.166   2.108
 8661SOL    HW226883   5.993   4.245   1.998
 8662SOL     OW26884   5.625   6.589   1.822
 8662SOL    HW126885   5.699   6.599   1.756
 8662SOL    HW226886   5.663   6.588   1.915
 8663SOL     OW26887   2.427   5.750   0.397
 8663SOL    HW126888   2.504   5.701   0.439
 8663SOL    HW226889   2.450   5.773   0.302
 8664SOL     OW26890   4.480   4.964   0.196
 8664SOL    HW126891   4.407   4.913   0.151
 8664SOL    HW226892   4.442   5.049   0.234
 8665SOL     OW26893   5.131   5.842   5.671
 8665SOL    HW126894   5.183   5.757   5.661
 8665SOL    HW226895   5.041   5.831   5.627
 8666SOL     OW26896   5.441   2.112   5.226
 8666SOL    HW126897   5.477   2.033   5.276
 8666SOL    HW226898   5.377   2.080   5.156
 8667SOL     OW26899   4.908   1.593   3.135
 8667SOL    HW126900   4.962   1.675   3.154
 8667SOL    HW226901   4.832   1.617   3.074
 8668SOL     OW26902   5.196   2.367   3.670
 8668SOL    HW126903   5.175   2.340   3.576
 8668SOL    HW226904   5.271   2.434   3.670
 8669SOL     OW26905   3.764   0.285   6.316
 8669SOL    HW126906   3.746   0.202   6.369
 8669SOL    HW226907   3.734   0.365   6.368
 8670SOL     OW26908   3.515   5.306   5.594
 8670SOL    HW126909   3.588   5.348   5.539
 8670SOL    HW226910   3.490   5.367   5.669
 8671SOL     OW26911   5.335   0.605   3.886
 8671SOL    HW126912   5.329   0.543   3.964
 8671SOL    HW226913   5.365   0.554   3.805
 8672SOL     OW26914   2.450   5.708   4.818
 8672SOL    HW126915   2.532   5.655   4.839
 8672SOL    HW226916   2.470   5.806   4.826
 8673SOL     OW26917   0.376   0.656   0.269
 8673SOL    HW126918   0.326   0.690   0.349
 8673SOL    HW226919   0.312   0.611   0.207
 8674SOL     OW26920   6.973   6.009   2.310
 8674SOL    HW126921   6.960   6.060   2.225
 8674SOL    HW226922   0.020   5.939   2.298
 8675SOL     OW26923   3.686   2.145   4.314
 8675SOL    HW126924   3.715   2.073   4.376
 8675SOL    HW226925   3.646   2.220   4.367
 8676SOL     OW26926   2.972   0.653   3.018
 8676SOL    HW126927   2.970   0.640   3.118
 8676SOL    HW226928   2.916   0.732   2.994
 8677SOL     OW26929   2.645   5.869   6.542
 8677SOL    HW126930   2.731   5.845   6.586
 8677SOL    HW226931   2.620   5.799   6.475
 8678SOL     OW26932   0.780   6.971   0.109
 8678SOL    HW126933   0.767   6.895   0.172
 8678SOL    HW226934   0.878   6.984   0.093
 8679SOL     OW26935   5.902   2.113   4.265
 8679SOL    HW126936   5.823   2.090   4.322
 8679SOL    HW226937   5.947   2.194   4.302
 8680SOL     OW26938   0.893   3.532   1.370
 8680SOL    HW126939   0.986   3.550   1.402
 8680SOL    HW226940   0.849   3.618   1.344
 8681SOL     OW26941   4.801   4.759   6.766
 8681SOL    HW126942   4.786   4.857   6.764
 8681SOL    HW226943   4.763   4.721   6.850
 8682SOL     OW26944   3.801   6.602   3.090
 8682SOL    HW126945   3.707   6.608   3.058
 8682SOL    HW226946   3.806   6.635   3.184
 8683SOL     OW26947   1.543   2.537   2.305
 8683SOL    HW126948   1.456   2.518   2.259
 8683SOL    HW226949   1.547   2.485   2.391
 8684SOL     OW26950   0.629   2.855   4.544
 8684SOL    HW126951   0.683   2.905   4.611
 8684SOL    HW226952   0.533   2.883   4.550
 8685SOL     OW26953   1.303   2.088   5.851
 8685SOL    HW126954   1.336   2.005   5.896
 8685SOL    HW226955   1.332   2.168   5.905
 8686SOL     OW26956   6.484   2.086   1.915
 8686SOL    HW126957   6.518   2.040   1.997
 8686SOL    HW226958   6.416   2.155   1.940
 8687SOL     OW26959   3.628   6.254   2.764
 8687SOL    HW126960   3.595   6.266   2.670
 8687SOL    HW226961   3.721   6.289   2.771
 8688SOL     OW26962   2.627   6.643   0.247
 8688SOL    HW126963   2.679   6.608   0.325
 8688SOL    HW226964   2.561   6.574   0.217
 8689SOL     OW26965   3.560   6.163   0.375
 8689SOL    HW126966   3.630   6.104   0.335
 8689SOL    HW226967   3.470   6.119   0.365
 8690SOL     OW26968   1.662   2.376   3.759
 8690SOL    HW126969   1.572   2.357   3.797
 8690SOL    HW226970   1.652   2.425   3.672
 8691SOL     OW26971   4.125   2.641   6.487
 8691SOL    HW126972   4.102   2.561   6.543
 8691SOL    HW226973   4.103   2.622   6.391
 8692SOL     OW26974   3.646   2.036   2.734
 8692SOL    HW126975   3.553   2.054   2.702
 8692SOL    HW226976   3.643   1.998   2.827
 8693SOL     OW26977   5.475   1.898   1.130
 8693SOL    HW126978   5.542   1.965   1.098
 8693SOL    HW226979   5.382   1.930   1.108
 8694SOL     OW26980   4.798   0.139   6.610
 8694SOL    HW126981   4.889   0.144   6.568
 8694SOL    HW226982   4.797   0.193   6.694
 8695SOL     OW26983   4.724   2.355   5.855
 8695SOL    HW126984   4.634   2.347   5.811
 8695SOL    HW226985   4.790   2.296   5.808
 8696SOL     OW26986   3.431   5.716   1.146
 8696SOL    HW126987   3.400   5.678   1.059
 8696SOL    HW226988   3.530   5.703   1.154
 8697SOL     OW26989   6.416   3.982   0.823
 8697SOL    HW126990   6.372   3.913   0.766
 8697SOL    HW226991   6.514   3.963   0.829
 8698SOL     OW26992   5.453   6.061   3.796
 8698SOL    HW126993   5.534   6.108   3.761
 8698SOL    HW226994   5.408   6.012   3.722
 8699SOL     OW26995   0.682   2.212   5.589
 8699SOL    HW126996   0.668   2.159   5.672
 8699SOL    HW226997   0.774   2.251   5.589
 8700SOL     OW26998   2.277   0.917   4.779
 8700SOL    HW126999   2.291   0.945   4.874
 8700SOL    HW227000   2.181   0.928   4.755
 8701SOL     OW27001   1.009   0.664   6.122
 8701SOL    HW127002   0.949   0.656   6.201
 8701SOL    HW227003   1.104   0.674   6.152
 8702SOL     OW27004   5.499   4.758   0.191
 8702SOL    HW127005   5.551   4.674   0.205
 8702SOL    HW227006   5.408   4.735   0.156
 8703SOL     OW27007   3.000   5.868   1.442
 8703SOL    HW127008   2.910   5.885   1.482
 8703SOL    HW227009   3.016   5.769   1.437
 8704SOL     OW27010   6.185   3.718   2.614
 8704SOL    HW127011   6.285   3.721   2.608
 8704SOL    HW227012   6.149   3.811   2.613
 8705SOL     OW27013   5.368   1.045   6.948
 8705SOL    HW127014   5.352   0.989   0.006
 8705SOL    HW227015   5.462   1.033   6.917
 8706SOL     OW27016   4.943   2.217   5.738
 8706SOL    HW127017   5.008   2.198   5.812
 8706SOL    HW227018   4.907   2.131   5.703
 8707SOL     OW27019   4.935   2.342   0.371
 8707SOL    HW127020   4.971   2.428   0.406
 8707SOL    HW227021   4.961   2.267   0.433
 8708SOL     OW27022   4.128   1.247   1.948
 8708SOL    HW127023   4.072   1.257   1.866
 8708SOL    HW227024   4.100   1.315   2.016
 8709SOL     OW27025   6.516   4.938   6.986
 8709SOL    HW127026   6.432   4.914   0.012
 8709SOL    HW227027   6.515   4.895   6.896
 8710SOL     OW27028   2.258   3.015   3.198
 8710SOL    HW127029   2.164   2.986   3.177
 8710SOL    HW227030   2.278   2.993   3.294
 8711SOL     OW27031   6.883   6.199   2.588
 8711SOL    HW127032   6.932   6.204   2.501
 8711SOL    HW227033   6.831   6.283   2.602
 8712SOL     OW27034   3.996   2.176   3.953
 8712SOL    HW127035   3.976   2.256   3.897
 8712SOL    HW227036   3.911   2.142   3.993
 8713SOL     OW27037   6.988   4.115   3.764
 8713SOL    HW127038   6.958   4.210   3.764
 8713SOL    HW227039   6.916   4.057   3.800
 8714SOL     OW27040   0.886   1.174   5.783
 8714SOL    HW127041   0.944   1.130   5.714
 8714SOL    HW227042   0.942   1.209   5.857
 8715SOL     OW27043   5.580   0.854   1.064
 8715SOL    HW127044   5.508   0.912   1.025
 8715SOL    HW227045   5.557   0.758   1.050
 8716SOL     OW27046   1.080   1.911   1.120
 8716SOL    HW127047   1.025   1.897   1.203
 8716SOL    HW227048   1.019   1.930   1.043
 8717SOL     OW27049   4.048   3.675   2.315
 8717SOL    HW127050   4.099   3.753   2.352
 8717SOL    HW227051   4.041   3.603   2.383
 8718SOL     OW27052   0.693   2.109   5.317
 8718SOL    HW127053   0.701   2.139   5.412
 8718SOL    HW227054   0.765   2.042   5.298
 8719SOL     OW27055   2.149   0.482   5.674
 8719SOL    HW127056   2.145   0.539   5.592
 8719SOL    HW227057   2.244   0.465   5.699
 8720SOL     OW27058   6.963   5.389   5.532
 8720SOL    HW127059   6.936   5.460   5.597
 8720SOL    HW227060   6.881   5.346   5.494
 8721SOL     OW27061   5.733   2.295   4.066
 8721SOL    HW127062   5.795   2.242   4.125
 8721SOL    HW227063   5.744   2.392   4.085
 8722SOL     OW27064   4.005   0.605   1.080
 8722SOL    HW127065   4.005   0.580   1.177
 8722SOL    HW227066   4.099   0.604   1.046
 8723SOL     OW27067   5.617   5.885   1.098
 8723SOL    HW127068   5.552   5.844   1.033
 8723SOL    HW227069   5.566   5.936   1.167
 8724SOL     OW27070   5.855   0.065   4.760
 8724SOL    HW127071   5.895   7.016   4.816
 8724SOL    HW227072   5.828   0.142   4.818
 8725SOL     OW27073   2.059   0.648   6.938
 8725SOL    HW127074   2.050   0.563   6.990
 8725SOL    HW227075   2.132   0.638   6.870
 8726SOL     OW27076   6.436   0.322   1.396
 8726SOL    HW127077   6.348   0.337   1.441
 8726SOL    HW227078   6.461   0.403   1.344
 8727SOL     OW27079   6.624   6.562   2.090
 8727SOL    HW127080   6.604   6.548   1.993
 8727SOL    HW227081   6.714   6.603   2.100
 8728SOL     OW27082   4.218   0.282   4.977
 8728SOL    HW127083   4.289   0.302   4.909
 8728SOL    HW227084   4.191   0.186   4.970
 8729SOL     OW27085   4.922   5.820   3.628
 8729SOL    HW127086   4.964   5.772   3.551
 8729SOL    HW227087   4.992   5.868   3.680
 8730SOL     OW27088   6.878   5.446   2.916
 8730SOL    HW127089   6.899   5.544   2.917
 8730SOL    HW227090   6.887   5.411   2.823
 8731SOL     OW27091   2.045   1.893   3.152
 8731SOL    HW127092   2.006   1.801   3.149
 8731SOL    HW227093   1.976   1.959   3.122
 8732SOL     OW27094   5.552   4.105   1.927
 8732SOL    HW127095   5.456   4.091   1.904
 8732SOL    HW227096   5.559   4.164   2.007
 8733SOL     OW27097   1.390   6.197   3.140
 8733SOL    HW127098   1.327   6.241   3.077
 8733SOL    HW227099   1.364   6.101   3.151
 8734SOL     OW27100   1.368   4.987   1.625
 8734SOL    HW127101   1.413   5.043   1.555
 8734SOL    HW227102   1.413   4.897   1.629
 8735SOL     OW27103   0.753   1.928   0.143
 8735SOL    HW127104   0.707   1.938   0.055
 8735SOL    HW227105   0.847   1.898   0.129
 8736SOL     OW27106   0.496   6.478   0.298
 8736SOL    HW127107   0.492   6.571   0.334
 8736SOL    HW227108   0.533   6.479   0.205
 8737SOL     OW27109   3.938   6.837   6.481
 8737SOL    HW127110   3.996   6.884   6.414
 8737SOL    HW227111   3.968   6.859   6.573
 8738SOL     OW27112   1.289   4.000   4.586
 8738SOL    HW127113   1.378   3.970   4.552
 8738SOL    HW227114   1.300   4.084   4.640
 8739SOL     OW27115   6.486   4.850   6.531
 8739SOL    HW127116   6.575   4.877   6.496
 8739SOL    HW227117   6.429   4.931   6.546
 8740SOL     OW27118   4.026   0.818   6.127
 8740SOL    HW127119   4.074   0.730   6.136
 8740SOL    HW227120   3.986   0.843   6.215
 8741SOL     OW27121   1.934   1.838   1.293
 8741SOL    HW127122   1.862   1.907   1.282
 8741SOL    HW227123   1.895   1.747   1.278
 8742SOL     OW27124   4.980   5.998   1.951
 8742SOL    HW127125   4.893   6.032   1.987
 8742SOL    HW227126   4.975   5.899   1.941
 8743SOL     OW27127   2.104   6.706   2.377
 8743SOL    HW127128   2.053   6.638   2.323
 8743SOL    HW227129   2.200   6.704   2.350
 8744SOL     OW27130   3.853   2.534   6.077
 8744SOL    HW127131   3.877   2.570   5.987
 8744SOL    HW227132   3.790   2.457   6.067
 8745SOL     OW27133   6.130   2.546   5.771
 8745SOL    HW127134   6.168   2.510   5.687
 8745SOL    HW227135   6.155   2.487   5.848
 8746SOL     OW27136   4.221   4.127   5.623
 8746SOL    HW127137   4.310   4.167   5.642
 8746SOL    HW227138   4.228   4.063   5.547
 8747SOL     OW27139   0.763   2.596   3.432
 8747SOL    HW127140   0.697   2.648   3.486
 8747SOL    HW227141   0.835   2.658   3.399
 8748SOL     OW27142   0.941   0.295   6.775
 8748SOL    HW127143   0.995   0.259   6.700
 8748SOL    HW227144   0.857   0.242   6.785
 8749SOL     OW27145   2.911   0.324   4.563
 8749SOL    HW127146   2.908   0.248   4.499
 8749SOL    HW227147   2.957   0.402   4.520
 8750SOL     OW27148   2.459   2.846   5.358
 8750SOL    HW127149   2.367   2.883   5.361
 8750SOL    HW227150   2.522   2.915   5.323
 8751SOL     OW27151   6.841   0.381   2.053
 8751SOL    HW127152   6.896   0.441   2.112
 8751SOL    HW227153   6.852   0.286   2.083
 8752SOL     OW27154   3.140   4.246   0.122
 8752SOL    HW127155   3.056   4.215   0.166
 8752SOL    HW227156   3.204   4.279   0.191
 8753SOL     OW27157   4.907   1.458   4.657
 8753SOL    HW127158   4.953   1.458   4.568
 8753SOL    HW227159   4.863   1.370   4.672
 8754SOL     OW27160   0.634   1.854   5.749
 8754SOL    HW127161   0.658   1.816   5.838
 8754SOL    HW227162   0.557   1.918   5.760
 8755SOL     OW27163   2.845   1.630   6.678
 8755SOL    HW127164   2.847   1.726   6.652
 8755SOL    HW227165   2.900   1.577   6.613
 8756SOL     OW27166   2.267   2.922   3.479
 8756SOL    HW127167   2.279   2.875   3.566
 8756SOL    HW227168   2.204   2.999   3.491
 8757SOL     OW27169   6.257   6.349   6.073
 8757SOL    HW127170   6.281   6.446   6.066
 8757SOL    HW227171   6.176   6.331   6.017
 8758SOL     OW27172   5.583   6.300   2.302
 8758SOL    HW127173   5.522   6.362   2.352
 8758SOL    HW227174   5.620   6.232   2.366
 8759SOL     OW27175   4.444   1.367   6.460
 8759SOL    HW127176   4.426   1.396   6.366
 8759SOL    HW227177   4.358   1.364   6.511
 8760SOL     OW27178   1.944   1.681   4.364
 8760SOL    HW127179   1.944   1.628   4.448
 8760SOL    HW227180   1.952   1.620   4.285
 8761SOL     OW27181   4.918   0.467   1.035
 8761SOL    HW127182   4.880   0.509   1.117
 8761SOL    HW227183   4.905   0.529   0.957
 8762SOL     OW27184   1.192   3.298   2.773
 8762SOL    HW127185   1.255   3.221   2.767
 8762SOL    HW227186   1.237   3.375   2.819
 8763SOL     OW27187   6.117   6.269   4.893
 8763SOL    HW127188   6.153   6.205   4.826
 8763SOL    HW227189   6.172   6.353   4.893
 8764SOL     OW27190   4.995   1.595   3.967
 8764SOL    HW127191   4.947   1.531   3.907
 8764SOL    HW227192   5.019   1.549   4.052
 8765SOL     OW27193   5.961   6.862   4.916
 8765SOL    HW127194   5.874   6.815   4.931
 8765SOL    HW227195   6.003   6.882   5.004
 8766SOL     OW27196   3.522   5.030   3.458
 8766SOL    HW127197   3.436   5.061   3.497
 8766SOL    HW227198   3.550   4.944   3.502
 8767SOL     OW27199   4.336   0.479   2.474
 8767SOL    HW127200   4.271   0.434   2.413
 8767SOL    HW227201   4.419   0.503   2.423
 8768SOL     OW27202   2.260   3.471   7.007
 8768SOL    HW127203   2.223   3.450   0.074
 8768SOL    HW227204   2.186   3.490   6.943
 8769SOL     OW27205   0.457   0.507   5.409
 8769SOL    HW127206   0.545   0.530   5.449
 8769SOL    HW227207   0.395   0.585   5.415
 8770SOL     OW27208   4.973   3.746   2.170
 8770SOL    HW127209   4.904   3.793   2.226
 8770SOL    HW227210   5.019   3.676   2.225
 8771SOL     OW27211   2.009   1.135   6.119
 8771SOL    HW127212   2.099   1.131   6.163
 8771SOL    HW227213   1.969   1.225   6.133
 8772SOL     OW27214   5.998   0.159   6.793
 8772SOL    HW127215   6.000   0.061   6.771
 8772SOL    HW227216   6.070   0.179   6.859
 8773SOL     OW27217   3.815   2.179   3.352
 8773SOL    HW127218   3.721   2.149   3.334
 8773SOL    HW227219   3.842   2.149   3.444
 8774SOL     OW27220   1.533   1.556   0.402
 8774SOL    HW127221   1.560   1.539   0.497
 8774SOL    HW227222   1.460   1.624   0.400
 8775SOL     OW27223   5.793   0.303   3.894
 8775SOL    HW127224   5.790   0.246   3.976
 8775SOL    HW227225   5.888   0.332   3.877
 8776SOL     OW27226   3.796   2.898   4.847
 8776SOL    HW127227   3.823   2.805   4.822
 8776SOL    HW227228   3.699   2.899   4.869
 8777SOL     OW27229   0.083   4.894   1.524
 8777SOL    HW127230   0.095   4.993   1.527
 8777SOL    HW227231   0.086   4.863   1.429
 8778SOL     OW27232   0.308   1.926   3.744
 8778SOL    HW127233   0.238   1.859   3.721
 8778SOL    HW227234   0.399   1.886   3.729
 8779SOL     OW27235   1.657   5.413   2.654
 8779SOL    HW127236   1.719   5.466   2.595
 8779SOL    HW227237   1.683   5.316   2.651
 8780SOL     OW27238   1.748   5.644   3.619
 8780SOL    HW127239   1.663   5.591   3.616
 8780SOL    HW227240   1.735   5.725   3.677
 8781SOL     OW27241   6.817   1.134   3.426
 8781SOL    HW127242   6.785   1.225   3.400
 8781SOL    HW227243   6.761   1.099   3.500
 8782SOL     OW27244   6.047   0.958   2.005
 8782SOL    HW127245   6.137   0.975   1.966
 8782SOL    HW227246   6.005   0.879   1.960
 8783SOL     OW27247   5.988   3.835   3.760
 8783SOL    HW127248   6.082   3.854   3.731
 8783SOL    HW227249   5.970   3.737   3.753
 8784SOL     OW27250   5.359   4.429   5.110
 8784SOL    HW127251   5.393   4.376   5.032
 8784SOL    HW227252   5.433   4.484   5.148
 8785SOL     OW27253   5.513   3.851   0.539
 8785SOL    HW127254   5.442   3.871   0.472
 8785SOL    HW227255   5.523   3.928   0.601
 8786SOL     OW27256   2.179   6.940   6.788
 8786SOL    HW127257   2.087   6.902   6.789
 8786SOL    HW227258   2.181   7.023   6.732
 8787SOL     OW27259   1.575   3.101   2.264
 8787SOL    HW127260   1.637   3.077   2.339
 8787SOL    HW227261   1.619   3.168   2.205
 8788SOL     OW27262   6.749   2.074   5.329
 8788SOL    HW127263   6.848   2.067   5.312
 8788SOL    HW227264   6.726   2.167   5.356
 8789SOL     OW27265   6.162   7.023   6.512
 8789SOL    HW127266   6.246   0.044   6.482
 8789SOL    HW227267   6.088   0.022   6.448
 8790SOL     OW27268   6.777   1.226   6.965
 8790SOL    HW127269   6.741   1.134   6.951
 8790SOL    HW227270   6.850   1.223   0.011
 8791SOL     OW27271   5.347   6.994   5.610
 8791SOL    HW127272   5.258   6.951   5.626
 8791SOL    HW227273   5.384   6.964   5.523
 8792SOL     OW27274   3.844   0.008   3.212
 8792SOL    HW127275   3.765   0.025   3.271
 8792SOL    HW227276   3.914   6.980   3.263
 8793SOL     OW27277   2.262   5.820   4.336
 8793SOL    HW127278   2.354   5.839   4.370
 8793SOL    HW227279   2.254   5.853   4.242
 8794SOL     OW27280   3.451   6.926   3.204
 8794SOL    HW127281   3.462   6.953   3.299
 8794SOL    HW227282   3.368   6.965   3.167
 8795SOL     OW27283   1.634   6.595   5.354
 8795SOL    HW127284   1.697   6.532   5.400
 8795SOL    HW227285   1.549   6.547   5.333
 8796SOL     OW27286   4.397   1.826   5.466
 8796SOL    HW127287   4.434   1.839   5.557
 8796SOL    HW227288   4.317   1.885   5.453
 8797SOL     OW27289   1.862   6.213   6.515
 8797SOL    HW127290   1.830   6.235   6.607
 8797SOL    HW227291   1.956   6.181   6.519
 8798SOL     OW27292   5.835   4.124   5.773
 8798SOL    HW127293   5.834   4.026   5.791
 8798SOL    HW227294   5.903   4.144   5.702
 8799SOL     OW27295   2.253   4.409   3.819
 8799SOL    HW127296   2.273   4.355   3.737
 8799SOL    HW227297   2.222   4.500   3.793
 8800SOL     OW27298   4.931   3.898   5.782
 8800SOL    HW127299   4.905   3.860   5.693
 8800SOL    HW227300   4.997   3.972   5.768
 8801SOL     OW27301   2.372   1.573   4.259
 8801SOL    HW127302   2.378   1.559   4.160
 8801SOL    HW227303   2.345   1.667   4.278
 8802SOL     OW27304   1.222   0.179   1.367
 8802SOL    HW127305   1.306   0.166   1.421
 8802SOL    HW227306   1.191   0.090   1.333
 8803SOL     OW27307   1.570   4.876   6.356
 8803SOL    HW127308   1.627   4.801   6.388
 8803SOL    HW227309   1.627   4.957   6.342
 8804SOL     OW27310   4.217   0.992   1.681
 8804SOL    HW127311   4.185   0.956   1.769
 8804SOL    HW227312   4.178   1.083   1.666
 8805SOL     OW27313   1.609   0.313   3.772
 8805SOL    HW127314   1.590   0.298   3.675
 8805SOL    HW227315   1.584   0.407   3.796
 8806SOL     OW27316   1.974   5.379   1.184
 8806SOL    HW127317   2.039   5.428   1.126
 8806SOL    HW227318   1.888   5.368   1.134
 8807SOL     OW27319   6.259   5.265   6.002
 8807SOL    HW127320   6.339   5.263   6.063
 8807SOL    HW227321   6.226   5.172   5.987
 8808SOL     OW27322   5.309   1.612   0.721
 8808SOL    HW127323   5.332   1.676   0.648
 8808SOL    HW227324   5.250   1.540   0.685
 8809SOL     OW27325   5.268   3.580   1.729
 8809SOL    HW127326   5.234   3.623   1.646
 8809SOL    HW227327   5.193   3.569   1.794
 8810SOL     OW27328   5.734   1.324   4.685
 8810SOL    HW127329   5.655   1.335   4.746
 8810SOL    HW227330   5.751   1.409   4.636
 8811SOL     OW27331   2.651   1.754   4.275
 8811SOL    HW127332   2.622   1.845   4.303
 8811SOL    HW227333   2.622   1.687   4.344
 8812SOL     OW27334   0.499   0.951   0.480
 8812SOL    HW127335   0.417   1.006   0.460
 8812SOL    HW227336   0.478   0.855   0.466
 8813SOL     OW27337   1.095   5.353   1.339
 8813SOL    HW127338   1.192   5.375   1.339
 8813SOL    HW227339   1.065   5.333   1.246
 8814SOL     OW27340   0.171   0.582   6.684
 8814SOL    HW127341   0.224   0.654   6.641
 8814SOL    HW227342   0.105   0.622   6.748
 8815SOL     OW27343   6.656   5.685   1.492
 8815SOL    HW127344   6.652   5.602   1.547
 8815SOL    HW227345   6.605   5.672   1.407
 8816SOL     OW27346   1.110   6.933   1.226
 8816SOL    HW127347   1.160   6.932   1.140
 8816SOL    HW227348   1.019   6.970   1.211
 8817SOL     OW27349   0.880   6.283   5.576
 8817SOL    HW127350   0.940   6.212   5.612
 8817SOL    HW227351   0.858   6.349   5.648
 8818SOL     OW27352   6.963   3.735   3.479
 8818SOL    HW127353   7.015   3.787   3.547
 8818SOL    HW227354   0.002   3.703   3.407
 8819SOL     OW27355   4.362   6.539   4.208
 8819SOL    HW127356   4.436   6.554   4.143
 8819SOL    HW227357   4.382   6.459   4.264
 8820SOL     OW27358   2.014   2.559   4.193
 8820SOL    HW127359   1.981   2.648   4.223
 8820SOL    HW227360   1.985   2.542   4.099
 8821SOL     OW27361   2.124   0.066   6.547
 8821SOL    HW127362   2.085   6.998   6.560
 8821SOL    HW227363   2.188   0.065   6.470
 8822SOL     OW27364   0.536   0.734   3.026
 8822SOL    HW127365   0.634   0.715   3.017
 8822SOL    HW227366   0.522   0.833   3.032
 8823SOL     OW27367   2.003   0.158   1.134
 8823SOL    HW127368   1.942   0.090   1.173
 8823SOL    HW227369   1.950   0.223   1.078
 8824SOL     OW27370   2.509   3.707   0.968
 8824SOL    HW127371   2.463   3.741   0.886
 8824SOL    HW227372   2.587   3.767   0.989
 8825SOL     OW27373   1.406   0.994   2.575
 8825SOL    HW127374   1.495   1.038   2.566
 8825SOL    HW227375   1.397   0.953   2.666
 8826SOL     OW27376   5.987   2.230   0.128
 8826SOL    HW127377   6.047   2.303   0.094
 8826SOL    HW227378   5.936   2.191   0.052
 8827SOL     OW27379   2.923   0.851   3.483
 8827SOL    HW127380   2.843   0.881   3.431
 8827SOL    HW227381   2.897   0.835   3.578
 8828SOL     OW27382   3.880   5.554   3.723
 8828SOL    HW127383   3.849   5.477   3.668
 8828SOL    HW227384   3.834   5.638   3.694
 8829SOL     OW27385   0.176   3.687   0.187
 8829SOL    HW127386   0.221   3.663   0.101
 8829SOL    HW227387   0.157   3.604   0.239
 8830SOL     OW27388   6.463   1.318   6.970
 8830SOL    HW127389   6.557   1.314   7.005
 8830SOL    HW227390   6.406   1.254   7.022
 8831SOL     OW27391   5.685   1.019   3.440
 8831SOL    HW127392   5.614   1.072   3.393
 8831SOL    HW227393   5.642   0.950   3.497
 8832SOL     OW27394   0.297   6.794   1.966
 8832SOL    HW127395   0.298   6.883   1.921
 8832SOL    HW227396   0.391   6.759   1.973
 8833SOL     OW27397   1.740   5.675   5.184
 8833SOL    HW127398   1.750   5.734   5.264
 8833SOL    HW227399   1.811   5.697   5.117
 8834SOL     OW27400   5.502   2.907   4.538
 8834SOL    HW127401   5.557   2.851   4.476
 8834SOL    HW227402   5.551   2.991   4.561
 8835SOL     OW27403   6.164   0.276   5.321
 8835SOL    HW127404   6.187   0.368   5.350
 8835SOL    HW227405   6.232   0.243   5.255
 8836SOL     OW27406   4.036   0.783   0.756
 8836SOL    HW127407   4.103   0.779   0.831
 8836SOL    HW227408   3.946   0.807   0.792
 8837SOL     OW27409   0.926   0.401   2.528
 8837SOL    HW127410   0.867   0.321   2.527
 8837SOL    HW227411   0.988   0.398   2.450
 8838SOL     OW27412   2.643   5.001   3.422
 8838SOL    HW127413   2.710   4.930   3.400
 8838SOL    HW227414   2.643   5.017   3.521
 8839SOL     OW27415   5.860   6.194   3.140
 8839SOL    HW127416   5.903   6.230   3.223
 8839SOL    HW227417   5.793   6.260   3.106
 8840SOL     OW27418   6.312   2.393   2.253
 8840SOL    HW127419   6.345   2.477   2.211
 8840SOL    HW227420   6.282   2.412   2.346
 8841SOL     OW27421   1.211   1.198   4.868
 8841SOL    HW127422   1.219   1.230   4.962
 8841SOL    HW227423   1.282   1.130   4.849
 8842SOL     OW27424   3.590   2.956   1.090
 8842SOL    HW127425   3.496   2.935   1.116
 8842SOL    HW227426   3.599   2.948   0.990
 8843SOL     OW27427   1.353   2.860   5.470
 8843SOL    HW127428   1.367   2.909   5.556
 8843SOL    HW227429   1.314   2.922   5.402
 8844SOL     OW27430   5.954   1.443   6.236
 8844SOL    HW127431   5.899   1.456   6.154
 8844SOL    HW227432   5.918   1.366   6.288
 8845SOL     OW27433   4.150   3.794   0.173
 8845SOL    HW127434   4.174   3.845   0.255
 8845SOL    HW227435   4.138   3.857   0.096
 8846SOL     OW27436   2.007   5.171   3.566
 8846SOL    HW127437   2.068   5.171   3.645
 8846SOL    HW227438   1.940   5.245   3.575
 8847SOL     OW27439   2.712   0.564   2.142
 8847SOL    HW127440   2.684   0.549   2.237
 8847SOL    HW227441   2.760   0.652   2.136
 8848SOL     OW27442   2.171   1.346   1.075
 8848SOL    HW127443   2.154   1.433   1.028
 8848SOL    HW227444   2.147   1.270   1.015
 8849SOL     OW27445   1.932   5.754   2.752
 8849SOL    HW127446   1.929   5.732   2.655
 8849SOL    HW227447   1.971   5.677   2.803
 8850SOL     OW27448   2.523   1.652   0.120
 8850SOL    HW127449   2.580   1.602   0.055
 8850SOL    HW227450   2.456   1.590   0.161
 8851SOL     OW27451   1.554   4.909   2.218
 8851SOL    HW127452   1.536   4.816   2.250
 8851SOL    HW227453   1.470   4.949   2.182
 8852SOL     OW27454   1.020   2.087   5.702
 8852SOL    HW127455   1.104   2.086   5.757
 8852SOL    HW227456   1.019   2.007   5.641
 8853SOL     OW27457   3.034   1.030   1.733
 8853SOL    HW127458   2.951   1.073   1.695
 8853SOL    HW227459   3.114   1.063   1.683
 8854SOL     OW27460   1.509   2.798   5.056
 8854SOL    HW127461   1.475   2.704   5.068
 8854SOL    HW227462   1.563   2.823   5.136
 8855SOL     OW27463   6.121   5.763   1.562
 8855SOL    HW127464   6.152   5.679   1.518
 8855SOL    HW227465   6.050   5.805   1.507
 8856SOL     OW27466   6.322   5.519   6.066
 8856SOL    HW127467   6.258   5.594   6.046
 8856SOL    HW227468   6.295   5.437   6.016
 8857SOL     OW27469   6.669   1.944   5.582
 8857SOL    HW127470   6.757   1.910   5.615
 8857SOL    HW227471   6.674   1.958   5.483
 8858SOL     OW27472   0.516   4.933   5.345
 8858SOL    HW127473   0.477   4.918   5.435
 8858SOL    HW227474   0.556   5.025   5.340
 8859SOL     OW27475   0.873   0.801   3.619
 8859SOL    HW127476   0.883   0.760   3.710
 8859SOL    HW227477   0.940   0.760   3.557
 8860SOL     OW27478   6.932   2.745   1.063
 8860SOL    HW127479   6.905   2.751   1.159
 8860SOL    HW227480   0.006   2.724   1.057
 8861SOL     OW27481   3.840   1.530   0.971
 8861SOL    HW127482   3.934   1.496   0.960
 8861SOL    HW227483   3.841   1.630   0.967
 8862SOL     OW27484   4.776   5.949   4.391
 8862SOL    HW127485   4.730   5.894   4.322
 8862SOL    HW227486   4.788   5.895   4.474
 8863SOL     OW27487   1.874   4.207   3.415
 8863SOL    HW127488   1.811   4.285   3.407
 8863SOL    HW227489   1.967   4.238   3.393
 8864SOL     OW27490   5.069   3.501   6.386
 8864SOL    HW127491   5.134   3.433   6.421
 8864SOL    HW227492   4.995   3.454   6.338
 8865SOL     OW27493   2.862   1.597   5.841
 8865SOL    HW127494   2.937   1.653   5.805
 8865SOL    HW227495   2.776   1.646   5.828
 8866SOL     OW27496   5.481   5.960   2.630
 8866SOL    HW127497   5.477   6.036   2.695
 8866SOL    HW227498   5.547   5.982   2.558
 8867SOL     OW27499   6.431   3.394   2.908
 8867SOL    HW127500   6.386   3.471   2.953
 8867SOL    HW227501   6.479   3.426   2.827
 8868SOL     OW27502   0.079   3.139   2.599
 8868SOL    HW127503   0.030   3.223   2.620
 8868SOL    HW227504   0.022   3.081   2.541
 8869SOL     OW27505   4.292   5.291   4.907
 8869SOL    HW127506   4.270   5.207   4.859
 8869SOL    HW227507   4.217   5.356   4.896
 8870SOL     OW27508   1.843   6.927   1.974
 8870SOL    HW127509   1.882   6.836   1.980
 8870SOL    HW227510   1.826   6.963   2.065
 8871SOL     OW27511   1.814   0.931   2.927
 8871SOL    HW127512   1.803   0.903   2.832
 8871SOL    HW227513   1.748   0.882   2.984
 8872SOL     OW27514   0.545   4.406   6.352
 8872SOL    HW127515   0.468   4.429   6.294
 8872SOL    HW227516   0.599   4.488   6.371
 8873SOL     OW27517   1.950   0.180   2.087
 8873SOL    HW127518   1.885   0.124   2.140
 8873SOL    HW227519   1.907   0.267   2.064
 8874SOL     OW27520   1.843   5.240   0.900
 8874SOL    HW127521   1.861   5.200   0.811
 8874SOL    HW227522   1.863   5.339   0.897
 8875SOL     OW27523   6.932   3.063   3.684
 8875SOL    HW127524   6.890   3.147   3.649
 8875SOL    HW227525   6.931   3.064   3.784
 8876SOL     OW27526   2.875   0.517   6.144
 8876SOL    HW127527   2.854   0.512   6.046
 8876SOL    HW227528   2.945   0.449   6.166
 8877SOL     OW27529   1.111   3.491   1.752
 8877SOL    HW127530   1.058   3.410   1.730
 8877SOL    HW227531   1.151   3.529   1.669
 8878SOL     OW27532   3.634   4.742   0.516
 8878SOL    HW127533   3.696   4.664   0.507
 8878SOL    HW227534   3.620   4.784   0.426
 8879SOL     OW27535   6.543   4.793   2.644
 8879SOL    HW127536   6.542   4.705   2.691
 8879SOL    HW227537   6.511   4.782   2.550
 8880SOL     OW27538   4.530   6.563   3.737
 8880SOL    HW127539   4.561   6.578   3.643
 8880SOL    HW227540   4.566   6.476   3.771
 8881SOL     OW27541   4.486   5.304   3.926
 8881SOL    HW127542   4.580   5.298   3.894
 8881SOL    HW227543   4.432   5.358   3.861
 8882SOL     OW27544   3.954   1.091   0.479
 8882SOL    HW127545   4.022   1.058   0.544
 8882SOL    HW227546   3.875   1.127   0.529
 8883SOL     OW27547   0.185   6.637   6.390
 8883SOL    HW127548   0.201   6.696   6.470
 8883SOL    HW227549   0.195   6.692   6.306
 8884SOL     OW27550   5.606   4.095   4.894
 8884SOL    HW127551   5.685   4.126   4.946
 8884SOL    HW227552   5.635   4.063   4.804
 8885SOL     OW27553   5.557   5.416   0.141
 8885SOL    HW127554   5.615   5.405   0.221
 8885SOL    HW227555   5.588   5.355   0.068
 8886SOL     OW27556   3.946   5.267   6.757
 8886SOL    HW127557   3.904   5.288   6.669
 8886SOL    HW227558   3.875   5.247   6.824
 8887SOL     OW27559   4.379   0.085   0.263
 8887SOL    HW127560   4.338   0.140   0.191
 8887SOL    HW227561   4.354   0.122   0.352
 8888SOL     OW27562   2.045   1.460   3.740
 8888SOL    HW127563   2.123   1.397   3.741
 8888SOL    HW227564   2.051   1.521   3.819
 8889SOL     OW27565   6.898   6.663   6.102
 8889SOL    HW127566   6.953   6.597   6.051
 8889SOL    HW227567   6.928   6.756   6.081
 8890SOL     OW27568   6.892   6.324   0.288
 8890SOL    HW127569   6.959   6.280   0.228
 8890SOL    HW227570   6.818   6.362   0.233
 8891SOL     OW27571   5.576   4.537   6.814
 8891SOL    HW127572   5.499   4.496   6.864
 8891SOL    HW227573   5.651   4.554   6.878
 8892SOL     OW27574   3.300   5.126   3.547
 8892SOL    HW127575   3.274   5.108   3.452
 8892SOL    HW227576   3.316   5.224   3.559
 8893SOL     OW27577   1.667   4.999   4.911
 8893SOL    HW127578   1.720   5.083   4.924
 8893SOL    HW227579   1.580   5.021   4.867
 8894SOL     OW27580   5.028   2.132   0.624
 8894SOL    HW127581   5.079   2.052   0.657
 8894SOL    HW227582   5.002   2.189   0.701
 8895SOL     OW27583   0.885   2.979   0.798
 8895SOL    HW127584   0.789   2.981   0.772
 8895SOL    HW227585   0.901   2.907   0.865
 8896SOL     OW27586   0.554   2.588   4.639
 8896SOL    HW127587   0.643   2.547   4.655
 8896SOL    HW227588   0.565   2.671   4.584
 8897SOL     OW27589   1.524   3.805   3.736
 8897SOL    HW127590   1.508   3.716   3.778
 8897SOL    HW227591   1.618   3.808   3.700
 8898SOL     OW27592   4.873   3.513   2.718
 8898SOL    HW127593   4.969   3.532   2.738
 8898SOL    HW227594   4.856   3.533   2.621
 8899SOL     OW27595   6.830   4.645   6.342
 8899SOL    HW127596   6.859   4.717   6.405
 8899SOL    HW227597   6.754   4.594   6.381
 8900SOL     OW27598   5.830   1.719   3.617
 8900SOL    HW127599   5.739   1.691   3.649
 8900SOL    HW227600   5.832   1.818   3.607
 8901SOL     OW27601   0.710   2.352   3.529
 8901SOL    HW127602   0.763   2.301   3.462
 8901SOL    HW227603   0.710   2.449   3.506
 8902SOL     OW27604   1.098   4.744   6.998
 8902SOL    HW127605   1.113   4.654   0.015
 8902SOL    HW227606   1.186   4.788   6.982
 8903SOL     OW27607   1.754   1.382   4.811
 8903SOL    HW127608   1.678   1.439   4.842
 8903SOL    HW227609   1.839   1.434   4.818
 8904SOL     OW27610   0.312   1.260   2.430
 8904SOL    HW127611   0.343   1.245   2.523
 8904SOL    HW227612   0.368   1.332   2.387
 8905SOL     OW27613   1.715   3.084   2.536
 8905SOL    HW127614   1.673   3.001   2.572
 8905SOL    HW227615   1.692   3.162   2.595
 8906SOL     OW27616   0.839   6.884   0.762
 8906SOL    HW127617   0.881   6.821   0.696
 8906SOL    HW227618   0.834   6.840   0.851
 8907SOL     OW27619   3.346   2.579   5.349
 8907SOL    HW127620   3.291   2.512   5.299
 8907SOL    HW227621   3.290   2.659   5.371
 8908SOL     OW27622   1.270   4.971   0.443
 8908SOL    HW127623   1.269   5.071   0.450
 8908SOL    HW227624   1.282   4.932   0.534
 8909SOL     OW27625   2.459   1.313   6.320
 8909SOL    HW127626   2.492   1.345   6.409
 8909SOL    HW227627   2.536   1.300   6.258
 8910SOL     OW27628   0.921   2.405   5.163
 8910SOL    HW127629   0.955   2.313   5.176
 8910SOL    HW227630   0.916   2.426   5.065
 8911SOL     OW27631   5.235   1.730   3.933
 8911SOL    HW127632   5.248   1.817   3.885
 8911SOL    HW227633   5.138   1.705   3.930
 8912SOL     OW27634   3.852   3.685   5.354
 8912SOL    HW127635   3.862   3.631   5.271
 8912SOL    HW227636   3.860   3.626   5.434
 8913SOL     OW27637   5.564   5.186   6.952
 8913SOL    HW127638   5.505   5.141   7.019
 8913SOL    HW227639   5.512   5.207   6.869
 8914SOL     OW27640   5.634   6.394   4.873
 8914SOL    HW127641   5.714   6.429   4.922
 8914SOL    HW227642   5.603   6.309   4.915
 8915SOL     OW27643   1.005   1.295   4.121
 8915SOL    HW127644   0.907   1.314   4.113
 8915SOL    HW227645   1.018   1.211   4.173
 8916SOL     OW27646   5.742   1.548   6.519
 8916SOL    HW127647   5.767   1.463   6.473
 8916SOL    HW227648   5.721   1.618   6.451
 8917SOL     OW27649   6.080   1.880   0.586
 8917SOL    HW127650   6.025   1.926   0.656
 8917SOL    HW227651   6.060   1.920   0.496
 8918SOL     OW27652   1.652   5.652   1.298
 8918SOL    HW127653   1.671   5.602   1.382
 8918SOL    HW227654   1.738   5.687   1.260
 8919SOL     OW27655   5.457   4.494   6.565
 8919SOL    HW127656   5.504   4.513   6.651
 8919SOL    HW227657   5.360   4.515   6.574
 8920SOL     OW27658   0.304   1.149   6.561
 8920SOL    HW127659   0.211   1.146   6.597
 8920SOL    HW227660   0.320   1.238   6.518
 8921SOL     OW27661   0.956   2.824   1.251
 8921SOL    HW127662   0.987   2.766   1.326
 8921SOL    HW227663   1.026   2.892   1.229
 8922SOL     OW27664   3.579   6.584   2.953
 8922SOL    HW127665   3.484   6.613   2.966
 8922SOL    HW227666   3.621   6.640   2.881
 8923SOL     OW27667   1.567   1.963   5.570
 8923SOL    HW127668   1.529   2.051   5.598
 8923SOL    HW227669   1.662   1.976   5.540
 8924SOL     OW27670   5.413   5.680   4.548
 8924SOL    HW127671   5.450   5.598   4.593
 8924SOL    HW227672   5.373   5.740   4.616
 8925SOL     OW27673   1.130   1.003   2.696
 8925SOL    HW127674   1.081   0.921   2.665
 8925SOL    HW227675   1.223   0.978   2.722
 8926SOL     OW27676   6.091   3.835   5.592
 8926SOL    HW127677   6.175   3.804   5.636
 8926SOL    HW227678   6.015   3.833   5.657
 8927SOL     OW27679   6.562   2.291   5.403
 8927SOL    HW127680   6.466   2.277   5.427
 8927SOL    HW227681   6.617   2.294   5.487
 8928SOL     OW27682   2.455   0.578   5.374
 8928SOL    HW127683   2.479   0.559   5.278
 8928SOL    HW227684   2.420   0.494   5.417
 8929SOL     OW27685   6.178   2.475   5.206
 8929SOL    HW127686   6.247   2.509   5.142
 8929SOL    HW227687   6.109   2.546   5.223
 8930SOL     OW27688   0.983   3.693   2.921
 8930SOL    HW127689   0.978   3.595   2.898
 8930SOL    HW227690   1.049   3.737   2.860
 8931SOL     OW27691   3.370   2.753   1.542
 8931SOL    HW127692   3.392   2.772   1.638
 8931SOL    HW227693   3.454   2.732   1.492
 8932SOL     OW27694   0.360   1.689   3.008
 8932SOL    HW127695   0.446   1.663   3.052
 8932SOL    HW227696   0.347   1.788   3.018
 8933SOL     OW27697   3.452   2.498   6.627
 8933SOL    HW127698   3.439   2.493   6.528
 8933SOL    HW227699   3.550   2.497   6.647
 8934SOL     OW27700   3.747   5.498   4.212
 8934SOL    HW127701   3.811   5.430   4.178
 8934SOL    HW227702   3.654   5.471   4.187
 8935SOL     OW27703   6.907   5.524   0.969
 8935SOL    HW127704   6.931   5.607   0.919
 8935SOL    HW227705   6.814   5.496   0.945
 8936SOL     OW27706   1.568   3.683   0.672
 8936SOL    HW127707   1.529   3.594   0.694
 8936SOL    HW227708   1.636   3.708   0.741
 8937SOL     OW27709   0.201   6.653   5.140
 8937SOL    HW127710   0.168   6.705   5.062
 8937SOL    HW227711   0.275   6.591   5.111
 8938SOL     OW27712   0.170   5.474   1.090
 8938SOL    HW127713   0.139   5.528   1.168
 8938SOL    HW227714   0.092   5.454   1.030
 8939SOL     OW27715   4.908   2.302   4.518
 8939SOL    HW127716   4.878   2.391   4.554
 8939SOL    HW227717   5.001   2.284   4.550
 8940SOL     OW27718   6.845   1.023   4.174
 8940SOL    HW127719   6.939   0.998   4.196
 8940SOL    HW227720   6.785   1.000   4.251
 8941SOL     OW27721   6.021   2.097   5.562
 8941SOL    HW127722   5.931   2.059   5.545
 8941SOL    HW227723   6.013   2.175   5.625
 8942SOL     OW27724   6.861   3.080   5.595
 8942SOL    HW127725   6.935   3.144   5.617
 8942SOL    HW227726   6.774   3.117   5.629
 8943SOL     OW27727   5.404   4.161   0.496
 8943SOL    HW127728   5.368   4.198   0.582
 8943SOL    HW227729   5.340   4.094   0.458
 8944SOL     OW27730   5.116   5.389   5.784
 8944SOL    HW127731   5.191   5.344   5.834
 8944SOL    HW227732   5.041   5.408   5.847
 8945SOL     OW27733   1.942   0.469   4.059
 8945SOL    HW127734   1.910   0.377   4.083
 8945SOL    HW227735   1.994   0.507   4.135
 8946SOL     OW27736   3.202   2.040   5.049
 8946SOL    HW127737   3.163   1.986   4.975
 8946SOL    HW227738   3.152   2.126   5.058
 8947SOL     OW27739   1.631   3.942   5.079
 8947SOL    HW127740   1.545   3.919   5.124
 8947SOL    HW227741   1.707   3.904   5.131
 8948SOL     OW27742   5.350   5.527   3.511
 8948SOL    HW127743   5.436   5.563   3.547
 8948SOL    HW227744   5.344   5.545   3.413
 8949SOL     OW27745   2.277   0.233   6.711
 8949SOL    HW127746   2.279   0.246   6.810
 8949SOL    HW227747   2.191   0.189   6.685
 8950SOL     OW27748   4.638   3.343   5.515
 8950SOL    HW127749   4.722   3.334   5.568
 8950SOL    HW227750   4.630   3.436   5.478
 8951SOL     OW27751   1.564   2.519   5.299
 8951SOL    HW127752   1.508   2.547   5.222
 8951SOL    HW227753   1.555   2.420   5.313
 8952SOL     OW27754   1.337   1.173   2.388
 8952SOL    HW127755   1.375   1.123   2.465
 8952SOL    HW227756   1.238   1.157   2.382
 8953SOL     OW27757   1.275   3.839   0.071
 8953SOL    HW127758   1.319   3.887   0.146
 8953SOL    HW227759   1.180   3.868   0.063
 8954SOL     OW27760   0.170   5.994   5.458
 8954SOL    HW127761   0.142   5.999   5.362
 8954SOL    HW227762   0.270   5.986   5.462
 8955SOL     OW27763   6.643   4.172   3.196
 8955SOL    HW127764   6.548   4.148   3.214
 8955SOL    HW227765   6.678   4.228   3.270
 8956SOL     OW27766   0.030   1.166   6.612
 8956SOL    HW127767   0.021   1.229   6.689
 8956SOL    HW227768   6.986   1.092   6.621
 8957SOL     OW27769   3.207   4.713   1.551
 8957SOL    HW127770   3.139   4.644   1.574
 8957SOL    HW227771   3.252   4.745   1.634
 8958SOL     OW27772   0.821   0.334   4.429
 8958SOL    HW127773   0.890   0.262   4.431
 8958SOL    HW227774   0.851   0.407   4.368
 8959SOL     OW27775   1.456   4.609   0.987
 8959SOL    HW127776   1.370   4.638   0.944
 8959SOL    HW227777   1.531   4.616   0.921
 8960SOL     OW27778   4.640   5.281   2.779
 8960SOL    HW127779   4.675   5.191   2.803
 8960SOL    HW227780   4.564   5.271   2.715
 8961SOL     OW27781   1.558   1.877   4.337
 8961SOL    HW127782   1.518   1.929   4.262
 8961SOL    HW227783   1.618   1.937   4.390
 8962SOL     OW27784   5.811   6.703   2.693
 8962SOL    HW127785   5.831   6.799   2.714
 8962SOL    HW227786   5.715   6.684   2.711
 8963SOL     OW27787   4.887   6.475   3.944
 8963SOL    HW127788   4.859   6.571   3.954
 8963SOL    HW227789   4.987   6.471   3.936
 8964SOL     OW27790   5.586   4.460   2.531
 8964SOL    HW127791   5.574   4.538   2.470
 8964SOL    HW227792   5.644   4.391   2.487
 8965SOL     OW27793   1.678   4.767   0.870
 8965SOL    HW127794   1.750   4.823   0.829
 8965SOL    HW227795   1.705   4.742   0.963
 8966SOL     OW27796   2.055   3.082   5.563
 8966SOL    HW127797   2.145   3.111   5.595
 8966SOL    HW227798   1.998   3.162   5.548
 8967SOL     OW27799   3.107   6.297   1.664
 8967SOL    HW127800   3.164   6.219   1.639
 8967SOL    HW227801   3.140   6.337   1.749
 8968SOL     OW27802   4.922   5.344   2.990
 8968SOL    HW127803   4.832   5.387   2.983
 8968SOL    HW227804   4.992   5.406   2.954
 8969SOL     OW27805   5.934   0.709   3.402
 8969SOL    HW127806   5.895   0.706   3.493
 8969SOL    HW227807   5.862   0.724   3.335
 8970SOL     OW27808   3.485   2.736   0.875
 8970SOL    HW127809   3.431   2.765   0.954
 8970SOL    HW227810   3.557   2.804   0.859
 8971SOL     OW27811   3.521   6.011   2.506
 8971SOL    HW127812   3.431   5.969   2.517
 8971SOL    HW227813   3.556   6.039   2.595
 8972SOL     OW27814   4.624   6.144   0.158
 8972SOL    HW127815   4.677   6.136   0.074
 8972SOL    HW227816   4.670   6.208   0.220
 8973SOL     OW27817   0.956   3.970   2.168
 8973SOL    HW127818   0.963   4.057   2.119
 8973SOL    HW227819   1.046   3.925   2.168
 8974SOL     OW27820   0.715   4.532   6.099
 8974SOL    HW127821   0.717   4.510   6.001
 8974SOL    HW227822   0.698   4.448   6.152
 8975SOL     OW27823   2.442   0.996   0.186
 8975SOL    HW127824   2.451   0.911   0.134
 8975SOL    HW227825   2.438   0.975   0.284
 8976SOL     OW27826   1.306   5.418   5.174
 8976SOL    HW127827   1.334   5.325   5.197
 8976SOL    HW227828   1.387   5.472   5.150
 8977SOL     OW27829   6.259   1.542   6.595
 8977SOL    HW127830   6.308   1.554   6.681
 8977SOL    HW227831   6.164   1.571   6.607
 8978SOL     OW27832   6.175   5.996   6.904
 8978SOL    HW127833   6.159   5.906   6.865
 8978SOL    HW227834   6.107   6.061   6.869
 8979SOL     OW27835   1.843   3.379   4.720
 8979SOL    HW127836   1.799   3.449   4.775
 8979SOL    HW227837   1.929   3.352   4.763
 8980SOL     OW27838   2.804   3.600   5.568
 8980SOL    HW127839   2.811   3.601   5.668
 8980SOL    HW227840   2.896   3.601   5.528
 8981SOL     OW27841   4.117   1.489   4.990
 8981SOL    HW127842   4.112   1.575   5.041
 8981SOL    HW227843   4.027   1.446   4.987
 8982SOL     OW27844   1.918   3.033   0.387
 8982SOL    HW127845   1.938   2.949   0.437
 8982SOL    HW227846   1.820   3.041   0.371
 8983SOL     OW27847   3.034   5.956   6.535
 8983SOL    HW127848   3.054   5.858   6.527
 8983SOL    HW227849   3.115   6.004   6.569
 8984SOL     OW27850   1.596   6.753   2.797
 8984SOL    HW127851   1.605   6.765   2.896
 8984SOL    HW227852   1.531   6.680   2.778
 8985SOL     OW27853   3.690   2.414   0.771
 8985SOL    HW127854   3.627   2.487   0.746
 8985SOL    HW227855   3.641   2.344   0.823
 8986SOL     OW27856   3.854   4.823   3.063
 8986SOL    HW127857   3.928   4.768   3.023
 8986SOL    HW227858   3.840   4.798   3.158
 8987SOL     OW27859   3.942   6.127   3.182
 8987SOL    HW127860   3.945   6.217   3.138
 8987SOL    HW227861   4.035   6.090   3.186
 8988SOL     OW27862   1.001   5.512   4.057
 8988SOL    HW127863   1.063   5.439   4.087
 8988SOL    HW227864   1.010   5.590   4.120
 8989SOL     OW27865   4.106   3.308   6.906
 8989SOL    HW127866   4.079   3.314   7.003
 8989SOL    HW227867   4.186   3.366   6.890
 8990SOL     OW27868   0.528   4.671   4.035
 8990SOL    HW127869   0.465   4.746   4.054
 8990SOL    HW227870   0.619   4.695   4.068
 8991SOL     OW27871   1.131   3.590   4.586
 8991SOL    HW127872   1.183   3.557   4.664
 8991SOL    HW227873   1.075   3.515   4.550
 8992SOL     OW27874   5.116   1.991   1.171
 8992SOL    HW127875   5.121   1.926   1.095
 8992SOL    HW227876   5.021   2.021   1.183
 8993SOL     OW27877   3.652   3.198   0.393
 8993SOL    HW127878   3.647   3.297   0.402
 8993SOL    HW227879   3.648   3.173   0.297
 8994SOL     OW27880   1.579   4.724   4.617
 8994SOL    HW127881   1.626   4.691   4.535
 8994SOL    HW227882   1.638   4.709   4.697
 8995SOL     OW27883   6.906   2.064   0.187
 8995SOL    HW127884   6.914   1.965   0.199
 8995SOL    HW227885   6.981   2.109   0.235
 8996SOL     OW27886   5.483   4.084   6.542
 8996SOL    HW127887   5.503   4.147   6.467
 8996SOL    HW227888   5.388   4.055   6.536
 8997SOL     OW27889   4.799   1.063   5.836
 8997SOL    HW127890   4.748   1.143   5.870
 8997SOL    HW227891   4.734   0.996   5.800
 8998SOL     OW27892   5.922   3.019   4.535
 8998SOL    HW127893   5.823   3.024   4.526
 8998SOL    HW227894   5.965   3.028   4.445
 8999SOL     OW27895   5.161   6.437   6.353
 8999SOL    HW127896   5.111   6.462   6.435
 8999SOL    HW227897   5.124   6.352   6.315
 9000SOL     OW27898   1.880   3.093   2.313
 9000SOL    HW127899   1.810   3.102   2.384
 9000SOL    HW227900   1.883   2.998   2.281
 9001SOL     OW27901   0.798   5.087   1.347
 9001SOL    HW127902   0.772   5.085   1.443
 9001SOL    HW227903   0.896   5.106   1.338
 9002SOL     OW27904   1.861   4.657   5.413
 9002SOL    HW127905   1.810   4.742   5.426
 9002SOL    HW227906   1.936   4.672   5.349
 9003SOL     OW27907   5.235   3.877   1.029
 9003SOL    HW127908   5.256   3.784   0.999
 9003SOL    HW227909   5.165   3.873   1.100
 9004SOL     OW27910   4.422   5.103   0.818
 9004SOL    HW127911   4.472   5.181   0.780
 9004SOL    HW227912   4.475   5.019   0.806
 9005SOL     OW27913   6.482   1.862   5.736
 9005SOL    HW127914   6.550   1.885   5.667
 9005SOL    HW227915   6.391   1.880   5.701
 9006SOL     OW27916   3.321   6.277   1.033
 9006SOL    HW127917   3.222   6.261   1.034
 9006SOL    HW227918   3.339   6.374   1.049
 9007SOL     OW27919   2.824   1.329   2.247
 9007SOL    HW127920   2.736   1.375   2.254
 9007SOL    HW227921   2.859   1.309   2.339
 9008SOL     OW27922   6.803   4.889   2.637
 9008SOL    HW127923   6.725   4.843   2.678
 9008SOL    HW227924   6.772   4.946   2.561
 9009SOL     OW27925   3.374   5.538   0.937
 9009SOL    HW127926   3.362   5.446   0.976
 9009SOL    HW227927   3.462   5.543   0.891
 9010SOL     OW27928   2.232   6.219   4.441
 9010SOL    HW127929   2.207   6.145   4.504
 9010SOL    HW227930   2.254   6.301   4.493
 9011SOL     OW27931   4.248   0.695   1.348
 9011SOL    HW127932   4.155   0.661   1.365
 9011SOL    HW227933   4.272   0.762   1.418
 9012SOL     OW27934   2.328   5.524   0.227
 9012SOL    HW127935   2.250   5.516   0.165
 9012SOL    HW227936   2.312   5.598   0.292
 9013SOL     OW27937   0.906   0.792   5.668
 9013SOL    HW127938   0.912   0.850   5.749
 9013SOL    HW227939   0.909   0.849   5.586
 9014SOL     OW27940   6.310   2.695   0.797
 9014SOL    HW127941   6.372   2.746   0.857
 9014SOL    HW227942   6.295   2.604   0.835
 9015SOL     OW27943   4.619   2.305   1.675
 9015SOL    HW127944   4.688   2.233   1.679
 9015SOL    HW227945   4.588   2.326   1.768
 9016SOL     OW27946   5.818   5.555   6.606
 9016SOL    HW127947   5.913   5.549   6.639
 9016SOL    HW227948   5.756   5.534   6.682
 9017SOL     OW27949   4.528   1.057   3.960
 9017SOL    HW127950   4.627   1.069   3.955
 9017SOL    HW227951   4.507   0.962   3.984
 9018SOL     OW27952   2.361   3.642   5.624
 9018SOL    HW127953   2.406   3.557   5.596
 9018SOL    HW227954   2.298   3.671   5.552
 9019SOL     OW27955   1.020   4.804   2.711
 9019SOL    HW127956   1.065   4.753   2.637
 9019SOL    HW227957   0.978   4.740   2.774
 9020SOL     OW27958   6.959   4.421   0.900
 9020SOL    HW127959   0.002   4.496   0.892
 9020SOL    HW227960   6.908   4.430   0.986
 9021SOL     OW27961   6.162   1.038   2.993
 9021SOL    HW127962   6.209   0.971   2.935
 9021SOL    HW227963   6.097   0.991   3.053
 9022SOL     OW27964   3.390   1.536   6.911
 9022SOL    HW127965   3.352   1.454   6.868
 9022SOL    HW227966   3.327   1.569   6.981
 9023SOL     OW27967   4.034   3.663   1.609
 9023SOL    HW127968   4.043   3.605   1.690
 9023SOL    HW227969   4.125   3.692   1.580
 9024SOL     OW27970   1.262   4.520   5.190
 9024SOL    HW127971   1.306   4.498   5.277
 9024SOL    HW227972   1.256   4.619   5.179
 9025SOL     OW27973   0.023   5.639   0.634
 9025SOL    HW127974   7.022   5.681   0.722
 9025SOL    HW227975   6.987   5.561   0.617
 9026SOL     OW27976   3.555   2.210   0.895
 9026SOL    HW127977   3.478   2.148   0.884
 9026SOL    HW227978   3.636   2.170   0.852
 9027SOL     OW27979   0.612   3.126   3.041
 9027SOL    HW127980   0.625   3.061   3.116
 9027SOL    HW227981   0.518   3.121   3.008
 9028SOL     OW27982   3.670   3.221   5.160
 9028SOL    HW127983   3.641   3.125   5.166
 9028SOL    HW227984   3.764   3.230   5.193
 9029SOL     OW27985   3.863   6.924   4.823
 9029SOL    HW127986   3.784   6.876   4.861
 9029SOL    HW227987   3.947   6.876   4.850
 9030SOL     OW27988   2.319   1.850   4.065
 9030SOL    HW127989   2.395   1.907   4.033
 9030SOL    HW227990   2.314   1.853   4.164
 9031SOL     OW27991   4.231   6.888   4.405
 9031SOL    HW127992   4.215   6.905   4.308
 9031SOL    HW227993   4.144   6.876   4.453
 9032SOL     OW27994   4.875   4.014   1.041
 9032SOL    HW127995   4.808   4.072   1.087
 9032SOL    HW227996   4.826   3.943   0.990
 9033SOL     OW27997   0.589   4.882   2.363
 9033SOL    HW127998   0.666   4.891   2.427
 9033SOL    HW227999   0.598   4.797   2.311
 9034SOL     OW28000   3.500   5.994   4.562
 9034SOL    HW128001   3.423   5.950   4.515
 9034SOL    HW228002   3.522   6.080   4.516
 9035SOL     OW28003   2.126   5.780   0.169
 9035SOL    HW128004   2.078   5.779   0.082
 9035SOL    HW228005   2.221   5.806   0.154
 9036SOL     OW28006   1.787   3.970   5.568
 9036SOL    HW128007   1.875   3.999   5.605
 9036SOL    HW228008   1.730   4.051   5.551
 9037SOL     OW28009   1.188   3.080   3.896
 9037SOL    HW128010   1.126   3.003   3.885
 9037SOL    HW228011   1.187   3.110   3.991
 9038SOL     OW28012   4.777   2.936   6.864
 9038SOL    HW128013   4.781   3.017   6.806
 9038SOL    HW228014   4.783   2.854   6.807
 9039SOL     OW28015   3.037   4.806   6.350
 9039SOL    HW128016   3.041   4.886   6.411
 9039SOL    HW228017   2.944   4.796   6.314
 9040SOL     OW28018   2.694   2.297   2.240
 9040SOL    HW128019   2.762   2.341   2.181
 9040SOL    HW228020   2.739   2.263   2.323
 9041SOL     OW28021   1.456   2.309   1.070
 9041SOL    HW128022   1.549   2.276   1.090
 9041SOL    HW228023   1.456   2.356   0.982
 9042SOL     OW28024   3.749   0.095   4.335
 9042SOL    HW128025   3.717   0.134   4.422
 9042SOL    HW228026   3.731   0.159   4.261
 9043SOL     OW28027   2.453   1.633   6.209
 9043SOL    HW128028   2.413   1.600   6.295
 9043SOL    HW228029   2.539   1.585   6.193
 9044SOL     OW28030   0.137   1.186   6.920
 9044SOL    HW128031   0.123   1.174   7.019
 9044SOL    HW228032   0.126   1.098   6.875
 9045SOL     OW28033   3.453   0.501   2.835
 9045SOL    HW128034   3.480   0.415   2.879
 9045SOL    HW228035   3.379   0.544   2.888
 9046SOL     OW28036   4.005   3.770   2.627
 9046SOL    HW128037   4.085   3.711   2.642
 9046SOL    HW228038   3.981   3.815   2.713
 9047SOL     OW28039   0.942   3.683   4.796
 9047SOL    HW128040   0.946   3.699   4.697
 9047SOL    HW228041   1.025   3.718   4.839
 9048SOL     OW28042   6.295   2.472   6.279
 9048SOL    HW128043   6.352   2.463   6.360
 9048SOL    HW228044   6.314   2.561   6.236
 9049SOL     OW28045   4.253   6.476   5.647
 9049SOL    HW128046   4.227   6.440   5.736
 9049SOL    HW228047   4.193   6.553   5.624
 9050SOL     OW28048   0.418   3.154   1.179
 9050SOL    HW128049   0.340   3.116   1.229
 9050SOL    HW228050   0.411   3.129   1.082
 9051SOL     OW28051   2.371   0.328   1.941
 9051SOL    HW128052   2.299   0.270   1.903
 9051SOL    HW228053   2.337   0.375   2.022
 9052SOL     OW28054   2.004   3.180   4.069
 9052SOL    HW128055   1.998   3.091   4.023
 9052SOL    HW228056   1.917   3.201   4.113
 9053SOL     OW28057   1.625   1.454   0.922
 9053SOL    HW128058   1.673   1.390   0.862
 9053SOL    HW228059   1.617   1.415   1.013
 9054SOL     OW28060   1.994   6.003   4.918
 9054SOL    HW128061   1.926   5.942   4.959
 9054SOL    HW228062   2.074   6.009   4.977
 9055SOL     OW28063   6.324   2.998   4.445
 9055SOL    HW128064   6.289   2.911   4.478
 9055SOL    HW228065   6.328   2.997   4.345
 9056SOL     OW28066   6.688   1.787   1.974
 9056SOL    HW128067   6.753   1.858   2.000
 9056SOL    HW228068   6.599   1.806   2.015
 9057SOL     OW28069   4.664   2.320   4.896
 9057SOL    HW128070   4.587   2.375   4.927
 9057SOL    HW228071   4.660   2.309   4.797
 9058SOL     OW28072   1.284   0.689   1.100
 9058SOL    HW128073   1.257   0.643   1.184
 9058SOL    HW228074   1.205   0.738   1.062
 9059SOL     OW28075   1.048   2.162   3.018
 9059SOL    HW128076   1.012   2.231   2.955
 9059SOL    HW228077   0.973   2.103   3.049
 9060SOL     OW28078   5.751   2.703   4.458
 9060SOL    HW128079   5.814   2.630   4.432
 9060SOL    HW228080   5.699   2.733   4.378
 9061SOL     OW28081   3.153   5.353   2.502
 9061SOL    HW128082   3.238   5.320   2.544
 9061SOL    HW228083   3.166   5.362   2.403
 9062SOL     OW28084   1.292   5.823   1.698
 9062SOL    HW128085   1.274   5.856   1.606
 9062SOL    HW228086   1.268   5.894   1.764
 9063SOL     OW28087   2.849   0.585   3.384
 9063SOL    HW128088   2.750   0.583   3.389
 9063SOL    HW228089   2.881   0.679   3.395
 9064SOL     OW28090   6.633   3.811   6.413
 9064SOL    HW128091   6.565   3.836   6.344
 9064SOL    HW228092   6.625   3.714   6.433
 9065SOL     OW28093   3.582   0.112   0.535
 9065SOL    HW128094   3.560   0.044   0.605
 9065SOL    HW228095   3.512   0.184   0.537
 9066SOL     OW28096   5.226   0.085   0.601
 9066SOL    HW128097   5.150   0.026   0.626
 9066SOL    HW228098   5.193   0.179   0.592
 9067SOL     OW28099   1.587   0.266   3.511
 9067SOL    HW128100   1.600   0.173   3.476
 9067SOL    HW228101   1.665   0.323   3.484
 9068SOL     OW28102   0.799   0.107   4.678
 9068SOL    HW128103   0.857   0.029   4.702
 9068SOL    HW228104   0.745   0.085   4.597
 9069SOL     OW28105   1.346   3.007   6.769
 9069SOL    HW128106   1.313   3.092   6.810
 9069SOL    HW228107   1.275   2.969   6.710
 9070SOL     OW28108   2.225   4.091   4.697
 9070SOL    HW128109   2.152   4.024   4.686
 9070SOL    HW228110   2.280   4.068   4.777
 9071SOL     OW28111   6.469   6.001   1.030
 9071SOL    HW128112   6.403   6.074   1.052
 9071SOL    HW228113   6.441   5.956   0.946
 9072SOL     OW28114   6.653   3.516   1.136
 9072SOL    HW128115   6.734   3.461   1.157
 9072SOL    HW228116   6.647   3.531   1.038
 9073SOL     OW28117   1.740   6.941   1.680
 9073SOL    HW128118   1.782   6.885   1.609
 9073SOL    HW228119   1.788   6.926   1.767
 9074SOL     OW28120   1.661   0.816   2.522
 9074SOL    HW128121   1.721   0.879   2.473
 9074SOL    HW228122   1.575   0.806   2.471
 9075SOL     OW28123   6.502   0.730   2.056
 9075SOL    HW128124   6.553   0.723   2.142
 9075SOL    HW228125   6.405   0.745   2.076
 9076SOL     OW28126   0.670   1.052   6.348
 9076SOL    HW128127   0.612   0.978   6.384
 9076SOL    HW228128   0.664   1.053   6.249
 9077SOL     OW28129   4.058   6.454   2.061
 9077SOL    HW128130   4.013   6.510   2.131
 9077SOL    HW228131   4.081   6.512   1.982
 9078SOL     OW28132   4.047   3.352   5.050
 9078SOL    HW128133   3.988   3.283   5.092
 9078SOL    HW228134   4.088   3.315   4.967
 9079SOL     OW28135   2.998   0.520   4.371
 9079SOL    HW128136   3.062   0.491   4.300
 9079SOL    HW228137   2.916   0.558   4.328
 9080SOL     OW28138   5.202   2.592   6.831
 9080SOL    HW128139   5.242   2.574   6.921
 9080SOL    HW228140   5.160   2.508   6.796
 9081SOL     OW28141   5.397   6.164   2.815
 9081SOL    HW128142   5.386   6.263   2.798
 9081SOL    HW228143   5.458   6.150   2.892
 9082SOL     OW28144   1.979   0.266   3.528
 9082SOL    HW128145   2.044   0.196   3.555
 9082SOL    HW228146   1.997   0.350   3.579
 9083SOL     OW28147   4.696   4.717   5.576
 9083SOL    HW128148   4.619   4.678   5.628
 9083SOL    HW228149   4.724   4.653   5.504
 9084SOL     OW28150   3.652   3.589   2.814
 9084SOL    HW128151   3.743   3.586   2.855
 9084SOL    HW228152   3.592   3.523   2.860
 9085SOL     OW28153   2.391   1.106   0.823
 9085SOL    HW128154   2.428   1.017   0.795
 9085SOL    HW228155   2.388   1.167   0.744
 9086SOL     OW28156   0.697   4.110   0.453
 9086SOL    HW128157   0.741   4.181   0.400
 9086SOL    HW228158   0.599   4.130   0.461
 9087SOL     OW28159   5.146   2.914   2.602
 9087SOL    HW128160   5.104   2.879   2.519
 9087SOL    HW228161   5.183   3.005   2.586
 9088SOL     OW28162   6.340   0.355   0.297
 9088SOL    HW128163   6.285   0.314   0.370
 9088SOL    HW228164   6.425   0.303   0.287
 9089SOL     OW28165   4.984   6.315   5.965
 9089SOL    HW128166   4.987   6.412   5.939
 9089SOL    HW228167   5.077   6.282   5.982
 9090SOL     OW28168   6.217   0.663   4.847
 9090SOL    HW128169   6.127   0.706   4.855
 9090SOL    HW228170   6.237   0.612   4.931
 9091SOL     OW28171   3.105   3.968   6.912
 9091SOL    HW128172   3.018   3.924   6.891
 9091SOL    HW228173   3.089   4.047   6.971
 9092SOL     OW28174   6.694   1.598   6.908
 9092SOL    HW128175   6.731   1.613   6.999
 9092SOL    HW228176   6.755   1.639   6.840
 9093SOL     OW28177   1.558   6.267   5.359
 9093SOL    HW128178   1.550   6.189   5.298
 9093SOL    HW228179   1.483   6.331   5.342
 9094SOL     OW28180   0.552   3.269   2.709
 9094SOL    HW128181   0.543   3.308   2.617
 9094SOL    HW228182   0.463   3.236   2.739
 9095SOL     OW28183   4.646   5.051   5.651
 9095SOL    HW128184   4.678   4.957   5.659
 9095SOL    HW228185   4.724   5.113   5.648
 9096SOL     OW28186   6.817   4.959   3.327
 9096SOL    HW128187   6.897   5.014   3.306
 9096SOL    HW228188   6.838   4.862   3.316
 9097SOL     OW28189   0.746   2.659   6.323
 9097SOL    HW128190   0.843   2.658   6.296
 9097SOL    HW228191   0.739   2.637   6.420
 9098SOL     OW28192   2.210   2.371   5.074
 9098SOL    HW128193   2.225   2.272   5.080
 9098SOL    HW228194   2.257   2.416   5.149
 9099SOL     OW28195   2.434   2.986   5.904
 9099SOL    HW128196   2.532   2.969   5.894
 9099SOL    HW228197   2.385   2.898   5.905
 9100SOL     OW28198   1.394   4.210   2.478
 9100SOL    HW128199   1.334   4.131   2.471
 9100SOL    HW228200   1.357   4.274   2.546
 9101SOL     OW28201   3.057   1.358   2.139
 9101SOL    HW128202   3.086   1.269   2.102
 9101SOL    HW228203   2.967   1.349   2.181
 9102SOL     OW28204   4.731   6.449   2.614
 9102SOL    HW128205   4.632   6.430   2.617
 9102SOL    HW228206   4.764   6.437   2.520
 9103SOL     OW28207   6.090   1.855   6.706
 9103SOL    HW128208   5.993   1.878   6.702
 9103SOL    HW228209   6.142   1.921   6.653
 9104SOL     OW28210   0.260   0.866   0.764
 9104SOL    HW128211   0.340   0.923   0.780
 9104SOL    HW228212   0.259   0.789   0.829
 9105SOL     OW28213   2.100   0.059   5.498
 9105SOL    HW128214   2.118   0.156   5.485
 9105SOL    HW228215   2.017   0.033   5.449
 9106SOL     OW28216   0.829   4.253   0.076
 9106SOL    HW128217   0.867   4.236   7.008
 9106SOL    HW228218   0.859   4.343   0.108
 9107SOL     OW28219   2.562   0.836   6.312
 9107SOL    HW128220   2.557   0.859   6.215
 9107SOL    HW228221   2.469   0.831   6.349
 9108SOL     OW28222   5.199   5.253   5.342
 9108SOL    HW128223   5.274   5.190   5.320
 9108SOL    HW228224   5.237   5.341   5.372
 9109SOL     OW28225   5.503   3.104   2.120
 9109SOL    HW128226   5.535   3.123   2.027
 9109SOL    HW228227   5.512   3.006   2.137
 9110SOL     OW28228   1.414   5.629   5.491
 9110SOL    HW128229   1.470   5.711   5.493
 9110SOL    HW228230   1.467   5.553   5.454
 9111SOL     OW28231   4.798   2.996   5.650
 9111SOL    HW128232   4.821   3.035   5.560
 9111SOL    HW228233   4.869   2.931   5.677
 9112SOL     OW28234   1.863   5.250   2.886
 9112SOL    HW128235   1.840   5.220   2.794
 9112SOL    HW228236   1.799   5.210   2.952
 9113SOL     OW28237   5.302   2.077   3.126
 9113SOL    HW128238   5.294   1.987   3.084
 9113SOL    HW228239   5.248   2.143   3.074
 9114SOL     OW28240   1.572   6.167   4.914
 9114SOL    HW128241   1.593   6.112   4.995
 9114SOL    HW228242   1.473   6.183   4.909
 9115SOL     OW28243   5.533   4.975   3.446
 9115SOL    HW128244   5.513   5.030   3.527
 9115SOL    HW228245   5.623   5.000   3.410
 9116SOL     OW28246   0.658   6.519   3.425
 9116SOL    HW128247   0.714   6.601   3.434
 9116SOL    HW228248   0.682   6.454   3.497
 9117SOL     OW28249   4.158   1.056   0.052
 9117SOL    HW128250   4.095   1.108   7.017
 9117SOL    HW228251   4.107   1.009   0.123
 9118SOL     OW28252   6.150   3.889   0.468
 9118SOL    HW128253   6.188   3.849   0.385
 9118SOL    HW228254   6.050   3.891   0.461
 9119SOL     OW28255   3.849   6.070   1.233
 9119SOL    HW128256   3.807   5.989   1.275
 9119SOL    HW228257   3.823   6.152   1.285
 9120SOL     OW28258   6.601   2.618   5.726
 9120SOL    HW128259   6.557   2.679   5.661
 9120SOL    HW228260   6.532   2.568   5.778
 9121SOL     OW28261   3.888   0.145   5.805
 9121SOL    HW128262   3.822   0.116   5.874
 9121SOL    HW228263   3.870   0.097   5.719
 9122SOL     OW28264   2.390   4.361   1.831
 9122SOL    HW128265   2.465   4.403   1.779
 9122SOL    HW228266   2.310   4.351   1.772
 9123SOL     OW28267   1.382   0.772   3.308
 9123SOL    HW128268   1.401   0.833   3.385
 9123SOL    HW228269   1.422   0.682   3.325
 9124SOL     OW28270   3.493   5.194   1.366
 9124SOL    HW128271   3.545   5.150   1.440
 9124SOL    HW228272   3.479   5.129   1.291
 9125SOL     OW28273   3.385   6.575   0.216
 9125SOL    HW128274   3.394   6.665   0.174
 9125SOL    HW228275   3.328   6.517   0.159
 9126SOL     OW28276   4.202   5.031   0.541
 9126SOL    HW128277   4.132   5.085   0.587
 9126SOL    HW228278   4.255   4.980   0.609
 9127SOL     OW28279   6.825   3.441   5.197
 9127SOL    HW128280   6.920   3.431   5.225
 9127SOL    HW228281   6.815   3.416   5.101
 9128SOL     OW28282   5.977   3.002   4.793
 9128SOL    HW128283   5.918   2.924   4.817
 9128SOL    HW228284   5.977   3.014   4.694
 9129SOL     OW28285   2.271   1.737   0.636
 9129SOL    HW128286   2.179   1.738   0.597
 9129SOL    HW228287   2.309   1.830   0.634
 9130SOL     OW28288   2.998   4.335   5.534
 9130SOL    HW128289   2.951   4.255   5.496
 9130SOL    HW228290   3.023   4.397   5.460
 9131SOL     OW28291   5.916   3.059   0.682
 9131SOL    HW128292   5.993   2.995   0.675
 9131SOL    HW228293   5.878   3.056   0.774
 9132SOL     OW28294   0.986   3.996   3.382
 9132SOL    HW128295   0.918   3.980   3.453
 9132SOL    HW228296   1.050   3.919   3.380
 9133SOL     OW28297   4.272   0.659   1.067
 9133SOL    HW128298   4.273   0.667   1.166
 9133SOL    HW228299   4.303   0.745   1.026
 9134SOL     OW28300   4.670   5.470   1.063
 9134SOL    HW128301   4.719   5.555   1.084
 9134SOL    HW228302   4.614   5.443   1.141
 9135SOL     OW28303   0.974   6.091   1.944
 9135SOL    HW128304   0.918   6.151   2.001
 9135SOL    HW228305   0.919   6.011   1.916
 9136SOL     OW28306   5.595   4.664   6.420
 9136SOL    HW128307   5.587   4.748   6.473
 9136SOL    HW228308   5.540   4.592   6.463
 9137SOL     OW28309   4.148   6.004   6.903
 9137SOL    HW128310   4.220   5.936   6.891
 9137SOL    HW228311   4.125   6.011   7.000
 9138SOL     OW28312   3.199   2.805   0.602
 9138SOL    HW128313   3.252   2.826   0.520
 9138SOL    HW228314   3.164   2.712   0.596
 9139SOL     OW28315   0.033   0.273   1.260
 9139SOL    HW128316   6.976   0.329   1.279
 9139SOL    HW228317   0.010   0.176   1.273
 9140SOL     OW28318   0.802   4.418   2.493
 9140SOL    HW128319   0.730   4.428   2.563
 9140SOL    HW228320   0.759   4.395   2.405
 9141SOL     OW28321   6.694   5.322   6.271
 9141SOL    HW128322   6.778   5.363   6.237
 9141SOL    HW228323   6.688   5.334   6.370
 9142SOL     OW28324   1.310   3.711   2.677
 9142SOL    HW128325   1.400   3.739   2.643
 9142SOL    HW228326   1.253   3.792   2.690
 9143SOL     OW28327   0.299   3.412   3.056
 9143SOL    HW128328   0.257   3.474   2.990
 9143SOL    HW228329   0.348   3.464   3.125
 9144SOL     OW28330   2.759   5.123   5.266
 9144SOL    HW128331   2.798   5.079   5.185
 9144SOL    HW228332   2.712   5.055   5.322
 9145SOL     OW28333   1.334   6.727   6.435
 9145SOL    HW128334   1.405   6.762   6.496
 9145SOL    HW228335   1.300   6.640   6.470
 9146SOL     OW28336   5.652   3.665   3.517
 9146SOL    HW128337   5.670   3.594   3.585
 9146SOL    HW228338   5.600   3.740   3.560
 9147SOL     OW28339   5.240   0.284   4.142
 9147SOL    HW128340   5.229   0.365   4.200
 9147SOL    HW228341   5.222   0.310   4.046
 9148SOL     OW28342   6.417   0.027   1.630
 9148SOL    HW128343   6.334   0.035   1.685
 9148SOL    HW228344   6.497   0.029   1.690
 9149SOL     OW28345   6.104   4.391   1.453
 9149SOL    HW128346   6.088   4.344   1.366
 9149SOL    HW228347   6.161   4.333   1.512
 9150SOL     OW28348   3.062   3.706   0.139
 9150SOL    HW128349   2.990   3.728   0.204
 9150SOL    HW228350   3.031   3.727   0.046
 9151SOL     OW28351   1.699   3.461   3.693
 9151SOL    HW128352   1.605   3.494   3.701
 9151SOL    HW228353   1.731   3.471   3.599
 9152SOL     OW28354   1.845   3.939   3.842
 9152SOL    HW128355   1.932   3.980   3.867
 9152SOL    HW228356   1.848   3.840   3.860
 9153SOL     OW28357   0.137   3.068   6.769
 9153SOL    HW128358   0.162   2.974   6.791
 9153SOL    HW228359   0.052   3.069   6.717
 9154SOL     OW28360   6.170   4.924   3.117
 9154SOL    HW128361   6.206   4.877   3.198
 9154SOL    HW228362   6.202   4.877   3.034
 9155SOL     OW28363   0.582   5.593   2.739
 9155SOL    HW128364   0.535   5.612   2.825
 9155SOL    HW228365   0.654   5.526   2.753
 9156SOL     OW28366   6.753   4.177   6.980
 9156SOL    HW128367   6.741   4.137   0.048
 9156SOL    HW228368   6.841   4.148   6.942
 9157SOL     OW28369   3.100   4.682   6.043
 9157SOL    HW128370   3.126   4.661   5.948
 9157SOL    HW228371   3.137   4.612   6.104
 9158SOL     OW28372   0.194   3.626   3.825
 9158SOL    HW128373   0.189   3.578   3.738
 9158SOL    HW228374   0.175   3.562   3.900
 9159SOL     OW28375   3.466   0.885   3.108
 9159SOL    HW128376   3.437   0.907   3.201
 9159SOL    HW228377   3.563   0.865   3.107
 9160SOL     OW28378   0.296   4.558   6.580
 9160SOL    HW128379   0.317   4.618   6.503
 9160SOL    HW228380   0.342   4.591   6.662
 9161SOL     OW28381   6.031   3.636   1.736
 9161SOL    HW128382   6.117   3.687   1.729
 9161SOL    HW228383   5.954   3.700   1.732
 9162SOL     OW28384   4.956   2.053   2.222
 9162SOL    HW128385   4.901   1.974   2.196
 9162SOL    HW228386   4.955   2.120   2.148
 9163SOL     OW28387   1.362   2.236   2.987
 9163SOL    HW128388   1.365   2.152   2.932
 9163SOL    HW228389   1.277   2.285   2.968
 9164SOL     OW28390   2.538   0.603   6.593
 9164SOL    HW128391   2.472   0.543   6.549
 9164SOL    HW228392   2.502   0.696   6.596
 9165SOL     OW28393   5.303   2.802   5.535
 9165SOL    HW128394   5.361   2.753   5.599
 9165SOL    HW228395   5.303   2.900   5.557
 9166SOL     OW28396   5.068   5.384   1.681
 9166SOL    HW128397   5.038   5.313   1.746
 9166SOL    HW228398   4.999   5.395   1.610
 9167SOL     OW28399   1.402   0.694   5.526
 9167SOL    HW128400   1.500   0.709   5.536
 9167SOL    HW228401   1.376   0.609   5.572
 9168SOL     OW28402   6.819   6.128   4.578
 9168SOL    HW128403   6.786   6.034   4.583
 9168SOL    HW228404   6.761   6.181   4.515
 9169SOL     OW28405   6.280   6.429   0.721
 9169SOL    HW128406   6.248   6.346   0.676
 9169SOL    HW228407   6.220   6.451   0.798
 9170SOL     OW28408   1.625   1.339   5.897
 9170SOL    HW128409   1.527   1.344   5.916
 9170SOL    HW228410   1.667   1.426   5.922
 9171SOL     OW28411   3.218   4.865   0.725
 9171SOL    HW128412   3.317   4.879   0.722
 9171SOL    HW228413   3.186   4.834   0.636
 9172SOL     OW28414   5.111   1.559   4.209
 9172SOL    HW128415   5.191   1.515   4.166
 9172SOL    HW228416   5.136   1.651   4.239
 9173SOL     OW28417   6.167   2.786   4.280
 9173SOL    HW128418   6.113   2.755   4.359
 9173SOL    HW228419   6.234   2.715   4.257
 9174SOL     OW28420   0.254   5.527   0.084
 9174SOL    HW128421   0.183   5.590   0.053
 9174SOL    HW228422   0.314   5.575   0.149
 9175SOL     OW28423   1.521   0.184   6.509
 9175SOL    HW128424   1.431   0.216   6.538
 9175SOL    HW228425   1.533   0.088   6.533
 9176SOL     OW28426   1.284   1.793   2.284
 9176SOL    HW128427   1.226   1.858   2.333
 9176SOL    HW228428   1.248   1.701   2.294
 9177SOL     OW28429   0.222   4.358   3.818
 9177SOL    HW128430   0.123   4.368   3.807
 9177SOL    HW228431   0.247   4.262   3.809
 9178SOL     OW28432   1.443   6.511   0.577
 9178SOL    HW128433   1.354   6.554   0.561
 9178SOL    HW228434   1.513   6.558   0.524
 9179SOL     OW28435   4.166   6.291   5.059
 9179SOL    HW128436   4.241   6.287   5.124
 9179SOL    HW228437   4.185   6.230   4.982
 9180SOL     OW28438   0.302   1.493   4.097
 9180SOL    HW128439   0.375   1.466   4.159
 9180SOL    HW228440   0.237   1.418   4.088
 9181SOL     OW28441   3.717   1.947   3.719
 9181SOL    HW128442   3.654   1.964   3.795
 9181SOL    HW228443   3.791   1.887   3.750
 9182SOL     OW28444   1.664   1.181   3.104
 9182SOL    HW128445   1.648   1.279   3.090
 9182SOL    HW228446   1.761   1.160   3.092
 9183SOL     OW28447   6.126   2.785   5.907
 9183SOL    HW128448   6.068   2.866   5.900
 9183SOL    HW228449   6.078   2.705   5.870
 9184SOL     OW28450   3.807   3.198   1.389
 9184SOL    HW128451   3.776   3.282   1.434
 9184SOL    HW228452   3.772   3.196   1.295
 9185SOL     OW28453   0.786   0.256   6.278
 9185SOL    HW128454   0.756   0.165   6.306
 9185SOL    HW228455   0.865   0.248   6.217
 9186SOL     OW28456   5.472   0.435   6.008
 9186SOL    HW128457   5.473   0.526   6.048
 9186SOL    HW228458   5.390   0.423   5.952
 9187SOL     OW28459   5.131   1.648   0.396
 9187SOL    HW128460   5.119   1.743   0.367
 9187SOL    HW228461   5.065   1.627   0.467
 9188SOL     OW28462   0.774   0.214   2.161
 9188SOL    HW128463   0.870   0.237   2.148
 9188SOL    HW228464   0.723   0.234   2.078
 9189SOL     OW28465   3.431   1.681   3.725
 9189SOL    HW128466   3.492   1.646   3.796
 9189SOL    HW228467   3.365   1.744   3.766
 9190SOL     OW28468   5.820   3.948   5.290
 9190SOL    HW128469   5.747   4.016   5.299
 9190SOL    HW228470   5.817   3.884   5.366
 9191SOL     OW28471   5.234   6.227   6.663
 9191SOL    HW128472   5.267   6.299   6.724
 9191SOL    HW228473   5.305   6.158   6.652
 9192SOL     OW28474   6.667   4.387   5.373
 9192SOL    HW128475   6.649   4.480   5.404
 9192SOL    HW228476   6.758   4.382   5.333
 9193SOL     OW28477   3.562   2.917   3.620
 9193SOL    HW128478   3.593   3.011   3.631
 9193SOL    HW228479   3.504   2.891   3.697
 9194SOL     OW28480   3.106   5.174   2.959
 9194SOL    HW128481   3.109   5.081   2.997
 9194SOL    HW228482   3.167   5.233   3.013
 9195SOL     OW28483   0.348   3.144   3.049
 9195SOL    HW128484   0.304   3.233   3.056
 9195SOL    HW228485   0.287   3.074   3.084
 9196SOL     OW28486   4.811   0.270   3.534
 9196SOL    HW128487   4.877   0.226   3.595
 9196SOL    HW228488   4.807   0.367   3.555
 9197SOL     OW28489   3.520   3.095   6.266
 9197SOL    HW128490   3.591   3.090   6.336
 9197SOL    HW228491   3.447   3.029   6.287
 9198SOL     OW28492   5.790   3.061   5.502
 9198SOL    HW128493   5.785   2.963   5.520
 9198SOL    HW228494   5.799   3.076   5.404
 9199SOL     OW28495   1.275   4.082   6.561
 9199SOL    HW128496   1.352   4.025   6.531
 9199SOL    HW228497   1.227   4.036   6.635
 9200SOL     OW28498   6.356   0.245   0.646
 9200SOL    HW128499   6.371   0.187   0.726
 9200SOL    HW228500   6.428   0.314   0.642
 9201SOL     OW28501   0.427   3.954   2.394
 9201SOL    HW128502   0.432   3.870   2.339
 9201SOL    HW228503   0.495   3.951   2.467
 9202SOL     OW28504   3.007   5.458   4.224
 9202SOL    HW128505   3.098   5.439   4.261
 9202SOL    HW228506   2.941   5.396   4.264
 9203SOL     OW28507   5.154   1.056   5.392
 9203SOL    HW128508   5.068   1.100   5.418
 9203SOL    HW228509   5.176   0.985   5.459
 9204SOL     OW28510   5.096   4.050   3.076
 9204SOL    HW128511   5.070   4.079   2.983
 9204SOL    HW228512   5.025   3.990   3.113
 9205SOL     OW28513   5.288   2.426   2.414
 9205SOL    HW128514   5.311   2.374   2.332
 9205SOL    HW228515   5.191   2.415   2.434
 9206SOL     OW28516   0.777   6.323   3.581
 9206SOL    HW128517   0.771   6.236   3.630
 9206SOL    HW228518   0.835   6.310   3.500
 9207SOL     OW28519   4.100   6.369   0.418
 9207SOL    HW128520   4.184   6.329   0.382
 9207SOL    HW228521   4.102   6.468   0.406
 9208SOL     OW28522   5.302   3.429   2.094
 9208SOL    HW128523   5.362   3.455   2.019
 9208SOL    HW228524   5.213   3.475   2.084
 9209SOL     OW28525   4.174   1.100   2.316
 9209SOL    HW128526   4.223   1.180   2.348
 9209SOL    HW228527   4.087   1.128   2.274
 9210SOL     OW28528   1.475   7.004   1.254
 9210SOL    HW128529   1.526   0.057   1.215
 9210SOL    HW228530   1.456   7.023   1.351
 9211SOL     OW28531   5.110   1.740   6.444
 9211SOL    HW128532   5.196   1.787   6.465
 9211SOL    HW228533   5.051   1.741   6.525
 9212SOL     OW28534   5.559   3.805   4.414
 9212SOL    HW128535   5.476   3.828   4.363
 9212SOL    HW228536   5.546   3.717   4.460
 9213SOL     OW28537   5.891   6.820   3.477
 9213SOL    HW128538   5.890   6.920   3.470
 9213SOL    HW228539   5.870   6.794   3.571
 9214SOL     OW28540   2.587   2.091   4.611
 9214SOL    HW128541   2.649   2.168   4.623
 9214SOL    HW228542   2.493   2.123   4.614
 9215SOL     OW28543   0.466   3.763   2.951
 9215SOL    HW128544   0.418   3.784   2.866
 9215SOL    HW228545   0.564   3.779   2.939
 9216SOL     OW28546   1.945   5.715   4.979
 9216SOL    HW128547   2.031   5.737   4.934
 9216SOL    HW228548   1.909   5.629   4.941
 9217SOL     OW28549   4.423   1.112   6.254
 9217SOL    HW128550   4.510   1.123   6.302
 9217SOL    HW228551   4.407   1.192   6.196
 9218SOL     OW28552   6.174   5.736   5.982
 9218SOL    HW128553   6.103   5.805   5.965
 9218SOL    HW228554   6.260   5.766   5.941
 9219SOL     OW28555   3.633   2.928   5.249
 9219SOL    HW128556   3.540   2.953   5.223
 9219SOL    HW228557   3.632   2.842   5.300
 9220SOL     OW28558   1.732   6.010   3.293
 9220SOL    HW128559   1.773   6.095   3.258
 9220SOL    HW228560   1.693   6.028   3.384
 9221SOL     OW28561   2.488   1.091   6.501
 9221SOL    HW128562   2.541   1.136   6.573
 9221SOL    HW228563   2.494   1.144   6.416
 9222SOL     OW28564   1.309   3.601   3.129
 9222SOL    HW128565   1.364   3.683   3.112
 9222SOL    HW228566   1.369   3.527   3.160
 9223SOL     OW28567   0.867   3.900   4.335
 9223SOL    HW128568   0.821   3.824   4.380
 9223SOL    HW228569   0.966   3.892   4.348
 9224SOL     OW28570   2.071   4.038   3.928
 9224SOL    HW128571   2.020   4.096   3.991
 9224SOL    HW228572   2.119   3.967   3.980
 9225SOL     OW28573   4.640   0.010   6.970
 9225SOL    HW128574   4.605   7.002   0.035
 9225SOL    HW228575   4.567   0.006   6.901
 9226SOL     OW28576   0.676   1.099   0.638
 9226SOL    HW128577   0.762   1.052   0.659
 9226SOL    HW228578   0.635   1.060   0.556
 9227SOL     OW28579   2.459   5.319   0.500
 9227SOL    HW128580   2.534   5.386   0.503
 9227SOL    HW228581   2.441   5.293   0.405
 9228SOL     OW28582   3.121   2.978   5.811
 9228SOL    HW128583   3.069   3.037   5.873
 9228SOL    HW228584   3.173   2.911   5.864
 9229SOL     OW28585   6.961   4.588   6.799
 9229SOL    HW128586   6.891   4.567   6.731
 9229SOL    HW228587   7.003   4.677   6.779
 9230SOL     OW28588   4.571   1.609   4.353
 9230SOL    HW128589   4.538   1.701   4.378
 9230SOL    HW228590   4.665   1.598   4.383
 9231SOL     OW28591   0.333   5.389   4.436
 9231SOL    HW128592   0.282   5.436   4.363
 9231SOL    HW228593   0.381   5.457   4.491
 9232SOL     OW28594   1.374   5.415   1.661
 9232SOL    HW128595   1.355   5.438   1.565
 9232SOL    HW228596   1.399   5.498   1.711
 9233SOL     OW28597   1.022   0.232   0.174
 9233SOL    HW128598   1.030   0.321   0.130
 9233SOL    HW228599   0.989   0.245   0.268
 9234SOL     OW28600   2.257   4.633   0.745
 9234SOL    HW128601   2.290   4.604   0.835
 9234SOL    HW228602   2.158   4.623   0.741
 9235SOL     OW28603   2.648   2.414   4.315
 9235SOL    HW128604   2.592   2.480   4.364
 9235SOL    HW228605   2.602   2.387   4.230
 9236SOL     OW28606   2.296   3.760   6.332
 9236SOL    HW128607   2.377   3.804   6.295
 9236SOL    HW228608   2.320   3.671   6.371
 9237SOL     OW28609   6.326   5.293   3.485
 9237SOL    HW128610   6.378   5.224   3.536
 9237SOL    HW228611   6.368   5.383   3.499
 9238SOL     OW28612   1.788   3.320   5.421
 9238SOL    HW128613   1.871   3.370   5.446
 9238SOL    HW228614   1.813   3.228   5.390
 9239SOL     OW28615   0.754   4.919   0.161
 9239SOL    HW128616   0.695   4.846   0.128
 9239SOL    HW228617   0.706   4.971   0.231
 9240SOL     OW28618   4.712   2.386   2.676
 9240SOL    HW128619   4.802   2.421   2.650
 9240SOL    HW228620   4.706   2.378   2.776
 9241SOL     OW28621   5.628   6.802   1.079
 9241SOL    HW128622   5.634   6.861   1.160
 9241SOL    HW228623   5.630   6.706   1.108
 9242SOL     OW28624   1.214   2.191   1.218
 9242SOL    HW128625   1.264   2.231   1.141
 9242SOL    HW228626   1.206   2.092   1.204
 9243SOL     OW28627   1.262   0.545   0.486
 9243SOL    HW128628   1.256   0.642   0.461
 9243SOL    HW228629   1.194   0.524   0.556
 9244SOL     OW28630   4.489   6.548   4.959
 9244SOL    HW128631   4.415   6.552   4.891
 9244SOL    HW228632   4.556   6.480   4.930
 9245SOL     OW28633   0.904   4.533   2.830
 9245SOL    HW128634   0.813   4.507   2.863
 9245SOL    HW228635   0.965   4.547   2.909
 9246SOL     OW28636   6.949   0.915   4.895
 9246SOL    HW128637   6.870   0.972   4.915
 9246SOL    HW228638   6.956   0.842   4.963
 9247SOL     OW28639   4.061   5.811   3.403
 9247SOL    HW128640   4.103   5.850   3.486
 9247SOL    HW228641   3.982   5.756   3.429
 9248SOL     OW28642   2.701   0.677   5.510
 9248SOL    HW128643   2.702   0.773   5.539
 9248SOL    HW228644   2.608   0.652   5.480
 9249SOL     OW28645   3.684   4.944   1.874
 9249SOL    HW128646   3.719   4.914   1.785
 9249SOL    HW228647   3.611   4.882   1.904
 9250SOL     OW28648   0.355   2.792   3.823
 9250SOL    HW128649   0.390   2.885   3.831
 9250SOL    HW228650   0.319   2.762   3.912
 9251SOL     OW28651   3.136   3.020   0.770
 9251SOL    HW128652   3.153   2.929   0.733
 9251SOL    HW228653   3.141   3.018   0.870
 9252SOL     OW28654   5.340   0.198   5.343
 9252SOL    HW128655   5.253   0.246   5.359
 9252SOL    HW228656   5.413   0.246   5.391
 9253SOL     OW28657   1.270   4.970   5.387
 9253SOL    HW128658   1.189   4.948   5.333
 9253SOL    HW228659   1.344   4.908   5.364
 9254SOL     OW28660   6.535   4.971   3.330
 9254SOL    HW128661   6.633   4.968   3.349
 9254SOL    HW228662   6.519   5.033   3.253
 9255SOL     OW28663   6.707   4.701   0.460
 9255SOL    HW128664   6.698   4.786   0.512
 9255SOL    HW228665   6.754   4.632   0.515
 9256SOL     OW28666   1.655   6.287   1.456
 9256SOL    HW128667   1.703   6.362   1.409
 9256SOL    HW228668   1.671   6.294   1.554
 9257SOL     OW28669   0.375   5.443   4.081
 9257SOL    HW128670   0.358   5.520   4.143
 9257SOL    HW228671   0.293   5.386   4.076
 9258SOL     OW28672   3.477   4.584   0.729
 9258SOL    HW128673   3.496   4.493   0.693
 9258SOL    HW228674   3.497   4.652   0.659
 9259SOL     OW28675   2.171   2.059   6.645
 9259SOL    HW128676   2.097   2.059   6.712
 9259SOL    HW228677   2.232   2.136   6.663
 9260SOL     OW28678   5.303   3.166   4.650
 9260SOL    HW128679   5.351   3.242   4.693
 9260SOL    HW228680   5.251   3.116   4.719
 9261SOL     OW28681   4.170   2.272   1.863
 9261SOL    HW128682   4.131   2.337   1.797
 9261SOL    HW228683   4.124   2.184   1.854
 9262SOL     OW28684   6.190   6.071   3.712
 9262SOL    HW128685   6.231   6.126   3.785
 9262SOL    HW228686   6.091   6.086   3.711
 9263SOL     OW28687   2.044   3.601   3.884
 9263SOL    HW128688   1.960   3.613   3.936
 9263SOL    HW228689   2.050   3.507   3.850
 9264SOL     OW28690   4.640   4.078   6.935
 9264SOL    HW128691   4.634   4.177   6.949
 9264SOL    HW228692   4.644   4.059   6.837
 9265SOL     OW28693   5.084   1.947   0.367
 9265SOL    HW128694   5.144   1.954   0.286
 9265SOL    HW228695   5.117   2.010   0.438
 9266SOL     OW28696   0.063   4.172   1.165
 9266SOL    HW128697   0.141   4.225   1.131
 9266SOL    HW228698   7.004   4.194   1.112
 9267SOL     OW28699   0.610   1.168   4.081
 9267SOL    HW128700   0.626   1.150   4.178
 9267SOL    HW228701   0.666   1.246   4.052
 9268SOL     OW28702   0.529   6.535   1.936
 9268SOL    HW128703   0.565   6.594   2.008
 9268SOL    HW228704   0.444   6.493   1.966
 9269SOL     OW28705   4.006   0.202   0.719
 9269SOL    HW128706   3.978   0.267   0.789
 9269SOL    HW228707   4.099   0.170   0.739
 9270SOL     OW28708   2.271   0.797   5.879
 9270SOL    HW128709   2.304   0.801   5.784
 9270SOL    HW228710   2.268   0.702   5.909
 9271SOL     OW28711   1.202   0.224   5.917
 9271SOL    HW128712   1.167   0.182   5.834
 9271SOL    HW228713   1.222   0.320   5.900
 9272SOL     OW28714   7.012   6.395   5.750
 9272SOL    HW128715   0.036   6.326   5.695
 9272SOL    HW228716   6.920   6.363   5.773
 9273SOL     OW28717   4.534   5.139   4.556
 9273SOL    HW128718   4.538   5.172   4.462
 9273SOL    HW228719   4.545   5.216   4.619
 9274SOL     OW28720   0.779   3.276   0.454
 9274SOL    HW128721   0.734   3.348   0.401
 9274SOL    HW228722   0.862   3.248   0.408
 9275SOL     OW28723   0.885   6.513   1.171
 9275SOL    HW128724   0.821   6.543   1.241
 9275SOL    HW228725   0.977   6.507   1.209
 9276SOL     OW28726   3.312   4.863   0.059
 9276SOL    HW128727   3.345   4.957   0.057
 9276SOL    HW228728   3.348   4.817   0.140
 9277SOL     OW28729   5.071   5.098   2.265
 9277SOL    HW128730   5.141   5.062   2.327
 9277SOL    HW228731   4.991   5.127   2.319
 9278SOL     OW28732   0.416   0.939   4.364
 9278SOL    HW128733   0.449   0.847   4.387
 9278SOL    HW228734   0.372   0.938   4.275
 9279SOL     OW28735   4.348   5.406   1.461
 9279SOL    HW128736   4.355   5.444   1.554
 9279SOL    HW228737   4.262   5.357   1.452
 9280SOL     OW28738   1.572   1.175   2.849
 9280SOL    HW128739   1.598   1.180   2.946
 9280SOL    HW228740   1.648   1.137   2.796
 9281SOL     OW28741   3.276   4.878   0.397
 9281SOL    HW128742   3.334   4.801   0.369
 9281SOL    HW228743   3.240   4.924   0.315
 9282SOL     OW28744   3.517   0.150   4.909
 9282SOL    HW128745   3.553   0.096   4.833
 9282SOL    HW228746   3.433   0.196   4.881
 9283SOL     OW28747   4.288   6.366   0.010
 9283SOL    HW128748   4.250   6.355   6.942
 9283SOL    HW228749   4.304   6.276   0.051
 9284SOL     OW28750   3.207   4.234   5.191
 9284SOL    HW128751   3.159   4.316   5.223
 9284SOL    HW228752   3.304   4.241   5.215
 9285SOL     OW28753   6.912   4.104   2.323
 9285SOL    HW128754   7.003   4.130   2.289
 9285SOL    HW228755   6.913   4.101   2.423
 9286SOL     OW28756   4.660   5.525   1.703
 9286SOL    HW128757   4.692   5.442   1.657
 9286SOL    HW228758   4.560   5.524   1.709
 9287SOL     OW28759   3.305   4.731   6.337
 9287SOL    HW128760   3.344   4.716   6.246
 9287SOL    HW228761   3.210   4.761   6.328
 9288SOL     OW28762   4.386   1.898   3.315
 9288SOL    HW128763   4.326   1.971   3.347
 9288SOL    HW228764   4.346   1.809   3.337
 9289SOL     OW28765   4.745   6.631   6.821
 9289SOL    HW128766   4.770   6.679   6.905
 9289SOL    HW228767   4.724   6.536   6.842
 9290SOL     OW28768   5.638   0.413   4.721
 9290SOL    HW128769   5.708   0.409   4.792
 9290SOL    HW228770   5.553   0.447   4.760
 9291SOL     OW28771   1.618   5.184   5.494
 9291SOL    HW128772   1.562   5.122   5.549
 9291SOL    HW228773   1.559   5.240   5.437
 9292SOL     OW28774   1.774   1.844   6.081
 9292SOL    HW128775   1.786   1.895   6.167
 9292SOL    HW228776   1.733   1.904   6.012
 9293SOL     OW28777   4.908   2.919   6.117
 9293SOL    HW128778   4.875   2.889   6.027
 9293SOL    HW228779   4.886   3.016   6.130
 9294SOL     OW28780   4.502   1.489   0.220
 9294SOL    HW128781   4.585   1.479   0.275
 9294SOL    HW228782   4.472   1.399   0.190
 9295SOL     OW28783   0.821   1.291   5.443
 9295SOL    HW128784   0.820   1.242   5.356
 9295SOL    HW228785   0.869   1.237   5.511
 9296SOL     OW28786   2.529   4.525   0.477
 9296SOL    HW128787   2.595   4.475   0.534
 9296SOL    HW228788   2.439   4.481   0.485
 9297SOL     OW28789   6.025   6.805   3.021
 9297SOL    HW128790   6.094   6.739   3.049
 9297SOL    HW228791   6.066   6.875   2.964
 9298SOL     OW28792   1.315   6.215   6.069
 9298SOL    HW128793   1.250   6.212   6.145
 9298SOL    HW228794   1.321   6.125   6.027
 9299SOL     OW28795   2.346   2.671   4.779
 9299SOL    HW128796   2.270   2.606   4.781
 9299SOL    HW228797   2.425   2.629   4.734
 9300SOL     OW28798   1.734   6.298   5.875
 9300SOL    HW128799   1.670   6.298   5.799
 9300SOL    HW228800   1.705   6.233   5.944
 9301SOL     OW28801   0.253   3.746   4.983
 9301SOL    HW128802   0.203   3.804   5.047
 9301SOL    HW228803   0.316   3.688   5.034
 9302SOL     OW28804   2.091   3.574   4.929
 9302SOL    HW128805   2.104   3.667   4.964
 9302SOL    HW228806   2.059   3.579   4.834
 9303SOL     OW28807   2.552   4.833   0.924
 9303SOL    HW128808   2.608   4.752   0.904
 9303SOL    HW228809   2.487   4.812   0.996
 9304SOL     OW28810   5.007   4.958   0.481
 9304SOL    HW128811   5.107   4.952   0.476
 9304SOL    HW228812   4.976   5.043   0.439
 9305SOL     OW28813   2.709   1.626   1.432
 9305SOL    HW128814   2.676   1.685   1.359
 9305SOL    HW228815   2.680   1.662   1.520
 9306SOL     OW28816   0.444   5.196   4.654
 9306SOL    HW128817   0.486   5.185   4.564
 9306SOL    HW228818   0.402   5.286   4.661
 9307SOL     OW28819   2.784   2.846   1.631
 9307SOL    HW128820   2.719   2.775   1.657
 9307SOL    HW228821   2.871   2.832   1.679
 9308SOL     OW28822   1.741   3.925   1.655
 9308SOL    HW128823   1.682   3.902   1.733
 9308SOL    HW228824   1.800   3.847   1.633
 9309SOL     OW28825   4.454   5.746   5.397
 9309SOL    HW128826   4.498   5.832   5.425
 9309SOL    HW228827   4.519   5.671   5.407
 9310SOL     OW28828   4.913   5.934   6.504
 9310SOL    HW128829   4.944   6.025   6.532
 9310SOL    HW228830   4.877   5.938   6.411
 9311SOL     OW28831   4.837   3.404   1.864
 9311SOL    HW128832   4.777   3.444   1.795
 9311SOL    HW228833   4.854   3.308   1.841
 9312SOL     OW28834   0.468   2.491   1.018
 9312SOL    HW128835   0.423   2.477   1.106
 9312SOL    HW228836   0.562   2.520   1.032
 9313SOL     OW28837   0.813   6.809   1.898
 9313SOL    HW128838   0.891   6.761   1.938
 9313SOL    HW228839   0.767   6.863   1.967
 9314SOL     OW28840   4.913   2.847   0.119
 9314SOL    HW128841   4.850   2.865   0.044
 9314SOL    HW228842   4.914   2.926   0.181
 9315SOL     OW28843   5.890   0.763   6.546
 9315SOL    HW128844   5.948   0.738   6.468
 9315SOL    HW228845   5.810   0.813   6.513
 9316SOL     OW28846   4.106   1.255   5.487
 9316SOL    HW128847   4.055   1.338   5.506
 9316SOL    HW228848   4.100   1.234   5.389
 9317SOL     OW28849   3.713   5.974   3.254
 9317SOL    HW128850   3.747   5.881   3.270
 9317SOL    HW228851   3.787   6.030   3.216
 9318SOL     OW28852   5.109   5.843   1.175
 9318SOL    HW128853   5.176   5.917   1.161
 9318SOL    HW228854   5.155   5.763   1.213
 9319SOL     OW28855   2.263   4.405   0.590
 9319SOL    HW128856   2.269   4.492   0.639
 9319SOL    HW228857   2.181   4.356   0.619
 9320SOL     OW28858   6.491   6.615   6.219
 9320SOL    HW128859   6.490   6.552   6.142
 9320SOL    HW228860   6.477   6.564   6.304
 9321SOL     OW28861   0.281   3.244   4.778
 9321SOL    HW128862   0.282   3.344   4.784
 9321SOL    HW228863   0.341   3.214   4.704
 9322SOL     OW28864   5.909   4.316   6.016
 9322SOL    HW128865   5.995   4.361   6.035
 9322SOL    HW228866   5.900   4.301   5.917
 9323SOL     OW28867   1.569   2.962   3.395
 9323SOL    HW128868   1.661   2.925   3.413
 9323SOL    HW228869   1.506   2.887   3.376
 9324SOL     OW28870   0.441   3.876   1.629
 9324SOL    HW128871   0.453   3.955   1.569
 9324SOL    HW228872   0.365   3.820   1.596
 9325SOL     OW28873   1.251   5.230   2.549
 9325SOL    HW128874   1.266   5.318   2.506
 9325SOL    HW228875   1.314   5.219   2.626
 9326SOL     OW28876   3.958   4.323   0.590
 9326SOL    HW128877   4.036   4.371   0.550
 9326SOL    HW228878   3.983   4.289   0.680
 9327SOL     OW28879   4.506   0.649   3.442
 9327SOL    HW128880   4.462   0.601   3.367
 9327SOL    HW228881   4.467   0.741   3.452
 9328SOL     OW28882   2.958   6.072   4.448
 9328SOL    HW128883   2.910   6.083   4.361
 9328SOL    HW228884   2.923   5.992   4.496
 9329SOL     OW28885   0.451   5.552   6.564
 9329SOL    HW128886   0.425   5.533   6.659
 9329SOL    HW228887   0.493   5.643   6.558
 9330SOL     OW28888   6.131   6.171   6.379
 9330SOL    HW128889   6.057   6.189   6.315
 9330SOL    HW228890   6.213   6.143   6.328
 9331SOL     OW28891   1.430   3.243   4.453
 9331SOL    HW128892   1.523   3.271   4.432
 9331SOL    HW228893   1.368   3.321   4.442
 9332SOL     OW28894   4.572   5.310   0.668
 9332SOL    HW128895   4.646   5.314   0.735
 9332SOL    HW228896   4.495   5.366   0.699
 9333SOL     OW28897   3.394   5.125   0.443
 9333SOL    HW128898   3.492   5.108   0.457
 9333SOL    HW228899   3.341   5.058   0.495
 9334SOL     OW28900   5.292   6.331   5.424
 9334SOL    HW128901   5.271   6.250   5.479
 9334SOL    HW228902   5.334   6.400   5.482
 9335SOL     OW28903   2.289   2.439   1.284
 9335SOL    HW128904   2.362   2.416   1.219
 9335SOL    HW228905   2.295   2.536   1.307
 9336SOL     OW28906   6.959   0.901   5.443
 9336SOL    HW128907   6.908   0.922   5.360
 9336SOL    HW228908   6.934   0.810   5.475
 9337SOL     OW28909   3.445   0.338   6.498
 9337SOL    HW128910   3.541   0.314   6.516
 9337SOL    HW228911   3.394   0.335   6.583
 9338SOL     OW28912   6.366   6.017   0.090
 9338SOL    HW128913   6.426   5.945   0.055
 9338SOL    HW228914   6.301   6.044   0.018
 9339SOL     OW28915   6.285   4.816   5.469
 9339SOL    HW128916   6.351   4.767   5.413
 9339SOL    HW228917   6.315   4.910   5.482
 9340SOL     OW28918   3.715   6.185   2.212
 9340SOL    HW128919   3.618   6.176   2.235
 9340SOL    HW228920   3.725   6.238   2.128
 9341SOL     OW28921   5.441   4.112   0.048
 9341SOL    HW128922   5.447   4.139   6.975
 9341SOL    HW228923   5.498   4.031   0.063
 9342SOL     OW28924   2.589   0.059   4.049
 9342SOL    HW128925   2.596   0.114   4.133
 9342SOL    HW228926   2.644   6.999   4.058
 9343SOL     OW28927   4.813   4.092   1.960
 9343SOL    HW128928   4.731   4.132   2.001
 9343SOL    HW228929   4.848   4.154   1.889
 9344SOL     OW28930   6.044   5.585   5.048
 9344SOL    HW128931   6.101   5.584   4.966
 9344SOL    HW228932   6.003   5.495   5.062
 9345SOL     OW28933   0.037   6.444   0.709
 9345SOL    HW128934   7.015   6.355   0.717
 9345SOL    HW228935   0.044   6.486   0.800
 9346SOL     OW28936   5.513   6.832   1.702
 9346SOL    HW128937   5.497   6.745   1.747
 9346SOL    HW228938   5.430   6.888   1.709
 9347SOL     OW28939   4.035   5.696   0.630
 9347SOL    HW128940   4.135   5.698   0.636
 9347SOL    HW228941   4.008   5.639   0.552
 9348SOL     OW28942   2.129   6.043   1.887
 9348SOL    HW128943   2.098   6.020   1.979
 9348SOL    HW228944   2.080   5.986   1.820
 9349SOL     OW28945   6.183   5.181   1.591
 9349SOL    HW128946   6.117   5.217   1.657
 9349SOL    HW228947   6.135   5.154   1.508
 9350SOL     OW28948   0.132   0.941   5.098
 9350SOL    HW128949   0.217   0.892   5.118
 9350SOL    HW228950   0.107   0.927   5.003
 9351SOL     OW28951   2.951   1.338   5.855
 9351SOL    HW128952   2.917   1.428   5.884
 9351SOL    HW228953   3.038   1.319   5.901
 9352SOL     OW28954   3.256   2.342   6.121
 9352SOL    HW128955   3.270   2.299   6.032
 9352SOL    HW228956   3.247   2.441   6.109
 9353SOL     OW28957   0.879   3.850   1.482
 9353SOL    HW128958   0.842   3.937   1.450
 9353SOL    HW228959   0.958   3.824   1.426
 9354SOL     OW28960   5.605   1.824   1.359
 9354SOL    HW128961   5.651   1.911   1.377
 9354SOL    HW228962   5.561   1.828   1.269
 9355SOL     OW28963   6.931   0.056   3.524
 9355SOL    HW128964   6.975   0.020   3.607
 9355SOL    HW228965   6.997   0.112   3.473
 9356SOL     OW28966   4.467   5.262   2.264
 9356SOL    HW128967   4.464   5.361   2.273
 9356SOL    HW228968   4.550   5.226   2.308
 9357SOL     OW28969   3.241   3.078   1.208
 9357SOL    HW128970   3.148   3.080   1.245
 9357SOL    HW228971   3.283   3.168   1.221
 9358SOL     OW28972   6.180   4.323   2.019
 9358SOL    HW128973   6.149   4.418   2.030
 9358SOL    HW228974   6.276   4.323   1.992
 9359SOL     OW28975   6.967   4.256   6.447
 9359SOL    HW128976   0.043   4.244   6.438
 9359SOL    HW228977   6.927   4.172   6.486
 9360SOL     OW28978   1.999   0.804   6.106
 9360SOL    HW128979   1.954   0.717   6.127
 9360SOL    HW228980   2.039   0.800   6.014
 9361SOL     OW28981   2.913   6.074   1.949
 9361SOL    HW128982   2.983   6.002   1.953
 9361SOL    HW228983   2.942   6.151   2.005
 9362SOL     OW28984   2.358   1.250   2.167
 9362SOL    HW128985   2.353   1.255   2.067
 9362SOL    HW228986   2.266   1.239   2.204
 9363SOL     OW28987   3.383   6.119   3.019
 9363SOL    HW128988   3.324   6.200   3.010
 9363SOL    HW228989   3.409   6.107   3.114
 9364SOL     OW28990   4.359   2.963   6.463
 9364SOL    HW128991   4.339   2.897   6.391
 9364SOL    HW228992   4.405   2.917   6.538
 9365SOL     OW28993   2.703   1.681   5.069
 9365SOL    HW128994   2.696   1.601   5.128
 9365SOL    HW228995   2.741   1.654   4.980
 9366SOL     OW28996   3.500   1.854   0.631
 9366SOL    HW128997   3.445   1.845   0.715
 9366SOL    HW228998   3.579   1.912   0.649
 9367SOL     OW28999   6.891   5.944   3.406
 9367SOL    HW129000   6.943   5.941   3.320
 9367SOL    HW229001   6.948   5.986   3.477
 9368SOL     OW29002   3.231   2.167   1.677
 9368SOL    HW129003   3.330   2.151   1.677
 9368SOL    HW229004   3.195   2.152   1.585
 9369SOL     OW29005   6.753   1.646   5.663
 9369SOL    HW129006   6.709   1.667   5.575
 9369SOL    HW229007   6.821   1.575   5.650
 9370SOL     OW29008   6.015   0.869   2.670
 9370SOL    HW129009   6.107   0.850   2.705
 9370SOL    HW229010   5.951   0.801   2.707
 9371SOL     OW29011   1.093   5.598   0.514
 9371SOL    HW129012   1.125   5.659   0.441
 9371SOL    HW229013   1.136   5.509   0.504
 9372SOL     OW29014   5.732   6.614   3.331
 9372SOL    HW129015   5.654   6.672   3.306
 9372SOL    HW229016   5.811   6.671   3.352
 9373SOL     OW29017   4.437   1.362   3.154
 9373SOL    HW129018   4.484   1.364   3.242
 9373SOL    HW229019   4.450   1.273   3.111
 9374SOL     OW29020   5.679   2.658   0.167
 9374SOL    HW129021   5.768   2.615   0.177
 9374SOL    HW229022   5.686   2.755   0.192
 9375SOL     OW29023   6.562   1.055   2.831
 9375SOL    HW129024   6.537   1.096   2.743
 9375SOL    HW229025   6.623   0.978   2.815
 9376SOL     OW29026   2.917   3.659   0.659
 9376SOL    HW129027   2.953   3.724   0.592
 9376SOL    HW229028   2.887   3.709   0.740
 9377SOL     OW29029   6.501   5.411   3.905
 9377SOL    HW129030   6.481   5.314   3.922
 9377SOL    HW229031   6.599   5.422   3.889
 9378SOL     OW29032   2.822   0.119   6.676
 9378SOL    HW129033   2.749   0.060   6.642
 9378SOL    HW229034   2.835   0.196   6.613
 9379SOL     OW29035   4.566   4.569   3.830
 9379SOL    HW129036   4.496   4.613   3.774
 9379SOL    HW229037   4.529   4.551   3.921
 9380SOL     OW29038   6.405   6.696   5.764
 9380SOL    HW129039   6.490   6.709   5.816
 9380SOL    HW229040   6.411   6.745   5.678
 9381SOL     OW29041   2.704   2.679   5.324
 9381SOL    HW129042   2.728   2.590   5.361
 9381SOL    HW229043   2.615   2.708   5.359
 9382SOL     OW29044   4.360   0.766   2.884
 9382SOL    HW129045   4.398   0.819   2.959
 9382SOL    HW229046   4.416   0.685   2.868
 9383SOL     OW29047   3.297   6.977   4.393
 9383SOL    HW129048   3.278   6.966   4.491
 9383SOL    HW229049   3.355   6.901   4.362
 9384SOL     OW29050   4.773   6.100   2.436
 9384SOL    HW129051   4.681   6.139   2.434
 9384SOL    HW229052   4.780   6.029   2.367
 9385SOL     OW29053   3.770   1.506   3.205
 9385SOL    HW129054   3.754   1.604   3.214
 9385SOL    HW229055   3.685   1.460   3.180
 9386SOL     OW29056   3.694   6.477   5.106
 9386SOL    HW129057   3.766   6.425   5.151
 9386SOL    HW229058   3.640   6.416   5.048
 9387SOL     OW29059   3.375   6.533   1.083
 9387SOL    HW129060   3.433   6.584   1.147
 9387SOL    HW229061   3.300   6.591   1.053
 9388SOL     OW29062   0.723   6.661   2.820
 9388SOL    HW129063   0.804   6.634   2.768
 9388SOL    HW229064   0.648   6.681   2.758
 9389SOL     OW29065   2.418   0.621   5.090
 9389SOL    HW129066   2.446   0.717   5.081
 9389SOL    HW229067   2.450   0.570   5.011
 9390SOL     OW29068   4.427   5.956   3.011
 9390SOL    HW129069   4.390   5.920   2.926
 9390SOL    HW229070   4.507   6.013   2.991
 9391SOL     OW29071   1.501   1.377   5.559
 9391SOL    HW129072   1.404   1.356   5.550
 9391SOL    HW229073   1.555   1.295   5.537
 9392SOL     OW29074   0.573   6.533   5.279
 9392SOL    HW129075   0.500   6.512   5.213
 9392SOL    HW229076   0.642   6.461   5.275
 9393SOL     OW29077   3.957   1.901   5.262
 9393SOL    HW129078   4.024   1.838   5.222
 9393SOL    HW229079   3.953   1.984   5.206
 9394SOL     OW29080   6.207   2.573   3.095
 9394SOL    HW129081   6.251   2.654   3.057
 9394SOL    HW229082   6.108   2.582   3.086
 9395SOL     OW29083   3.082   2.438   0.339
 9395SOL    HW129084   3.169   2.395   0.317
 9395SOL    HW229085   3.079   2.461   0.437
 9396SOL     OW29086   6.961   6.614   4.844
 9396SOL    HW129087   0.006   6.686   4.857
 9396SOL    HW229088   6.872   6.646   4.876
 9397SOL     OW29089   2.069   0.436   0.067
 9397SOL    HW129090   2.160   0.394   0.069
 9397SOL    HW229091   2.005   0.381   0.121
 9398SOL     OW29092   2.482   1.127   6.976
 9398SOL    HW129093   2.481   1.052   0.019
 9398SOL    HW229094   2.455   1.212   7.022
 9399SOL     OW29095   6.708   2.341   6.344
 9399SOL    HW129096   6.734   2.254   6.387
 9399SOL    HW229097   6.784   2.406   6.353
 9400SOL     OW29098   5.271   3.289   1.648
 9400SOL    HW129099   5.291   3.386   1.659
 9400SOL    HW229100   5.242   3.250   1.735
 9401SOL     OW29101   2.400   6.573   3.674
 9401SOL    HW129102   2.415   6.522   3.759
 9401SOL    HW229103   2.334   6.526   3.617
 9402SOL     OW29104   2.307   5.309   6.511
 9402SOL    HW129105   2.314   5.328   6.609
 9402SOL    HW229106   2.314   5.210   6.496
 9403SOL     OW29107   5.227   1.439   3.366
 9403SOL    HW129108   5.276   1.516   3.407
 9403SOL    HW229109   5.131   1.464   3.352
 9404SOL     OW29110   0.410   4.915   6.731
 9404SOL    HW129111   0.468   4.834   6.721
 9404SOL    HW229112   0.317   4.894   6.701
 9405SOL     OW29113   5.885   6.709   1.672
 9405SOL    HW129114   5.840   6.793   1.641
 9405SOL    HW229115   5.876   6.639   1.601
 9406SOL     OW29116   0.277   2.192   5.459
 9406SOL    HW129117   0.182   2.214   5.437
 9406SOL    HW229118   0.338   2.248   5.403
 9407SOL     OW29119   3.062   6.650   3.237
 9407SOL    HW129120   3.082   6.729   3.294
 9407SOL    HW229121   2.972   6.660   3.195
 9408SOL     OW29122   4.111   1.179   6.443
 9408SOL    HW129123   4.088   1.274   6.421
 9408SOL    HW229124   4.134   1.130   6.359
 9409SOL     OW29125   4.979   4.019   4.127
 9409SOL    HW129126   4.990   4.055   4.035
 9409SOL    HW229127   5.009   3.924   4.130
 9410SOL     OW29128   3.529   6.176   1.962
 9410SOL    HW129129   3.574   6.265   1.958
 9410SOL    HW229130   3.494   6.160   2.055
 9411SOL     OW29131   3.916   5.089   0.948
 9411SOL    HW129132   3.982   5.162   0.930
 9411SOL    HW229133   3.838   5.127   0.998
 9412SOL     OW29134   0.662   2.902   1.768
 9412SOL    HW129135   0.738   2.847   1.733
 9412SOL    HW229136   0.692   2.955   1.846
 9413SOL     OW29137   4.064   5.602   5.198
 9413SOL    HW129138   3.969   5.628   5.184
 9413SOL    HW229139   4.096   5.639   5.285
 9414SOL     OW29140   3.068   1.490   2.584
 9414SOL    HW129141   3.144   1.542   2.622
 9414SOL    HW229142   2.999   1.553   2.548
 9415SOL     OW29143   1.633   6.865   2.551
 9415SOL    HW129144   1.550   6.831   2.505
 9415SOL    HW229145   1.634   6.831   2.645
 9416SOL     OW29146   0.689   1.376   1.437
 9416SOL    HW129147   0.730   1.443   1.374
 9416SOL    HW229148   0.713   1.399   1.531
 9417SOL     OW29149   3.034   6.573   5.300
 9417SOL    HW129150   3.058   6.632   5.222
 9417SOL    HW229151   3.079   6.608   5.382
 9418SOL     OW29152   2.384   5.662   0.910
 9418SOL    HW129153   2.304   5.680   0.968
 9418SOL    HW229154   2.395   5.737   0.845
 9419SOL     OW29155   3.519   6.852   5.545
 9419SOL    HW129156   3.466   6.797   5.609
 9419SOL    HW229157   3.545   6.796   5.466
 9420SOL     OW29158   6.760   1.538   4.768
 9420SOL    HW129159   6.665   1.565   4.760
 9420SOL    HW229160   6.810   1.605   4.824
 9421SOL     OW29161   2.341   5.150   5.324
 9421SOL    HW129162   2.315   5.216   5.253
 9421SOL    HW229163   2.282   5.070   5.318
 9422SOL     OW29164   5.500   0.019   2.506
 9422SOL    HW129165   5.418   7.001   2.465
 9422SOL    HW229166   5.501   0.117   2.487
 9423SOL     OW29167   4.527   0.440   3.212
 9423SOL    HW129168   4.539   0.477   3.120
 9423SOL    HW229169   4.589   0.362   3.225
 9424SOL     OW29170   4.968   0.179   5.643
 9424SOL    HW129171   4.918   0.094   5.663
 9424SOL    HW229172   5.031   0.199   5.718
 9425SOL     OW29173   0.605   3.124   5.882
 9425SOL    HW129174   0.696   3.145   5.918
 9425SOL    HW229175   0.581   3.191   5.812
 9426SOL     OW29176   2.900   1.608   0.350
 9426SOL    HW129177   2.805   1.641   0.347
 9426SOL    HW229178   2.932   1.590   0.257
 9427SOL     OW29179   3.088   4.836   5.035
 9427SOL    HW129180   3.074   4.741   5.064
 9427SOL    HW229181   3.025   4.896   5.084
 9428SOL     OW29182   5.884   6.970   2.721
 9428SOL    HW129183   5.838   0.009   2.785
 9428SOL    HW229184   5.892   7.015   2.632
 9429SOL     OW29185   1.391   3.770   2.323
 9429SOL    HW129186   1.464   3.820   2.275
 9429SOL    HW229187   1.410   3.672   2.316
 9430SOL     OW29188   6.476   6.639   2.297
 9430SOL    HW129189   6.534   6.615   2.220
 9430SOL    HW229190   6.384   6.661   2.264
 9431SOL     OW29191   6.198   4.140   0.160
 9431SOL    HW129192   6.248   4.162   0.076
 9431SOL    HW229193   6.100   4.158   0.145
 9432SOL     OW29194   6.223   0.137   3.849
 9432SOL    HW129195   6.256   0.183   3.931
 9432SOL    HW229196   6.295   0.081   3.810
 9433SOL     OW29197   3.632   5.020   4.532
 9433SOL    HW129198   3.584   5.091   4.480
 9433SOL    HW229199   3.568   4.977   4.596
 9434SOL     OW29200   5.617   4.421   3.427
 9434SOL    HW129201   5.713   4.440   3.407
 9434SOL    HW229202   5.562   4.441   3.345
 9435SOL     OW29203   1.546   1.192   4.291
 9435SOL    HW129204   1.626   1.137   4.315
 9435SOL    HW229205   1.463   1.138   4.308
 9436SOL     OW29206   1.153   3.389   1.364
 9436SOL    HW129207   1.244   3.397   1.405
 9436SOL    HW229208   1.115   3.298   1.385
 9437SOL     OW29209   1.318   5.923   3.132
 9437SOL    HW129210   1.402   5.868   3.128
 9437SOL    HW229211   1.239   5.865   3.113
 9438SOL     OW29212   1.104   6.324   1.518
 9438SOL    HW129213   1.028   6.258   1.518
 9438SOL    HW229214   1.134   6.338   1.424
 9439SOL     OW29215   6.803   2.993   2.167
 9439SOL    HW129216   6.865   3.072   2.165
 9439SOL    HW229217   6.782   2.970   2.261
 9440SOL     OW29218   4.794   6.121   5.036
 9440SOL    HW129219   4.809   6.025   5.058
 9440SOL    HW229220   4.718   6.157   5.091
 9441SOL     OW29221   1.203   5.460   5.408
 9441SOL    HW129222   1.230   5.446   5.313
 9441SOL    HW229223   1.260   5.531   5.449
 9442SOL     OW29224   6.503   1.798   0.133
 9442SOL    HW129225   6.417   1.749   0.122
 9442SOL    HW229226   6.487   1.883   0.183
 9443SOL     OW29227   2.080   4.348   1.219
 9443SOL    HW129228   2.095   4.268   1.161
 9443SOL    HW229229   2.073   4.319   1.314
 9444SOL     OW29230   0.432   3.318   6.959
 9444SOL    HW129231   0.332   3.321   6.954
 9444SOL    HW229232   0.462   3.225   6.977
 9445SOL     OW29233   5.010   3.357   2.089
 9445SOL    HW129234   4.935   3.404   2.042
 9445SOL    HW229235   4.972   3.290   2.153
 9446SOL     OW29236   6.615   6.709   3.067
 9446SOL    HW129237   6.566   6.639   3.014
 9446SOL    HW229238   6.559   6.737   3.144
 9447SOL     OW29239   5.620   3.302   2.692
 9447SOL    HW129240   5.520   3.303   2.691
 9447SOL    HW229241   5.652   3.233   2.757
 9448SOL     OW29242   5.190   6.133   5.970
 9448SOL    HW129243   5.212   6.059   6.034
 9448SOL    HW229244   5.238   6.117   5.884
 9449SOL     OW29245   6.769   5.234   5.440
 9449SOL    HW129246   6.673   5.230   5.414
 9449SOL    HW229247   6.820   5.164   5.389
 9450SOL     OW29248   2.939   5.117   4.919
 9450SOL    HW129249   3.025   5.086   4.879
 9450SOL    HW229250   2.883   5.038   4.944
 9451SOL     OW29251   4.858   5.927   6.236
 9451SOL    HW129252   4.807   5.999   6.189
 9451SOL    HW229253   4.932   5.895   6.176
 9452SOL     OW29254   2.006   3.430   0.698
 9452SOL    HW129255   1.998   3.519   0.743
 9452SOL    HW229256   1.968   3.435   0.606
 9453SOL     OW29257   1.826   4.007   2.985
 9453SOL    HW129258   1.800   3.914   3.009
 9453SOL    HW229259   1.759   4.071   3.022
 9454SOL     OW29260   1.458   3.908   6.194
 9454SOL    HW129261   1.464   3.860   6.282
 9454SOL    HW229262   1.423   4.001   6.210
 9455SOL     OW29263   3.308   1.276   2.756
 9455SOL    HW129264   3.315   1.279   2.656
 9455SOL    HW229265   3.390   1.233   2.794
 9456SOL     OW29266   0.321   4.485   1.096
 9456SOL    HW129267   0.353   4.510   1.187
 9456SOL    HW229268   0.351   4.393   1.074
 9457SOL     OW29269   1.838   3.844   6.608
 9457SOL    HW129270   1.796   3.798   6.686
 9457SOL    HW229271   1.783   3.828   6.526
 9458SOL     OW29272   0.476   4.806   6.138
 9458SOL    HW129273   0.570   4.823   6.110
 9458SOL    HW229274   0.441   4.725   6.091
 9459SOL     OW29275   6.320   5.215   2.001
 9459SOL    HW129276   6.380   5.189   1.925
 9459SOL    HW229277   6.376   5.243   2.079
 9460SOL     OW29278   0.049   2.295   5.250
 9460SOL    HW129279   7.007   2.318   5.323
 9460SOL    HW229280   0.109   2.373   5.234
 9461SOL     OW29281   6.699   1.303   3.183
 9461SOL    HW129282   6.676   1.343   3.271
 9461SOL    HW229283   6.616   1.268   3.139
 9462SOL     OW29284   1.916   3.061   3.134
 9462SOL    HW129285   1.839   3.125   3.128
 9462SOL    HW229286   1.955   3.064   3.225
 9463SOL     OW29287   6.966   0.664   0.755
 9463SOL    HW129288   7.000   0.698   0.843
 9463SOL    HW229289   6.962   0.564   0.757
 9464SOL     OW29290   5.620   6.544   6.478
 9464SOL    HW129291   5.568   6.626   6.504
 9464SOL    HW229292   5.557   6.472   6.451
 9465SOL     OW29293   0.216   0.489   2.983
 9465SOL    HW129294   0.164   0.561   3.029
 9465SOL    HW229295   0.159   0.444   2.915
 9466SOL     OW29296   2.897   3.238   5.506
 9466SOL    HW129297   2.902   3.139   5.520
 9466SOL    HW229298   2.819   3.260   5.447
 9467SOL     OW29299   1.622   2.632   1.317
 9467SOL    HW129300   1.633   2.547   1.369
 9467SOL    HW229301   1.614   2.709   1.380
 9468SOL     OW29302   5.733   2.903   6.046
 9468SOL    HW129303   5.662   2.973   6.045
 9468SOL    HW229304   5.783   2.904   5.960
 9469SOL     OW29305   6.177   5.529   2.290
 9469SOL    HW129306   6.115   5.455   2.317
 9469SOL    HW229307   6.137   5.617   2.313
 9470SOL     OW29308   5.066   2.773   6.689
 9470SOL    HW129309   4.969   2.747   6.687
 9470SOL    HW229310   5.118   2.706   6.742
 9471SOL     OW29311   6.809   2.577   5.401
 9471SOL    HW129312   6.758   2.615   5.478
 9471SOL    HW229313   6.828   2.649   5.334
 9472SOL     OW29314   6.584   3.928   4.565
 9472SOL    HW129315   6.503   3.915   4.508
 9472SOL    HW229316   6.626   3.840   4.585
 9473SOL     OW29317   3.770   6.736   5.145
 9473SOL    HW129318   3.755   6.781   5.057
 9473SOL    HW229319   3.750   6.638   5.136
 9474SOL     OW29320   5.773   4.513   1.946
 9474SOL    HW129321   5.751   4.572   1.868
 9474SOL    HW229322   5.816   4.429   1.912
 9475SOL     OW29323   3.491   3.510   1.028
 9475SOL    HW129324   3.503   3.430   1.088
 9475SOL    HW229325   3.476   3.591   1.083
 9476SOL     OW29326   3.141   3.255   4.804
 9476SOL    HW129327   3.111   3.288   4.715
 9476SOL    HW229328   3.099   3.311   4.876
 9477SOL     OW29329   0.887   3.255   1.238
 9477SOL    HW129330   0.829   3.218   1.311
 9477SOL    HW229331   0.895   3.354   1.249
 9478SOL     OW29332   5.297   3.723   5.943
 9478SOL    HW129333   5.234   3.741   6.019
 9478SOL    HW229334   5.381   3.684   5.979
 9479SOL     OW29335   6.079   5.696   6.248
 9479SOL    HW129336   6.043   5.605   6.265
 9479SOL    HW229337   6.126   5.699   6.160
 9480SOL     OW29338   4.243   4.390   6.583
 9480SOL    HW129339   4.205   4.482   6.594
 9480SOL    HW229340   4.195   4.343   6.509
 9481SOL     OW29341   6.628   3.921   1.742
 9481SOL    HW129342   6.552   3.941   1.804
 9481SOL    HW229343   6.706   3.980   1.765
 9482SOL     OW29344   5.912   0.797   3.111
 9482SOL    HW129345   5.913   0.881   3.165
 9482SOL    HW229346   6.001   0.752   3.118
 9483SOL     OW29347   1.974   1.684   0.693
 9483SOL    HW129348   1.938   1.742   0.766
 9483SOL    HW229349   1.981   1.590   0.726
 9484SOL     OW29350   6.050   1.596   3.686
 9484SOL    HW129351   5.970   1.655   3.674
 9484SOL    HW229352   6.022   1.511   3.732
 9485SOL     OW29353   1.450   0.295   1.775
 9485SOL    HW129354   1.364   0.245   1.762
 9485SOL    HW229355   1.434   0.392   1.762
 9486SOL     OW29356   2.208   5.106   0.860
 9486SOL    HW129357   2.269   5.027   0.870
 9486SOL    HW229358   2.148   5.112   0.939
 9487SOL     OW29359   3.055   3.911   3.451
 9487SOL    HW129360   2.989   3.951   3.514
 9487SOL    HW229361   3.115   3.982   3.415
 9488SOL     OW29362   1.901   6.202   1.094
 9488SOL    HW129363   1.920   6.223   1.190
 9488SOL    HW229364   1.873   6.107   1.086
 9489SOL     OW29365   3.480   4.223   0.996
 9489SOL    HW129366   3.501   4.133   1.034
 9489SOL    HW229367   3.498   4.294   1.065
 9490SOL     OW29368   5.621   0.226   1.191
 9490SOL    HW129369   5.620   0.314   1.237
 9490SOL    HW229370   5.551   0.225   1.119
 9491SOL     OW29371   6.954   4.920   4.905
 9491SOL    HW129372   6.928   5.005   4.860
 9491SOL    HW229373   7.017   4.869   4.846
 9492SOL     OW29374   3.274   3.568   2.387
 9492SOL    HW129375   3.368   3.533   2.385
 9492SOL    HW229376   3.275   3.667   2.369
 9493SOL     OW29377   4.948   5.167   3.967
 9493SOL    HW129378   4.881   5.095   3.953
 9493SOL    HW229379   4.927   5.216   4.052
 9494SOL     OW29380   5.273   4.271   0.767
 9494SOL    HW129381   5.370   4.276   0.791
 9494SOL    HW229382   5.227   4.204   0.826
 9495SOL     OW29383   6.408   2.285   3.837
 9495SOL    HW129384   6.344   2.298   3.760
 9495SOL    HW229385   6.425   2.188   3.849
 9496SOL     OW29386   5.181   4.464   6.653
 9496SOL    HW129387   5.113   4.391   6.644
 9496SOL    HW229388   5.140   4.543   6.697
 9497SOL     OW29389   4.008   4.120   1.103
 9497SOL    HW129390   4.037   4.039   1.052
 9497SOL    HW229391   4.070   4.196   1.084
 9498SOL     OW29392   4.795   0.014   5.960
 9498SOL    HW129393   4.758   0.092   5.911
 9498SOL    HW229394   4.721   6.978   5.991
 9499SOL     OW29395   2.039   4.111   5.602
 9499SOL    HW129396   2.068   4.052   5.526
 9499SOL    HW229397   2.112   4.176   5.623
 9500SOL     OW29398   3.211   6.523   1.559
 9500SOL    HW129399   3.220   6.424   1.549
 9500SOL    HW229400   3.270   6.568   1.492
 9501SOL     OW29401   3.565   1.958   4.685
 9501SOL    HW129402   3.481   1.995   4.646
 9501SOL    HW229403   3.620   2.031   4.725
 9502SOL     OW29404   0.009   2.186   4.994
 9502SOL    HW129405   0.017   2.268   4.939
 9502SOL    HW229406   7.021   2.211   5.090
 9503SOL     OW29407   0.045   1.167   1.322
 9503SOL    HW129408   0.021   1.091   1.383
 9503SOL    HW229409   0.086   1.241   1.376
 9504SOL     OW29410   6.704   2.668   0.913
 9504SOL    HW129411   6.692   2.573   0.943
 9504SOL    HW229412   6.770   2.714   0.972
 9505SOL     OW29413   5.818   4.055   3.762
 9505SOL    HW129414   5.780   4.063   3.670
 9505SOL    HW229415   5.879   3.976   3.767
 9506SOL     OW29416   0.155   3.257   6.959
 9506SOL    HW129417   0.136   3.199   6.879
 9506SOL    HW229418   0.080   3.322   6.971
 9507SOL     OW29419   2.188   1.074   4.210
 9507SOL    HW129420   2.211   1.047   4.117
 9507SOL    HW229421   2.217   1.168   4.226
 9508SOL     OW29422   5.554   2.512   0.461
 9508SOL    HW129423   5.494   2.579   0.417
 9508SOL    HW229424   5.641   2.555   0.484
 9509SOL     OW29425   1.409   6.747   5.575
 9509SOL    HW129426   1.352   6.691   5.514
 9509SOL    HW229427   1.351   6.802   5.634
 9510SOL     OW29428   0.262   3.789   2.120
 9510SOL    HW129429   0.360   3.789   2.140
 9510SOL    HW229430   0.246   3.840   2.035
 9511SOL     OW29431   0.703   2.112   0.364
 9511SOL    HW129432   0.666   2.044   0.428
 9511SOL    HW229433   0.728   2.068   0.278
 9512SOL     OW29434   6.403   1.998   3.790
 9512SOL    HW129435   6.502   1.983   3.788
 9512SOL    HW229436   6.367   1.992   3.697
 9513SOL     OW29437   1.760   3.614   4.856
 9513SOL    HW129438   1.719   3.693   4.810
 9513SOL    HW229439   1.701   3.587   4.933
 9514SOL     OW29440   1.406   3.804   6.821
 9514SOL    HW129441   1.490   3.857   6.813
 9514SOL    HW229442   1.387   3.784   6.917
 9515SOL     OW29443   1.139   6.018   0.160
 9515SOL    HW129444   1.084   6.004   0.078
 9515SOL    HW229445   1.232   6.044   0.135
 9516SOL     OW29446   4.907   3.276   4.010
 9516SOL    HW129447   4.875   3.240   4.097
 9516SOL    HW229448   4.921   3.201   3.946
 9517SOL     OW29449   1.465   4.947   0.899
 9517SOL    HW129450   1.544   4.887   0.894
 9517SOL    HW229451   1.478   5.014   0.972
 9518SOL     OW29452   1.698   2.288   6.278
 9518SOL    HW129453   1.773   2.310   6.341
 9518SOL    HW229454   1.736   2.259   6.190
 9519SOL     OW29455   2.978   3.240   3.297
 9519SOL    HW129456   2.960   3.169   3.229
 9519SOL    HW229457   2.938   3.327   3.265
 9520SOL     OW29458   6.801   1.255   4.372
 9520SOL    HW129459   6.900   1.264   4.389
 9520SOL    HW229460   6.787   1.218   4.280
 9521SOL     OW29461   3.068   4.987   1.882
 9521SOL    HW129462   3.025   5.076   1.871
 9521SOL    HW229463   3.011   4.917   1.838
 9522SOL     OW29464   4.490   5.207   2.579
 9522SOL    HW129465   4.401   5.211   2.534
 9522SOL    HW229466   4.505   5.115   2.616
 9523SOL     OW29467   2.336   5.299   5.085
 9523SOL    HW129468   2.321   5.278   4.988
 9523SOL    HW229469   2.328   5.398   5.099
 9524SOL     OW29470   1.623   3.205   1.675
 9524SOL    HW129471   1.651   3.162   1.761
 9524SOL    HW229472   1.688   3.276   1.650
 9525SOL     OW29473   2.119   1.467   5.715
 9525SOL    HW129474   2.218   1.478   5.714
 9525SOL    HW229475   2.079   1.529   5.783
 9526SOL     OW29476   5.584   5.010   0.585
 9526SOL    HW129477   5.633   4.943   0.642
 9526SOL    HW229478   5.605   4.993   0.489
 9527SOL     OW29479   2.696   6.835   4.392
 9527SOL    HW129480   2.599   6.814   4.399
 9527SOL    HW229481   2.739   6.770   4.328
 9528SOL     OW29482   6.101   1.404   1.641
 9528SOL    HW129483   6.029   1.454   1.688
 9528SOL    HW229484   6.100   1.308   1.668
 9529SOL     OW29485   5.660   3.867   1.089
 9529SOL    HW129486   5.594   3.926   1.043
 9529SOL    HW229487   5.630   3.850   1.183
 9530SOL     OW29488   1.164   5.137   4.372
 9530SOL    HW129489   1.132   5.059   4.426
 9530SOL    HW229490   1.226   5.193   4.428
 9531SOL     OW29491   4.036   5.211   2.891
 9531SOL    HW129492   4.124   5.248   2.919
 9531SOL    HW229493   3.983   5.281   2.843
 9532SOL     OW29494   6.365   5.028   1.448
 9532SOL    HW129495   6.393   5.095   1.379
 9532SOL    HW229496   6.306   5.072   1.515
 9533SOL     OW29497   0.999   5.764   4.199
 9533SOL    HW129498   1.019   5.833   4.268
 9533SOL    HW229499   0.924   5.795   4.141
 9534SOL     OW29500   6.376   4.064   5.182
 9534SOL    HW129501   6.333   3.978   5.207
 9534SOL    HW229502   6.323   4.108   5.109
 9535SOL     OW29503   2.026   1.872   5.463
 9535SOL    HW129504   2.040   1.791   5.407
 9535SOL    HW229505   2.114   1.913   5.485
 9536SOL     OW29506   3.516   2.978   4.519
 9536SOL    HW129507   3.512   3.001   4.616
 9536SOL    HW229508   3.428   2.940   4.490
 9537SOL     OW29509   2.672   1.663   3.996
 9537SOL    HW129510   2.663   1.684   4.094
 9537SOL    HW229511   2.752   1.606   3.981
 9538SOL     OW29512   4.309   0.989   4.255
 9538SOL    HW129513   4.267   1.075   4.228
 9538SOL    HW229514   4.298   0.922   4.181
 9539SOL     OW29515   3.166   3.126   4.302
 9539SOL    HW129516   3.098   3.198   4.292
 9539SOL    HW229517   3.191   3.091   4.211
 9540SOL     OW29518   4.823   5.419   4.098
 9540SOL    HW129519   4.790   5.422   4.004
 9540SOL    HW229520   4.800   5.330   4.139
 9541SOL     OW29521   1.352   0.987   5.523
 9541SOL    HW129522   1.348   0.888   5.509
 9541SOL    HW229523   1.440   1.022   5.493
 9542SOL     OW29524   5.544   4.744   4.854
 9542SOL    HW129525   5.465   4.720   4.797
 9542SOL    HW229526   5.584   4.830   4.820
 9543SOL     OW29527   2.828   0.478   5.897
 9543SOL    HW129528   2.855   0.503   5.805
 9543SOL    HW229529   2.859   0.385   5.918
 9544SOL     OW29530   4.901   3.671   4.123
 9544SOL    HW129531   4.914   3.705   4.030
 9544SOL    HW229532   4.811   3.699   4.156
 9545SOL     OW29533   0.123   5.626   2.015
 9545SOL    HW129534   0.131   5.722   1.989
 9545SOL    HW229535   0.099   5.572   1.934
 9546SOL     OW29536   3.673   1.783   5.622
 9546SOL    HW129537   3.744   1.752   5.685
 9546SOL    HW229538   3.705   1.769   5.528
 9547SOL     OW29539   2.710   5.732   3.961
 9547SOL    HW129540   2.741   5.823   3.932
 9547SOL    HW229541   2.629   5.707   3.908
 9548SOL     OW29542   0.720   5.778   4.702
 9548SOL    HW129543   0.736   5.774   4.604
 9548SOL    HW229544   0.801   5.747   4.751
 9549SOL     OW29545   3.292   0.660   2.539
 9549SOL    HW129546   3.373   0.647   2.482
 9549SOL    HW229547   3.234   0.579   2.533
 9550SOL     OW29548   6.115   2.269   0.668
 9550SOL    HW129549   6.144   2.318   0.750
 9550SOL    HW229550   6.024   2.301   0.640
 9551SOL     OW29551   6.252   3.511   6.053
 9551SOL    HW129552   6.347   3.479   6.052
 9551SOL    HW229553   6.203   3.466   6.127
 9552SOL     OW29554   2.134   6.893   6.009
 9552SOL    HW129555   2.124   6.984   5.969
 9552SOL    HW229556   2.186   6.835   5.946
 9553SOL     OW29557   5.279   1.901   0.178
 9553SOL    HW129558   5.243   1.856   0.096
 9553SOL    HW229559   5.369   1.865   0.200
 9554SOL     OW29560   1.972   6.801   3.656
 9554SOL    HW129561   2.014   6.834   3.572
 9554SOL    HW229562   1.880   6.840   3.666
 9555SOL     OW29563   0.412   1.388   3.267
 9555SOL    HW129564   0.338   1.321   3.268
 9555SOL    HW229565   0.433   1.417   3.360
 9556SOL     OW29566   1.945   4.677   1.313
 9556SOL    HW129567   2.043   4.661   1.314
 9556SOL    HW229568   1.896   4.590   1.312
 9557SOL     OW29569   4.971   6.992   1.557
 9557SOL    HW129570   4.970   0.006   1.649
 9557SOL    HW229571   4.890   0.001   1.507
 9558SOL     OW29572   5.490   6.336   5.198
 9558SOL    HW129573   5.419   6.331   5.268
 9558SOL    HW229574   5.580   6.322   5.241
 9559SOL     OW29575   1.155   3.876   6.731
 9559SOL    HW129576   1.116   3.895   6.821
 9559SOL    HW229577   1.247   3.838   6.743
 9560SOL     OW29578   2.460   0.636   2.494
 9560SOL    HW129579   2.476   0.559   2.432
 9560SOL    HW229580   2.403   0.705   2.448
 9561SOL     OW29581   0.467   0.747   1.500
 9561SOL    HW129582   0.434   0.827   1.449
 9561SOL    HW229583   0.394   0.711   1.557
 9562SOL     OW29584   2.515   6.447   3.895
 9562SOL    HW129585   2.540   6.350   3.890
 9562SOL    HW229586   2.501   6.473   3.990
 9563SOL     OW29587   0.146   6.410   0.002
 9563SOL    HW129588   0.183   6.403   0.095
 9563SOL    HW229589   0.221   6.422   6.960
 9564SOL     OW29590   2.236   1.471   0.680
 9564SOL    HW129591   2.246   1.566   0.651
 9564SOL    HW229592   2.324   1.424   0.674
 9565SOL     OW29593   3.250   1.392   4.721
 9565SOL    HW129594   3.285   1.343   4.641
 9565SOL    HW229595   3.267   1.339   4.803
 9566SOL     OW29596   2.644   5.917   0.039
 9566SOL    HW129597   2.667   5.937   0.134
 9566SOL    HW229598   2.727   5.898   7.010
 9567SOL     OW29599   5.910   4.120   0.816
 9567SOL    HW129600   5.918   4.033   0.768
 9567SOL    HW229601   5.959   4.191   0.764
 9568SOL     OW29602   4.386   1.241   0.104
 9568SOL    HW129603   4.376   1.313   0.035
 9568SOL    HW229604   4.295   1.212   0.135
 9569SOL     OW29605   0.294   0.786   1.928
 9569SOL    HW129606   0.251   0.756   1.843
 9569SOL    HW229607   0.369   0.724   1.952
 9570SOL     OW29608   0.059   2.796   0.701
 9570SOL    HW129609   0.108   2.764   0.620
 9570SOL    HW229610   7.002   2.849   0.672
 9571SOL     OW29611   2.856   2.748   5.979
 9571SOL    HW129612   2.893   2.662   6.014
 9571SOL    HW229613   2.872   2.753   5.881
 9572SOL     OW29614   1.594   4.935   2.560
 9572SOL    HW129615   1.591   4.985   2.474
 9572SOL    HW229616   1.668   4.868   2.558
 9573SOL     OW29617   6.841   1.175   6.180
 9573SOL    HW129618   6.806   1.097   6.128
 9573SOL    HW229619   6.790   1.258   6.154
 9574SOL     OW29620   3.477   2.820   2.211
 9574SOL    HW129621   3.541   2.813   2.134
 9574SOL    HW229622   3.383   2.821   2.176
 9575SOL     OW29623   6.525   1.052   1.804
 9575SOL    HW129624   6.547   1.108   1.724
 9575SOL    HW229625   6.603   0.994   1.827
 9576SOL     OW29626   1.855   2.230   0.070
 9576SOL    HW129627   1.852   2.185   0.160
 9576SOL    HW229628   1.856   2.329   0.083
 9577SOL     OW29629   0.609   6.349   5.861
 9577SOL    HW129630   0.596   6.412   5.938
 9577SOL    HW229631   0.521   6.330   5.818
 9578SOL     OW29632   1.584   2.839   2.566
 9578SOL    HW129633   1.486   2.856   2.575
 9578SOL    HW229634   1.607   2.754   2.614
 9579SOL     OW29635   0.003   5.960   3.178
 9579SOL    HW129636   0.058   5.877   3.167
 9579SOL    HW229637   6.987   5.987   3.090
 9580SOL     OW29638   5.337   3.895   1.339
 9580SOL    HW129639   5.282   3.824   1.383
 9580SOL    HW229640   5.434   3.877   1.357
 9581SOL     OW29641   0.738   6.798   6.587
 9581SOL    HW129642   0.756   6.798   6.685
 9581SOL    HW229643   0.642   6.820   6.570
 9582SOL     OW29644   3.789   5.975   4.582
 9582SOL    HW129645   3.850   5.898   4.597
 9582SOL    HW229646   3.695   5.943   4.576
 9583SOL     OW29647   2.882   4.135   1.424
 9583SOL    HW129648   2.800   4.184   1.394
 9583SOL    HW229649   2.880   4.042   1.387
 9584SOL     OW29650   0.792   4.941   5.861
 9584SOL    HW129651   0.766   4.920   5.955
 9584SOL    HW229652   0.848   4.867   5.824
 9585SOL     OW29653   5.262   6.599   2.896
 9585SOL    HW129654   5.272   6.578   2.993
 9585SOL    HW229655   5.214   6.686   2.885
 9586SOL     OW29656   4.541   5.537   2.549
 9586SOL    HW129657   4.577   5.548   2.457
 9586SOL    HW229658   4.551   5.441   2.577
 9587SOL     OW29659   1.022   7.020   1.946
 9587SOL    HW129660   0.936   6.978   1.918
 9587SOL    HW229661   1.099   6.964   1.916
 9588SOL     OW29662   6.188   6.237   0.556
 9588SOL    HW129663   6.213   6.271   0.465
 9588SOL    HW229664   6.123   6.161   0.546
 9589SOL     OW29665   1.612   3.999   6.809
 9589SOL    HW129666   1.581   4.094   6.804
 9589SOL    HW229667   1.674   3.988   6.887
 9590SOL     OW29668   6.063   2.658   1.640
 9590SOL    HW129669   6.103   2.646   1.549
 9590SOL    HW229670   6.060   2.570   1.687
 9591SOL     OW29671   3.847   5.413   6.087
 9591SOL    HW129672   3.911   5.489   6.097
 9591SOL    HW229673   3.868   5.365   6.001
 9592SOL     OW29674   3.378   5.043   1.166
 9592SOL    HW129675   3.446   4.971   1.154
 9592SOL    HW229676   3.290   5.003   1.189
 9593SOL     OW29677   0.975   1.574   6.141
 9593SOL    HW129678   1.012   1.639   6.075
 9593SOL    HW229679   0.961   1.619   6.229
 9594SOL     OW29680   2.654   5.914   4.815
 9594SOL    HW129681   2.738   5.955   4.779
 9594SOL    HW229682   2.675   5.862   4.897
 9595SOL     OW29683   0.499   2.567   3.766
 9595SOL    HW129684   0.541   2.530   3.849
 9595SOL    HW229685   0.447   2.649   3.788
 9596SOL     OW29686   0.622   5.311   0.359
 9596SOL    HW129687   0.631   5.212   0.354
 9596SOL    HW229688   0.712   5.353   0.365
 9597SOL     OW29689   0.013   4.284   1.549
 9597SOL    HW129690   7.005   4.194   1.520
 9597SOL    HW229691   0.103   4.277   1.591
 9598SOL     OW29692   2.098   4.296   3.321
 9598SOL    HW129693   2.077   4.239   3.241
 9598SOL    HW229694   2.197   4.299   3.334
 9599SOL     OW29695   2.943   0.507   3.710
 9599SOL    HW129696   2.992   0.433   3.665
 9599SOL    HW229697   2.865   0.535   3.654
 9600SOL     OW29698   3.187   0.603   6.507
 9600SOL    HW129699   3.159   0.673   6.572
 9600SOL    HW229700   3.163   0.512   6.543
 9601SOL     OW29701   5.335   4.814   0.456
 9601SOL    HW129702   5.246   4.781   0.424
 9601SOL    HW229703   5.398   4.820   0.379
 9602SOL     OW29704   5.571   3.619   6.452
 9602SOL    HW129705   5.594   3.709   6.488
 9602SOL    HW229706   5.649   3.583   6.400
 9603SOL     OW29707   4.435   0.268   6.781
 9603SOL    HW129708   4.357   0.332   6.783
 9603SOL    HW229709   4.520   0.320   6.784
 9604SOL     OW29710   5.119   0.087   0.933
 9604SOL    HW129711   5.037   0.037   0.906
 9604SOL    HW229712   5.195   0.022   0.944
 9605SOL     OW29713   1.535   5.471   3.485
 9605SOL    HW129714   1.480   5.397   3.448
 9605SOL    HW229715   1.627   5.466   3.448
 9606SOL     OW29716   1.704   6.565   6.531
 9606SOL    HW129717   1.720   6.608   6.442
 9606SOL    HW229718   1.755   6.479   6.537
 9607SOL     OW29719   2.648   1.509   6.951
 9607SOL    HW129720   2.707   1.535   6.875
 9607SOL    HW229721   2.690   1.435   7.002
 9608SOL     OW29722   0.267   4.184   1.650
 9608SOL    HW129723   0.224   4.125   1.717
 9608SOL    HW229724   0.311   4.261   1.697
 9609SOL     OW29725   3.338   3.038   0.518
 9609SOL    HW129726   3.289   3.004   0.597
 9609SOL    HW229727   3.361   3.135   0.532
 9610SOL     OW29728   1.583   4.709   3.276
 9610SOL    HW129729   1.486   4.692   3.291
 9610SOL    HW229730   1.614   4.781   3.337
 9611SOL     OW29731   1.235   6.224   0.682
 9611SOL    HW129732   1.291   6.243   0.602
 9611SOL    HW229733   1.176   6.302   0.701
 9612SOL     OW29734   0.218   3.267   1.875
 9612SOL    HW129735   0.203   3.361   1.843
 9612SOL    HW229736   0.316   3.252   1.890
 9613SOL     OW29737   4.699   6.634   3.513
 9613SOL    HW129738   4.741   6.724   3.529
 9613SOL    HW229739   4.769   6.563   3.524
 9614SOL     OW29740   3.921   2.067   1.893
 9614SOL    HW129741   3.894   2.007   1.967
 9614SOL    HW229742   3.862   2.148   1.892
 9615SOL     OW29743   2.385   1.010   1.550
 9615SOL    HW129744   2.417   0.976   1.638
 9615SOL    HW229745   2.327   0.940   1.506
 9616SOL     OW29746   3.468   4.146   1.313
 9616SOL    HW129747   3.566   4.162   1.299
 9616SOL    HW229748   3.435   4.204   1.388
 9617SOL     OW29749   2.017   2.762   3.334
 9617SOL    HW129750   1.989   2.836   3.396
 9617SOL    HW229751   1.942   2.738   3.274
 9618SOL     OW29752   2.734   6.995   0.592
 9618SOL    HW129753   2.776   6.964   0.507
 9618SOL    HW229754   2.799   6.988   0.667
 9619SOL     OW29755   2.089   0.360   6.346
 9619SOL    HW129756   2.058   0.274   6.387
 9619SOL    HW229757   2.028   0.434   6.375
 9620SOL     OW29758   4.633   0.132   6.271
 9620SOL    HW129759   4.639   0.113   6.369
 9620SOL    HW229760   4.714   0.184   6.242
 9621SOL     OW29761   1.896   2.863   2.079
 9621SOL    HW129762   1.815   2.917   2.054
 9621SOL    HW229763   1.886   2.770   2.043
 9622SOL     OW29764   0.110   1.564   0.477
 9622SOL    HW129765   0.079   1.658   0.459
 9622SOL    HW229766   0.146   1.558   0.570
 9623SOL     OW29767   2.597   3.789   5.547
 9623SOL    HW129768   2.659   3.716   5.575
 9623SOL    HW229769   2.508   3.776   5.592
 9624SOL     OW29770   6.671   4.367   2.951
 9624SOL    HW129771   6.730   4.357   2.871
 9624SOL    HW229772   6.679   4.285   3.008
 9625SOL     OW29773   4.763   5.573   6.968
 9625SOL    HW129774   4.738   5.582   0.041
 9625SOL    HW229775   4.717   5.494   6.928
 9626SOL     OW29776   4.682   5.075   0.595
 9626SOL    HW129777   4.743   5.068   0.674
 9626SOL    HW229778   4.644   5.167   0.590
 9627SOL     OW29779   0.311   5.662   5.514
 9627SOL    HW129780   0.328   5.570   5.549
 9627SOL    HW229781   0.375   5.726   5.557
 9628SOL     OW29782   4.799   5.286   0.828
 9628SOL    HW129783   4.877   5.223   0.823
 9628SOL    HW229784   4.807   5.343   0.909
 9629SOL     OW29785   1.261   0.545   1.327
 9629SOL    HW129786   1.194   0.530   1.399
 9629SOL    HW229787   1.337   0.480   1.336
 9630SOL     OW29788   6.279   6.968   4.526
 9630SOL    HW129789   6.262   7.006   4.435
 9630SOL    HW229790   6.193   6.940   4.567
 9631SOL     OW29791   0.108   6.814   6.706
 9631SOL    HW129792   0.057   6.748   6.761
 9631SOL    HW229793   0.091   6.907   6.741
 9632SOL     OW29794   1.726   0.417   2.931
 9632SOL    HW129795   1.650   0.441   2.991
 9632SOL    HW229796   1.721   0.472   2.847
 9633SOL     OW29797   4.955   5.147   6.179
 9633SOL    HW129798   4.986   5.057   6.150
 9633SOL    HW229799   4.855   5.151   6.175
 9634SOL     OW29800   1.641   6.285   3.906
 9634SOL    HW129801   1.583   6.250   3.979
 9634SOL    HW229802   1.736   6.257   3.921
 9635SOL     OW29803   1.745   5.975   5.093
 9635SOL    HW129804   1.661   5.996   5.142
 9635SOL    HW229805   1.815   5.945   5.157
 9636SOL     OW29806   4.225   1.535   5.652
 9636SOL    HW129807   4.127   1.521   5.644
 9636SOL    HW229808   4.265   1.549   5.561
 9637SOL     OW29809   2.778   2.530   6.330
 9637SOL    HW129810   2.845   2.458   6.349
 9637SOL    HW229811   2.712   2.497   6.262
 9638SOL     OW29812   0.123   3.850   6.158
 9638SOL    HW129813   0.066   3.816   6.233
 9638SOL    HW229814   0.219   3.843   6.183
 9639SOL     OW29815   3.856   1.565   2.262
 9639SOL    HW129816   3.890   1.659   2.259
 9639SOL    HW229817   3.804   1.551   2.346
 9640SOL     OW29818   1.927   2.295   3.757
 9640SOL    HW129819   1.829   2.291   3.736
 9640SOL    HW229820   1.955   2.209   3.800
 9641SOL     OW29821   4.214   6.653   0.724
 9641SOL    HW129822   4.226   6.724   0.655
 9641SOL    HW229823   4.139   6.593   0.697
 9642SOL     OW29824   3.136   6.906   4.687
 9642SOL    HW129825   3.091   6.835   4.633
 9642SOL    HW229826   3.076   6.985   4.694
 9643SOL     OW29827   5.358   5.015   3.932
 9643SOL    HW129828   5.436   5.078   3.934
 9643SOL    HW229829   5.350   4.974   3.841
 9644SOL     OW29830   0.985   4.194   5.965
 9644SOL    HW129831   0.904   4.145   5.995
 9644SOL    HW229832   1.063   4.132   5.964
 9645SOL     OW29833   2.783   5.347   4.834
 9645SOL    HW129834   2.838   5.264   4.835
 9645SOL    HW229835   2.721   5.346   4.755
 9646SOL     OW29836   2.917   5.074   2.138
 9646SOL    HW129837   2.866   4.995   2.104
 9646SOL    HW229838   3.011   5.047   2.156
 9647SOL     OW29839   6.188   4.861   1.137
 9647SOL    HW129840   6.196   4.921   1.057
 9647SOL    HW229841   6.279   4.833   1.167
 9648SOL     OW29842   4.374   1.364   0.819
 9648SOL    HW129843   4.308   1.425   0.863
 9648SOL    HW229844   4.343   1.341   0.727
 9649SOL     OW29845   2.977   0.212   0.315
 9649SOL    HW129846   2.955   0.299   0.360
 9649SOL    HW229847   2.892   0.168   0.286
 9650SOL     OW29848   6.492   5.302   2.218
 9650SOL    HW129849   6.591   5.298   2.233
 9650SOL    HW229850   6.458   5.391   2.249
 9651SOL     OW29851   6.976   1.822   5.794
 9651SOL    HW129852   6.999   1.776   5.879
 9651SOL    HW229853   6.878   1.841   5.791
 9652SOL     OW29854   1.465   4.500   1.288
 9652SOL    HW129855   1.463   4.456   1.378
 9652SOL    HW229856   1.434   4.435   1.219
 9653SOL     OW29857   4.361   4.913   4.942
 9653SOL    HW129858   4.411   4.949   4.863
 9653SOL    HW229859   4.273   4.876   4.912
 9654SOL     OW29860   3.149   2.510   0.989
 9654SOL    HW129861   3.163   2.598   1.034
 9654SOL    HW229862   3.064   2.512   0.937
 9655SOL     OW29863   0.551   1.211   6.745
 9655SOL    HW129864   0.472   1.220   6.685
 9655SOL    HW229865   0.613   1.289   6.732
 9656SOL     OW29866   2.290   0.771   2.034
 9656SOL    HW129867   2.352   0.798   2.108
 9656SOL    HW229868   2.206   0.735   2.074
 9657SOL     OW29869   5.381   0.620   4.402
 9657SOL    HW129870   5.310   0.604   4.333
 9657SOL    HW229871   5.338   0.630   4.492
 9658SOL     OW29872   0.118   1.836   2.797
 9658SOL    HW129873   0.166   1.888   2.868
 9658SOL    HW229874   0.166   1.750   2.781
 9659SOL     OW29875   6.421   4.411   0.464
 9659SOL    HW129876   6.489   4.386   0.395
 9659SOL    HW229877   6.345   4.459   0.420
 9660SOL     OW29878   0.430   5.874   0.617
 9660SOL    HW129879   0.433   5.923   0.704
 9660SOL    HW229880   0.377   5.790   0.629
 9661SOL     OW29881   4.446   5.550   1.252
 9661SOL    HW129882   4.411   5.498   1.330
 9661SOL    HW229883   4.433   5.647   1.268
 9662SOL     OW29884   6.561   3.054   4.579
 9662SOL    HW129885   6.474   3.014   4.547
 9662SOL    HW229886   6.552   3.082   4.674
 9663SOL     OW29887   1.673   5.533   3.995
 9663SOL    HW129888   1.655   5.496   4.086
 9663SOL    HW229889   1.626   5.478   3.926
 9664SOL     OW29890   5.059   0.037   2.615
 9664SOL    HW129891   5.058   0.111   2.548
 9664SOL    HW229892   4.988   0.053   2.684
 9665SOL     OW29893   5.868   4.766   5.880
 9665SOL    HW129894   5.806   4.836   5.844
 9665SOL    HW229895   5.960   4.782   5.846
 9666SOL     OW29896   5.935   3.936   1.704
 9666SOL    HW129897   5.999   4.002   1.666
 9666SOL    HW229898   5.843   3.954   1.669
 9667SOL     OW29899   3.899   3.206   4.571
 9667SOL    HW129900   3.923   3.302   4.557
 9667SOL    HW229901   3.853   3.196   4.659
 9668SOL     OW29902   6.665   1.946   6.309
 9668SOL    HW129903   6.658   1.870   6.244
 9668SOL    HW229904   6.741   1.929   6.372
 9669SOL     OW29905   0.754   1.334   0.919
 9669SOL    HW129906   0.713   1.423   0.899
 9669SOL    HW229907   0.760   1.322   1.018
 9670SOL     OW29908   4.243   4.486   5.740
 9670SOL    HW129909   4.149   4.456   5.723
 9670SOL    HW229910   4.254   4.508   5.836
 9671SOL     OW29911   0.331   5.047   6.221
 9671SOL    HW129912   0.329   5.092   6.131
 9671SOL    HW229913   0.384   4.962   6.215
 9672SOL     OW29914   1.055   6.864   4.959
 9672SOL    HW129915   1.073   6.917   4.877
 9672SOL    HW229916   1.138   6.860   5.015
 9673SOL     OW29917   4.129   4.642   6.903
 9673SOL    HW129918   4.082   4.685   6.980
 9673SOL    HW229919   4.227   4.633   6.924
 9674SOL     OW29920   2.663   6.031   2.752
 9674SOL    HW129921   2.726   6.033   2.674
 9674SOL    HW229922   2.688   6.102   2.817
 9675SOL     OW29923   6.018   0.753   2.432
 9675SOL    HW129924   5.973   0.797   2.354
 9675SOL    HW229925   6.035   0.822   2.502
 9676SOL     OW29926   1.505   3.546   5.668
 9676SOL    HW129927   1.548   3.535   5.758
 9676SOL    HW229928   1.467   3.638   5.662
 9677SOL     OW29929   2.490   4.450   5.881
 9677SOL    HW129930   2.482   4.387   5.803
 9677SOL    HW229931   2.403   4.497   5.894
 9678SOL     OW29932   3.481   4.080   2.844
 9678SOL    HW129933   3.565   4.100   2.794
 9678SOL    HW229934   3.413   4.043   2.781
 9679SOL     OW29935   0.637   2.108   1.968
 9679SOL    HW129936   0.670   2.083   2.059
 9679SOL    HW229937   0.607   2.204   1.969
 9680SOL     OW29938   5.708   0.129   3.659
 9680SOL    HW129939   5.741   0.221   3.635
 9680SOL    HW229940   5.766   0.061   3.615
 9681SOL     OW29941   2.385   0.814   1.175
 9681SOL    HW129942   2.332   0.819   1.260
 9681SOL    HW229943   2.445   0.893   1.168
 9682SOL     OW29944   5.050   5.423   3.230
 9682SOL    HW129945   5.105   5.343   3.253
 9682SOL    HW229946   4.980   5.396   3.163
 9683SOL     OW29947   4.258   5.425   0.625
 9683SOL    HW129948   4.315   5.418   0.543
 9683SOL    HW229949   4.287   5.504   0.679
 9684SOL     OW29950   0.485   3.606   5.120
 9684SOL    HW129951   0.502   3.554   5.204
 9684SOL    HW229952   0.527   3.696   5.128
 9685SOL     OW29953   2.517   2.532   1.159
 9685SOL    HW129954   2.564   2.500   1.077
 9685SOL    HW229955   2.541   2.628   1.176
 9686SOL     OW29956   6.441   1.782   0.549
 9686SOL    HW129957   6.423   1.877   0.524
 9686SOL    HW229958   6.383   1.756   0.626
 9687SOL     OW29959   1.780   0.433   2.434
 9687SOL    HW129960   1.740   0.519   2.404
 9687SOL    HW229961   1.773   0.366   2.360
 9688SOL     OW29962   6.728   2.292   3.311
 9688SOL    HW129963   6.657   2.236   3.269
 9688SOL    HW229964   6.754   2.251   3.399
 9689SOL     OW29965   1.709   0.054   0.298
 9689SOL    HW129966   1.644   0.123   0.329
 9689SOL    HW229967   1.660   6.999   0.259
 9690SOL     OW29968   5.633   4.876   6.610
 9690SOL    HW129969   5.596   4.897   6.701
 9690SOL    HW229970   5.733   4.873   6.614
 9691SOL     OW29971   2.418   4.636   1.644
 9691SOL    HW129972   2.503   4.611   1.690
 9691SOL    HW229973   2.399   4.733   1.661
 9692SOL     OW29974   2.119   5.133   2.876
 9692SOL    HW129975   2.033   5.180   2.890
 9692SOL    HW229976   2.173   5.181   2.807
 9693SOL     OW29977   0.067   5.453   1.791
 9693SOL    HW129978   7.021   5.466   1.719
 9693SOL    HW229979   0.031   5.388   1.859
 9694SOL     OW29980   1.720   1.280   6.552
 9694SOL    HW129981   1.769   1.230   6.624
 9694SOL    HW229982   1.633   1.235   6.533
 9695SOL     OW29983   5.742   4.330   1.255
 9695SOL    HW129984   5.778   4.253   1.203
 9695SOL    HW229985   5.670   4.376   1.203
 9696SOL     OW29986   4.213   2.557   1.728
 9696SOL    HW129987   4.183   2.486   1.664
 9696SOL    HW229988   4.303   2.590   1.700
 9697SOL     OW29989   0.450   5.112   0.151
 9697SOL    HW129990   0.516   5.185   0.133
 9697SOL    HW229991   0.454   5.045   0.077
 9698SOL     OW29992   6.213   0.819   5.347
 9698SOL    HW129993   6.210   0.820   5.247
 9698SOL    HW229994   6.307   0.809   5.378
 9699SOL     OW29995   0.709   3.623   5.993
 9699SOL    HW129996   0.783   3.671   6.038
 9699SOL    HW229997   0.677   3.677   5.914
 9700SOL     OW29998   3.824   4.714   5.655
 9700SOL    HW129999   3.747   4.728   5.593
 9700SOL    HW230000   3.898   4.776   5.630
 9701SOL     OW30001   3.958   5.876   4.993
 9701SOL    HW130002   3.930   5.788   5.031
 9701SOL    HW230003   3.899   5.949   5.029
 9702SOL     OW30004   5.370   0.645   0.143
 9702SOL    HW130005   5.343   0.738   0.118
 9702SOL    HW230006   5.454   0.620   0.095
 9703SOL     OW30007   3.331   5.993   4.184
 9703SOL    HW130008   3.430   5.978   4.179
 9703SOL    HW230009   3.291   5.930   4.251
 9704SOL     OW30010   3.097   0.480   2.671
 9704SOL    HW130011   3.178   0.425   2.649
 9704SOL    HW230012   3.015   0.435   2.635
 9705SOL     OW30013   5.112   4.733   0.332
 9705SOL    HW130014   5.142   4.751   0.238
 9705SOL    HW230015   5.013   4.717   0.333
 9706SOL     OW30016   6.586   2.239   0.663
 9706SOL    HW130017   6.502   2.198   0.698
 9706SOL    HW230018   6.605   2.204   0.572
 9707SOL     OW30019   0.557   4.224   1.926
 9707SOL    HW130020   0.547   4.191   2.020
 9707SOL    HW230021   0.617   4.161   1.875
 9708SOL     OW30022   1.974   2.448   3.164
 9708SOL    HW130023   1.988   2.358   3.124
 9708SOL    HW230024   1.879   2.457   3.194
 9709SOL     OW30025   0.863   5.773   3.834
 9709SOL    HW130026   0.838   5.720   3.753
 9709SOL    HW230027   0.953   5.746   3.866
 9710SOL     OW30028   0.293   0.947   2.764
 9710SOL    HW130029   0.310   0.926   2.668
 9710SOL    HW230030   0.201   0.918   2.789
 9711SOL     OW30031   1.382   3.734   5.967
 9711SOL    HW130032   1.475   3.697   5.959
 9711SOL    HW230033   1.376   3.790   6.050
 9712SOL     OW30034   5.227   2.840   4.960
 9712SOL    HW130035   5.191   2.759   5.006
 9712SOL    HW230036   5.285   2.812   4.884
 9713SOL     OW30037   0.237   4.568   2.734
 9713SOL    HW130038   0.222   4.578   2.635
 9713SOL    HW230039   0.150   4.554   2.780
 9714SOL     OW30040   1.654   1.681   1.483
 9714SOL    HW130041   1.741   1.658   1.438
 9714SOL    HW230042   1.616   1.598   1.525
 9715SOL     OW30043   6.973   5.479   4.477
 9715SOL    HW130044   6.993   5.425   4.395
 9715SOL    HW230045   6.878   5.510   4.474
 9716SOL     OW30046   3.646   2.080   6.981
 9716SOL    HW130047   3.719   2.020   6.947
 9716SOL    HW230048   3.656   2.171   6.941
 9717SOL     OW30049   5.817   5.914   4.420
 9717SOL    HW130050   5.782   5.967   4.497
 9717SOL    HW230051   5.758   5.834   4.406
 9718SOL     OW30052   4.461   2.637   1.713
 9718SOL    HW130053   4.541   2.631   1.654
 9718SOL    HW230054   4.488   2.673   1.803
 9719SOL     OW30055   0.674   2.194   6.863
 9719SOL    HW130056   0.606   2.124   6.843
 9719SOL    HW230057   0.652   2.238   6.950
 9720SOL     OW30058   0.744   6.042   1.688
 9720SOL    HW130059   0.800   6.123   1.706
 9720SOL    HW230060   0.647   6.066   1.691
 9721SOL     OW30061   0.739   2.736   2.089
 9721SOL    HW130062   0.656   2.787   2.067
 9721SOL    HW230063   0.731   2.642   2.056
 9722SOL     OW30064   0.671   0.261   3.617
 9722SOL    HW130065   0.639   0.328   3.683
 9722SOL    HW230066   0.659   0.296   3.524
 9723SOL     OW30067   0.912   6.352   3.091
 9723SOL    HW130068   0.825   6.385   3.129
 9723SOL    HW230069   0.895   6.270   3.036
 9724SOL     OW30070   3.040   2.840   1.702
 9724SOL    HW130071   3.068   2.745   1.710
 9724SOL    HW230072   3.108   2.891   1.649
 9725SOL     OW30073   4.209   3.256   6.181
 9725SOL    HW130074   4.127   3.201   6.198
 9725SOL    HW230075   4.187   3.329   6.117
 9726SOL     OW30076   5.122   0.700   4.859
 9726SOL    HW130077   5.199   0.743   4.906
 9726SOL    HW230078   5.102   0.612   4.903
 9727SOL     OW30079   1.415   4.011   5.298
 9727SOL    HW130080   1.324   3.996   5.258
 9727SOL    HW230081   1.452   3.923   5.331
 9728SOL     OW30082   1.823   6.637   6.993
 9728SOL    HW130083   1.831   6.542   7.022
 9728SOL    HW230084   1.814   6.696   0.051
 9729SOL     OW30085   1.297   4.607   2.825
 9729SOL    HW130086   1.198   4.620   2.832
 9729SOL    HW230087   1.336   4.605   2.917
 9730SOL     OW30088   0.306   3.155   2.757
 9730SOL    HW130089   0.223   3.128   2.709
 9730SOL    HW230090   0.304   3.119   2.851
 9731SOL     OW30091   4.232   4.872   0.940
 9731SOL    HW130092   4.259   4.827   1.025
 9731SOL    HW230093   4.180   4.809   0.884
 9732SOL     OW30094   6.227   6.270   2.917
 9732SOL    HW130095   6.220   6.368   2.898
 9732SOL    HW230096   6.309   6.253   2.971
 9733SOL     OW30097   5.953   5.052   4.438
 9733SOL    HW130098   5.891   4.994   4.489
 9733SOL    HW230099   6.029   5.080   4.497
 9734SOL     OW30100   5.460   1.702   4.089
 9734SOL    HW130101   5.363   1.721   4.071
 9734SOL    HW230102   5.489   1.625   4.033
 9735SOL     OW30103   2.051   4.746   2.687
 9735SOL    HW130104   2.086   4.815   2.750
 9735SOL    HW230105   2.126   4.710   2.631
 9736SOL     OW30106   5.065   0.919   6.445
 9736SOL    HW130107   5.000   0.936   6.371
 9736SOL    HW230108   5.017   0.876   6.522
 9737SOL     OW30109   4.496   2.515   5.008
 9737SOL    HW130110   4.527   2.608   5.030
 9737SOL    HW230111   4.397   2.516   4.990
 9738SOL     OW30112   1.990   0.477   2.608
 9738SOL    HW130113   1.978   0.407   2.679
 9738SOL    HW230114   1.920   0.466   2.538
 9739SOL     OW30115   0.531   5.099   1.368
 9739SOL    HW130116   0.628   5.082   1.353
 9739SOL    HW230117   0.488   5.120   1.280
 9740SOL     OW30118   6.069   3.560   3.242
 9740SOL    HW130119   6.003   3.631   3.266
 9740SOL    HW230120   6.112   3.582   3.155
 9741SOL     OW30121   4.479   1.117   2.541
 9741SOL    HW130122   4.430   1.201   2.517
 9741SOL    HW230123   4.419   1.058   2.595
 9742SOL     OW30124   4.671   0.263   2.953
 9742SOL    HW130125   4.578   0.224   2.956
 9742SOL    HW230126   4.702   0.265   2.858
 9743SOL     OW30127   1.904   2.642   5.736
 9743SOL    HW130128   1.946   2.733   5.733
 9743SOL    HW230129   1.884   2.612   5.643
 9744SOL     OW30130   0.849   0.590   2.117
 9744SOL    HW130131   0.820   0.557   2.027
 9744SOL    HW230132   0.805   0.536   2.189
 9745SOL     OW30133   0.585   2.635   5.689
 9745SOL    HW130134   0.495   2.656   5.728
 9745SOL    HW230135   0.573   2.575   5.610
 9746SOL     OW30136   5.083   1.718   4.988
 9746SOL    HW130137   5.016   1.693   5.058
 9746SOL    HW230138   5.173   1.731   5.031
 9747SOL     OW30139   1.463   1.570   1.185
 9747SOL    HW130140   1.479   1.667   1.199
 9747SOL    HW230141   1.547   1.519   1.206
 9748SOL     OW30142   0.832   6.848   5.483
 9748SOL    HW130143   0.755   6.896   5.440
 9748SOL    HW230144   0.852   6.765   5.432
 9749SOL     OW30145   1.316   2.602   5.418
 9749SOL    HW130146   1.315   2.701   5.432
 9749SOL    HW230147   1.381   2.579   5.346
 9750SOL     OW30148   5.735   5.380   3.864
 9750SOL    HW130149   5.816   5.407   3.811
 9750SOL    HW230150   5.655   5.430   3.831
 9751SOL     OW30151   2.208   1.863   0.990
 9751SOL    HW130152   2.298   1.867   0.946
 9751SOL    HW230153   2.215   1.897   1.083
 9752SOL     OW30154   4.707   0.731   6.274
 9752SOL    HW130155   4.781   0.688   6.222
 9752SOL    HW230156   4.707   0.695   6.367
 9753SOL     OW30157   6.458   6.245   4.711
 9753SOL    HW130158   6.463   6.307   4.633
 9753SOL    HW230159   6.363   6.224   4.731
 9754SOL     OW30160   1.012   1.541   0.045
 9754SOL    HW130161   1.003   1.442   0.032
 9754SOL    HW230162   0.938   1.588   7.020
 9755SOL     OW30163   4.210   3.758   5.165
 9755SOL    HW130164   4.159   3.818   5.225
 9755SOL    HW230165   4.151   3.684   5.133
 9756SOL     OW30166   5.838   3.056   0.095
 9756SOL    HW130167   5.754   3.083   0.047
 9756SOL    HW230168   5.881   3.138   0.134
 9757SOL     OW30169   4.978   3.089   3.816
 9757SOL    HW130170   4.982   2.989   3.816
 9757SOL    HW230171   5.061   3.126   3.774
 9758SOL     OW30172   1.859   0.203   5.758
 9758SOL    HW130173   1.842   0.294   5.720
 9758SOL    HW230174   1.808   0.193   5.843
 9759SOL     OW30175   2.184   0.028   0.955
 9759SOL    HW130176   2.145   0.103   1.008
 9759SOL    HW230177   2.227   6.985   1.017
 9760SOL     OW30178   5.077   4.315   5.126
 9760SOL    HW130179   5.083   4.216   5.139
 9760SOL    HW230180   5.166   4.351   5.101
 9761SOL     OW30181   5.612   5.188   1.810
 9761SOL    HW130182   5.576   5.274   1.848
 9761SOL    HW230183   5.570   5.171   1.721
 9762SOL     OW30184   2.550   1.817   4.581
 9762SOL    HW130185   2.594   1.901   4.611
 9762SOL    HW230186   2.477   1.793   4.646
 9763SOL     OW30187   4.670   1.286   1.884
 9763SOL    HW130188   4.737   1.292   1.810
 9763SOL    HW230189   4.581   1.263   1.846
 9764SOL     OW30190   1.547   2.025   3.333
 9764SOL    HW130191   1.549   2.111   3.281
 9764SOL    HW230192   1.603   2.035   3.415
 9765SOL     OW30193   6.638   2.433   5.175
 9765SOL    HW130194   6.712   2.500   5.169
 9765SOL    HW230195   6.630   2.401   5.270
 9766SOL     OW30196   2.495   0.435   2.293
 9766SOL    HW130197   2.490   0.446   2.194
 9766SOL    HW230198   2.502   0.338   2.316
 9767SOL     OW30199   5.279   1.839   4.643
 9767SOL    HW130200   5.378   1.827   4.655
 9767SOL    HW230201   5.261   1.932   4.611
 9768SOL     OW30202   4.967   2.240   2.027
 9768SOL    HW130203   4.926   2.262   1.938
 9768SOL    HW230204   5.058   2.281   2.032
 9769SOL     OW30205   1.213   2.446   1.382
 9769SOL    HW130206   1.189   2.355   1.346
 9769SOL    HW230207   1.302   2.473   1.344
 9770SOL     OW30208   5.827   5.554   6.025
 9770SOL    HW130209   5.899   5.492   5.995
 9770SOL    HW230210   5.780   5.515   6.105
 9771SOL     OW30211   4.631   4.399   1.143
 9771SOL    HW130212   4.542   4.424   1.106
 9771SOL    HW230213   4.631   4.303   1.169
 9772SOL     OW30214   6.898   6.810   1.847
 9772SOL    HW130215   6.893   6.759   1.933
 9772SOL    HW230216   6.963   6.886   1.857
 9773SOL     OW30217   5.933   6.187   3.773
 9773SOL    HW130218   5.925   6.229   3.683
 9773SOL    HW230219   5.856   6.216   3.830
 9774SOL     OW30220   5.916   5.080   3.604
 9774SOL    HW130221   5.941   5.098   3.699
 9774SOL    HW230222   5.879   4.987   3.597
 9775SOL     OW30223   2.068   2.156   4.668
 9775SOL    HW130224   1.986   2.211   4.684
 9775SOL    HW230225   2.065   2.075   4.725
 9776SOL     OW30226   7.004   5.437   4.193
 9776SOL    HW130227   6.918   5.485   4.177
 9776SOL    HW230228   0.050   5.501   4.226
 9777SOL     OW30229   6.162   4.874   6.065
 9777SOL    HW130230   6.107   4.791   6.055
 9777SOL    HW230231   6.233   4.876   5.995
 9778SOL     OW30232   5.101   0.021   3.251
 9778SOL    HW130233   5.105   0.069   3.338
 9778SOL    HW230234   5.013   6.996   3.243
 9779SOL     OW30235   2.576   1.407   4.762
 9779SOL    HW130236   2.482   1.428   4.737
 9779SOL    HW230237   2.635   1.419   4.683
 9780SOL     OW30238   1.951   2.955   0.822
 9780SOL    HW130239   1.972   3.051   0.837
 9780SOL    HW230240   1.854   2.938   0.838
 9781SOL     OW30241   1.913   4.301   4.540
 9781SOL    HW130242   1.941   4.206   4.530
 9781SOL    HW230243   1.931   4.351   4.455
 9782SOL     OW30244   6.792   0.264   0.969
 9782SOL    HW130245   6.810   0.194   1.038
 9782SOL    HW230246   6.713   0.319   0.996
 9783SOL     OW30247   6.233   1.090   1.383
 9783SOL    HW130248   6.170   1.102   1.307
 9783SOL    HW230249   6.323   1.064   1.348
 9784SOL     OW30250   4.117   1.322   3.410
 9784SOL    HW130251   4.174   1.393   3.371
 9784SOL    HW230252   4.146   1.302   3.503
 9785SOL     OW30253   0.028   3.096   2.995
 9785SOL    HW130254   6.958   3.063   2.981
 9785SOL    HW230255   0.088   3.057   2.926
 9786SOL     OW30256   1.989   4.721   6.254
 9786SOL    HW130257   1.919   4.651   6.266
 9786SOL    HW230258   1.997   4.743   6.157
 9787SOL     OW30259   5.140   3.273   1.868
 9787SOL    HW130260   5.062   3.226   1.827
 9787SOL    HW230261   5.116   3.305   1.960
 9788SOL     OW30262   0.199   6.939   4.227
 9788SOL    HW130263   0.149   6.882   4.293
 9788SOL    HW230264   0.195   0.012   4.255
 9789SOL     OW30265   2.351   5.343   6.048
 9789SOL    HW130266   2.368   5.303   5.958
 9789SOL    HW230267   2.419   5.309   6.113
 9790SOL     OW30268   5.674   1.888   4.022
 9790SOL    HW130269   5.639   1.961   4.080
 9790SOL    HW230270   5.606   1.815   4.016
 9791SOL     OW30271   1.241   1.557   1.629
 9791SOL    HW130272   1.200   1.491   1.692
 9791SOL    HW230273   1.186   1.641   1.628
 9792SOL     OW30274   4.666   5.200   1.758
 9792SOL    HW130275   4.637   5.191   1.663
 9792SOL    HW230276   4.677   5.109   1.798
 9793SOL     OW30277   5.156   6.114   2.741
 9793SOL    HW130278   5.108   6.082   2.823
 9793SOL    HW230279   5.250   6.137   2.764
 9794SOL     OW30280   4.891   3.230   6.166
 9794SOL    HW130281   4.870   3.327   6.181
 9794SOL    HW230282   4.869   3.206   6.072
 9795SOL     OW30283   1.181   2.850   4.306
 9795SOL    HW130284   1.130   2.933   4.327
 9795SOL    HW230285   1.279   2.867   4.322
 9796SOL     OW30286   3.171   5.126   0.890
 9796SOL    HW130287   3.076   5.102   0.870
 9796SOL    HW230288   3.232   5.061   0.844
 9797SOL     OW30289   4.352   3.530   6.893
 9797SOL    HW130290   4.380   3.517   6.798
 9797SOL    HW230291   4.432   3.523   6.953
 9798SOL     OW30292   2.241   0.285   1.159
 9798SOL    HW130293   2.157   0.231   1.153
 9798SOL    HW230294   2.233   0.351   1.233
 9799SOL     OW30295   3.237   2.948   2.716
 9799SOL    HW130296   3.237   2.927   2.618
 9799SOL    HW230297   3.324   2.918   2.757
 9800SOL     OW30298   4.158   6.034   6.552
 9800SOL    HW130299   4.187   5.971   6.624
 9800SOL    HW230300   4.123   5.982   6.475
 9801SOL     OW30301   5.024   5.520   0.298
 9801SOL    HW130302   5.122   5.512   0.277
 9801SOL    HW230303   4.992   5.611   0.270
 9802SOL     OW30304   0.693   3.249   1.463
 9802SOL    HW130305   0.605   3.284   1.433
 9802SOL    HW230306   0.732   3.309   1.532
 9803SOL     OW30307   6.024   6.759   6.690
 9803SOL    HW130308   6.024   6.659   6.682
 9803SOL    HW230309   6.114   6.789   6.721
 9804SOL     OW30310   0.241   5.021   3.579
 9804SOL    HW130311   0.313   5.090   3.574
 9804SOL    HW230312   0.274   4.935   3.538
 9805SOL     OW30313   1.387   5.341   6.834
 9805SOL    HW130314   1.474   5.385   6.811
 9805SOL    HW230315   1.390   5.308   6.928
 9806SOL     OW30316   0.588   2.390   1.641
 9806SOL    HW130317   0.634   2.342   1.716
 9806SOL    HW230318   0.645   2.384   1.559
 9807SOL     OW30319   4.044   1.632   0.229
 9807SOL    HW130320   4.020   1.536   0.222
 9807SOL    HW230321   4.018   1.667   0.319
 9808SOL     OW30322   6.055   1.574   4.981
 9808SOL    HW130323   5.995   1.496   4.962
 9808SOL    HW230324   6.150   1.543   4.976
 9809SOL     OW30325   1.134   1.652   5.578
 9809SOL    HW130326   1.167   1.599   5.656
 9809SOL    HW230327   1.105   1.590   5.505
 9810SOL     OW30328   2.531   1.352   3.254
 9810SOL    HW130329   2.480   1.308   3.180
 9810SOL    HW230330   2.467   1.384   3.324
 9811SOL     OW30331   6.880   6.353   3.448
 9811SOL    HW130332   6.820   6.350   3.528
 9811SOL    HW230333   6.911   6.447   3.434
 9812SOL     OW30334   4.484   2.123   6.002
 9812SOL    HW130335   4.446   2.215   5.992
 9812SOL    HW230336   4.536   2.099   5.920
 9813SOL     OW30337   6.077   5.707   0.239
 9813SOL    HW130338   6.177   5.704   0.244
 9813SOL    HW230339   6.042   5.616   0.220
 9814SOL     OW30340   6.430   0.208   5.725
 9814SOL    HW130341   6.414   0.184   5.820
 9814SOL    HW230342   6.364   0.278   5.697
 9815SOL     OW30343   6.510   3.322   1.490
 9815SOL    HW130344   6.460   3.317   1.404
 9815SOL    HW230345   6.461   3.383   1.553
 9816SOL     OW30346   6.604   0.405   6.859
 9816SOL    HW130347   6.507   0.382   6.853
 9816SOL    HW230348   6.620   0.457   6.943
 9817SOL     OW30349   3.262   5.723   1.778
 9817SOL    HW130350   3.339   5.684   1.828
 9817SOL    HW230351   3.220   5.796   1.832
 9818SOL     OW30352   1.850   1.219   3.433
 9818SOL    HW130353   1.750   1.213   3.442
 9818SOL    HW230354   1.887   1.127   3.423
 9819SOL     OW30355   5.816   3.353   4.857
 9819SOL    HW130356   5.892   3.301   4.897
 9819SOL    HW230357   5.772   3.409   4.927
 9820SOL     OW30358   2.712   1.900   6.139
 9820SOL    HW130359   2.721   1.977   6.077
 9820SOL    HW230360   2.654   1.926   6.217
 9821SOL     OW30361   4.327   1.854   1.906
 9821SOL    HW130362   4.249   1.856   1.843
 9821SOL    HW230363   4.403   1.805   1.863
 9822SOL     OW30364   4.221   5.970   4.583
 9822SOL    HW130365   4.134   6.018   4.574
 9822SOL    HW230366   4.234   5.940   4.677
 9823SOL     OW30367   1.124   0.611   2.251
 9823SOL    HW130368   1.028   0.613   2.223
 9823SOL    HW230369   1.181   0.581   2.175
 9824SOL     OW30370   1.926   6.665   5.796
 9824SOL    HW130371   1.954   6.761   5.784
 9824SOL    HW230372   1.996   6.605   5.757
 9825SOL     OW30373   5.201   6.126   5.604
 9825SOL    HW130374   5.118   6.181   5.600
 9825SOL    HW230375   5.182   6.039   5.649
 9826SOL     OW30376   3.323   6.754   5.222
 9826SOL    HW130377   3.394   6.820   5.195
 9826SOL    HW230378   3.304   6.764   5.319
 9827SOL     OW30379   1.900   5.731   2.500
 9827SOL    HW130380   1.818   5.788   2.496
 9827SOL    HW230381   1.961   5.755   2.425
 9828SOL     OW30382   4.099   1.835   4.875
 9828SOL    HW130383   4.141   1.813   4.964
 9828SOL    HW230384   4.138   1.920   4.840
 9829SOL     OW30385   4.498   5.941   5.767
 9829SOL    HW130386   4.542   6.000   5.834
 9829SOL    HW230387   4.521   5.846   5.785
 9830SOL     OW30388   5.851   2.256   2.616
 9830SOL    HW130389   5.906   2.178   2.646
 9830SOL    HW230390   5.781   2.276   2.684
 9831SOL     OW30391   0.848   3.985   2.427
 9831SOL    HW130392   0.849   4.027   2.336
 9831SOL    HW230393   0.894   3.896   2.424
 9832SOL     OW30394   4.642   4.315   4.576
 9832SOL    HW130395   4.629   4.405   4.535
 9832SOL    HW230396   4.674   4.251   4.506
 9833SOL     OW30397   3.342   4.108   4.263
 9833SOL    HW130398   3.364   4.105   4.360
 9833SOL    HW230399   3.391   4.183   4.219
 9834SOL     OW30400   2.586   5.570   5.670
 9834SOL    HW130401   2.673   5.559   5.718
 9834SOL    HW230402   2.541   5.480   5.663
 9835SOL     OW30403   3.501   4.201   5.201
 9835SOL    HW130404   3.561   4.276   5.227
 9835SOL    HW230405   3.531   4.163   5.114
 9836SOL     OW30406   1.070   3.436   5.760
 9836SOL    HW130407   0.999   3.410   5.695
 9836SOL    HW230408   1.063   3.379   5.842
 9837SOL     OW30409   5.562   1.866   1.652
 9837SOL    HW130410   5.648   1.908   1.680
 9837SOL    HW230411   5.572   1.829   1.560
 9838SOL     OW30412   0.613   5.851   1.002
 9838SOL    HW130413   0.601   5.758   0.966
 9838SOL    HW230414   0.662   5.847   1.089
 9839SOL     OW30415   4.381   1.353   2.213
 9839SOL    HW130416   4.383   1.330   2.115
 9839SOL    HW230417   4.373   1.452   2.223
 9840SOL     OW30418   5.673   1.878   7.014
 9840SOL    HW130419   5.648   1.877   0.088
 9840SOL    HW230420   5.595   1.849   6.959
 9841SOL     OW30421   0.358   5.607   3.619
 9841SOL    HW130422   0.405   5.597   3.707
 9841SOL    HW230423   0.306   5.692   3.619
 9842SOL     OW30424   3.401   1.977   0.366
 9842SOL    HW130425   3.477   1.947   0.423
 9842SOL    HW230426   3.436   2.019   0.282
 9843SOL     OW30427   7.005   6.215   0.868
 9843SOL    HW130428   6.984   6.215   0.965
 9843SOL    HW230429   0.079   6.237   0.855
 9844SOL     OW30430   4.888   0.211   4.484
 9844SOL    HW130431   4.889   0.299   4.531
 9844SOL    HW230432   4.967   0.157   4.513
 9845SOL     OW30433   1.601   2.682   1.921
 9845SOL    HW130434   1.619   2.726   2.009
 9845SOL    HW230435   1.653   2.596   1.915
 9846SOL     OW30436   5.392   1.110   1.372
 9846SOL    HW130437   5.417   1.032   1.428
 9846SOL    HW230438   5.435   1.193   1.408
 9847SOL     OW30439   3.730   3.606   0.659
 9847SOL    HW130440   3.768   3.611   0.752
 9847SOL    HW230441   3.631   3.602   0.664
 9848SOL     OW30442   3.444   3.349   5.059
 9848SOL    HW130443   3.497   3.419   5.011
 9848SOL    HW230444   3.506   3.293   5.114
 9849SOL     OW30445   0.889   1.206   6.439
 9849SOL    HW130446   0.955   1.212   6.365
 9849SOL    HW230447   0.800   1.179   6.402
 9850SOL     OW30448   0.558   0.682   4.321
 9850SOL    HW130449   0.548   0.582   4.318
 9850SOL    HW230450   0.561   0.718   4.228
 9851SOL     OW30451   3.844   4.889   4.376
 9851SOL    HW130452   3.865   4.986   4.366
 9851SOL    HW230453   3.748   4.878   4.401
 9852SOL     OW30454   1.463   1.268   6.188
 9852SOL    HW130455   1.553   1.224   6.191
 9852SOL    HW230456   1.469   1.359   6.227
 9853SOL     OW30457   0.289   4.158   4.243
 9853SOL    HW130458   0.223   4.118   4.308
 9853SOL    HW230459   0.244   4.229   4.189
 9854SOL     OW30460   0.675   5.832   6.111
 9854SOL    HW130461   0.729   5.757   6.149
 9854SOL    HW230462   0.589   5.841   6.160
 9855SOL     OW30463   1.245   3.347   0.874
 9855SOL    HW130464   1.207   3.260   0.844
 9855SOL    HW230465   1.196   3.379   0.955
 9856SOL     OW30466   5.527   3.989   3.356
 9856SOL    HW130467   5.427   3.987   3.355
 9856SOL    HW230468   5.563   3.950   3.272
 9857SOL     OW30469   4.762   1.730   3.379
 9857SOL    HW130470   4.791   1.821   3.350
 9857SOL    HW230471   4.811   1.660   3.326
 9858SOL     OW30472   0.175   5.830   2.307
 9858SOL    HW130473   0.178   5.830   2.407
 9858SOL    HW230474   0.229   5.754   2.272
 9859SOL     OW30475   0.324   5.425   4.727
 9859SOL    HW130476   0.251   5.479   4.684
 9859SOL    HW230477   0.393   5.487   4.764
 9860SOL     OW30478   1.840   2.540   5.460
 9860SOL    HW130479   1.753   2.543   5.411
 9860SOL    HW230480   1.899   2.614   5.428
 9861SOL     OW30481   3.311   1.436   4.321
 9861SOL    HW130482   3.311   1.498   4.242
 9861SOL    HW230483   3.392   1.453   4.377
 9862SOL     OW30484   1.935   4.863   0.860
 9862SOL    HW130485   1.980   4.904   0.781
 9862SOL    HW230486   1.962   4.912   0.943
 9863SOL     OW30487   3.053   5.958   1.138
 9863SOL    HW130488   3.060   6.033   1.203
 9863SOL    HW230489   2.956   5.943   1.115
 9864SOL     OW30490   3.020   6.221   5.284
 9864SOL    HW130491   3.067   6.251   5.368
 9864SOL    HW230492   3.027   6.293   5.215
 9865SOL     OW30493   0.821   6.481   5.752
 9865SOL    HW130494   0.730   6.471   5.793
 9865SOL    HW230495   0.888   6.501   5.824
 9866SOL     OW30496   6.401   4.479   4.543
 9866SOL    HW130497   6.479   4.445   4.595
 9866SOL    HW230498   6.329   4.410   4.543
 9867SOL     OW30499   5.012   1.979   1.527
 9867SOL    HW130500   5.109   1.967   1.508
 9867SOL    HW230501   4.980   2.062   1.480
 9868SOL     OW30502   1.049   4.634   3.044
 9868SOL    HW130503   1.055   4.565   3.116
 9868SOL    HW230504   1.093   4.718   3.075
 9869SOL     OW30505   7.019   2.883   1.331
 9869SOL    HW130506   0.009   2.815   1.403
 9869SOL    HW230507   6.923   2.911   1.328
 9870SOL     OW30508   3.365   1.303   1.882
 9870SOL    HW130509   3.416   1.384   1.855
 9870SOL    HW230510   3.267   1.321   1.873
 9871SOL     OW30511   0.054   3.512   5.292
 9871SOL    HW130512   0.056   3.608   5.264
 9871SOL    HW230513   0.118   3.460   5.236
 9872SOL     OW30514   1.781   4.918   5.439
 9872SOL    HW130515   1.872   4.959   5.449
 9872SOL    HW230516   1.737   4.912   5.528
 9873SOL     OW30517   2.584   2.123   5.715
 9873SOL    HW130518   2.561   2.084   5.804
 9873SOL    HW230519   2.658   2.189   5.726
 9874SOL     OW30520   7.015   2.755   4.787
 9874SOL    HW130521   7.008   2.741   4.688
 9874SOL    HW230522   6.950   2.695   4.833
 9875SOL     OW30523   6.819   5.928   0.505
 9875SOL    HW130524   6.793   5.867   0.580
 9875SOL    HW230525   6.744   5.991   0.486
 9876SOL     OW30526   1.981   6.425   3.044
 9876SOL    HW130527   2.072   6.429   3.001
 9876SOL    HW230528   1.955   6.517   3.074
 9877SOL     OW30529   1.140   5.041   4.806
 9877SOL    HW130530   1.127   4.943   4.824
 9877SOL    HW230531   1.236   5.065   4.819
 9878SOL     OW30532   2.002   2.977   0.116
 9878SOL    HW130533   1.955   2.971   0.204
 9878SOL    HW230534   1.983   2.894   0.063
 9879SOL     OW30535   0.440   4.577   5.922
 9879SOL    HW130536   0.525   4.533   5.891
 9879SOL    HW230537   0.362   4.524   5.891
 9880SOL     OW30538   3.006   1.590   0.084
 9880SOL    HW130539   2.986   1.651   0.007
 9880SOL    HW230540   3.105   1.590   0.101
 9881SOL     OW30541   5.152   0.432   4.940
 9881SOL    HW130542   5.218   0.379   4.994
 9881SOL    HW230543   5.059   0.406   4.967
 9882SOL     OW30544   4.100   3.222   4.384
 9882SOL    HW130545   4.091   3.177   4.295
 9882SOL    HW230546   4.026   3.191   4.444
 9883SOL     OW30547   2.077   6.848   1.328
 9883SOL    HW130548   2.057   6.908   1.406
 9883SOL    HW230549   2.158   6.881   1.280
 9884SOL     OW30550   2.101   3.747   6.547
 9884SOL    HW130551   2.013   3.792   6.563
 9884SOL    HW230552   2.131   3.766   6.454
 9885SOL     OW30553   6.536   3.224   4.114
 9885SOL    HW130554   6.593   3.194   4.190
 9885SOL    HW230555   6.569   3.182   4.029
 9886SOL     OW30556   4.997   6.193   1.542
 9886SOL    HW130557   4.925   6.136   1.501
 9886SOL    HW230558   5.057   6.228   1.470
 9887SOL     OW30559   3.645   6.841   0.661
 9887SOL    HW130560   3.621   6.759   0.713
 9887SOL    HW230561   3.725   6.822   0.604
 9888SOL     OW30562   5.997   5.344   2.319
 9888SOL    HW130563   5.912   5.381   2.356
 9888SOL    HW230564   5.995   5.244   2.322
 9889SOL     OW30565   0.425   4.877   3.190
 9889SOL    HW130566   0.380   4.851   3.104
 9889SOL    HW230567   0.440   4.976   3.191
 9890SOL     OW30568   6.820   4.088   1.812
 9890SOL    HW130569   6.840   4.185   1.825
 9890SOL    HW230570   6.839   4.039   1.896
 9891SOL     OW30571   5.232   4.882   0.848
 9891SOL    HW130572   5.235   4.802   0.788
 9891SOL    HW230573   5.259   4.963   0.796
 9892SOL     OW30574   1.951   5.192   3.917
 9892SOL    HW130575   2.049   5.213   3.915
 9892SOL    HW230576   1.908   5.227   3.833
 9893SOL     OW30577   6.310   5.165   3.217
 9893SOL    HW130578   6.310   5.198   3.311
 9893SOL    HW230579   6.235   5.100   3.204
 9894SOL     OW30580   3.660   2.767   5.693
 9894SOL    HW130581   3.663   2.845   5.632
 9894SOL    HW230582   3.569   2.726   5.692
 9895SOL     OW30583   5.226   2.779   6.464
 9895SOL    HW130584   5.302   2.841   6.442
 9895SOL    HW230585   5.184   2.807   6.550
 9896SOL     OW30586   3.876   4.108   0.442
 9896SOL    HW130587   3.851   4.043   0.513
 9896SOL    HW230588   3.933   4.180   0.481
 9897SOL     OW30589   5.813   2.184   2.966
 9897SOL    HW130590   5.908   2.152   2.971
 9897SOL    HW230591   5.751   2.105   2.970
 9898SOL     OW30592   1.761   5.443   5.812
 9898SOL    HW130593   1.666   5.470   5.801
 9898SOL    HW230594   1.811   5.463   5.727
 9899SOL     OW30595   5.180   4.544   2.581
 9899SOL    HW130596   5.249   4.530   2.653
 9899SOL    HW230597   5.172   4.642   2.562
 9900SOL     OW30598   1.267   2.269   4.008
 9900SOL    HW130599   1.304   2.356   4.041
 9900SOL    HW230600   1.304   2.250   3.917
 9901SOL     OW30601   2.953   2.069   6.053
 9901SOL    HW130602   3.022   2.005   6.019
 9901SOL    HW230603   2.943   2.145   5.988
 9902SOL     OW30604   3.856   3.846   0.577
 9902SOL    HW130605   3.861   3.856   0.477
 9902SOL    HW230606   3.803   3.765   0.600
 9903SOL     OW30607   4.078   1.475   2.104
 9903SOL    HW130608   4.019   1.488   2.183
 9903SOL    HW230609   4.132   1.558   2.089
 9904SOL     OW30610   6.108   2.096   0.345
 9904SOL    HW130611   6.150   2.159   0.410
 9904SOL    HW230612   6.086   2.145   0.261
 9905SOL     OW30613   1.372   6.781   6.171
 9905SOL    HW130614   1.350   6.774   6.268
 9905SOL    HW230615   1.328   6.862   6.132
 9906SOL     OW30616   2.341   3.464   6.381
 9906SOL    HW130617   2.321   3.407   6.460
 9906SOL    HW230618   2.420   3.427   6.332
 9907SOL     OW30619   2.466   5.900   2.937
 9907SOL    HW130620   2.491   5.834   3.007
 9907SOL    HW230621   2.539   5.968   2.927
 9908SOL     OW30622   0.665   3.684   6.446
 9908SOL    HW130623   0.705   3.774   6.458
 9908SOL    HW230624   0.736   3.614   6.456
 9909SOL     OW30625   3.082   1.113   2.813
 9909SOL    HW130626   3.138   1.196   2.810
 9909SOL    HW230627   3.138   1.036   2.843
 9910SOL     OW30628   6.323   4.586   0.806
 9910SOL    HW130629   6.269   4.613   0.726
 9910SOL    HW230630   6.414   4.557   0.777
 9911SOL     OW30631   3.888   5.106   3.126
 9911SOL    HW130632   3.927   5.111   3.034
 9911SOL    HW230633   3.935   5.036   3.179
 9912SOL     OW30634   5.202   0.245   1.551
 9912SOL    HW130635   5.289   0.197   1.537
 9912SOL    HW230636   5.199   0.326   1.493
 9913SOL     OW30637   5.329   2.546   2.857
 9913SOL    HW130638   5.381   2.518   2.777
 9913SOL    HW230639   5.320   2.468   2.920
 9914SOL     OW30640   0.843   0.449   4.951
 9914SOL    HW130641   0.833   0.528   4.891
 9914SOL    HW230642   0.933   0.451   4.996
 9915SOL     OW30643   5.118   3.072   4.128
 9915SOL    HW130644   5.216   3.063   4.148
 9915SOL    HW230645   5.106   3.107   4.036
 9916SOL     OW30646   2.145   2.611   2.526
 9916SOL    HW130647   2.155   2.709   2.513
 9916SOL    HW230648   2.189   2.584   2.611
 9917SOL     OW30649   3.213   4.388   5.691
 9917SOL    HW130650   3.135   4.364   5.633
 9917SOL    HW230651   3.213   4.330   5.772
 9918SOL     OW30652   2.181   2.053   5.871
 9918SOL    HW130653   2.095   2.005   5.856
 9918SOL    HW230654   2.251   2.017   5.809
 9919SOL     OW30655   0.877   5.872   2.537
 9919SOL    HW130656   0.947   5.858   2.468
 9919SOL    HW230657   0.812   5.796   2.534
 9920SOL     OW30658   3.738   6.343   1.358
 9920SOL    HW130659   3.639   6.344   1.374
 9920SOL    HW230660   3.785   6.387   1.434
 9921SOL     OW30661   5.691   0.122   3.244
 9921SOL    HW130662   5.745   0.043   3.214
 9921SOL    HW230663   5.599   0.117   3.206
 9922SOL     OW30664   4.224   4.760   0.636
 9922SOL    HW130665   4.206   4.673   0.683
 9922SOL    HW230666   4.138   4.805   0.615
 9923SOL     OW30667   6.404   2.423   5.909
 9923SOL    HW130668   6.381   2.333   5.872
 9923SOL    HW230669   6.464   2.412   5.988
 9924SOL     OW30670   6.846   0.670   2.849
 9924SOL    HW130671   6.922   0.715   2.896
 9924SOL    HW230672   6.805   0.733   2.784
 9925SOL     OW30673   2.914   2.979   5.624
 9925SOL    HW130674   2.902   2.912   5.551
 9925SOL    HW230675   2.987   2.948   5.685
 9926SOL     OW30676   0.965   1.314   0.360
 9926SOL    HW130677   0.952   1.234   0.419
 9926SOL    HW230678   1.044   1.367   0.393
 9927SOL     OW30679   6.975   1.802   2.598
 9927SOL    HW130680   7.014   1.816   2.690
 9927SOL    HW230681   6.925   1.884   2.571
 9928SOL     OW30682   6.986   3.867   2.218
 9928SOL    HW130683   0.044   3.827   2.261
 9928SOL    HW230684   6.964   3.953   2.263
 9929SOL     OW30685   2.673   4.460   6.898
 9929SOL    HW130686   2.728   4.412   6.829
 9929SOL    HW230687   2.722   4.542   6.928
 9930SOL     OW30688   6.782   0.040   6.231
 9930SOL    HW130689   6.842   0.088   6.167
 9930SOL    HW230690   6.831   6.986   6.271
 9931SOL     OW30691   1.760   5.802   5.433
 9931SOL    HW130692   1.836   5.864   5.412
 9931SOL    HW230693   1.743   5.802   5.531
 9932SOL     OW30694   1.407   1.387   0.224
 9932SOL    HW130695   1.456   1.431   0.299
 9932SOL    HW230696   1.345   1.453   0.181
 9933SOL     OW30697   2.348   1.639   3.097
 9933SOL    HW130698   2.352   1.539   3.087
 9933SOL    HW230699   2.274   1.675   3.041
 9934SOL     OW30700   5.440   1.652   6.249
 9934SOL    HW130701   5.373   1.715   6.211
 9934SOL    HW230702   5.523   1.703   6.274
 9935SOL     OW30703   3.241   2.095   0.585
 9935SOL    HW130704   3.275   2.044   0.506
 9935SOL    HW230705   3.301   2.082   0.663
 9936SOL     OW30706   6.004   5.858   5.622
 9936SOL    HW130707   6.088   5.825   5.579
 9936SOL    HW230708   5.933   5.872   5.553
 9937SOL     OW30709   0.486   0.060   2.950
 9937SOL    HW130710   0.538   0.145   2.960
 9937SOL    HW230711   0.498   0.004   3.031
 9938SOL     OW30712   0.135   0.588   4.315
 9938SOL    HW130713   0.165   0.646   4.390
 9938SOL    HW230714   0.050   0.624   4.277
 9939SOL     OW30715   2.369   4.107   0.966
 9939SOL    HW130716   2.466   4.130   0.958
 9939SOL    HW230717   2.352   4.018   0.925
 9940SOL     OW30718   0.703   0.233   3.009
 9940SOL    HW130719   0.783   0.261   2.955
 9940SOL    HW230720   0.631   0.302   3.000
 9941SOL     OW30721   4.406   4.949   5.949
 9941SOL    HW130722   4.501   4.971   5.970
 9941SOL    HW230723   4.385   4.980   5.856
 9942SOL     OW30724   4.085   5.079   3.570
 9942SOL    HW130725   4.174   5.116   3.541
 9942SOL    HW230726   4.092   5.046   3.664
 9943SOL     OW30727   2.540   3.764   6.906
 9943SOL    HW130728   2.565   3.851   6.864
 9943SOL    HW230729   2.441   3.759   6.918
 9944SOL     OW30730   1.340   4.866   7.006
 9944SOL    HW130731   1.413   4.869   6.937
 9944SOL    HW230732   1.380   4.863   0.074
 9945SOL     OW30733   5.922   4.141   0.110
 9945SOL    HW130734   5.878   4.207   0.050
 9945SOL    HW230735   5.904   4.048   0.078
 9946SOL     OW30736   5.433   1.333   2.696
 9946SOL    HW130737   5.474   1.339   2.605
 9946SOL    HW230738   5.392   1.243   2.708
 9947SOL     OW30739   1.943   1.267   4.336
 9947SOL    HW130740   1.874   1.337   4.324
 9947SOL    HW230741   2.027   1.294   4.288
 9948SOL     OW30742   6.524   0.545   4.410
 9948SOL    HW130743   6.505   0.628   4.357
 9948SOL    HW230744   6.456   0.535   4.482
 9949SOL     OW30745   6.640   4.398   4.691
 9949SOL    HW130746   6.598   4.322   4.739
 9949SOL    HW230747   6.731   4.417   4.729
 9950SOL     OW30748   6.583   5.076   5.844
 9950SOL    HW130749   6.587   5.162   5.793
 9950SOL    HW230750   6.586   4.999   5.780
 9951SOL     OW30751   0.730   2.595   2.605
 9951SOL    HW130752   0.743   2.680   2.658
 9951SOL    HW230753   0.632   2.575   2.599
 9952SOL     OW30754   0.445   4.502   1.472
 9952SOL    HW130755   0.417   4.597   1.455
 9952SOL    HW230756   0.448   4.485   1.570
 9953SOL     OW30757   5.971   2.371   3.221
 9953SOL    HW130758   5.930   2.406   3.136
 9953SOL    HW230759   6.067   2.398   3.225
 9954SOL     OW30760   3.192   1.878   5.988
 9954SOL    HW130761   3.274   1.929   6.014
 9954SOL    HW230762   3.147   1.845   6.071
 9955SOL     OW30763   5.290   3.387   1.171
 9955SOL    HW130764   5.315   3.360   1.078
 9955SOL    HW230765   5.195   3.418   1.172
 9956SOL     OW30766   2.000   3.940   3.497
 9956SOL    HW130767   1.926   4.005   3.479
 9956SOL    HW230768   2.080   3.988   3.530
 9957SOL     OW30769   5.756   6.985   1.731
 9957SOL    HW130770   5.670   6.945   1.762
 9957SOL    HW230771   5.739   0.017   1.648
 9958SOL     OW30772   3.941   4.835   6.646
 9958SOL    HW130773   3.972   4.930   6.658
 9958SOL    HW230774   3.842   4.831   6.659
 9959SOL     OW30775   4.156   4.359   1.179
 9959SOL    HW130776   4.174   4.324   1.270
 9959SOL    HW230777   4.113   4.449   1.185
 9960SOL     OW30778   6.561   6.904   6.975
 9960SOL    HW130779   6.587   6.959   0.033
 9960SOL    HW230780   6.570   6.960   6.893
 9961SOL     OW30781   2.270   4.861   2.283
 9961SOL    HW130782   2.320   4.775   2.289
 9961SOL    HW230783   2.192   4.850   2.222
 9962SOL     OW30784   3.258   5.957   2.530
 9962SOL    HW130785   3.243   6.052   2.558
 9962SOL    HW230786   3.198   5.897   2.583
 9963SOL     OW30787   1.517   1.551   6.270
 9963SOL    HW130788   1.568   1.548   6.356
 9963SOL    HW230789   1.488   1.645   6.252
 9964SOL     OW30790   4.929   4.013   5.388
 9964SOL    HW130791   4.872   3.988   5.466
 9964SOL    HW230792   4.964   4.106   5.401
 9965SOL     OW30793   2.918   5.592   4.892
 9965SOL    HW130794   2.953   5.534   4.966
 9965SOL    HW230795   2.895   5.535   4.814
 9966SOL     OW30796   3.489   4.917   2.211
 9966SOL    HW130797   3.570   4.972   2.233
 9966SOL    HW230798   3.508   4.859   2.132
 9967SOL     OW30799   6.838   6.858   3.117
 9967SOL    HW130800   6.755   6.803   3.106
 9967SOL    HW230801   6.813   6.955   3.121
 9968SOL     OW30802   3.934   6.097   0.762
 9968SOL    HW130803   3.914   6.026   0.695
 9968SOL    HW230804   3.874   6.086   0.841
 9969SOL     OW30805   1.455   5.039   3.864
 9969SOL    HW130806   1.512   5.084   3.933
 9969SOL    HW230807   1.395   5.107   3.821
 9970SOL     OW30808   6.218   4.627   1.376
 9970SOL    HW130809   6.157   4.549   1.381
 9970SOL    HW230810   6.189   4.688   1.302
 9971SOL     OW30811   1.405   3.491   2.327
 9971SOL    HW130812   1.500   3.493   2.297
 9971SOL    HW230813   1.396   3.429   2.405
 9972SOL     OW30814   3.578   4.178   0.449
 9972SOL    HW130815   3.633   4.256   0.478
 9972SOL    HW230816   3.534   4.200   0.362
 9973SOL     OW30817   3.979   1.796   3.729
 9973SOL    HW130818   3.965   1.709   3.681
 9973SOL    HW230819   4.058   1.843   3.690
 9974SOL     OW30820   0.186   1.697   3.373
 9974SOL    HW130821   0.163   1.657   3.284
 9974SOL    HW230822   0.280   1.729   3.372
 9975SOL     OW30823   1.169   5.161   6.479
 9975SOL    HW130824   1.117   5.171   6.394
 9975SOL    HW230825   1.246   5.099   6.463
 9976SOL     OW30826   2.302   4.931   6.146
 9976SOL    HW130827   2.275   4.859   6.210
 9976SOL    HW230828   2.388   4.905   6.101
 9977SOL     OW30829   5.436   5.601   5.073
 9977SOL    HW130830   5.449   5.698   5.053
 9977SOL    HW230831   5.434   5.550   4.987
 9978SOL     OW30832   0.353   2.278   6.215
 9978SOL    HW130833   0.424   2.347   6.200
 9978SOL    HW230834   0.324   2.241   6.127
 9979SOL     OW30835   5.055   3.167   5.275
 9979SOL    HW130836   4.961   3.199   5.282
 9979SOL    HW230837   5.100   3.209   5.196
 9980SOL     OW30838   1.101   0.796   7.022
 9980SOL    HW130839   1.046   0.859   0.055
 9980SOL    HW230840   1.041   0.749   6.958
 9981SOL     OW30841   0.351   2.221   1.341
 9981SOL    HW130842   0.404   2.305   1.352
 9981SOL    HW230843   0.253   2.242   1.342
 9982SOL     OW30844   2.350   1.769   4.762
 9982SOL    HW130845   2.332   1.693   4.824
 9982SOL    HW230846   2.351   1.855   4.813
 9983SOL     OW30847   6.748   2.988   1.901
 9983SOL    HW130848   6.774   3.081   1.874
 9983SOL    HW230849   6.759   2.978   2.000
 9984SOL     OW30850   6.956   6.008   1.523
 9984SOL    HW130851   6.986   6.053   1.607
 9984SOL    HW230852   6.996   6.055   1.444
 9985SOL     OW30853   4.123   5.196   0.778
 9985SOL    HW130854   4.032   5.186   0.739
 9985SOL    HW230855   4.162   5.284   0.751
 9986SOL     OW30856   4.954   4.549   0.028
 9986SOL    HW130857   5.018   4.497   0.086
 9986SOL    HW230858   4.882   4.587   0.086
 9987SOL     OW30859   4.993   3.007   1.433
 9987SOL    HW130860   5.077   2.985   1.382
 9987SOL    HW230861   4.965   2.927   1.486
 9988SOL     OW30862   6.005   6.120   4.488
 9988SOL    HW130863   5.984   6.170   4.404
 9988SOL    HW230864   5.955   6.034   4.489
 9989SOL     OW30865   6.718   4.490   2.141
 9989SOL    HW130866   6.647   4.533   2.085
 9989SOL    HW230867   6.677   4.456   2.226
 9990SOL     OW30868   0.511   6.952   3.198
 9990SOL    HW130869   0.428   6.903   3.172
 9990SOL    HW230870   0.519   6.954   3.298
 9991SOL     OW30871   1.534   4.164   4.075
 9991SOL    HW130872   1.473   4.230   4.118
 9991SOL    HW230873   1.550   4.190   3.980
 9992SOL     OW30874   3.342   4.722   0.931
 9992SOL    HW130875   3.419   4.698   0.872
 9992SOL    HW230876   3.272   4.769   0.877
 9993SOL     OW30877   3.659   6.560   3.857
 9993SOL    HW130878   3.603   6.582   3.936
 9993SOL    HW230879   3.753   6.591   3.872
 9994SOL     OW30880   6.823   4.047   4.472
 9994SOL    HW130881   6.879   4.029   4.553
 9994SOL    HW230882   6.729   4.016   4.489
 9995SOL     OW30883   2.641   0.596   4.570
 9995SOL    HW130884   2.559   0.651   4.583
 9995SOL    HW230885   2.615   0.500   4.555
 9996SOL     OW30886   2.205   3.927   0.649
 9996SOL    HW130887   2.143   3.958   0.721
 9996SOL    HW230888   2.214   3.998   0.580
 9997SOL     OW30889   6.082   1.995   4.082
 9997SOL    HW130890   6.047   2.054   4.154
 9997SOL    HW230891   6.035   1.906   4.084
 9998SOL     OW30892   4.851   3.505   2.983
 9998SOL    HW130893   4.848   3.482   2.885
 9998SOL    HW230894   4.770   3.466   3.028
 9999SOL     OW30895   0.413   6.759   3.832
 9999SOL    HW130896   0.349   6.786   3.904
 9999SOL    HW230897   0.477   6.691   3.867
10000SOL     OW30898   5.130   1.759   1.337
10000SOL    HW130899   5.105   1.684   1.276
10000SOL    HW230900   5.126   1.845   1.288
10001SOL     OW30901   3.022   6.434   2.647
10001SOL    HW130902   2.952   6.371   2.616
10001SOL    HW230903   2.980   6.523   2.667
10002SOL     OW30904   2.466   1.202   0.570
10002SOL    HW130905   2.429   1.194   0.477
10002SOL    HW230906   2.562   1.230   0.565
10003SOL     OW30907   2.313   1.959   2.664
10003SOL    HW130908   2.334   2.010   2.748
10003SOL    HW230909   2.381   1.981   2.595
10004SOL     OW30910   5.428   4.325   4.871
10004SOL    HW130911   5.404   4.350   4.777
10004SOL    HW230912   5.496   4.252   4.870
10005SOL     OW30913   2.965   5.699   3.602
10005SOL    HW130914   2.968   5.795   3.630
10005SOL    HW230915   2.919   5.645   3.672
10006SOL     OW30916   5.827   0.346   5.581
10006SOL    HW130917   5.908   0.402   5.564
10006SOL    HW230918   5.851   0.271   5.642
10007SOL     OW30919   0.940   4.017   4.702
10007SOL    HW130920   0.987   3.981   4.621
10007SOL    HW230921   0.915   4.112   4.687
10008SOL     OW30922   3.230   1.793   3.868
10008SOL    HW130923   3.231   1.875   3.925
10008SOL    HW230924   3.231   1.712   3.927
10009SOL     OW30925   2.356   4.166   2.015
10009SOL    HW130926   2.440   4.116   2.038
10009SOL    HW230927   2.378   4.239   1.950
10010SOL     OW30928   2.839   4.849   6.547
10010SOL    HW130929   2.795   4.936   6.528
10010SOL    HW230930   2.774   4.774   6.529
10011SOL     OW30931   0.473   4.320   0.536
10011SOL    HW130932   0.383   4.311   0.494
10011SOL    HW230933   0.540   4.344   0.465
10012SOL     OW30934   4.987   0.629   2.135
10012SOL    HW130935   5.038   0.650   2.052
10012SOL    HW230936   4.980   0.711   2.192
10013SOL     OW30937   1.523   5.562   5.053
10013SOL    HW130938   1.585   5.627   5.096
10013SOL    HW230939   1.567   5.519   4.975
10014SOL     OW30940   0.502   6.728   2.640
10014SOL    HW130941   0.472   6.638   2.609
10014SOL    HW230942   0.424   6.778   2.678
10015SOL     OW30943   3.798   5.341   6.542
10015SOL    HW130944   3.763   5.265   6.487
10015SOL    HW230945   3.742   5.422   6.527
10016SOL     OW30946   1.563   0.804   4.442
10016SOL    HW130947   1.540   0.726   4.384
10016SOL    HW230948   1.620   0.868   4.391
10017SOL     OW30949   2.798   1.943   2.825
10017SOL    HW130950   2.858   1.914   2.899
10017SOL    HW230951   2.703   1.921   2.848
10018SOL     OW30952   6.940   4.308   5.775
10018SOL    HW130953   7.015   4.278   5.833
10018SOL    HW230954   6.857   4.317   5.831
10019SOL     OW30955   7.007   1.365   3.039
10019SOL    HW130956   6.936   1.422   3.080
10019SOL    HW230957   6.965   1.299   2.977
10020SOL     OW30958   6.854   1.023   1.662
10020SOL    HW130959   6.800   0.963   1.721
10020SOL    HW230960   6.942   1.041   1.705
10021SOL     OW30961   1.447   3.367   1.487
10021SOL    HW130962   1.530   3.333   1.443
10021SOL    HW230963   1.395   3.291   1.524
10022SOL     OW30964   2.079   6.161   6.833
10022SOL    HW130965   2.101   6.158   6.931
10022SOL    HW230966   2.088   6.255   6.800
10023SOL     OW30967   2.620   6.627   5.727
10023SOL    HW130968   2.713   6.603   5.697
10023SOL    HW230969   2.610   6.607   5.824
10024SOL     OW30970   1.553   4.942   2.875
10024SOL    HW130971   1.587   4.876   2.943
10024SOL    HW230972   1.577   4.909   2.783
10025SOL     OW30973   1.357   3.726   1.806
10025SOL    HW130974   1.292   3.718   1.730
10025SOL    HW230975   1.317   3.684   1.887
10026SOL     OW30976   4.943   1.315   2.481
10026SOL    HW130977   4.878   1.240   2.494
10026SOL    HW230978   4.958   1.362   2.568
10027SOL     OW30979   1.261   2.930   4.991
10027SOL    HW130980   1.344   2.893   5.032
10027SOL    HW230981   1.210   2.857   4.945
10028SOL     OW30982   3.480   0.961   1.503
10028SOL    HW130983   3.548   1.005   1.444
10028SOL    HW230984   3.526   0.915   1.579
10029SOL     OW30985   7.000   2.741   4.194
10029SOL    HW130986   7.002   2.741   4.094
10029SOL    HW230987   7.018   2.833   4.228
10030SOL     OW30988   2.717   7.018   4.600
10030SOL    HW130989   2.812   7.009   4.632
10030SOL    HW230990   2.698   6.948   4.532
10031SOL     OW30991   4.383   4.950   5.209
10031SOL    HW130992   4.447   4.875   5.219
10031SOL    HW230993   4.357   4.958   5.112
10032SOL     OW30994   3.370   6.676   5.692
10032SOL    HW130995   3.413   6.587   5.709
10032SOL    HW230996   3.294   6.690   5.755
10033SOL     OW30997   4.503   1.328   3.439
10033SOL    HW130998   4.593   1.326   3.483
10033SOL    HW230999   4.432   1.311   3.507
10034SOL     OW31000   1.791   0.924   3.787
10034SOL    HW131001   1.847   1.005   3.806
10034SOL    HW231002   1.720   0.947   3.721
10035SOL     OW31003   5.892   3.901   7.003
10035SOL    HW131004   5.910   3.920   6.907
10035SOL    HW231005   5.965   3.844   0.017
10036SOL     OW31006   6.356   0.593   6.803
10036SOL    HW131007   6.312   0.616   6.890
10036SOL    HW231008   6.413   0.670   6.773
10037SOL     OW31009   6.665   6.974   5.974
10037SOL    HW131010   6.615   6.969   5.887
10037SOL    HW231011   6.683   0.048   5.995
10038SOL     OW31012   4.517   6.446   6.683
10038SOL    HW131013   4.434   6.396   6.660
10038SOL    HW231014   4.508   6.542   6.655
10039SOL     OW31015   5.223   5.826   4.730
10039SOL    HW131016   5.260   5.908   4.773
10039SOL    HW231017   5.124   5.824   4.744
10040SOL     OW31018   4.305   6.212   0.695
10040SOL    HW131019   4.262   6.195   0.784
10040SOL    HW231020   4.390   6.264   0.708
10041SOL     OW31021   6.552   4.999   4.808
10041SOL    HW131022   6.522   5.093   4.819
10041SOL    HW231023   6.652   4.996   4.803
10042SOL     OW31024   0.520   1.134   5.176
10042SOL    HW131025   0.588   1.206   5.190
10042SOL    HW231026   0.538   1.087   5.089
10043SOL     OW31027   0.540   0.527   2.703
10043SOL    HW131028   0.543   0.617   2.747
10043SOL    HW231029   0.448   0.509   2.671
10044SOL     OW31030   2.896   1.511   4.447
10044SOL    HW131031   2.797   1.524   4.451
10044SOL    HW231032   2.942   1.591   4.487
10045SOL     OW31033   4.686   0.294   4.241
10045SOL    HW131034   4.752   0.219   4.229
10045SOL    HW231035   4.669   0.337   4.152
10046SOL     OW31036   0.010   1.543   1.576
10046SOL    HW131037   0.058   1.616   1.626
10046SOL    HW231038   6.952   1.581   1.532
10047SOL     OW31039   6.357   3.118   5.132
10047SOL    HW131040   6.423   3.057   5.177
10047SOL    HW231041   6.269   3.071   5.123
10048SOL     OW31042   3.002   1.745   1.571
10048SOL    HW131043   2.907   1.740   1.542
10048SOL    HW231044   3.062   1.742   1.491
10049SOL     OW31045   0.826   0.850   6.949
10049SOL    HW131046   0.850   0.944   6.972
10049SOL    HW231047   0.792   0.847   6.855
10050SOL     OW31048   5.652   2.872   4.859
10050SOL    HW131049   5.643   2.852   4.762
10050SOL    HW231050   5.669   2.787   4.910
10051SOL     OW31051   0.036   3.228   4.667
10051SOL    HW131052   0.122   3.250   4.713
10051SOL    HW231053   7.012   3.155   4.716
10052SOL     OW31054   2.059   2.750   1.724
10052SOL    HW131055   2.119   2.746   1.803
10052SOL    HW231056   2.015   2.661   1.710
10053SOL     OW31057   3.964   4.839   2.257
10053SOL    HW131058   3.962   4.867   2.353
10053SOL    HW231059   4.004   4.747   2.249
10054SOL     OW31060   4.424   5.798   6.334
10054SOL    HW131061   4.357   5.838   6.271
10054SOL    HW231062   4.396   5.705   6.359
10055SOL     OW31063   6.298   2.298   4.815
10055SOL    HW131064   6.205   2.260   4.820
10055SOL    HW231065   6.305   2.357   4.735
10056SOL     OW31066   5.918   5.122   1.009
10056SOL    HW131067   5.908   5.025   1.030
10056SOL    HW231068   5.903   5.176   1.092
10057SOL     OW31069   3.450   1.801   4.086
10057SOL    HW131070   3.494   1.814   4.174
10057SOL    HW231071   3.373   1.738   4.095
10058SOL     OW31072   0.103   3.791   5.218
10058SOL    HW131073   0.027   3.842   5.177
10058SOL    HW231074   0.131   3.836   5.303
10059SOL     OW31075   5.331   6.517   1.027
10059SOL    HW131076   5.305   6.566   1.110
10059SOL    HW231077   5.268   6.442   1.012
10060SOL     OW31078   2.306   1.674   2.553
10060SOL    HW131079   2.393   1.678   2.602
10060SOL    HW231080   2.280   1.765   2.522
10061SOL     OW31081   4.990   1.390   4.391
10061SOL    HW131082   5.024   1.455   4.324
10061SOL    HW231083   4.894   1.369   4.372
10062SOL     OW31084   6.297   6.922   4.912
10062SOL    HW131085   6.396   6.932   4.927
10062SOL    HW231086   6.282   6.869   4.828
10063SOL     OW31087   1.351   1.859   3.234
10063SOL    HW131088   1.412   1.926   3.274
10063SOL    HW231089   1.322   1.889   3.143
10064SOL     OW31090   6.089   5.571   5.711
10064SOL    HW131091   6.036   5.653   5.736
10064SOL    HW231092   6.030   5.507   5.661
10065SOL     OW31093   1.489   0.760   1.943
10065SOL    HW131094   1.548   0.732   2.019
10065SOL    HW231095   1.516   0.852   1.913
10066SOL     OW31096   1.471   1.387   4.125
10066SOL    HW131097   1.459   1.341   4.037
10066SOL    HW231098   1.514   1.324   4.190
10067SOL     OW31099   5.437   4.881   5.089
10067SOL    HW131100   5.443   4.789   5.051
10067SOL    HW231101   5.399   4.943   5.020
10068SOL     OW31102   5.310   3.073   3.879
10068SOL    HW131103   5.357   3.130   3.947
10068SOL    HW231104   5.289   2.984   3.919
10069SOL     OW31105   1.959   6.546   3.756
10069SOL    HW131106   1.872   6.536   3.805
10069SOL    HW231107   1.962   6.635   3.712
10070SOL     OW31108   0.386   6.876   4.857
10070SOL    HW131109   0.350   6.963   4.824
10070SOL    HW231110   0.395   6.812   4.781
10071SOL     OW31111   4.512   5.101   4.268
10071SOL    HW131112   4.517   5.001   4.261
10071SOL    HW231113   4.436   5.135   4.214
10072SOL     OW31114   1.139   6.562   4.217
10072SOL    HW131115   1.085   6.478   4.214
10072SOL    HW231116   1.206   6.562   4.143
10073SOL     OW31117   6.466   3.837   4.976
10073SOL    HW131118   6.503   3.749   5.004
10073SOL    HW231119   6.443   3.891   5.057
10074SOL     OW31120   0.579   0.370   6.041
10074SOL    HW131121   0.669   0.407   6.065
10074SOL    HW231122   0.589   0.277   6.006
10075SOL     OW31123   1.601   2.380   2.534
10075SOL    HW131124   1.688   2.346   2.570
10075SOL    HW231125   1.549   2.422   2.608
10076SOL     OW31126   5.665   0.561   3.946
10076SOL    HW131127   5.618   0.565   3.857
10076SOL    HW231128   5.712   0.473   3.955
10077SOL     OW31129   3.525   2.286   6.836
10077SOL    HW131130   3.469   2.254   6.760
10077SOL    HW231131   3.582   2.362   6.806
10078SOL     OW31132   6.584   6.834   4.109
10078SOL    HW131133   6.561   6.772   4.035
10078SOL    HW231134   6.613   6.782   4.189
10079SOL     OW31135   1.423   2.944   1.964
10079SOL    HW131136   1.399   2.958   2.060
10079SOL    HW231137   1.477   2.861   1.955
10080SOL     OW31138   3.171   1.995   6.328
10080SOL    HW131139   3.238   2.056   6.285
10080SOL    HW231140   3.136   2.037   6.412
10081SOL     OW31141   0.289   0.051   6.454
10081SOL    HW131142   0.296   0.102   6.540
10081SOL    HW231143   0.200   0.068   6.413
10082SOL     OW31144   6.892   2.652   2.566
10082SOL    HW131145   6.815   2.708   2.595
10082SOL    HW231146   6.955   2.639   2.642
10083SOL     OW31147   5.061   0.797   3.356
10083SOL    HW131148   5.053   0.854   3.273
10083SOL    HW231149   4.970   0.769   3.386
10084SOL     OW31150   3.973   0.382   6.190
10084SOL    HW131151   3.904   0.338   6.248
10084SOL    HW231152   3.982   0.478   6.216
10085SOL     OW31153   0.171   4.934   2.767
10085SOL    HW131154   0.262   4.969   2.787
10085SOL    HW231155   0.173   4.883   2.681
10086SOL     OW31156   5.723   5.463   2.364
10086SOL    HW131157   5.656   5.478   2.437
10086SOL    HW231158   5.689   5.392   2.302
10087SOL     OW31159   0.937   1.025   4.261
10087SOL    HW131160   0.976   0.986   4.345
10087SOL    HW231161   0.839   1.040   4.274
10088SOL     OW31162   6.918   6.907   5.978
10088SOL    HW131163   6.936   6.865   5.890
10088SOL    HW231164   6.828   6.951   5.977
10089SOL     OW31165   2.530   1.987   3.075
10089SOL    HW131166   2.504   2.059   3.139
10089SOL    HW231167   2.551   2.028   2.986
10090SOL     OW31168   0.281   4.848   1.078
10090SOL    HW131169   0.376   4.864   1.104
10090SOL    HW231170   0.235   4.796   1.149
10091SOL     OW31171   1.105   3.175   4.982
10091SOL    HW131172   1.185   3.123   4.950
10091SOL    HW231173   1.022   3.136   4.941
10092SOL     OW31174   1.467   3.437   5.254
10092SOL    HW131175   1.391   3.405   5.197
10092SOL    HW231176   1.486   3.368   5.325
10093SOL     OW31177   1.451   4.726   4.278
10093SOL    HW131178   1.465   4.806   4.220
10093SOL    HW231179   1.535   4.672   4.281
10094SOL     OW31180   2.613   6.236   1.992
10094SOL    HW131181   2.539   6.180   1.954
10094SOL    HW231182   2.701   6.195   1.968
10095SOL     OW31183   6.474   1.561   5.424
10095SOL    HW131184   6.378   1.591   5.421
10095SOL    HW231185   6.532   1.634   5.387
10096SOL     OW31186   6.375   4.824   2.945
10096SOL    HW131187   6.449   4.771   2.986
10096SOL    HW231188   6.414   4.900   2.893
10097SOL     OW31189   0.963   1.102   6.882
10097SOL    HW131190   0.948   1.023   6.823
10097SOL    HW231191   1.053   1.140   6.864
10098SOL     OW31192   2.238   6.835   5.355
10098SOL    HW131193   2.308   6.771   5.389
10098SOL    HW231194   2.216   6.901   5.426
10099SOL     OW31195   6.697   5.037   6.553
10099SOL    HW131196   6.620   5.097   6.575
10099SOL    HW231197   6.783   5.087   6.560
10100SOL     OW31198   5.343   6.976   4.472
10100SOL    HW131199   5.276   6.902   4.478
10100SOL    HW231200   5.426   6.950   4.523
10101SOL     OW31201   5.639   4.599   1.714
10101SOL    HW131202   5.593   4.510   1.718
10101SOL    HW231203   5.701   4.600   1.635
10102SOL     OW31204   2.175   0.669   2.273
10102SOL    HW131205   2.215   0.744   2.325
10102SOL    HW231206   2.081   0.654   2.303
10103SOL     OW31207   2.549   1.153   4.890
10103SOL    HW131208   2.596   1.081   4.839
10103SOL    HW231209   2.572   1.242   4.851
10104SOL     OW31210   1.066   3.537   5.064
10104SOL    HW131211   1.105   3.601   4.997
10104SOL    HW231212   1.104   3.556   5.155
10105SOL     OW31213   1.068   1.459   6.400
10105SOL    HW131214   1.058   1.445   6.301
10105SOL    HW231215   1.015   1.390   6.449
10106SOL     OW31216   5.009   5.157   1.045
10106SOL    HW131217   5.038   5.252   1.056
10106SOL    HW231218   5.001   5.114   1.135
10107SOL     OW31219   0.011   1.629   6.452
10107SOL    HW131220   0.029   1.551   6.392
10107SOL    HW231221   6.945   1.617   6.497
10108SOL     OW31222   6.595   6.154   6.954
10108SOL    HW131223   6.570   6.214   0.007
10108SOL    HW231224   6.537   6.174   6.875
10109SOL     OW31225   3.618   6.296   2.494
10109SOL    HW131226   3.677   6.271   2.417
10109SOL    HW231227   3.531   6.332   2.460
10110SOL     OW31228   4.068   6.549   4.905
10110SOL    HW131229   4.004   6.542   4.829
10110SOL    HW231230   4.044   6.483   4.975
10111SOL     OW31231   6.342   3.037   4.146
10111SOL    HW131232   6.427   3.085   4.123
10111SOL    HW231233   6.311   2.984   4.067
10112SOL     OW31234   5.683   3.937   4.648
10112SOL    HW131235   5.656   3.887   4.566
10112SOL    HW231236   5.775   3.909   4.676
10113SOL     OW31237   3.757   1.393   6.470
10113SOL    HW131238   3.793   1.454   6.540
10113SOL    HW231239   3.783   1.427   6.379
10114SOL     OW31240   5.429   0.221   0.970
10114SOL    HW131241   5.461   0.180   0.884
10114SOL    HW231242   5.345   0.272   0.953
10115SOL     OW31243   3.064   2.218   3.238
10115SOL    HW131244   3.079   2.150   3.309
10115SOL    HW231245   3.144   2.278   3.232
10116SOL     OW31246   0.696   6.272   0.310
10116SOL    HW131247   0.741   6.278   0.220
10116SOL    HW231248   0.630   6.346   0.319
10117SOL     OW31249   6.498   0.061   4.632
10117SOL    HW131250   6.414   0.018   4.597
10117SOL    HW231251   6.568   7.014   4.645
10118SOL     OW31252   0.001   5.079   3.194
10118SOL    HW131253   0.059   5.148   3.236
10118SOL    HW231254   7.006   5.103   3.099
10119SOL     OW31255   1.553   6.676   4.963
10119SOL    HW131256   1.539   6.626   4.877
10119SOL    HW231257   1.613   6.622   5.023
10120SOL     OW31258   0.637   3.391   4.063
10120SOL    HW131259   0.602   3.400   3.970
10120SOL    HW231260   0.577   3.440   4.126
10121SOL     OW31261   6.506   4.985   5.520
10121SOL    HW131262   6.491   4.928   5.601
10121SOL    HW231263   6.583   4.949   5.468
10122SOL     OW31264   5.225   3.196   0.645
10122SOL    HW131265   5.169   3.266   0.689
10122SOL    HW231266   5.309   3.237   0.611
10123SOL     OW31267   6.492   6.384   0.545
10123SOL    HW131268   6.568   6.351   0.602
10123SOL    HW231269   6.415   6.407   0.604
10124SOL     OW31270   1.880   3.688   6.822
10124SOL    HW131271   1.819   3.698   6.901
10124SOL    HW231272   1.901   3.591   6.809
10125SOL     OW31273   1.612   1.145   2.511
10125SOL    HW131274   1.694   1.159   2.566
10125SOL    HW231275   1.584   1.231   2.469
10126SOL     OW31276   6.959   6.433   6.309
10126SOL    HW131277   6.908   6.373   6.247
10126SOL    HW231278   7.015   6.496   6.256
10127SOL     OW31279   2.656   5.055   5.826
10127SOL    HW131280   2.715   5.037   5.747
10127SOL    HW231281   2.626   4.968   5.865
10128SOL     OW31282   0.892   1.845   1.290
10128SOL    HW131283   0.802   1.863   1.250
10128SOL    HW231284   0.884   1.776   1.362
10129SOL     OW31285   4.770   2.891   4.300
10129SOL    HW131286   4.718   2.868   4.383
10129SOL    HW231287   4.750   2.823   4.229
10130SOL     OW31288   2.296   4.359   2.374
10130SOL    HW131289   2.266   4.265   2.392
10130SOL    HW231290   2.218   4.412   2.341
10131SOL     OW31291   0.289   1.092   3.484
10131SOL    HW131292   0.280   1.158   3.410
10131SOL    HW231293   0.369   1.114   3.540
10132SOL     OW31294   2.151   6.613   3.382
10132SOL    HW131295   2.174   6.690   3.441
10132SOL    HW231296   2.098   6.645   3.304
10133SOL     OW31297   4.482   6.090   2.042
10133SOL    HW131298   4.491   6.002   1.995
10133SOL    HW231299   4.414   6.146   1.996
10134SOL     OW31300   6.929   0.165   4.007
10134SOL    HW131301   7.021   0.203   3.996
10134SOL    HW231302   6.929   0.095   4.078
10135SOL     OW31303   5.339   3.435   3.558
10135SOL    HW131304   5.330   3.341   3.589
10135SOL    HW231305   5.286   3.449   3.474
10136SOL     OW31306   5.476   0.283   2.503
10136SOL    HW131307   5.527   0.319   2.424
10136SOL    HW231308   5.426   0.358   2.547
10137SOL     OW31309   6.403   4.921   4.049
10137SOL    HW131310   6.411   4.822   4.034
10137SOL    HW231311   6.347   4.937   4.131
10138SOL     OW31312   4.377   2.294   1.205
10138SOL    HW131313   4.315   2.364   1.239
10138SOL    HW231314   4.449   2.336   1.149
10139SOL     OW31315   3.934   3.223   2.839
10139SOL    HW131316   3.960   3.283   2.763
10139SOL    HW231317   3.858   3.265   2.890
10140SOL     OW31318   6.768   5.963   5.941
10140SOL    HW131319   6.846   5.905   5.916
10140SOL    HW231320   6.683   5.911   5.929
10141SOL     OW31321   3.126   1.421   3.916
10141SOL    HW131322   3.066   1.375   3.982
10141SOL    HW231323   3.108   1.387   3.824
10142SOL     OW31324   6.086   6.708   4.651
10142SOL    HW131325   6.163   6.684   4.710
10142SOL    HW231326   6.010   6.740   4.707
10143SOL     OW31327   4.714   0.441   0.784
10143SOL    HW131328   4.669   0.434   0.873
10143SOL    HW231329   4.783   0.369   0.776
10144SOL     OW31330   4.302   6.748   6.747
10144SOL    HW131331   4.327   6.731   6.652
10144SOL    HW231332   4.226   6.688   6.773
10145SOL     OW31333   3.840   5.980   6.463
10145SOL    HW131334   3.846   6.080   6.461
10145SOL    HW231335   3.907   5.941   6.401
10146SOL     OW31336   3.960   4.986   5.126
10146SOL    HW131337   3.956   5.019   5.032
10146SOL    HW231338   3.919   5.054   5.187
10147SOL     OW31339   5.008   4.667   4.706
10147SOL    HW131340   5.021   4.631   4.614
10147SOL    HW231341   4.984   4.764   4.700
10148SOL     OW31342   5.850   5.232   6.661
10148SOL    HW131343   5.773   5.220   6.724
10148SOL    HW231344   5.919   5.162   6.679
10149SOL     OW31345   5.174   1.931   0.772
10149SOL    HW131346   5.230   1.861   0.816
10149SOL    HW231347   5.079   1.921   0.801
10150SOL     OW31348   4.592   3.617   0.513
10150SOL    HW131349   4.641   3.541   0.469
10150SOL    HW231350   4.640   3.644   0.596
10151SOL     OW31351   0.824   6.538   6.558
10151SOL    HW131352   0.792   6.632   6.542
10151SOL    HW231353   0.781   6.477   6.491
10152SOL     OW31354   1.457   6.367   4.354
10152SOL    HW131355   1.430   6.462   4.374
10152SOL    HW231356   1.448   6.312   4.437
10153SOL     OW31357   5.193   5.930   4.120
10153SOL    HW131358   5.160   5.839   4.093
10153SOL    HW231359   5.269   5.920   4.185
10154SOL     OW31360   6.096   0.166   4.654
10154SOL    HW131361   5.997   0.155   4.664
10154SOL    HW231362   6.115   0.224   4.575
10155SOL     OW31363   4.177   1.973   5.430
10155SOL    HW131364   4.101   1.908   5.429
10155SOL    HW231365   4.142   2.065   5.444
10156SOL     OW31366   6.262   0.440   2.355
10156SOL    HW131367   6.339   0.409   2.411
10156SOL    HW231368   6.296   0.471   2.266
10157SOL     OW31369   5.986   3.044   6.199
10157SOL    HW131370   6.078   3.020   6.170
10157SOL    HW231371   5.959   2.987   6.276
10158SOL     OW31372   4.679   3.267   0.719
10158SOL    HW131373   4.702   3.301   0.628
10158SOL    HW231374   4.588   3.226   0.717
10159SOL     OW31375   2.702   3.331   6.433
10159SOL    HW131376   2.724   3.403   6.498
10159SOL    HW231377   2.634   3.365   6.367
10160SOL     OW31378   1.972   3.499   2.281
10160SOL    HW131379   1.977   3.428   2.211
10160SOL    HW231380   2.051   3.491   2.342
10161SOL     OW31381   3.487   3.559   6.868
10161SOL    HW131382   3.413   3.626   6.874
10161SOL    HW231383   3.522   3.556   6.775
10162SOL     OW31384   2.730   4.834   0.600
10162SOL    HW131385   2.749   4.928   0.627
10162SOL    HW231386   2.687   4.833   0.509
10163SOL     OW31387   5.116   5.338   6.294
10163SOL    HW131388   5.064   5.423   6.303
10163SOL    HW231389   5.057   5.267   6.257
10164SOL     OW31390   5.612   3.138   4.659
10164SOL    HW131391   5.512   3.140   4.655
10164SOL    HW231392   5.643   3.179   4.745
10165SOL     OW31393   0.484   1.768   3.438
10165SOL    HW131394   0.505   1.823   3.518
10165SOL    HW231395   0.514   1.674   3.453
10166SOL     OW31396   3.306   1.281   2.486
10166SOL    HW131397   3.262   1.370   2.475
10166SOL    HW231398   3.256   1.213   2.434
10167SOL     OW31399   3.821   2.277   6.587
10167SOL    HW131400   3.884   2.311   6.516
10167SOL    HW231401   3.744   2.230   6.543
10168SOL     OW31402   6.226   4.241   5.381
10168SOL    HW131403   6.145   4.288   5.345
10168SOL    HW231404   6.269   4.189   5.307
10169SOL     OW31405   6.024   4.020   3.138
10169SOL    HW131406   5.963   4.099   3.149
10169SOL    HW231407   6.010   3.957   3.215
10170SOL     OW31408   0.945   4.474   5.902
10170SOL    HW131409   0.857   4.470   5.854
10170SOL    HW231410   0.960   4.390   5.953
10171SOL     OW31411   6.410   3.361   5.500
10171SOL    HW131412   6.336   3.407   5.450
10171SOL    HW231413   6.392   3.365   5.598
10172SOL     OW31414   6.200   0.046   4.271
10172SOL    HW131415   6.129   0.016   4.208
10172SOL    HW231416   6.272   0.093   4.221
10173SOL     OW31417   0.615   2.911   0.893
10173SOL    HW131418   0.620   2.843   0.965
10173SOL    HW231419   0.649   2.999   0.927
10174SOL     OW31420   5.206   5.240   2.594
10174SOL    HW131421   5.153   5.304   2.539
10174SOL    HW231422   5.287   5.211   2.542
10175SOL     OW31423   6.595   2.435   3.666
10175SOL    HW131424   6.518   2.398   3.718
10175SOL    HW231425   6.567   2.453   3.572
10176SOL     OW31426   1.629   3.613   5.968
10176SOL    HW131427   1.654   3.538   6.029
10176SOL    HW231428   1.687   3.610   5.886
10177SOL     OW31429   1.656   1.195   0.265
10177SOL    HW131430   1.644   1.285   0.223
10177SOL    HW231431   1.725   1.200   0.337
10178SOL     OW31432   0.222   1.886   5.031
10178SOL    HW131433   0.148   1.819   5.018
10178SOL    HW231434   0.188   1.977   5.009
10179SOL     OW31435   0.929   1.506   5.798
10179SOL    HW131436   0.974   1.585   5.840
10179SOL    HW231437   0.894   1.532   5.708
10180SOL     OW31438   3.598   0.162   7.017
10180SOL    HW131439   3.591   0.155   0.094
10180SOL    HW231440   3.694   0.171   6.991
10181SOL     OW31441   5.215   3.005   2.137
10181SOL    HW131442   5.293   3.019   2.076
10181SOL    HW231443   5.216   3.076   2.208
10182SOL     OW31444   5.713   1.024   1.870
10182SOL    HW131445   5.771   1.064   1.799
10182SOL    HW231446   5.720   1.078   1.954
10183SOL     OW31447   0.510   2.152   6.417
10183SOL    HW131448   0.457   2.085   6.467
10183SOL    HW231449   0.452   2.198   6.349
10184SOL     OW31450   3.605   0.881   6.569
10184SOL    HW131451   3.697   0.862   6.603
10184SOL    HW231452   3.569   0.799   6.524
10185SOL     OW31453   5.235   5.652   1.950
10185SOL    HW131454   5.311   5.608   1.997
10185SOL    HW231455   5.229   5.748   1.977
10186SOL     OW31456   5.889   3.357   3.300
10186SOL    HW131457   5.808   3.382   3.353
10186SOL    HW231458   5.941   3.440   3.279
10187SOL     OW31459   0.442   2.681   0.819
10187SOL    HW131460   0.495   2.759   0.852
10187SOL    HW231461   0.460   2.602   0.878
10188SOL     OW31462   3.128   5.592   0.838
10188SOL    HW131463   3.225   5.584   0.864
10188SOL    HW231464   3.095   5.504   0.804
10189SOL     OW31465   1.182   0.493   5.948
10189SOL    HW131466   1.217   0.566   6.007
10189SOL    HW231467   1.166   0.529   5.856
10190SOL     OW31468   4.699   3.054   1.603
10190SOL    HW131469   4.699   3.151   1.577
10190SOL    HW231470   4.666   3.046   1.697
10191SOL     OW31471   5.107   4.630   6.202
10191SOL    HW131472   5.104   4.650   6.300
10191SOL    HW231473   5.015   4.611   6.169
10192SOL     OW31474   4.866   1.487   5.875
10192SOL    HW131475   4.851   1.552   5.949
10192SOL    HW231476   4.938   1.522   5.814
10193SOL     OW31477   4.033   3.503   1.828
10193SOL    HW131478   3.989   3.416   1.853
10193SOL    HW231479   4.074   3.545   1.909
10194SOL     OW31480   5.946   4.616   5.174
10194SOL    HW131481   5.992   4.530   5.196
10194SOL    HW231482   5.857   4.597   5.132
10195SOL     OW31483   6.046   5.082   1.361
10195SOL    HW131484   6.124   5.077   1.299
10195SOL    HW231485   5.991   5.162   1.339
10196SOL     OW31486   4.309   1.546   3.920
10196SOL    HW131487   4.406   1.527   3.906
10196SOL    HW231488   4.297   1.594   4.007
10197SOL     OW31489   6.732   1.979   5.081
10197SOL    HW131490   6.674   2.042   5.029
10197SOL    HW231491   6.725   2.001   5.178
10198SOL     OW31492   3.156   0.656   1.489
10198SOL    HW131493   3.083   0.647   1.421
10198SOL    HW231494   3.117   0.688   1.576
10199SOL     OW31495   2.586   2.745   6.144
10199SOL    HW131496   2.664   2.700   6.101
10199SOL    HW231497   2.618   2.822   6.199
10200SOL     OW31498   4.899   1.646   1.142
10200SOL    HW131499   4.806   1.616   1.166
10200SOL    HW231500   4.909   1.743   1.163
10201SOL     OW31501   1.368   4.370   1.082
10201SOL    HW131502   1.289   4.322   1.043
10201SOL    HW231503   1.384   4.454   1.030
10202SOL     OW31504   4.120   2.775   6.961
10202SOL    HW131505   4.040   2.807   7.012
10202SOL    HW231506   4.118   2.811   6.868
10203SOL     OW31507   6.486   3.050   3.876
10203SOL    HW131508   6.515   3.134   3.829
10203SOL    HW231509   6.564   2.987   3.880
10204SOL     OW31510   5.187   6.822   6.502
10204SOL    HW131511   5.149   6.746   6.555
10204SOL    HW231512   5.122   6.848   6.431
10205SOL     OW31513   1.479   1.162   0.802
10205SOL    HW131514   1.472   1.062   0.798
10205SOL    HW231515   1.410   1.197   0.865
10206SOL     OW31516   0.283   0.835   6.599
10206SOL    HW131517   0.202   0.862   6.547
10206SOL    HW231518   0.320   0.915   6.646
10207SOL     OW31519   1.059   1.634   6.695
10207SOL    HW131520   0.986   1.567   6.676
10207SOL    HW231521   1.018   1.718   6.731
10208SOL     OW31522   5.761   4.933   4.084
10208SOL    HW131523   5.753   4.836   4.060
10208SOL    HW231524   5.856   4.953   4.108
10209SOL     OW31525   6.447   6.851   6.102
10209SOL    HW131526   6.449   6.763   6.149
10209SOL    HW231527   6.540   6.888   6.096
10210SOL     OW31528   5.117   6.652   1.433
10210SOL    HW131529   5.019   6.655   1.415
10210SOL    HW231530   5.135   6.603   1.518
10211SOL     OW31531   3.864   6.666   4.012
10211SOL    HW131532   3.825   6.677   4.103
10211SOL    HW231533   3.958   6.634   4.019
10212SOL     OW31534   0.778   0.282   5.474
10212SOL    HW131535   0.841   0.337   5.420
10212SOL    HW231536   0.713   0.235   5.413
10213SOL     OW31537   4.371   2.822   1.313
10213SOL    HW131538   4.419   2.908   1.294
10213SOL    HW231539   4.329   2.828   1.403
10214SOL     OW31540   0.873   1.811   1.617
10214SOL    HW131541   0.849   1.888   1.676
10214SOL    HW231542   0.791   1.779   1.569
10215SOL     OW31543   3.822   3.241   3.193
10215SOL    HW131544   3.847   3.144   3.196
10215SOL    HW231545   3.736   3.255   3.241
10216SOL     OW31546   6.744   0.845   0.988
10216SOL    HW131547   6.740   0.820   0.891
10216SOL    HW231548   6.806   0.923   0.999
10217SOL     OW31549   2.784   1.325   3.250
10217SOL    HW131550   2.685   1.338   3.248
10217SOL    HW231551   2.810   1.255   3.184
10218SOL     OW31552   1.310   2.411   2.212
10218SOL    HW131553   1.336   2.323   2.252
10218SOL    HW231554   1.358   2.423   2.125
10219SOL     OW31555   0.301   1.853   2.532
10219SOL    HW131556   0.341   1.938   2.498
10219SOL    HW231557   0.211   1.840   2.491
10220SOL     OW31558   3.950   2.678   1.382
10220SOL    HW131559   3.919   2.734   1.305
10220SOL    HW231560   3.975   2.587   1.349
10221SOL     OW31561   0.781   5.813   3.165
10221SOL    HW131562   0.839   5.780   3.090
10221SOL    HW231563   0.828   5.887   3.213
10222SOL     OW31564   2.821   3.140   5.190
10222SOL    HW131565   2.735   3.088   5.195
10222SOL    HW231566   2.802   3.232   5.155
10223SOL     OW31567   0.649   4.284   1.114
10223SOL    HW131568   0.656   4.357   1.046
10223SOL    HW231569   0.727   4.288   1.176
10224SOL     OW31570   6.740   2.996   4.106
10224SOL    HW131571   6.705   3.022   4.196
10224SOL    HW231572   6.698   2.909   4.078
10225SOL     OW31573   1.999   4.744   5.639
10225SOL    HW131574   1.943   4.690   5.576
10225SOL    HW231575   1.954   4.830   5.658
10226SOL     OW31576   3.163   0.800   6.714
10226SOL    HW131577   3.096   0.828   6.783
10226SOL    HW231578   3.255   0.819   6.748
10227SOL     OW31579   4.735   4.136   0.192
10227SOL    HW131580   4.730   4.124   0.093
10227SOL    HW231581   4.828   4.119   0.223
10228SOL     OW31582   6.725   0.083   0.778
10228SOL    HW131583   6.765   0.156   0.835
10228SOL    HW231584   6.714   0.001   0.833
10229SOL     OW31585   1.097   2.430   4.757
10229SOL    HW131586   1.125   2.393   4.668
10229SOL    HW231587   1.157   2.394   4.828
10230SOL     OW31588   6.090   5.625   2.957
10230SOL    HW131589   6.150   5.552   2.926
10230SOL    HW231590   6.018   5.587   3.016
10231SOL     OW31591   1.366   5.744   4.910
10231SOL    HW131592   1.419   5.659   4.910
10231SOL    HW231593   1.425   5.820   4.887
10232SOL     OW31594   2.692   0.712   3.087
10232SOL    HW131595   2.629   0.708   3.010
10232SOL    HW231596   2.762   0.781   3.069
10233SOL     OW31597   4.004   3.899   5.288
10233SOL    HW131598   3.973   3.814   5.330
10233SOL    HW231599   3.929   3.937   5.233
10234SOL     OW31600   6.349   6.935   1.190
10234SOL    HW131601   6.275   6.944   1.256
10234SOL    HW231602   6.312   6.907   1.101
10235SOL     OW31603   1.738   2.170   1.854
10235SOL    HW131604   1.801   2.169   1.776
10235SOL    HW231605   1.781   2.126   1.932
10236SOL     OW31606   2.328   6.928   0.297
10236SOL    HW131607   2.423   6.899   0.295
10236SOL    HW231608   2.269   6.852   0.268
10237SOL     OW31609   6.780   3.742   0.179
10237SOL    HW131610   6.867   3.710   0.142
10237SOL    HW231611   6.724   3.779   0.105
10238SOL     OW31612   3.998   4.661   1.436
10238SOL    HW131613   3.923   4.727   1.446
10238SOL    HW231614   4.008   4.609   1.521
10239SOL     OW31615   1.160   2.715   4.802
10239SOL    HW131616   1.179   2.652   4.877
10239SOL    HW231617   1.164   2.665   4.715
10240SOL     OW31618   2.819   5.902   2.481
10240SOL    HW131619   2.834   5.824   2.421
10240SOL    HW231620   2.742   5.956   2.447
10241SOL     OW31621   5.149   1.778   2.064
10241SOL    HW131622   5.114   1.844   1.998
10241SOL    HW231623   5.088   1.698   2.067
10242SOL     OW31624   0.005   1.806   0.460
10242SOL    HW131625   0.034   1.895   0.423
10242SOL    HW231626   6.928   1.803   0.463
10243SOL     OW31627   2.424   4.509   1.400
10243SOL    HW131628   2.357   4.435   1.399
10243SOL    HW231629   2.434   4.544   1.493
10244SOL     OW31630   2.210   4.096   0.448
10244SOL    HW131631   2.268   4.140   0.379
10244SOL    HW231632   2.125   4.147   0.457
10245SOL     OW31633   3.389   4.705   1.333
10245SOL    HW131634   3.319   4.738   1.397
10245SOL    HW231635   3.446   4.637   1.379
10246SOL     OW31636   2.931   3.609   4.565
10246SOL    HW131637   2.900   3.595   4.471
10246SOL    HW231638   2.944   3.706   4.582
10247SOL     OW31639   0.600   4.117   6.257
10247SOL    HW131640   0.676   4.183   6.258
10247SOL    HW231641   0.517   4.163   6.227
10248SOL     OW31642   0.947   0.603   2.722
10248SOL    HW131643   0.922   0.691   2.682
10248SOL    HW231644   0.925   0.529   2.658
10249SOL     OW31645   2.451   4.814   0.146
10249SOL    HW131646   2.480   4.901   0.187
10249SOL    HW231647   2.517   4.743   0.168
10250SOL     OW31648   6.667   3.887   0.892
10250SOL    HW131649   6.672   3.937   0.979
10250SOL    HW231650   6.757   3.884   0.850
10251SOL     OW31651   2.214   1.337   4.291
10251SOL    HW131652   2.239   1.319   4.386
10251SOL    HW231653   2.263   1.418   4.259
10252SOL     OW31654   4.360   3.588   6.027
10252SOL    HW131655   4.286   3.614   6.089
10252SOL    HW231656   4.427   3.532   6.076
10253SOL     OW31657   3.458   6.393   0.798
10253SOL    HW131658   3.501   6.362   0.713
10253SOL    HW231659   3.410   6.317   0.841
10254SOL     OW31660   4.430   1.470   5.854
10254SOL    HW131661   4.438   1.398   5.785
10254SOL    HW231662   4.366   1.539   5.821
10255SOL     OW31663   2.554   0.020   0.985
10255SOL    HW131664   2.476   0.030   1.047
10255SOL    HW231665   2.594   6.952   0.996
10256SOL     OW31666   4.549   0.806   2.116
10256SOL    HW131667   4.640   0.845   2.106
10256SOL    HW231668   4.491   0.869   2.167
10257SOL     OW31669   2.126   4.685   4.033
10257SOL    HW131670   2.192   4.657   4.103
10257SOL    HW231671   2.168   4.753   3.973
10258SOL     OW31672   3.926   2.119   3.619
10258SOL    HW131673   3.877   2.037   3.650
10258SOL    HW231674   3.982   2.155   3.694
10259SOL     OW31675   0.654   3.980   3.432
10259SOL    HW131676   0.624   4.004   3.524
10259SOL    HW231677   0.665   3.881   3.426
10260SOL     OW31678   0.686   1.390   3.627
10260SOL    HW131679   0.743   1.433   3.697
10260SOL    HW231680   0.739   1.378   3.543
10261SOL     OW31681   0.010   4.744   0.447
10261SOL    HW131682   6.999   4.667   0.501
10261SOL    HW231683   0.043   4.712   0.359
10262SOL     OW31684   3.520   6.914   6.351
10262SOL    HW131685   3.562   6.872   6.271
10262SOL    HW231686   3.420   6.914   6.340
10263SOL     OW31687   6.160   0.657   0.550
10263SOL    HW131688   6.175   0.558   0.539
10263SOL    HW231689   6.105   0.690   0.473
10264SOL     OW31690   5.895   5.492   6.348
10264SOL    HW131691   5.885   5.544   6.433
10264SOL    HW231692   5.818   5.510   6.288
10265SOL     OW31693   3.269   2.809   0.201
10265SOL    HW131694   3.182   2.821   0.248
10265SOL    HW231695   3.325   2.743   0.253
10266SOL     OW31696   3.472   2.852   2.798
10266SOL    HW131697   3.461   2.757   2.768
10266SOL    HW231698   3.490   2.855   2.896
10267SOL     OW31699   5.244   1.339   0.991
10267SOL    HW131700   5.332   1.304   1.021
10267SOL    HW231701   5.222   1.303   0.901
10268SOL     OW31702   5.738   6.590   2.362
10268SOL    HW131703   5.652   6.620   2.401
10268SOL    HW231704   5.801   6.563   2.435
10269SOL     OW31705   1.245   2.553   6.342
10269SOL    HW131706   1.256   2.479   6.275
10269SOL    HW231707   1.333   2.600   6.353
10270SOL     OW31708   3.172   5.772   2.701
10270SOL    HW131709   3.244   5.709   2.673
10270SOL    HW231710   3.083   5.729   2.689
10271SOL     OW31711   2.695   3.249   0.178
10271SOL    HW131712   2.598   3.247   0.152
10271SOL    HW231713   2.723   3.157   0.206
10272SOL     OW31714   0.928   0.367   3.957
10272SOL    HW131715   0.879   0.431   4.015
10272SOL    HW231716   0.914   0.391   3.861
10273SOL     OW31717   2.948   4.895   4.194
10273SOL    HW131718   3.011   4.920   4.267
10273SOL    HW231719   2.855   4.921   4.219
10274SOL     OW31720   0.691   4.499   5.825
10274SOL    HW131721   0.649   4.419   5.782
10274SOL    HW231722   0.692   4.576   5.761
10275SOL     OW31723   0.140   0.749   2.214
10275SOL    HW131724   0.202   0.756   2.136
10275SOL    HW231725   0.088   0.663   2.208
10276SOL     OW31726   4.513   5.695   5.928
10276SOL    HW131727   4.508   5.629   5.853
10276SOL    HW231728   4.480   5.652   6.012
10277SOL     OW31729   1.264   6.795   4.616
10277SOL    HW131730   1.330   6.806   4.690
10277SOL    HW231731   1.240   6.884   4.578
10278SOL     OW31732   0.735   0.518   4.111
10278SOL    HW131733   0.698   0.604   4.076
10278SOL    HW231734   0.661   0.452   4.122
10279SOL     OW31735   2.583   5.379   4.149
10279SOL    HW131736   2.617   5.287   4.163
10279SOL    HW231737   2.625   5.419   4.068
10280SOL     OW31738   5.107   3.511   0.060
10280SOL    HW131739   5.095   3.537   6.987
10280SOL    HW231740   5.092   3.413   0.070
10281SOL     OW31741   0.083   2.388   3.359
10281SOL    HW131742   0.008   2.384   3.293
10281SOL    HW231743   0.065   2.459   3.427
10282SOL     OW31744   5.641   3.485   3.702
10282SOL    HW131745   5.545   3.457   3.699
10282SOL    HW231746   5.699   3.408   3.674
10283SOL     OW31747   0.971   2.796   0.988
10283SOL    HW131748   1.049   2.735   0.999
10283SOL    HW231749   0.927   2.809   1.077
10284SOL     OW31750   6.323   2.269   4.179
10284SOL    HW131751   6.287   2.250   4.088
10284SOL    HW231752   6.383   2.195   4.207
10285SOL     OW31753   4.000   6.391   3.093
10285SOL    HW131754   4.082   6.445   3.112
10285SOL    HW231755   3.919   6.442   3.121
10286SOL     OW31756   3.124   0.715   3.768
10286SOL    HW131757   3.046   0.667   3.728
10286SOL    HW231758   3.204   0.655   3.769
10287SOL     OW31759   2.009   6.007   2.140
10287SOL    HW131760   2.035   5.940   2.210
10287SOL    HW231761   2.017   6.099   2.177
10288SOL     OW31762   4.003   0.182   4.381
10288SOL    HW131763   3.998   0.111   4.451
10288SOL    HW231764   3.917   0.185   4.331
10289SOL     OW31765   2.455   5.914   0.810
10289SOL    HW131766   2.433   5.970   0.730
10289SOL    HW231767   2.542   5.944   0.849
10290SOL     OW31768   3.062   3.184   2.995
10290SOL    HW131769   3.063   3.105   2.934
10290SOL    HW231770   3.085   3.267   2.943
10291SOL     OW31771   3.502   1.446   3.182
10291SOL    HW131772   3.425   1.422   3.242
10291SOL    HW231773   3.472   1.443   3.086
10292SOL     OW31774   0.592   1.378   5.846
10292SOL    HW131775   0.612   1.429   5.762
10292SOL    HW231776   0.673   1.375   5.904
10293SOL     OW31777   0.574   3.436   3.782
10293SOL    HW131778   0.613   3.368   3.720
10293SOL    HW231779   0.596   3.527   3.749
10294SOL     OW31780   4.345   1.509   2.699
10294SOL    HW131781   4.416   1.578   2.685
10294SOL    HW231782   4.327   1.498   2.797
10295SOL     OW31783   1.011   2.948   5.242
10295SOL    HW131784   1.083   3.012   5.269
10295SOL    HW231785   1.024   2.920   5.147
10296SOL     OW31786   5.914   1.751   6.114
10296SOL    HW131787   5.889   1.685   6.043
10296SOL    HW231788   5.949   1.702   6.194
10297SOL     OW31789   2.408   1.413   0.015
10297SOL    HW131790   2.490   1.458   7.000
10297SOL    HW231791   2.330   1.433   6.979
10298SOL     OW31792   1.429   4.455   2.006
10298SOL    HW131793   1.476   4.491   2.087
10298SOL    HW231794   1.487   4.468   1.925
10299SOL     OW31795   3.767   5.690   2.427
10299SOL    HW131796   3.738   5.785   2.416
10299SOL    HW231797   3.823   5.663   2.349
10300SOL     OW31798   1.645   4.250   1.999
10300SOL    HW131799   1.602   4.234   2.087
10300SOL    HW231800   1.729   4.303   2.012
10301SOL     OW31801   4.639   1.728   5.411
10301SOL    HW131802   4.644   1.628   5.408
10301SOL    HW231803   4.543   1.756   5.410
10302SOL     OW31804   1.849   5.875   4.555
10302SOL    HW131805   1.938   5.829   4.559
10302SOL    HW231806   1.856   5.954   4.494
10303SOL     OW31807   1.211   5.110   3.705
10303SOL    HW131808   1.199   5.011   3.714
10303SOL    HW231809   1.151   5.157   3.770
10304SOL     OW31810   5.858   0.217   0.796
10304SOL    HW131811   5.871   0.278   0.873
10304SOL    HW231812   5.827   0.128   0.828
10305SOL     OW31813   2.491   4.278   5.634
10305SOL    HW131814   2.544   4.343   5.578
10305SOL    HW231815   2.428   4.228   5.575
10306SOL     OW31816   5.649   5.767   0.470
10306SOL    HW131817   5.746   5.773   0.447
10306SOL    HW231818   5.638   5.722   0.559
10307SOL     OW31819   3.011   1.433   4.820
10307SOL    HW131820   2.942   1.426   4.748
10307SOL    HW231821   3.102   1.428   4.780
10308SOL     OW31822   2.099   4.275   2.102
10308SOL    HW131823   2.188   4.232   2.086
10308SOL    HW231824   2.036   4.206   2.139
10309SOL     OW31825   6.788   1.520   6.556
10309SOL    HW131826   6.799   1.435   6.608
10309SOL    HW231827   6.812   1.598   6.615
10310SOL     OW31828   2.970   3.917   0.424
10310SOL    HW131829   3.052   3.862   0.441
10310SOL    HW231830   2.990   4.013   0.445
10311SOL     OW31831   6.520   5.901   0.296
10311SOL    HW131832   6.599   5.846   0.269
10311SOL    HW231833   6.481   5.945   0.215
10312SOL     OW31834   5.002   6.856   2.429
10312SOL    HW131835   4.988   6.903   2.516
10312SOL    HW231836   4.975   6.916   2.353
10313SOL     OW31837   3.730   5.773   2.146
10313SOL    HW131838   3.672   5.815   2.077
10313SOL    HW231839   3.740   5.835   2.224
10314SOL     OW31840   6.593   0.202   0.260
10314SOL    HW131841   6.676   0.196   0.316
10314SOL    HW231842   6.549   0.113   0.256
10315SOL     OW31843   6.001   6.335   4.275
10315SOL    HW131844   5.920   6.363   4.223
10315SOL    HW231845   6.084   6.361   4.224
10316SOL     OW31846   6.499   2.826   6.281
10316SOL    HW131847   6.529   2.776   6.362
10316SOL    HW231848   6.576   2.876   6.242
10317SOL     OW31849   4.056   6.261   6.253
10317SOL    HW131850   4.022   6.242   6.345
10317SOL    HW231851   4.045   6.358   6.232
10318SOL     OW31852   4.815   1.270   6.574
10318SOL    HW131853   4.794   1.233   6.665
10318SOL    HW231854   4.762   1.353   6.559
10319SOL     OW31855   1.035   3.786   5.464
10319SOL    HW131856   0.950   3.837   5.471
10319SOL    HW231857   1.102   3.823   5.528
10320SOL     OW31858   0.687   6.316   2.830
10320SOL    HW131859   0.679   6.302   2.732
10320SOL    HW231860   0.618   6.382   2.860
10321SOL     OW31861   5.903   1.860   2.050
10321SOL    HW131862   5.931   1.779   1.997
10321SOL    HW231863   5.852   1.830   2.131
10322SOL     OW31864   4.259   5.009   4.372
10322SOL    HW131865   4.358   5.023   4.365
10322SOL    HW231866   4.219   5.080   4.430
10323SOL     OW31867   5.682   5.010   5.015
10323SOL    HW131868   5.639   5.050   4.935
10323SOL    HW231869   5.611   4.984   5.081
10324SOL     OW31870   3.627   3.067   2.677
10324SOL    HW131871   3.701   3.064   2.745
10324SOL    HW231872   3.555   3.003   2.704
10325SOL     OW31873   6.884   4.681   2.243
10325SOL    HW131874   6.901   4.675   2.341
10325SOL    HW231875   6.840   4.597   2.211
10326SOL     OW31876   5.808   4.168   6.464
10326SOL    HW131877   5.799   4.266   6.448
10326SOL    HW231878   5.886   4.133   6.412
10327SOL     OW31879   2.458   3.072   1.485
10327SOL    HW131880   2.475   3.096   1.389
10327SOL    HW231881   2.476   3.151   1.543
10328SOL     OW31882   6.327   3.282   0.724
10328SOL    HW131883   6.416   3.254   0.759
10328SOL    HW231884   6.255   3.257   0.789
10329SOL     OW31885   2.357   1.042   3.178
10329SOL    HW131886   2.332   1.138   3.170
10329SOL    HW231887   2.381   1.006   3.088
10330SOL     OW31888   4.020   0.982   1.865
10330SOL    HW131889   4.032   0.923   1.944
10330SOL    HW231890   4.044   1.076   1.890
10331SOL     OW31891   6.671   6.312   6.186
10331SOL    HW131892   6.738   6.249   6.147
10331SOL    HW231893   6.638   6.374   6.115
10332SOL     OW31894   6.892   0.024   0.176
10332SOL    HW131895   6.893   7.017   0.271
10332SOL    HW231896   6.858   6.972   0.118
10333SOL     OW31897   0.664   5.127   4.777
10333SOL    HW131898   0.720   5.111   4.696
10333SOL    HW231899   0.572   5.155   4.750
10334SOL     OW31900   3.338   0.782   4.314
10334SOL    HW131901   3.337   0.834   4.228
10334SOL    HW231902   3.244   0.774   4.348
10335SOL     OW31903   1.664   3.716   7.019
10335SOL    HW131904   1.724   3.676   0.065
10335SOL    HW231905   1.640   3.809   0.022
10336SOL     OW31906   6.264   0.444   1.809
10336SOL    HW131907   6.184   0.391   1.836
10336SOL    HW231908   6.343   0.384   1.801
10337SOL     OW31909   0.524   5.815   6.496
10337SOL    HW131910   0.623   5.829   6.503
10337SOL    HW231911   0.497   5.816   6.400
10338SOL     OW31912   1.695   6.140   2.375
10338SOL    HW131913   1.637   6.199   2.432
10338SOL    HW231914   1.639   6.101   2.301
10339SOL     OW31915   5.767   3.497   6.304
10339SOL    HW131916   5.733   3.409   6.271
10339SOL    HW231917   5.862   3.486   6.335
10340SOL     OW31918   1.678   3.186   0.104
10340SOL    HW131919   1.721   3.135   0.028
10340SOL    HW231920   1.598   3.235   0.070
10341SOL     OW31921   2.043   3.674   2.082
10341SOL    HW131922   2.107   3.621   2.027
10341SOL    HW231923   2.018   3.622   2.164
10342SOL     OW31924   2.099   0.171   4.011
10342SOL    HW131925   2.166   0.097   3.999
10342SOL    HW231926   2.007   0.136   3.994
10343SOL     OW31927   3.095   5.079   6.949
10343SOL    HW131928   3.153   5.006   6.912
10343SOL    HW231929   3.152   5.159   6.970
10344SOL     OW31930   4.101   3.638   0.420
10344SOL    HW131931   4.033   3.700   0.461
10344SOL    HW231932   4.151   3.686   0.348
10345SOL     OW31933   2.098   2.458   5.814
10345SOL    HW131934   2.033   2.530   5.791
10345SOL    HW231935   2.136   2.419   5.730
10346SOL     OW31936   0.043   5.793   1.148
10346SOL    HW131937   0.061   5.882   1.190
10346SOL    HW231938   6.968   5.774   1.149
10347SOL     OW31939   4.259   1.136   3.012
10347SOL    HW131940   4.259   1.185   2.925
10347SOL    HW231941   4.164   1.125   3.044
10348SOL     OW31942   6.446   2.722   0.550
10348SOL    HW131943   6.384   2.710   0.627
10348SOL    HW231944   6.510   2.645   0.546
10349SOL     OW31945   1.281   0.969   6.818
10349SOL    HW131946   1.221   0.934   6.890
10349SOL    HW231947   1.288   0.902   6.744
10350SOL     OW31948   3.031   5.480   5.348
10350SOL    HW131949   2.977   5.562   5.366
10350SOL    HW231950   3.089   5.496   5.268
10351SOL     OW31951   4.510   5.096   6.903
10351SOL    HW131952   4.442   5.041   6.952
10351SOL    HW231953   4.488   5.095   6.805
10352SOL     OW31954   3.247   0.876   6.363
10352SOL    HW131955   3.161   0.927   6.367
10352SOL    HW231956   3.233   0.784   6.401
10353SOL     OW31957   6.948   3.022   4.842
10353SOL    HW131958   6.882   3.003   4.770
10353SOL    HW231959   7.003   2.940   4.859
10354SOL     OW31960   6.125   1.816   2.367
10354SOL    HW131961   6.134   1.733   2.313
10354SOL    HW231962   6.160   1.799   2.459
10355SOL     OW31963   2.526   6.780   1.654
10355SOL    HW131964   2.557   6.705   1.712
10355SOL    HW231965   2.490   6.854   1.710
10356SOL     OW31966   0.388   4.893   5.590
10356SOL    HW131967   0.295   4.906   5.624
10356SOL    HW231968   0.453   4.937   5.652
10357SOL     OW31969   1.954   2.967   6.498
10357SOL    HW131970   1.912   2.900   6.438
10357SOL    HW231971   2.028   3.014   6.450
10358SOL     OW31972   0.619   2.718   3.032
10358SOL    HW131973   0.636   2.793   2.968
10358SOL    HW231974   0.668   2.636   3.003
10359SOL     OW31975   1.277   1.551   0.923
10359SOL    HW131976   1.349   1.530   0.990
10359SOL    HW231977   1.305   1.628   0.867
10360SOL     OW31978   5.053   4.941   3.105
10360SOL    HW131979   5.126   4.872   3.107
10360SOL    HW231980   4.979   4.913   3.165
10361SOL     OW31981   2.482   6.422   2.651
10361SOL    HW131982   2.542   6.436   2.729
10361SOL    HW231983   2.490   6.500   2.588
10362SOL     OW31984   1.823   4.796   4.781
10362SOL    HW131985   1.877   4.864   4.733
10362SOL    HW231986   1.741   4.839   4.818
10363SOL     OW31987   5.010   0.833   2.728
10363SOL    HW131988   4.948   0.851   2.651
10363SOL    HW231989   4.985   0.747   2.772
10364SOL     OW31990   3.075   3.641   1.433
10364SOL    HW131991   3.016   3.560   1.435
10364SOL    HW231992   3.082   3.679   1.525
10365SOL     OW31993   3.707   5.284   0.127
10365SOL    HW131994   3.635   5.308   0.192
10365SOL    HW231995   3.796   5.299   0.169
10366SOL     OW31996   2.451   0.348   3.918
10366SOL    HW131997   2.459   0.262   3.868
10366SOL    HW231998   2.445   0.329   4.016
10367SOL     OW31999   5.702   2.355   2.413
10367SOL    HW132000   5.744   2.418   2.348
10367SOL    HW232001   5.772   2.320   2.476
10368SOL     OW32002   2.516   1.036   1.103
10368SOL    HW132003   2.456   1.037   1.023
10368SOL    HW232004   2.602   1.081   1.081
10369SOL     OW32005   4.077   1.120   6.714
10369SOL    HW132006   4.082   1.136   6.616
10369SOL    HW232007   4.011   1.184   6.755
10370SOL     OW32008   4.863   1.356   4.984
10370SOL    HW132009   4.881   1.311   4.896
10370SOL    HW232010   4.860   1.455   4.971
10371SOL     OW32011   3.806   5.677   5.158
10371SOL    HW132012   3.709   5.665   5.134
10371SOL    HW232013   3.821   5.769   5.194
10372SOL     OW32014   2.046   0.797   5.274
10372SOL    HW132015   2.096   0.873   5.313
10372SOL    HW232016   1.949   0.804   5.300
10373SOL     OW32017   1.801   6.475   5.060
10373SOL    HW132018   1.801   6.409   4.986
10373SOL    HW232019   1.841   6.435   5.142
10374SOL     OW32020   3.292   1.835   3.202
10374SOL    HW132021   3.370   1.838   3.264
10374SOL    HW232022   3.216   1.786   3.246
10375SOL     OW32023   4.678   1.983   7.004
10375SOL    HW132024   4.618   1.904   7.014
10375SOL    HW232025   4.745   1.983   0.056
10376SOL     OW32026   1.062   6.682   3.890
10376SOL    HW132027   1.005   6.625   3.948
10376SOL    HW232028   1.158   6.658   3.902
10377SOL     OW32029   6.862   0.797   3.707
10377SOL    HW132030   6.943   0.797   3.648
10377SOL    HW232031   6.799   0.725   3.677
10378SOL     OW32032   6.833   0.888   6.096
10378SOL    HW132033   6.792   0.819   6.156
10378SOL    HW232034   6.927   0.906   6.125
10379SOL     OW32035   4.893   0.530   5.015
10379SOL    HW132036   4.940   0.546   5.102
10379SOL    HW232037   4.838   0.447   5.022
10380SOL     OW32038   5.422   0.762   2.698
10380SOL    HW132039   5.400   0.778   2.795
10380SOL    HW232040   5.516   0.727   2.691
10381SOL     OW32041   5.030   5.875   5.916
10381SOL    HW132042   5.061   5.871   5.822
10381SOL    HW232043   4.956   5.809   5.931
10382SOL     OW32044   2.552   5.253   6.225
10382SOL    HW132045   2.560   5.170   6.280
10382SOL    HW232046   2.597   5.238   6.137
10383SOL     OW32047   0.822   3.669   1.072
10383SOL    HW132048   0.751   3.680   1.141
10383SOL    HW232049   0.817   3.577   1.034
10384SOL     OW32050   0.139   0.050   0.816
10384SOL    HW132051   0.216   7.012   0.800
10384SOL    HW232052   0.077   0.009   0.883
10385SOL     OW32053   5.294   6.853   6.116
10385SOL    HW132054   5.262   6.923   6.053
10385SOL    HW232055   5.255   6.868   6.207
10386SOL     OW32056   6.784   3.709   5.171
10386SOL    HW132057   6.798   3.630   5.232
10386SOL    HW232058   6.701   3.758   5.199
10387SOL     OW32059   3.167   1.869   2.695
10387SOL    HW132060   3.226   1.789   2.704
10387SOL    HW232061   3.106   1.858   2.616
10388SOL     OW32062   1.441   5.317   4.102
10388SOL    HW132063   1.512   5.355   4.043
10388SOL    HW232064   1.480   5.296   4.192
10389SOL     OW32065   0.436   5.067   2.805
10389SOL    HW132066   0.461   5.070   2.709
10389SOL    HW232067   0.518   5.057   2.861
10390SOL     OW32068   1.463   4.078   2.911
10390SOL    HW132069   1.369   4.058   2.940
10390SOL    HW232070   1.462   4.150   2.842
10391SOL     OW32071   1.370   5.871   6.574
10391SOL    HW132072   1.429   5.856   6.495
10391SOL    HW232073   1.398   5.954   6.622
10392SOL     OW32074   6.314   4.239   0.645
10392SOL    HW132075   6.353   4.294   0.572
10392SOL    HW232076   6.353   4.147   0.642
10393SOL     OW32077   0.755   1.396   4.054
10393SOL    HW132078   0.817   1.473   4.039
10393SOL    HW232079   0.660   1.428   4.051
10394SOL     OW32080   1.932   6.823   6.807
10394SOL    HW132081   1.902   6.756   6.875
10394SOL    HW232082   1.855   6.882   6.783
10395SOL     OW32083   6.721   1.071   3.919
10395SOL    HW132084   6.776   1.050   3.999
10395SOL    HW232085   6.634   1.111   3.948
10396SOL     OW32086   1.137   0.631   3.248
10396SOL    HW132087   1.229   0.636   3.288
10396SOL    HW232088   1.139   0.574   3.166
10397SOL     OW32089   3.715   0.614   3.324
10397SOL    HW132090   3.644   0.624   3.394
10397SOL    HW232091   3.683   0.654   3.238
10398SOL     OW32092   6.563   3.140   0.851
10398SOL    HW132093   6.542   3.042   0.855
10398SOL    HW232094   6.591   3.172   0.942
10399SOL     OW32095   4.632   2.089   5.721
10399SOL    HW132096   4.581   2.170   5.691
10399SOL    HW232097   4.694   2.060   5.649
10400SOL     OW32098   2.653   5.599   2.931
10400SOL    HW132099   2.648   5.520   2.992
10400SOL    HW232100   2.745   5.638   2.935
10401SOL     OW32101   6.598   5.750   2.404
10401SOL    HW132102   6.611   5.715   2.497
10401SOL    HW232103   6.614   5.848   2.402
10402SOL     OW32104   0.252   2.784   5.131
10402SOL    HW132105   0.166   2.800   5.179
10402SOL    HW232106   0.322   2.754   5.197
10403SOL     OW32107   5.157   1.674   2.463
10403SOL    HW132108   5.068   1.696   2.423
10403SOL    HW232109   5.151   1.585   2.508
10404SOL     OW32110   0.845   6.574   4.064
10404SOL    HW132111   0.747   6.593   4.067
10404SOL    HW232112   0.888   6.604   4.149
10405SOL     OW32113   1.562   5.952   5.693
10405SOL    HW132114   1.618   5.872   5.670
10405SOL    HW232115   1.590   5.988   5.782
10406SOL     OW32116   1.675   4.644   5.691
10406SOL    HW132117   1.666   4.591   5.607
10406SOL    HW232118   1.637   4.735   5.677
10407SOL     OW32119   1.316   1.307   5.968
10407SOL    HW132120   1.334   1.235   5.901
10407SOL    HW232121   1.378   1.295   6.046
10408SOL     OW32122   4.483   4.887   3.567
10408SOL    HW132123   4.524   4.962   3.618
10408SOL    HW232124   4.493   4.903   3.469
10409SOL     OW32125   0.144   3.512   1.821
10409SOL    HW132126   0.097   3.581   1.875
10409SOL    HW232127   0.243   3.521   1.834
10410SOL     OW32128   4.209   0.918   0.926
10410SOL    HW132129   4.187   1.006   0.969
10410SOL    HW232130   4.285   0.930   0.862
10411SOL     OW32131   2.044   4.582   3.430
10411SOL    HW132132   2.104   4.503   3.417
10411SOL    HW232133   2.097   4.666   3.419
10412SOL     OW32134   0.979   2.381   0.104
10412SOL    HW132135   0.882   2.360   0.105
10412SOL    HW232136   1.017   2.357   0.014
10413SOL     OW32137   0.375   1.933   0.048
10413SOL    HW132138   0.428   2.003   0.097
10413SOL    HW232139   0.310   1.890   0.110
10414SOL     OW32140   4.799   6.564   6.531
10414SOL    HW132141   4.755   6.586   6.618
10414SOL    HW232142   4.792   6.465   6.514
10415SOL     OW32143   0.678   5.375   3.546
10415SOL    HW132144   0.652   5.469   3.570
10415SOL    HW232145   0.723   5.332   3.624
10416SOL     OW32146   6.295   2.345   5.453
10416SOL    HW132147   6.248   2.261   5.480
10416SOL    HW232148   6.241   2.391   5.382
10417SOL     OW32149   4.113   5.475   2.487
10417SOL    HW132150   4.196   5.511   2.531
10417SOL    HW232151   4.035   5.491   2.547
10418SOL     OW32152   6.681   3.978   6.110
10418SOL    HW132153   6.721   4.026   6.188
10418SOL    HW232154   6.739   3.989   6.030
10419SOL     OW32155   3.253   0.855   5.190
10419SOL    HW132156   3.228   0.759   5.207
10419SOL    HW232157   3.188   0.915   5.235
10420SOL     OW32158   6.350   3.145   3.047
10420SOL    HW132159   6.387   3.225   2.998
10420SOL    HW232160   6.284   3.176   3.116
10421SOL     OW32161   0.713   4.278   3.423
10421SOL    HW132162   0.716   4.179   3.415
10421SOL    HW232163   0.636   4.313   3.369
10422SOL     OW32164   6.945   3.657   4.516
10422SOL    HW132165   6.854   3.672   4.557
10422SOL    HW232166   6.950   3.706   4.429
10423SOL     OW32167   3.481   5.165   3.977
10423SOL    HW132168   3.434   5.205   4.056
10423SOL    HW232169   3.463   5.221   3.896
10424SOL     OW32170   3.918   0.855   6.721
10424SOL    HW132171   3.915   0.948   6.684
10424SOL    HW232172   3.990   0.850   6.791
10425SOL     OW32173   2.158   0.628   0.802
10425SOL    HW132174   2.159   0.528   0.797
10425SOL    HW232175   2.155   0.657   0.897
10426SOL     OW32176   5.483   2.704   5.697
10426SOL    HW132177   5.511   2.608   5.700
10426SOL    HW232178   5.564   2.762   5.705
10427SOL     OW32179   5.010   5.932   5.085
10427SOL    HW132180   5.089   5.955   5.143
10427SOL    HW232181   4.959   5.857   5.126
10428SOL     OW32182   1.655   1.512   3.367
10428SOL    HW132183   1.740   1.503   3.418
10428SOL    HW232184   1.671   1.489   3.271
10429SOL     OW32185   0.892   3.479   2.617
10429SOL    HW132186   0.984   3.482   2.576
10429SOL    HW232187   0.900   3.478   2.716
10430SOL     OW32188   3.792   6.802   3.595
10430SOL    HW132189   3.832   6.812   3.686
10430SOL    HW232190   3.761   6.892   3.562
10431SOL     OW32191   2.884   2.116   3.826
10431SOL    HW132192   2.954   2.156   3.768
10431SOL    HW232193   2.896   2.017   3.830
10432SOL     OW32194   6.679   6.643   5.880
10432SOL    HW132195   6.726   6.661   5.966
10432SOL    HW232196   6.712   6.705   5.809
10433SOL     OW32197   1.954   6.678   2.020
10433SOL    HW132198   2.027   6.660   1.955
10433SOL    HW232199   1.953   6.605   2.089
10434SOL     OW32200   4.954   6.522   5.615
10434SOL    HW132201   4.933   6.619   5.610
10434SOL    HW232202   5.022   6.506   5.688
10435SOL     OW32203   0.952   2.369   6.304
10435SOL    HW132204   0.882   2.440   6.291
10435SOL    HW232205   0.945   2.333   6.397
10436SOL     OW32206   0.850   4.206   5.074
10436SOL    HW132207   0.782   4.207   5.001
10436SOL    HW232208   0.911   4.127   5.063
10437SOL     OW32209   5.757   4.962   5.531
10437SOL    HW132210   5.747   4.995   5.625
10437SOL    HW232211   5.841   4.999   5.491
10438SOL     OW32212   6.987   6.211   6.468
10438SOL    HW132213   6.939   6.138   6.419
10438SOL    HW232214   6.972   6.298   6.421
10439SOL     OW32215   0.251   6.992   4.607
10439SOL    HW132216   0.287   6.912   4.560
10439SOL    HW232217   0.313   0.047   4.593
10440SOL     OW32218   0.184   1.597   6.663
10440SOL    HW132219   0.279   1.625   6.647
10440SOL    HW232220   0.130   1.612   6.580
10441SOL     OW32221   3.719   2.000   0.684
10441SOL    HW132222   3.767   2.073   0.636
10441SOL    HW232223   3.782   1.952   0.745
10442SOL     OW32224   2.684   1.376   5.471
10442SOL    HW132225   2.763   1.339   5.520
10442SOL    HW232226   2.674   1.473   5.492
10443SOL     OW32227   6.612   0.941   3.164
10443SOL    HW132228   6.621   1.024   3.108
10443SOL    HW232229   6.583   0.967   3.257
10444SOL     OW32230   3.998   5.860   3.921
10444SOL    HW132231   4.026   5.795   3.992
10444SOL    HW232232   4.075   5.878   3.860
10445SOL     OW32233   1.757   4.311   2.773
10445SOL    HW132234   1.855   4.292   2.773
10445SOL    HW232235   1.710   4.246   2.712
10446SOL     OW32236   1.960   4.418   5.079
10446SOL    HW132237   2.030   4.347   5.068
10446SOL    HW232238   1.999   4.495   5.129
10447SOL     OW32239   6.776   1.881   3.006
10447SOL    HW132240   6.781   1.958   2.943
10447SOL    HW232241   6.759   1.797   2.955
10448SOL     OW32242   2.254   6.457   3.000
10448SOL    HW132243   2.244   6.535   2.938
10448SOL    HW232244   2.303   6.486   3.082
10449SOL     OW32245   3.340   5.893   6.420
10449SOL    HW132246   3.439   5.889   6.403
10449SOL    HW232247   3.295   5.940   6.344
10450SOL     OW32248   6.350   0.054   5.967
10450SOL    HW132249   6.406   7.004   6.008
10450SOL    HW232250   6.363   0.139   6.018
10451SOL     OW32251   1.943   0.795   3.988
10451SOL    HW132252   1.975   0.701   3.992
10451SOL    HW232253   1.874   0.804   3.916
10452SOL     OW32254   6.968   4.200   4.046
10452SOL    HW132255   0.026   4.224   3.993
10452SOL    HW232256   6.894   4.263   4.025
10453SOL     OW32257   4.526   5.762   3.241
10453SOL    HW132258   4.512   5.799   3.149
10453SOL    HW232259   4.460   5.688   3.257
10454SOL     OW32260   6.635   1.535   5.908
10454SOL    HW132261   6.598   1.615   5.956
10454SOL    HW232262   6.645   1.555   5.811
10455SOL     OW32263   6.402   6.743   4.426
10455SOL    HW132264   6.334   6.777   4.361
10455SOL    HW232265   6.367   6.752   4.519
10456SOL     OW32266   0.102   5.328   6.957
10456SOL    HW132267   0.006   5.345   6.983
10456SOL    HW232268   0.161   5.389   7.010
10457SOL     OW32269   4.174   2.550   0.263
10457SOL    HW132270   4.233   2.631   0.271
10457SOL    HW232271   4.159   2.529   0.167
10458SOL     OW32272   6.413   6.868   6.412
10458SOL    HW132273   6.390   6.823   6.498
10458SOL    HW232274   6.451   6.801   6.349
10459SOL     OW32275   0.284   5.639   0.601
10459SOL    HW132276   0.332   5.552   0.613
10459SOL    HW232277   0.186   5.624   0.611
10460SOL     OW32278   0.186   3.948   0.836
10460SOL    HW132279   0.200   3.961   0.934
10460SOL    HW232280   0.273   3.956   0.788
10461SOL     OW32281   0.219   5.087   4.798
10461SOL    HW132282   0.310   5.102   4.758
10461SOL    HW232283   0.185   5.173   4.835
10462SOL     OW32284   4.500   1.730   1.243
10462SOL    HW132285   4.555   1.813   1.255
10462SOL    HW232286   4.405   1.755   1.229
10463SOL     OW32287   4.571   2.773   6.062
10463SOL    HW132288   4.521   2.855   6.033
10463SOL    HW232289   4.631   2.742   5.988
10464SOL     OW32290   5.777   5.343   2.901
10464SOL    HW132291   5.856   5.342   2.963
10464SOL    HW232292   5.701   5.292   2.942
10465SOL     OW32293   5.997   3.189   2.086
10465SOL    HW132294   6.058   3.140   2.149
10465SOL    HW232295   5.991   3.139   2.000
10466SOL     OW32296   5.436   5.007   6.488
10466SOL    HW132297   5.361   5.018   6.553
10466SOL    HW232298   5.504   4.944   6.526
10467SOL     OW32299   2.106   2.827   6.672
10467SOL    HW132300   2.194   2.864   6.700
10467SOL    HW232301   2.060   2.891   6.610
10468SOL     OW32302   2.842   4.732   3.689
10468SOL    HW132303   2.860   4.762   3.782
10468SOL    HW232304   2.919   4.756   3.630
10469SOL     OW32305   6.040   1.775   5.215
10469SOL    HW132306   6.077   1.708   5.151
10469SOL    HW232307   6.082   1.761   5.305
10470SOL     OW32308   2.251   2.453   4.048
10470SOL    HW132309   2.243   2.422   3.953
10470SOL    HW232310   2.171   2.424   4.099
10471SOL     OW32311   2.627   0.703   0.298
10471SOL    HW132312   2.628   0.656   0.386
10471SOL    HW232313   2.711   0.757   0.288
10472SOL     OW32314   3.831   5.101   0.536
10472SOL    HW132315   3.778   5.178   0.571
10472SOL    HW232316   3.775   5.047   0.474
10473SOL     OW32317   5.326   5.353   6.504
10473SOL    HW132318   5.411   5.335   6.454
10473SOL    HW232319   5.248   5.325   6.448
10474SOL     OW32320   5.249   1.025   3.930
10474SOL    HW132321   5.154   0.998   3.917
10474SOL    HW232322   5.304   0.944   3.948
10475SOL     OW32323   1.731   6.066   1.888
10475SOL    HW132324   1.740   5.979   1.840
10475SOL    HW232325   1.714   6.140   1.821
10476SOL     OW32326   3.880   6.298   0.591
10476SOL    HW132327   3.899   6.218   0.648
10476SOL    HW232328   3.966   6.335   0.556
10477SOL     OW32329   6.869   6.590   3.979
10477SOL    HW132330   6.843   6.556   4.069
10477SOL    HW232331   6.940   6.530   3.941
10478SOL     OW32332   5.848   6.603   0.578
10478SOL    HW132333   5.786   6.665   0.529
10478SOL    HW232334   5.866   6.639   0.670
10479SOL     OW32335   6.961   2.209   2.985
10479SOL    HW132336   6.874   2.184   2.944
10479SOL    HW232337   6.945   2.266   3.066
10480SOL     OW32338   1.242   6.893   2.255
10480SOL    HW132339   1.226   6.963   2.325
10480SOL    HW232340   1.311   6.927   2.190
10481SOL     OW32341   0.812   0.119   3.453
10481SOL    HW132342   0.794   0.195   3.391
10481SOL    HW232343   0.777   0.142   3.544
10482SOL     OW32344   5.621   4.321   4.101
10482SOL    HW132345   5.667   4.249   4.050
10482SOL    HW232346   5.589   4.392   4.037
10483SOL     OW32347   5.969   5.303   0.154
10483SOL    HW132348   5.891   5.255   0.196
10483SOL    HW232349   6.027   5.341   0.226
10484SOL     OW32350   6.382   1.352   1.216
10484SOL    HW132351   6.376   1.352   1.116
10484SOL    HW232352   6.411   1.442   1.248
10485SOL     OW32353   4.335   3.956   6.120
10485SOL    HW132354   4.340   3.898   6.201
10485SOL    HW232355   4.249   4.008   6.122
10486SOL     OW32356   6.537   3.060   0.575
10486SOL    HW132357   6.451   3.081   0.529
10486SOL    HW232358   6.537   3.100   0.666
10487SOL     OW32359   5.802   6.310   1.722
10487SOL    HW132360   5.759   6.247   1.658
10487SOL    HW232361   5.901   6.295   1.723
10488SOL     OW32362   2.836   2.804   6.348
10488SOL    HW132363   2.843   2.851   6.260
10488SOL    HW232364   2.815   2.707   6.333
10489SOL     OW32365   0.455   6.061   6.141
10489SOL    HW132366   0.422   6.139   6.194
10489SOL    HW232367   0.472   6.090   6.047
10490SOL     OW32368   6.488   1.264   3.552
10490SOL    HW132369   6.514   1.168   3.542
10490SOL    HW232370   6.389   1.273   3.544
10491SOL     OW32371   2.029   3.869   6.162
10491SOL    HW132372   2.006   3.939   6.094
10491SOL    HW232373   2.068   3.913   6.243
10492SOL     OW32374   4.980   3.606   5.257
10492SOL    HW132375   4.917   3.604   5.179
10492SOL    HW232376   5.015   3.514   5.274
10493SOL     OW32377   3.446   0.428   1.298
10493SOL    HW132378   3.471   0.349   1.242
10493SOL    HW232379   3.529   0.471   1.333
10494SOL     OW32380   5.721   2.030   4.428
10494SOL    HW132381   5.666   1.948   4.440
10494SOL    HW232382   5.661   2.110   4.424
10495SOL     OW32383   1.902   6.996   0.908
10495SOL    HW132384   2.001   6.990   0.897
10495SOL    HW232385   1.875   6.961   0.997
10496SOL     OW32386   6.821   6.704   0.161
10496SOL    HW132387   6.892   6.666   0.220
10496SOL    HW232388   6.861   6.736   0.076
10497SOL     OW32389   1.279   0.338   1.102
10497SOL    HW132390   1.237   0.415   1.149
10497SOL    HW232391   1.208   0.270   1.080
10498SOL     OW32392   2.506   0.120   6.749
10498SOL    HW132393   2.545   0.063   6.677
10498SOL    HW232394   2.423   0.165   6.715
10499SOL     OW32395   2.762   6.184   2.996
10499SOL    HW132396   2.704   6.264   2.981
10499SOL    HW232397   2.846   6.194   2.942
10500SOL     OW32398   0.164   1.968   5.889
10500SOL    HW132399   0.110   1.885   5.879
10500SOL    HW232400   0.225   1.977   5.810
10501SOL     OW32401   2.211   4.885   2.890
10501SOL    HW132402   2.278   4.877   2.964
10501SOL    HW232403   2.183   4.981   2.881
10502SOL     OW32404   2.978   6.932   0.716
10502SOL    HW132405   2.964   6.929   0.815
10502SOL    HW232406   3.041   7.007   0.694
10503SOL     OW32407   4.103   3.095   0.211
10503SOL    HW132408   4.062   3.186   0.199
10503SOL    HW232409   4.059   3.049   0.289
10504SOL     OW32410   1.649   3.049   0.390
10504SOL    HW132411   1.614   3.120   0.329
10504SOL    HW232412   1.574   3.015   0.447
10505SOL     OW32413   6.184   6.085   0.917
10505SOL    HW132414   6.103   6.120   0.870
10505SOL    HW232415   6.192   6.129   1.007
10506SOL     OW32416   0.110   4.591   6.372
10506SOL    HW132417   0.155   4.559   6.455
10506SOL    HW232418   0.011   4.576   6.380
10507SOL     OW32419   1.897   0.534   6.438
10507SOL    HW132420   1.813   0.490   6.470
10507SOL    HW232421   1.900   0.629   6.472
10508SOL     OW32422   5.995   5.505   3.366
10508SOL    HW132423   6.039   5.417   3.385
10508SOL    HW232424   5.898   5.490   3.350
10509SOL     OW32425   0.970   6.573   6.812
10509SOL    HW132426   1.022   6.640   6.865
10509SOL    HW232427   0.999   6.577   6.717
10510SOL     OW32428   5.837   5.121   6.425
10510SOL    HW132429   5.830   5.167   6.513
10510SOL    HW232430   5.929   5.135   6.388
10511SOL     OW32431   4.404   3.062   0.727
10511SOL    HW132432   4.413   2.963   0.718
10511SOL    HW232433   4.330   3.084   0.790
10512SOL     OW32434   4.394   0.667   6.717
10512SOL    HW132435   4.443   0.745   6.753
10512SOL    HW232436   4.354   0.690   6.629
10513SOL     OW32437   0.117   1.913   6.231
10513SOL    HW132438   0.202   1.936   6.183
10513SOL    HW232439   0.105   1.974   6.309
10514SOL     OW32440   6.334   4.236   0.972
10514SOL    HW132441   6.270   4.313   0.972
10514SOL    HW232442   6.357   4.212   0.878
10515SOL     OW32443   6.539   1.735   2.668
10515SOL    HW132444   6.607   1.705   2.735
10515SOL    HW232445   6.468   1.789   2.714
10516SOL     OW32446   4.671   1.102   6.418
10516SOL    HW132447   4.735   1.053   6.360
10516SOL    HW232448   4.720   1.170   6.473
10517SOL     OW32449   6.800   1.922   2.385
10517SOL    HW132450   6.780   1.931   2.288
10517SOL    HW232451   6.719   1.890   2.433
10518SOL     OW32452   1.160   5.056   0.072
10518SOL    HW132453   1.114   4.994   0.136
10518SOL    HW232454   1.250   5.020   0.050
10519SOL     OW32455   3.268   2.896   5.601
10519SOL    HW132456   3.319   2.814   5.628
10519SOL    HW232457   3.211   2.926   5.678
10520SOL     OW32458   2.747   2.859   6.620
10520SOL    HW132459   2.790   2.837   6.533
10520SOL    HW232460   2.815   2.898   6.682
10521SOL     OW32461   6.516   6.407   1.121
10521SOL    HW132462   6.509   6.506   1.124
10521SOL    HW232463   6.608   6.379   1.151
10522SOL     OW32464   6.453   0.798   0.122
10522SOL    HW132465   6.377   0.765   0.066
10522SOL    HW232466   6.428   0.793   0.219
10523SOL     OW32467   0.384   5.612   4.984
10523SOL    HW132468   0.469   5.564   4.960
10523SOL    HW232469   0.390   5.646   5.077
10524SOL     OW32470   1.702   6.917   4.534
10524SOL    HW132471   1.721   6.925   4.436
10524SOL    HW232472   1.611   6.953   4.553
10525SOL     OW32473   3.127   6.331   5.524
10525SOL    HW132474   3.157   6.421   5.493
10525SOL    HW232475   3.057   6.342   5.596
10526SOL     OW32476   0.333   0.746   2.526
10526SOL    HW132477   0.404   0.700   2.579
10526SOL    HW232478   0.372   0.782   2.441
10527SOL     OW32479   1.395   2.472   4.344
10527SOL    HW132480   1.426   2.486   4.250
10527SOL    HW232481   1.414   2.378   4.371
10528SOL     OW32482   1.020   4.368   4.907
10528SOL    HW132483   0.952   4.345   4.976
10528SOL    HW232484   0.983   4.351   4.816
10529SOL     OW32485   0.504   5.776   3.159
10529SOL    HW132486   0.468   5.842   3.225
10529SOL    HW232487   0.603   5.788   3.151
10530SOL     OW32488   2.499   2.024   5.982
10530SOL    HW132489   2.509   1.935   6.026
10530SOL    HW232490   2.463   2.090   6.048
10531SOL     OW32491   2.146   3.668   4.576
10531SOL    HW132492   2.102   3.579   4.564
10531SOL    HW232493   2.244   3.655   4.590
10532SOL     OW32494   2.278   3.017   0.280
10532SOL    HW132495   2.191   2.996   0.325
10532SOL    HW232496   2.283   2.969   0.193
10533SOL     OW32497   3.233   1.214   4.439
10533SOL    HW132498   3.158   1.162   4.399
10533SOL    HW232499   3.246   1.299   4.387
10534SOL     OW32500   6.990   5.796   0.872
10534SOL    HW132501   0.023   5.800   0.955
10534SOL    HW232502   0.001   5.863   0.806
10535SOL     OW32503   6.916   1.406   2.281
10535SOL    HW132504   7.012   1.396   2.255
10535SOL    HW232505   6.866   1.447   2.205
10536SOL     OW32506   4.574   0.512   2.940
10536SOL    HW132507   4.642   0.442   2.960
10536SOL    HW232508   4.536   0.496   2.848
10537SOL     OW32509   3.234   5.327   3.178
10537SOL    HW132510   3.329   5.311   3.205
10537SOL    HW232511   3.212   5.424   3.189
10538SOL     OW32512   4.345   3.234   6.408
10538SOL    HW132513   4.350   3.143   6.450
10538SOL    HW232514   4.302   3.227   6.318
10539SOL     OW32515   0.561   3.956   6.460
10539SOL    HW132516   0.599   4.027   6.401
10539SOL    HW232517   0.529   3.998   6.545
10540SOL     OW32518   1.363   0.465   5.663
10540SOL    HW132519   1.267   0.449   5.642
10540SOL    HW232520   1.414   0.379   5.657
10541SOL     OW32521   3.718   3.867   1.326
10541SOL    HW132522   3.642   3.826   1.276
10541SOL    HW232523   3.709   3.846   1.424
10542SOL     OW32524   0.163   1.467   0.740
10542SOL    HW132525   0.143   1.488   0.836
10542SOL    HW232526   0.162   1.368   0.727
10543SOL     OW32527   0.056   1.357   5.833
10543SOL    HW132528   0.050   1.384   5.929
10543SOL    HW232529   0.040   1.259   5.824
10544SOL     OW32530   2.600   1.896   2.448
10544SOL    HW132531   2.518   1.947   2.421
10544SOL    HW232532   2.642   1.856   2.367
10545SOL     OW32533   6.741   6.855   2.273
10545SOL    HW132534   6.783   6.943   2.254
10545SOL    HW232535   6.660   6.868   2.331
10546SOL     OW32536   1.686   6.846   5.206
10546SOL    HW132537   1.671   6.754   5.241
10546SOL    HW232538   1.611   6.905   5.234
10547SOL     OW32539   4.742   1.196   2.149
10547SOL    HW132540   4.707   1.237   2.065
10547SOL    HW232541   4.778   1.104   2.129
10548SOL     OW32542   5.442   3.853   4.734
10548SOL    HW132543   5.542   3.851   4.726
10548SOL    HW232544   5.406   3.762   4.711
10549SOL     OW32545   6.874   0.587   2.458
10549SOL    HW132546   6.946   0.638   2.506
10549SOL    HW232547   6.816   0.541   2.525
10550SOL     OW32548   4.771   6.398   4.270
10550SOL    HW132549   4.846   6.354   4.319
10550SOL    HW232550   4.760   6.491   4.303
10551SOL     OW32551   1.400   2.556   5.082
10551SOL    HW132552   1.403   2.493   5.004
10551SOL    HW232553   1.312   2.603   5.084
10552SOL     OW32554   4.153   1.737   5.162
10552SOL    HW132555   4.144   1.659   5.223
10552SOL    HW232556   4.243   1.779   5.172
10553SOL     OW32557   0.566   4.846   0.945
10553SOL    HW132558   0.561   4.841   1.045
10553SOL    HW232559   0.624   4.923   0.919
10554SOL     OW32560   6.021   4.715   6.874
10554SOL    HW132561   6.019   4.795   6.934
10554SOL    HW232562   6.013   4.632   6.930
10555SOL     OW32563   2.956   2.033   1.565
10555SOL    HW132564   2.990   1.962   1.627
10555SOL    HW232565   2.870   2.069   1.599
10556SOL     OW32566   2.037   3.288   4.967
10556SOL    HW132567   2.105   3.222   4.934
10556SOL    HW232568   2.078   3.379   4.973
10557SOL     OW32569   0.624   2.448   3.244
10557SOL    HW132570   0.664   2.504   3.316
10557SOL    HW232571   0.543   2.402   3.279
10558SOL     OW32572   4.686   6.603   5.283
10558SOL    HW132573   4.685   6.690   5.332
10558SOL    HW232574   4.656   6.530   5.346
10559SOL     OW32575   4.170   1.503   0.947
10559SOL    HW132576   4.200   1.589   0.906
10559SOL    HW232577   4.145   1.518   1.043
10560SOL     OW32578   1.915   5.000   5.148
10560SOL    HW132579   1.917   5.062   5.070
10560SOL    HW232580   1.835   4.940   5.141
10561SOL     OW32581   2.006   5.307   0.285
10561SOL    HW132582   2.025   5.341   0.193
10561SOL    HW232583   2.014   5.207   0.285
10562SOL     OW32584   4.997   6.864   0.592
10562SOL    HW132585   5.073   6.829   0.646
10562SOL    HW232586   4.924   6.896   0.652
10563SOL     OW32587   1.984   0.853   4.457
10563SOL    HW132588   1.990   0.761   4.494
10563SOL    HW232589   2.064   0.871   4.399
10564SOL     OW32590   5.791   0.178   1.543
10564SOL    HW132591   5.828   0.161   1.452
10564SOL    HW232592   5.818   0.270   1.573
10565SOL     OW32593   6.970   1.606   5.185
10565SOL    HW132594   0.002   1.605   5.267
10565SOL    HW232595   7.009   1.544   5.117
10566SOL     OW32596   3.831   3.670   6.613
10566SOL    HW132597   3.758   3.619   6.568
10566SOL    HW232598   3.889   3.606   6.663
10567SOL     OW32599   1.827   3.393   4.425
10567SOL    HW132600   1.802   3.410   4.521
10567SOL    HW232601   1.926   3.380   4.419
10568SOL     OW32602   5.561   1.419   2.465
10568SOL    HW132603   5.561   1.505   2.414
10568SOL    HW232604   5.625   1.355   2.422
10569SOL     OW32605   6.421   3.536   2.432
10569SOL    HW132606   6.454   3.606   2.496
10569SOL    HW232607   6.431   3.570   2.339
10570SOL     OW32608   1.721   4.468   2.551
10570SOL    HW132609   1.744   4.383   2.502
10570SOL    HW232610   1.717   4.449   2.649
10571SOL     OW32611   6.666   5.371   3.504
10571SOL    HW132612   6.588   5.415   3.551
10571SOL    HW232613   6.748   5.382   3.560
10572SOL     OW32614   5.627   3.561   3.231
10572SOL    HW132615   5.672   3.645   3.260
10572SOL    HW232616   5.619   3.498   3.308
10573SOL     OW32617   5.945   6.400   3.317
10573SOL    HW132618   6.014   6.469   3.340
10573SOL    HW232619   5.878   6.440   3.254
10574SOL     OW32620   1.959   1.959   3.541
10574SOL    HW132621   2.037   1.920   3.589
10574SOL    HW232622   1.905   1.886   3.500
10575SOL     OW32623   0.581   0.817   4.075
10575SOL    HW132624   0.487   0.850   4.072
10575SOL    HW232625   0.644   0.894   4.069
10576SOL     OW32626   0.923   6.636   5.291
10576SOL    HW132627   0.891   6.544   5.270
10576SOL    HW232628   0.930   6.689   5.206
10577SOL     OW32629   1.777   3.219   6.461
10577SOL    HW132630   1.801   3.210   6.365
10577SOL    HW232631   1.810   3.140   6.512
10578SOL     OW32632   6.304   0.878   5.069
10578SOL    HW132633   6.299   0.976   5.050
10578SOL    HW232634   6.271   0.827   4.989
10579SOL     OW32635   4.121   1.175   0.986
10579SOL    HW132636   4.177   1.255   0.966
10579SOL    HW232637   4.131   1.151   1.083
10580SOL     OW32638   6.840   6.926   6.676
10580SOL    HW132639   6.754   6.936   6.625
10580SOL    HW232640   6.898   7.005   6.658
10581SOL     OW32641   6.020   0.101   3.192
10581SOL    HW132642   5.939   0.100   3.133
10581SOL    HW232643   6.071   0.185   3.178
10582SOL     OW32644   3.955   4.433   6.878
10582SOL    HW132645   4.001   4.522   6.874
10582SOL    HW232646   4.002   4.374   6.944
10583SOL     OW32647   4.145   0.833   6.895
10583SOL    HW132648   4.219   0.803   6.836
10583SOL    HW232649   4.177   0.906   6.955
10584SOL     OW32650   5.260   6.082   1.177
10584SOL    HW132651   5.250   6.167   1.227
10584SOL    HW232652   5.323   6.022   1.226
10585SOL     OW32653   1.546   3.235   5.854
10585SOL    HW132654   1.645   3.238   5.865
10585SOL    HW232655   1.524   3.188   5.768
10586SOL     OW32656   2.559   6.039   5.851
10586SOL    HW132657   2.481   5.984   5.821
10586SOL    HW232658   2.639   6.018   5.795
10587SOL     OW32659   5.731   3.426   0.526
10587SOL    HW132660   5.662   3.385   0.466
10587SOL    HW232661   5.691   3.502   0.576
10588SOL     OW32662   1.230   4.271   1.926
10588SOL    HW132663   1.305   4.332   1.950
10588SOL    HW232664   1.235   4.248   1.829
10589SOL     OW32665   6.019   2.344   4.288
10589SOL    HW132666   6.118   2.328   4.290
10589SOL    HW232667   5.997   2.408   4.214
10590SOL     OW32668   0.881   6.714   2.458
10590SOL    HW132669   0.828   6.796   2.482
10590SOL    HW232670   0.943   6.735   2.382
10591SOL     OW32671   1.947   1.897   5.845
10591SOL    HW132672   1.934   1.938   5.755
10591SOL    HW232673   1.857   1.874   5.884
10592SOL     OW32674   6.058   1.506   6.871
10592SOL    HW132675   6.089   1.505   6.776
10592SOL    HW232676   6.091   1.589   6.915
10593SOL     OW32677   2.547   6.244   0.910
10593SOL    HW132678   2.594   6.286   0.832
10593SOL    HW232679   2.492   6.312   0.957
10594SOL     OW32680   6.283   1.542   3.901
10594SOL    HW132681   6.226   1.580   3.828
10594SOL    HW232682   6.373   1.585   3.898
10595SOL     OW32683   3.391   0.016   6.037
10595SOL    HW132684   3.360   0.083   5.971
10595SOL    HW232685   3.472   6.992   6.002
10596SOL     OW32686   3.672   6.723   1.644
10596SOL    HW132687   3.744   6.739   1.712
10596SOL    HW232688   3.588   6.766   1.675
10597SOL     OW32689   2.821   1.045   4.434
10597SOL    HW132690   2.913   1.060   4.398
10597SOL    HW232691   2.790   0.953   4.411
10598SOL     OW32692   2.090   2.573   6.584
10598SOL    HW132693   2.173   2.522   6.606
10598SOL    HW232694   2.101   2.668   6.612
10599SOL     OW32695   6.098   1.373   0.096
10599SOL    HW132696   6.100   1.454   0.154
10599SOL    HW232697   6.116   1.399   0.001
10600SOL     OW32698   2.381   3.233   6.544
10600SOL    HW132699   2.379   3.297   6.622
10600SOL    HW232700   2.453   3.165   6.559
10601SOL     OW32701   3.264   6.031   6.185
10601SOL    HW132702   3.167   6.043   6.164
10601SOL    HW232703   3.297   5.945   6.148
10602SOL     OW32704   4.973   1.493   1.795
10602SOL    HW132705   5.019   1.569   1.750
10602SOL    HW232706   4.900   1.458   1.735
10603SOL     OW32707   1.198   6.354   3.528
10603SOL    HW132708   1.285   6.316   3.495
10603SOL    HW232709   1.140   6.280   3.561
10604SOL     OW32710   6.186   4.307   4.544
10604SOL    HW132711   6.153   4.213   4.555
10604SOL    HW232712   6.156   4.363   4.621
10605SOL     OW32713   0.726   5.053   0.414
10605SOL    HW132714   0.677   5.023   0.496
10605SOL    HW232715   0.824   5.060   0.434
10606SOL     OW32716   6.985   0.690   1.466
10606SOL    HW132717   7.014   0.785   1.470
10606SOL    HW232718   6.950   0.670   1.374
10607SOL     OW32719   3.994   4.824   6.044
10607SOL    HW132720   3.928   4.892   6.013
10607SOL    HW232721   4.039   4.857   6.127
10608SOL     OW32722   5.822   1.585   4.621
10608SOL    HW132723   5.859   1.641   4.695
10608SOL    HW232724   5.851   1.623   4.533
10609SOL     OW32725   3.652   5.899   1.339
10609SOL    HW132726   3.650   5.804   1.307
10609SOL    HW232727   3.559   5.935   1.342
10610SOL     OW32728   1.000   4.046   6.396
10610SOL    HW132729   1.074   4.006   6.341
10610SOL    HW232730   0.953   3.973   6.446
10611SOL     OW32731   5.610   3.168   7.000
10611SOL    HW132732   5.584   3.260   0.008
10611SOL    HW232733   5.606   3.165   6.900
10612SOL     OW32734   2.656   6.950   6.578
10612SOL    HW132735   2.651   6.964   6.479
10612SOL    HW232736   2.581   6.890   6.608
10613SOL     OW32737   6.891   0.527   5.828
10613SOL    HW132738   6.816   0.590   5.808
10613SOL    HW232739   6.920   0.539   5.922
10614SOL     OW32740   7.023   0.882   4.307
10614SOL    HW132741   7.004   0.895   4.405
10614SOL    HW232742   6.983   0.795   4.277
10615SOL     OW32743   4.236   5.357   5.642
10615SOL    HW132744   4.246   5.399   5.552
10615SOL    HW232745   4.280   5.267   5.642
10616SOL     OW32746   3.034   6.396   0.365
10616SOL    HW132747   2.953   6.342   0.388
10616SOL    HW232748   3.103   6.385   0.436
10617SOL     OW32749   2.138   2.751   0.423
10617SOL    HW132750   2.211   2.761   0.490
10617SOL    HW232751   2.049   2.758   0.468
10618SOL     OW32752   6.411   2.845   0.323
10618SOL    HW132753   6.432   2.809   0.413
10618SOL    HW232754   6.314   2.832   0.303
10619SOL     OW32755   0.749   3.729   3.057
10619SOL    HW132756   0.716   3.642   3.096
10619SOL    HW232757   0.848   3.726   3.050
10620SOL     OW32758   1.600   6.299   5.625
10620SOL    HW132759   1.510   6.276   5.663
10620SOL    HW232760   1.598   6.290   5.526
10621SOL     OW32761   1.375   5.613   6.716
10621SOL    HW132762   1.398   5.685   6.651
10621SOL    HW232763   1.415   5.527   6.688
10622SOL     OW32764   4.509   0.823   1.843
10622SOL    HW132765   4.496   0.831   1.942
10622SOL    HW232766   4.456   0.893   1.796
10623SOL     OW32767   5.347   2.630   3.754
10623SOL    HW132768   5.319   2.667   3.842
10623SOL    HW232769   5.394   2.700   3.701
10624SOL     OW32770   1.302   1.469   5.166
10624SOL    HW132771   1.260   1.385   5.202
10624SOL    HW232772   1.233   1.519   5.113
10625SOL     OW32773   0.621   4.392   6.793
10625SOL    HW132774   0.528   4.403   6.829
10625SOL    HW232775   0.623   4.311   6.734
10626SOL     OW32776   1.494   2.180   1.389
10626SOL    HW132777   1.434   2.113   1.431
10626SOL    HW232778   1.443   2.234   1.322
10627SOL     OW32779   6.622   6.118   2.710
10627SOL    HW132780   6.663   6.069   2.633
10627SOL    HW232781   6.543   6.068   2.745
10628SOL     OW32782   6.237   5.234   5.193
10628SOL    HW132783   6.201   5.172   5.123
10628SOL    HW232784   6.258   5.323   5.151
10629SOL     OW32785   2.536   4.826   5.930
10629SOL    HW132786   2.520   4.760   6.004
10629SOL    HW232787   2.572   4.778   5.850
10630SOL     OW32788   6.136   0.464   3.522
10630SOL    HW132789   6.085   0.413   3.591
10630SOL    HW232790   6.084   0.545   3.495
10631SOL     OW32791   0.818   6.936   4.058
10631SOL    HW132792   0.895   6.940   3.994
10631SOL    HW232793   0.758   7.014   4.044
10632SOL     OW32794   6.265   2.522   4.597
10632SOL    HW132795   6.230   2.577   4.521
10632SOL    HW232796   6.220   2.550   4.682
10633SOL     OW32797   2.439   4.813   1.322
10633SOL    HW132798   2.473   4.731   1.277
10633SOL    HW232799   2.383   4.788   1.401
10634SOL     OW32800   2.653   5.627   0.497
10634SOL    HW132801   2.721   5.701   0.502
10634SOL    HW232802   2.641   5.587   0.588
10635SOL     OW32803   3.257   1.073   1.043
10635SOL    HW132804   3.182   1.130   1.075
10635SOL    HW232805   3.301   1.116   0.964
10636SOL     OW32806   0.336   2.068   1.071
10636SOL    HW132807   0.351   2.132   0.996
10636SOL    HW232808   0.350   2.115   1.158
10637SOL     OW32809   3.402   3.981   5.331
10637SOL    HW132810   3.484   3.926   5.344
10637SOL    HW232811   3.423   4.062   5.277
10638SOL     OW32812   0.518   6.607   4.107
10638SOL    HW132813   0.580   6.670   4.152
10638SOL    HW232814   0.425   6.644   4.110
10639SOL     OW32815   1.041   1.376   4.716
10639SOL    HW132816   0.945   1.355   4.735
10639SOL    HW232817   1.100   1.320   4.774
10640SOL     OW32818   4.792   0.753   6.953
10640SOL    HW132819   4.718   0.695   6.918
10640SOL    HW232820   4.865   0.695   6.990
10641SOL     OW32821   5.029   1.752   0.127
10641SOL    HW132822   4.986   1.835   0.164
10641SOL    HW232823   4.963   1.677   0.130
10642SOL     OW32824   6.851   2.176   1.284
10642SOL    HW132825   6.863   2.077   1.275
10642SOL    HW232826   6.940   2.222   1.274
10643SOL     OW32827   2.163   3.985   5.336
10643SOL    HW132828   2.241   3.988   5.274
10643SOL    HW232829   2.083   4.024   5.290
10644SOL     OW32830   4.583   1.478   3.826
10644SOL    HW132831   4.612   1.509   3.916
10644SOL    HW232832   4.589   1.554   3.761
10645SOL     OW32833   0.817   0.744   4.843
10645SOL    HW132834   0.898   0.753   4.785
10645SOL    HW232835   0.741   0.795   4.803
10646SOL     OW32836   0.355   2.701   5.806
10646SOL    HW132837   0.265   2.677   5.770
10646SOL    HW232838   0.355   2.692   5.905
10647SOL     OW32839   6.261   4.951   0.340
10647SOL    HW132840   6.352   4.986   0.365
10647SOL    HW232841   6.247   4.962   0.242
10648SOL     OW32842   5.028   3.155   6.402
10648SOL    HW132843   4.976   3.082   6.445
10648SOL    HW232844   4.980   3.187   6.320
10649SOL     OW32845   0.279   4.985   5.193
10649SOL    HW132846   0.260   5.081   5.214
10649SOL    HW232847   0.339   4.947   5.263
10650SOL     OW32848   2.165   6.426   3.911
10650SOL    HW132849   2.079   6.450   3.866
10650SOL    HW232850   2.213   6.358   3.855
10651SOL     OW32851   4.474   6.899   5.635
10651SOL    HW132852   4.421   6.833   5.581
10651SOL    HW232853   4.441   6.899   5.729
10652SOL     OW32854   3.163   0.281   5.924
10652SOL    HW132855   3.217   0.360   5.898
10652SOL    HW232856   3.134   0.290   6.019
10653SOL     OW32857   4.798   4.540   4.386
10653SOL    HW132858   4.783   4.508   4.293
10653SOL    HW232859   4.894   4.565   4.398
10654SOL     OW32860   2.477   0.445   1.234
10654SOL    HW132861   2.569   0.455   1.271
10654SOL    HW232862   2.444   0.534   1.201
10655SOL     OW32863   2.708   5.750   1.669
10655SOL    HW132864   2.723   5.683   1.596
10655SOL    HW232865   2.785   5.748   1.733
10656SOL     OW32866   6.193   2.590   0.024
10656SOL    HW132867   6.189   2.586   6.947
10656SOL    HW232868   6.140   2.670   0.055
10657SOL     OW32869   6.031   6.692   1.038
10657SOL    HW132870   6.106   6.752   1.011
10657SOL    HW232871   6.016   6.700   1.136
10658SOL     OW32872   1.242   4.636   4.397
10658SOL    HW132873   1.258   4.631   4.495
10658SOL    HW232874   1.319   4.682   4.353
10659SOL     OW32875   5.723   7.006   0.899
10659SOL    HW132876   5.642   0.019   0.853
10659SOL    HW232877   5.696   6.935   0.963
10660SOL     OW32878   4.097   3.773   5.903
10660SOL    HW132879   4.147   3.735   5.825
10660SOL    HW232880   4.080   3.870   5.887
10661SOL     OW32881   0.634   6.685   1.740
10661SOL    HW132882   0.704   6.741   1.784
10661SOL    HW232883   0.597   6.620   1.806
10662SOL     OW32884   0.036   1.314   0.976
10662SOL    HW132885   0.075   1.268   0.897
10662SOL    HW232886   0.106   1.323   1.047
10663SOL     OW32887   0.408   0.266   1.247
10663SOL    HW132888   0.466   0.185   1.247
10663SOL    HW232889   0.327   0.250   1.190
10664SOL     OW32890   2.159   4.565   0.288
10664SOL    HW132891   2.239   4.529   0.241
10664SOL    HW232892   2.091   4.492   0.299
10665SOL     OW32893   0.226   1.832   0.256
10665SOL    HW132894   0.150   1.770   0.237
10665SOL    HW232895   0.308   1.778   0.277
10666SOL     OW32896   3.310   5.890   6.952
10666SOL    HW132897   3.215   5.915   6.968
10666SOL    HW232898   3.361   5.972   6.924
10667SOL     OW32899   3.744   1.760   5.354
10667SOL    HW132900   3.824   1.816   5.332
10667SOL    HW232901   3.686   1.752   5.273
10668SOL     OW32902   1.465   1.908   6.497
10668SOL    HW132903   1.563   1.914   6.477
10668SOL    HW232904   1.440   1.812   6.508
10669SOL     OW32905   1.306   0.099   0.560
10669SOL    HW132906   1.380   0.032   0.560
10669SOL    HW232907   1.296   0.138   0.651
10670SOL     OW32908   5.736   4.539   5.728
10670SOL    HW132909   5.797   4.569   5.800
10670SOL    HW232910   5.666   4.609   5.711
10671SOL     OW32911   2.485   2.458   2.894
10671SOL    HW132912   2.389   2.481   2.874
10671SOL    HW232913   2.502   2.468   2.992
10672SOL     OW32914   0.314   2.519   0.363
10672SOL    HW132915   0.294   2.587   0.434
10672SOL    HW232916   0.413   2.511   0.352
10673SOL     OW32917   2.615   3.177   5.475
10673SOL    HW132918   2.634   3.095   5.529
10673SOL    HW232919   2.603   3.151   5.379
10674SOL     OW32920   3.998   3.821   1.002
10674SOL    HW132921   4.093   3.791   1.014
10674SOL    HW232922   3.940   3.742   0.986
10675SOL     OW32923   0.156   6.998   5.833
10675SOL    HW132924   0.192   6.907   5.814
10675SOL    HW232925   0.057   6.998   5.818
10676SOL     OW32926   6.078   0.227   6.320
10676SOL    HW132927   6.056   0.143   6.271
10676SOL    HW232928   6.030   0.304   6.280
10677SOL     OW32929   0.459   0.480   1.646
10677SOL    HW132930   0.401   0.535   1.586
10677SOL    HW232931   0.461   0.521   1.738
10678SOL     OW32932   2.364   5.625   2.258
10678SOL    HW132933   2.461   5.600   2.264
10678SOL    HW232934   2.321   5.613   2.347
10679SOL     OW32935   5.855   5.319   4.084
10679SOL    HW132936   5.878   5.405   4.129
10679SOL    HW232937   5.821   5.338   3.992
10680SOL     OW32938   1.149   3.120   2.331
10680SOL    HW132939   1.205   3.043   2.362
10680SOL    HW232940   1.079   3.141   2.400
10681SOL     OW32941   6.276   2.973   6.269
10681SOL    HW132942   6.262   2.989   6.366
10681SOL    HW232943   6.351   2.909   6.256
10682SOL     OW32944   0.756   1.900   2.501
10682SOL    HW132945   0.698   1.945   2.570
10682SOL    HW232946   0.807   1.970   2.450
10683SOL     OW32947   1.679   2.058   4.524
10683SOL    HW132948   1.734   2.135   4.556
10683SOL    HW232949   1.730   1.973   4.538
10684SOL     OW32950   6.057   4.295   0.679
10684SOL    HW132951   6.152   4.263   0.683
10684SOL    HW232952   6.043   4.350   0.597
10685SOL     OW32953   0.489   3.700   3.448
10685SOL    HW132954   0.453   3.792   3.465
10685SOL    HW232955   0.443   3.634   3.508
10686SOL     OW32956   3.030   6.119   0.190
10686SOL    HW132957   3.116   6.142   0.235
10686SOL    HW232958   3.044   6.044   0.126
10687SOL     OW32959   6.926   4.656   2.533
10687SOL    HW132960   6.891   4.570   2.568
10687SOL    HW232961   6.873   4.732   2.572
10688SOL     OW32962   6.773   5.293   2.239
10688SOL    HW132963   6.837   5.351   2.188
10688SOL    HW232964   6.821   5.247   2.314
10689SOL     OW32965   0.009   0.486   2.753
10689SOL    HW132966   0.050   0.557   2.696
10689SOL    HW232967   6.953   0.524   2.801
10690SOL     OW32968   4.698   5.140   2.287
10690SOL    HW132969   4.732   5.184   2.369
10690SOL    HW232970   4.763   5.070   2.257
10691SOL     OW32971   6.744   1.130   1.191
10691SOL    HW132972   6.801   1.071   1.248
10691SOL    HW232973   6.650   1.126   1.223
10692SOL     OW32974   3.777   5.806   3.767
10692SOL    HW132975   3.710   5.862   3.816
10692SOL    HW232976   3.862   5.803   3.819
10693SOL     OW32977   0.178   1.347   1.465
10693SOL    HW132978   0.112   1.400   1.518
10693SOL    HW232979   0.268   1.353   1.509
10694SOL     OW32980   4.158   6.024   1.685
10694SOL    HW132981   4.062   6.038   1.658
10694SOL    HW232982   4.209   6.108   1.669
10695SOL     OW32983   7.011   2.506   4.379
10695SOL    HW132984   0.012   2.572   4.308
10695SOL    HW232985   0.026   2.417   4.356
10696SOL     OW32986   0.145   6.048   1.251
10696SOL    HW132987   0.176   6.120   1.314
10696SOL    HW232988   0.225   6.004   1.211
10697SOL     OW32989   0.688   6.075   4.498
10697SOL    HW132990   0.604   6.087   4.550
10697SOL    HW232991   0.680   5.992   4.441
10698SOL     OW32992   2.967   0.151   3.428
10698SOL    HW132993   3.023   0.191   3.500
10698SOL    HW232994   2.880   0.200   3.421
10699SOL     OW32995   4.032   1.544   2.860
10699SOL    HW132996   3.966   1.471   2.878
10699SOL    HW232997   3.992   1.610   2.797
10700SOL     OW32998   0.005   6.518   1.089
10700SOL    HW132999   0.052   6.490   1.172
10700SOL    HW233000   0.072   6.550   1.021
10701SOL     OW33001   3.316   6.425   0.428
10701SOL    HW133002   3.402   6.398   0.471
10701SOL    HW233003   3.334   6.456   0.334
10702SOL     OW33004   6.040   2.790   0.446
10702SOL    HW133005   6.025   2.880   0.404
10702SOL    HW233006   6.116   2.795   0.510
10703SOL     OW33007   3.721   4.044   3.666
10703SOL    HW133008   3.662   4.095   3.603
10703SOL    HW233009   3.666   3.980   3.719
10704SOL     OW33010   5.094   0.142   1.763
10704SOL    HW133011   5.118   0.211   1.831
10704SOL    HW233012   5.141   0.164   1.677
10705SOL     OW33013   0.867   2.976   5.769
10705SOL    HW133014   0.789   2.950   5.712
10705SOL    HW233015   0.940   2.909   5.758
10706SOL     OW33016   3.585   0.636   1.681
10706SOL    HW133017   3.496   0.600   1.655
10706SOL    HW233018   3.573   0.709   1.749
10707SOL     OW33019   6.027   6.811   5.843
10707SOL    HW133020   6.052   6.726   5.797
10707SOL    HW233021   6.082   6.822   5.926
10708SOL     OW33022   4.565   0.914   1.034
10708SOL    HW133023   4.530   0.850   0.966
10708SOL    HW233024   4.544   1.008   1.007
10709SOL     OW33025   6.414   6.869   5.537
10709SOL    HW133026   6.368   6.952   5.506
10709SOL    HW233027   6.354   6.790   5.522
10710SOL     OW33028   6.133   5.738   3.988
10710SOL    HW133029   6.177   5.762   3.901
10710SOL    HW233030   6.069   5.810   4.013
10711SOL     OW33031   1.238   6.926   4.103
10711SOL    HW133032   1.311   6.908   4.170
10711SOL    HW233033   1.270   6.900   4.012
10712SOL     OW33034   3.401   1.461   5.153
10712SOL    HW133035   3.477   1.512   5.114
10712SOL    HW233036   3.428   1.422   5.241
10713SOL     OW33037   1.726   5.850   1.733
10713SOL    HW133038   1.741   5.755   1.760
10713SOL    HW233039   1.640   5.857   1.683
10714SOL     OW33040   0.597   5.209   5.519
10714SOL    HW133041   0.686   5.251   5.536
10714SOL    HW233042   0.581   5.137   5.586
10715SOL     OW33043   4.722   1.984   3.850
10715SOL    HW133044   4.774   2.004   3.932
10715SOL    HW233045   4.747   1.893   3.816
10716SOL     OW33046   6.930   0.647   4.218
10716SOL    HW133047   6.920   0.547   4.216
10716SOL    HW233048   6.904   0.685   4.130
10717SOL     OW33049   6.700   0.665   1.540
10717SOL    HW133050   6.798   0.687   1.539
10717SOL    HW233051   6.687   0.569   1.562
10718SOL     OW33052   6.505   5.290   6.586
10718SOL    HW133053   6.515   5.267   6.683
10718SOL    HW233054   6.593   5.323   6.550
10719SOL     OW33055   5.854   1.175   1.705
10719SOL    HW133056   5.935   1.122   1.679
10719SOL    HW233057   5.860   1.266   1.664
10720SOL     OW33058   0.405   3.667   6.595
10720SOL    HW133059   0.483   3.678   6.534
10720SOL    HW233060   0.397   3.571   6.623
10721SOL     OW33061   5.403   2.747   4.175
10721SOL    HW133062   5.442   2.659   4.149
10721SOL    HW233063   5.313   2.734   4.216
10722SOL     OW33064   6.882   3.895   0.490
10722SOL    HW133065   6.828   3.834   0.433
10722SOL    HW233066   6.914   3.846   0.571
10723SOL     OW33067   5.492   4.169   6.822
10723SOL    HW133068   5.470   4.128   6.734
10723SOL    HW233069   5.589   4.196   6.824
10724SOL     OW33070   4.053   6.522   6.435
10724SOL    HW133071   4.029   6.578   6.356
10724SOL    HW233072   3.982   6.531   6.505
10725SOL     OW33073   0.533   5.943   4.881
10725SOL    HW133074   0.598   5.893   4.824
10725SOL    HW233075   0.580   6.021   4.924
10726SOL     OW33076   5.532   0.264   4.518
10726SOL    HW133077   5.572   0.329   4.582
10726SOL    HW233078   5.432   0.264   4.529
10727SOL     OW33079   2.645   5.711   6.012
10727SOL    HW133080   2.637   5.789   6.074
10727SOL    HW233081   2.702   5.736   5.934
10728SOL     OW33082   4.534   6.878   2.907
10728SOL    HW133083   4.478   6.801   2.939
10728SOL    HW233084   4.628   6.848   2.893
10729SOL     OW33085   6.285   2.648   2.715
10729SOL    HW133086   6.266   2.686   2.625
10729SOL    HW233087   6.201   2.611   2.754
10730SOL     OW33088   1.799   0.067   2.662
10730SOL    HW133089   1.727   0.002   2.640
10730SOL    HW233090   1.868   0.021   2.719
10731SOL     OW33091   3.359   6.918   6.986
10731SOL    HW133092   3.274   6.897   6.938
10731SOL    HW233093   3.338   6.961   0.051
10732SOL     OW33094   6.202   6.112   3.291
10732SOL    HW133095   6.157   6.033   3.251
10732SOL    HW233096   6.143   6.153   3.361
10733SOL     OW33097   6.530   1.145   6.089
10733SOL    HW133098   6.566   1.211   6.023
10733SOL    HW233099   6.489   1.193   6.166
10734SOL     OW33100   1.649   0.791   5.536
10734SOL    HW133101   1.723   0.755   5.593
10734SOL    HW233102   1.614   0.876   5.577
10735SOL     OW33103   1.205   5.194   1.721
10735SOL    HW133104   1.260   5.133   1.664
10735SOL    HW233105   1.260   5.273   1.748
10736SOL     OW33106   6.766   0.269   3.785
10736SOL    HW133107   6.825   0.219   3.848
10736SOL    HW233108   6.791   0.247   3.691
10737SOL     OW33109   6.673   1.420   1.487
10737SOL    HW133110   6.600   1.444   1.551
10737SOL    HW233111   6.724   1.503   1.463
10738SOL     OW33112   2.898   0.786   2.196
10738SOL    HW133113   2.883   0.792   2.098
10738SOL    HW233114   2.988   0.746   2.214
10739SOL     OW33115   6.176   2.113   2.551
10739SOL    HW133116   6.199   2.092   2.456
10739SOL    HW233117   6.204   2.037   2.610
10740SOL     OW33118   1.729   6.906   6.308
10740SOL    HW133119   1.804   6.970   6.291
10740SOL    HW233120   1.643   6.948   6.278
10741SOL     OW33121   2.037   2.668   3.021
10741SOL    HW133122   1.972   2.730   3.064
10741SOL    HW233123   2.058   2.593   3.083
10742SOL     OW33124   6.054   5.835   2.766
10742SOL    HW133125   6.072   5.762   2.832
10742SOL    HW233126   6.063   5.924   2.811
10743SOL     OW33127   3.264   0.788   5.564
10743SOL    HW133128   3.340   0.852   5.581
10743SOL    HW233129   3.182   0.840   5.539
10744SOL     OW33130   1.995   0.314   0.636
10744SOL    HW133131   2.087   0.283   0.659
10744SOL    HW233132   1.996   0.413   0.619
10745SOL     OW33133   2.317   4.838   1.075
10745SOL    HW133134   2.347   4.856   1.169
10745SOL    HW233135   2.219   4.854   1.068
10746SOL     OW33136   1.757   6.294   6.764
10746SOL    HW133137   1.681   6.359   6.776
10746SOL    HW233138   1.782   6.255   6.852
10747SOL     OW33139   6.609   1.827   4.103
10747SOL    HW133140   6.510   1.841   4.095
10747SOL    HW233141   6.633   1.815   4.200
10748SOL     OW33142   3.917   5.822   1.420
10748SOL    HW133143   3.931   5.920   1.435
10748SOL    HW233144   3.822   5.798   1.438
10749SOL     OW33145   6.647   4.786   3.129
10749SOL    HW133146   6.593   4.855   3.178
10749SOL    HW233147   6.600   4.698   3.131
10750SOL     OW33148   5.058   2.807   4.158
10750SOL    HW133149   5.066   2.905   4.145
10750SOL    HW233150   4.970   2.775   4.123
10751SOL     OW33151   1.166   3.925   5.216
10751SOL    HW133152   1.086   3.971   5.178
10751SOL    HW233153   1.142   3.883   5.303
10752SOL     OW33154   5.893   5.865   0.822
10752SOL    HW133155   5.939   5.924   0.889
10752SOL    HW233156   5.929   5.884   0.731
10753SOL     OW33157   4.839   6.205   3.972
10753SOL    HW133158   4.854   6.181   4.067
10753SOL    HW233159   4.849   6.304   3.960
10754SOL     OW33160   1.719   3.049   1.950
10754SOL    HW133161   1.745   3.139   1.984
10754SOL    HW233162   1.621   3.046   1.933
10755SOL     OW33163   6.414   3.285   1.184
10755SOL    HW133164   6.331   3.326   1.222
10755SOL    HW233165   6.455   3.347   1.119
10756SOL     OW33166   0.138   2.924   0.422
10756SOL    HW133167   0.196   2.997   0.386
10756SOL    HW233168   0.054   2.963   0.461
10757SOL     OW33169   6.413   4.400   1.283
10757SOL    HW133170   6.407   4.444   1.194
10757SOL    HW233171   6.333   4.424   1.338
10758SOL     OW33172   0.520   6.691   6.960
10758SOL    HW133173   0.481   6.770   7.007
10758SOL    HW233174   0.481   6.683   6.869
10759SOL     OW33175   2.372   2.136   6.193
10759SOL    HW133176   2.318   2.175   6.267
10759SOL    HW233177   2.406   2.045   6.221
10760SOL     OW33178   0.228   5.276   0.246
10760SOL    HW133179   0.258   5.365   0.213
10760SOL    HW233180   0.301   5.209   0.234
10761SOL     OW33181   0.609   1.588   6.227
10761SOL    HW133182   0.512   1.610   6.235
10761SOL    HW233183   0.651   1.591   6.318
10762SOL     OW33184   3.750   6.737   5.678
10762SOL    HW133185   3.667   6.772   5.633
10762SOL    HW233186   3.758   6.639   5.661
10763SOL     OW33187   5.457   0.149   3.118
10763SOL    HW133188   5.366   0.117   3.090
10763SOL    HW233189   5.472   0.241   3.082
10764SOL     OW33190   4.495   1.083   5.507
10764SOL    HW133191   4.532   0.990   5.508
10764SOL    HW233192   4.498   1.119   5.414
10765SOL     OW33193   6.723   2.125   2.838
10765SOL    HW133194   6.715   2.120   2.739
10765SOL    HW233195   6.640   2.167   2.876
10766SOL     OW33196   1.510   4.526   6.674
10766SOL    HW133197   1.513   4.440   6.623
10766SOL    HW233198   1.425   4.574   6.652
10767SOL     OW33199   1.851   5.757   0.822
10767SOL    HW133200   1.777   5.690   0.829
10767SOL    HW233201   1.813   5.848   0.808
10768SOL     OW33202   5.900   6.149   0.487
10768SOL    HW133203   5.859   6.237   0.464
10768SOL    HW233204   5.886   6.084   0.411
10769SOL     OW33205   2.876   3.417   5.066
10769SOL    HW133206   2.968   3.379   5.066
10769SOL    HW233207   2.856   3.457   4.976
10770SOL     OW33208   5.134   0.016   4.215
10770SOL    HW133209   5.044   0.023   4.173
10770SOL    HW233210   5.174   0.107   4.224
10771SOL     OW33211   5.361   5.933   5.806
10771SOL    HW133212   5.449   5.923   5.760
10771SOL    HW233213   5.290   5.887   5.754
10772SOL     OW33214   5.961   4.722   3.025
10772SOL    HW133215   6.005   4.729   2.935
10772SOL    HW233216   5.931   4.813   3.055
10773SOL     OW33217   6.384   4.597   1.073
10773SOL    HW133218   6.354   4.594   0.978
10773SOL    HW233219   6.420   4.688   1.094
10774SOL     OW33220   1.116   2.568   0.748
10774SOL    HW133221   1.019   2.545   0.753
10774SOL    HW233222   1.152   2.540   0.659
10775SOL     OW33223   1.485   4.327   1.507
10775SOL    HW133224   1.518   4.260   1.442
10775SOL    HW233225   1.505   4.296   1.600
10776SOL     OW33226   0.397   1.347   2.970
10776SOL    HW133227   0.425   1.363   3.065
10776SOL    HW233228   0.452   1.404   2.909
10777SOL     OW33229   2.834   1.084   2.686
10777SOL    HW133230   2.931   1.079   2.711
10777SOL    HW233231   2.786   1.005   2.723
10778SOL     OW33232   6.431   6.548   3.947
10778SOL    HW133233   6.356   6.608   3.919
10778SOL    HW233234   6.453   6.485   3.871
10779SOL     OW33235   5.456   4.011   4.090
10779SOL    HW133236   5.447   3.911   4.098
10779SOL    HW233237   5.547   4.034   4.056
10780SOL     OW33238   1.147   5.707   5.038
10780SOL    HW133239   1.228   5.741   4.991
10780SOL    HW233240   1.147   5.607   5.035
10781SOL     OW33241   5.699   2.445   4.883
10781SOL    HW133242   5.719   2.411   4.975
10781SOL    HW233243   5.668   2.369   4.826
10782SOL     OW33244   0.746   3.203   5.112
10782SOL    HW133245   0.748   3.108   5.144
10782SOL    HW233246   0.651   3.234   5.106
10783SOL     OW33247   0.835   2.127   2.723
10783SOL    HW133248   0.871   2.191   2.792
10783SOL    HW233249   0.773   2.175   2.661
10784SOL     OW33250   3.443   6.160   2.236
10784SOL    HW133251   3.382   6.234   2.264
10784SOL    HW233252   3.457   6.097   2.312
10785SOL     OW33253   1.858   6.046   2.781
10785SOL    HW133254   1.761   6.063   2.769
10785SOL    HW233255   1.877   5.949   2.768
10786SOL     OW33256   4.566   1.541   2.025
10786SOL    HW133257   4.603   1.457   1.985
10786SOL    HW233258   4.570   1.614   1.957
10787SOL     OW33259   3.343   1.410   3.386
10787SOL    HW133260   3.291   1.477   3.439
10787SOL    HW233261   3.420   1.378   3.440
10788SOL     OW33262   1.014   4.374   0.472
10788SOL    HW133263   1.016   4.360   0.571
10788SOL    HW233264   1.026   4.471   0.452
10789SOL     OW33265   6.505   1.289   0.293
10789SOL    HW133266   6.563   1.366   0.266
10789SOL    HW233267   6.455   1.312   0.376
10790SOL     OW33268   0.362   2.459   4.497
10790SOL    HW133269   0.287   2.423   4.553
10790SOL    HW233270   0.420   2.518   4.554
10791SOL     OW33271   2.069   1.460   2.908
10791SOL    HW133272   1.992   1.511   2.946
10791SOL    HW233273   2.120   1.518   2.844
10792SOL     OW33274   3.916   2.132   1.057
10792SOL    HW133275   3.897   2.226   1.086
10792SOL    HW233276   3.830   2.083   1.042
10793SOL     OW33277   4.899   1.598   5.205
10793SOL    HW133278   4.812   1.578   5.250
10793SOL    HW233279   4.965   1.526   5.229
10794SOL     OW33280   4.381   3.331   1.008
10794SOL    HW133281   4.374   3.232   1.018
10794SOL    HW233282   4.344   3.375   1.090
10795SOL     OW33283   6.727   3.201   3.331
10795SOL    HW133284   6.638   3.241   3.354
10795SOL    HW233285   6.800   3.252   3.377
10796SOL     OW33286   6.922   6.827   6.955
10796SOL    HW133287   6.973   6.747   6.924
10796SOL    HW233288   6.933   6.901   6.889
10797SOL     OW33289   4.315   3.678   0.621
10797SOL    HW133290   4.260   3.626   0.556
10797SOL    HW233291   4.409   3.684   0.587
10798SOL     OW33292   2.572   6.944   6.321
10798SOL    HW133293   2.565   7.001   6.239
10798SOL    HW233294   2.535   6.853   6.301
10799SOL     OW33295   3.298   1.628   2.691
10799SOL    HW133296   3.343   1.677   2.765
10799SOL    HW233297   3.343   1.650   2.604
10800SOL     OW33298   1.526   0.242   5.784
10800SOL    HW133299   1.466   0.170   5.749
10800SOL    HW233300   1.576   0.207   5.864
10801SOL     OW33301   2.860   6.242   5.877
10801SOL    HW133302   2.873   6.287   5.965
10801SOL    HW233303   2.764   6.216   5.866
10802SOL     OW33304   0.649   3.711   4.830
10802SOL    HW133305   0.638   3.684   4.925
10802SOL    HW233306   0.747   3.725   4.811
10803SOL     OW33307   6.443   4.750   5.217
10803SOL    HW133308   6.522   4.783   5.269
10803SOL    HW233309   6.426   4.810   5.139
10804SOL     OW33310   5.289   4.820   2.307
10804SOL    HW133311   5.281   4.855   2.400
10804SOL    HW233312   5.200   4.786   2.276
10805SOL     OW33313   4.357   6.727   0.957
10805SOL    HW133314   4.318   6.674   0.882
10805SOL    HW233315   4.454   6.704   0.966
10806SOL     OW33316   5.206   3.978   0.120
10806SOL    HW133317   5.168   3.957   0.030
10806SOL    HW233318   5.269   4.056   0.112
10807SOL     OW33319   4.250   6.089   3.503
10807SOL    HW133320   4.152   6.082   3.521
10807SOL    HW233321   4.264   6.130   3.413
10808SOL     OW33322   7.005   2.874   6.307
10808SOL    HW133323   0.050   2.924   6.361
10808SOL    HW233324   0.027   2.820   6.236
10809SOL     OW33325   2.243   0.865   3.504
10809SOL    HW133326   2.312   0.937   3.498
10809SOL    HW233327   2.270   0.788   3.446
10810SOL     OW33328   6.848   1.780   5.367
10810SOL    HW133329   6.911   1.857   5.372
10810SOL    HW233330   6.888   1.708   5.310
10811SOL     OW33331   4.783   4.418   5.140
10811SOL    HW133332   4.880   4.397   5.124
10811SOL    HW233333   4.730   4.333   5.137
10812SOL     OW33334   6.505   2.685   2.481
10812SOL    HW133335   6.529   2.650   2.572
10812SOL    HW233336   6.548   2.628   2.411
10813SOL     OW33337   2.867   6.183   1.706
10813SOL    HW133338   2.880   6.126   1.788
10813SOL    HW233339   2.942   6.248   1.699
10814SOL     OW33340   1.881   6.932   5.037
10814SOL    HW133341   1.801   6.903   5.090
10814SOL    HW233342   1.852   6.976   4.952
10815SOL     OW33343   5.383   3.405   3.008
10815SOL    HW133344   5.453   3.334   3.008
10815SOL    HW233345   5.394   3.463   3.089
10816SOL     OW33346   1.673   1.240   2.125
10816SOL    HW133347   1.658   1.274   2.218
10816SOL    HW233348   1.684   1.318   2.062
10817SOL     OW33349   4.567   0.041   2.112
10817SOL    HW133350   4.557   7.021   2.022
10817SOL    HW233351   4.572   6.993   2.182
10818SOL     OW33352   4.493   3.143   6.671
10818SOL    HW133353   4.518   3.047   6.681
10818SOL    HW233354   4.561   3.190   6.614
10819SOL     OW33355   6.829   4.451   6.608
10819SOL    HW133356   6.753   4.459   6.544
10819SOL    HW233357   6.886   4.373   6.583
10820SOL     OW33358   0.295   6.472   4.380
10820SOL    HW133359   0.359   6.454   4.305
10820SOL    HW233360   0.285   6.389   4.435
10821SOL     OW33361   6.971   0.393   0.773
10821SOL    HW133362   6.896   0.332   0.799
10821SOL    HW233363   0.005   0.348   0.704
10822SOL     OW33364   0.541   4.122   2.188
10822SOL    HW133365   0.489   4.101   2.270
10822SOL    HW233366   0.602   4.045   2.167
10823SOL     OW33367   1.862   6.735   1.141
10823SOL    HW133368   1.961   6.721   1.150
10823SOL    HW233369   1.840   6.830   1.164
10824SOL     OW33370   5.202   0.729   2.480
10824SOL    HW133371   5.270   0.730   2.407
10824SOL    HW233372   5.249   0.735   2.569
10825SOL     OW33373   3.553   1.537   0.936
10825SOL    HW133374   3.540   1.553   1.034
10825SOL    HW233375   3.648   1.510   0.919
10826SOL     OW33376   6.947   2.911   2.472
10826SOL    HW133377   6.867   2.968   2.484
10826SOL    HW233378   6.918   2.818   2.447
10827SOL     OW33379   6.968   3.004   3.948
10827SOL    HW133380   6.896   2.989   4.016
10827SOL    HW233381   0.010   3.072   3.982
10828SOL     OW33382   1.187   5.704   0.805
10828SOL    HW133383   1.125   5.654   0.745
10828SOL    HW233384   1.281   5.687   0.777
10829SOL     OW33385   3.328   4.123   2.009
10829SOL    HW133386   3.390   4.160   2.079
10829SOL    HW233387   3.373   4.047   1.962
10830SOL     OW33388   4.969   2.795   4.512
10830SOL    HW133389   5.061   2.829   4.530
10830SOL    HW233390   4.934   2.836   4.428
10831SOL     OW33391   5.395   1.535   2.923
10831SOL    HW133392   5.295   1.527   2.918
10831SOL    HW233393   5.436   1.480   2.851
10832SOL     OW33394   0.949   1.774   0.430
10832SOL    HW133395   0.956   1.866   0.470
10832SOL    HW233396   0.965   1.706   0.502
10833SOL     OW33397   3.146   0.453   4.156
10833SOL    HW133398   3.089   0.374   4.133
10833SOL    HW233399   3.236   0.422   4.187
10834SOL     OW33400   0.943   1.846   5.122
10834SOL    HW133401   0.893   1.804   5.198
10834SOL    HW233402   0.878   1.878   5.053
10835SOL     OW33403   6.064   1.592   2.180
10835SOL    HW133404   6.077   1.493   2.184
10835SOL    HW233405   6.042   1.619   2.087
10836SOL     OW33406   1.970   1.936   6.312
10836SOL    HW133407   1.905   1.974   6.378
10836SOL    HW233408   2.053   1.909   6.360
10837SOL     OW33409   6.942   4.541   0.599
10837SOL    HW133410   6.933   4.491   0.685
10837SOL    HW233411   6.907   4.485   0.524
10838SOL     OW33412   5.814   6.827   6.464
10838SOL    HW133413   5.865   6.885   6.528
10838SOL    HW233414   5.766   6.756   6.516
10839SOL     OW33415   1.862   2.516   0.084
10839SOL    HW133416   1.929   2.579   0.045
10839SOL    HW233417   1.786   2.569   0.123
10840SOL     OW33418   4.018   5.256   1.771
10840SOL    HW133419   4.015   5.347   1.730
10840SOL    HW233420   3.943   5.247   1.836
10841SOL     OW33421   4.105   5.466   5.851
10841SOL    HW133422   4.027   5.487   5.792
10841SOL    HW233423   4.172   5.411   5.800
10842SOL     OW33424   6.398   3.064   1.586
10842SOL    HW133425   6.461   2.989   1.605
10842SOL    HW233426   6.450   3.144   1.555
10843SOL     OW33427   0.401   1.634   2.134
10843SOL    HW133428   0.456   1.655   2.053
10843SOL    HW233429   0.442   1.557   2.183
10844SOL     OW33430   4.916   0.203   3.783
10844SOL    HW133431   4.998   0.244   3.822
10844SOL    HW233432   4.880   0.134   3.845
10845SOL     OW33433   1.499   1.856   1.273
10845SOL    HW133434   1.515   1.806   1.358
10845SOL    HW233435   1.543   1.946   1.279
10846SOL     OW33436   3.929   1.974   1.327
10846SOL    HW133437   3.852   2.035   1.304
10846SOL    HW233438   3.981   2.014   1.403
10847SOL     OW33439   4.102   2.578   6.212
10847SOL    HW133440   4.182   2.570   6.153
10847SOL    HW233441   4.019   2.562   6.159
10848SOL     OW33442   1.005   0.757   6.470
10848SOL    HW133443   0.991   0.830   6.403
10848SOL    HW233444   1.067   0.689   6.433
10849SOL     OW33445   3.276   5.199   4.170
10849SOL    HW133446   3.229   5.146   4.100
10849SOL    HW233447   3.238   5.292   4.173
10850SOL     OW33448   5.146   6.314   1.012
10850SOL    HW133449   5.112   6.250   0.944
10850SOL    HW233450   5.092   6.305   1.096
10851SOL     OW33451   3.628   2.151   6.434
10851SOL    HW133452   3.534   2.183   6.447
10851SOL    HW233453   3.633   2.097   6.349
10852SOL     OW33454   0.804   0.529   6.677
10852SOL    HW133455   0.756   0.578   6.749
10852SOL    HW233456   0.846   0.446   6.715
10853SOL     OW33457   2.334   1.563   4.558
10853SOL    HW133458   2.330   1.642   4.619
10853SOL    HW233459   2.324   1.592   4.463
10854SOL     OW33460   6.737   6.655   6.731
10854SOL    HW133461   6.713   6.636   6.827
10854SOL    HW233462   6.790   6.740   6.727
10855SOL     OW33463   1.335   6.210   1.600
10855SOL    HW133464   1.249   6.236   1.556
10855SOL    HW233465   1.352   6.271   1.677
10856SOL     OW33466   6.069   6.997   0.008
10856SOL    HW133467   6.007   6.962   6.961
10856SOL    HW233468   6.142   0.027   6.987
10857SOL     OW33469   5.920   1.772   4.116
10857SOL    HW133470   5.921   1.697   4.050
10857SOL    HW233471   5.840   1.830   4.100
10858SOL     OW33472   2.103   3.237   0.443
10858SOL    HW133473   2.044   3.163   0.412
10858SOL    HW233474   2.071   3.271   0.531
10859SOL     OW33475   0.958   4.586   2.336
10859SOL    HW133476   0.949   4.512   2.403
10859SOL    HW233477   0.873   4.639   2.333
10860SOL     OW33478   6.202   2.254   6.920
10860SOL    HW133479   6.240   2.299   7.001
10860SOL    HW233480   6.271   2.251   6.848
10861SOL     OW33481   3.408   2.780   1.804
10861SOL    HW133482   3.327   2.796   1.861
10861SOL    HW233483   3.490   2.789   1.860
10862SOL     OW33484   3.487   3.076   5.708
10862SOL    HW133485   3.566   3.066   5.647
10862SOL    HW233486   3.407   3.032   5.666
10863SOL     OW33487   2.275   1.311   2.548
10863SOL    HW133488   2.359   1.260   2.527
10863SOL    HW233489   2.299   1.401   2.583
10864SOL     OW33490   2.732   4.874   2.009
10864SOL    HW133491   2.783   4.789   2.016
10864SOL    HW233492   2.642   4.862   2.050
10865SOL     OW33493   4.223   1.644   3.317
10865SOL    HW133494   4.160   1.622   3.242
10865SOL    HW233495   4.315   1.614   3.293
10866SOL     OW33496   0.101   3.661   3.254
10866SOL    HW133497   0.200   3.664   3.243
10866SOL    HW233498   0.058   3.655   3.164
10867SOL     OW33499   4.030   3.352   0.444
10867SOL    HW133500   4.050   3.447   0.467
10867SOL    HW233501   4.030   3.340   0.345
10868SOL     OW33502   1.225   1.860   4.102
10868SOL    HW133503   1.317   1.845   4.064
10868SOL    HW233504   1.167   1.782   4.079
10869NA      NA33505   6.933   2.312   5.881
10870NA      NA33506   4.301   4.587   5.281
10871NA      NA33507   1.000   5.227   2.575
10872NA      NA33508   5.558   4.320   3.627
10873NA      NA33509   4.381   2.364   5.186
10874NA      NA33510   2.333   5.220   0.703
10875NA      NA33511   1.191   5.296   6.686
10876NA      NA33512   3.287   4.564   1.105
10877NA      NA33513   4.230   5.105   0.951
10878NA      NA33514   3.425   1.031   6.304
10879NA      NA33515   5.544   6.168   2.090
10880NA      NA33516   1.645   6.772   5.539
10881NA      NA33517   4.312   5.090   2.134
10882NA      NA33518   3.433   3.030   6.625
   7.02292   7.02292   7.02292
