Generated by trjconv : CNT in water t=  66.00000
33518
    1C        C    1   2.845   2.772   4.752
    1C        C    2   2.902   2.725   4.872
    1C        C    3   2.841   2.773   4.988
    1C        C    4   2.846   2.775   4.263
    1C        C    5   2.902   2.732   4.385
    1C        C    6   2.847   2.779   4.507
    1C        C    7   3.014   2.646   4.627
    1C        C    8   2.899   2.729   4.628
    1C        C    9   3.079   2.612   4.748
    1C        C   10   3.014   2.638   4.870
    1C        C   11   3.184   2.498   4.979
    1C        C   12   3.064   2.570   4.981
    1C        C   13   2.851   2.775   3.775
    1C        C   14   2.899   2.722   3.897
    1C        C   15   2.847   2.776   4.017
    1C        C   16   3.015   2.650   4.142
    1C        C   17   2.897   2.727   4.140
    1C        C   18   3.082   2.621   4.263
    1C        C   19   3.020   2.653   4.386
    1C        C   20   3.210   2.557   4.508
    1C        C   21   3.080   2.613   4.507
    1C        C   22   3.280   2.537   4.629
    1C        C   23   3.207   2.549   4.749
    1C        C   24   3.414   2.480   4.868
    1C        C   25   3.272   2.500   4.866
    1C        C   26   3.495   2.483   4.982
    1C        C   27   2.850   2.769   3.283
    1C        C   28   2.905   2.728   3.406
    1C        C   29   2.855   2.775   3.530
    1C        C   30   3.021   2.647   3.654
    1C        C   31   2.906   2.728   3.654
    1C        C   32   3.079   2.607   3.777
    1C        C   33   3.014   2.641   3.898
    1C        C   34   3.206   2.556   4.017
    1C        C   35   3.076   2.610   4.021
    1C        C   36   3.275   2.537   4.139
    1C        C   37   3.211   2.564   4.262
    1C        C   38   3.416   2.514   4.383
    1C        C   39   3.279   2.547   4.385
    1C        C   40   3.487   2.506   4.505
    1C        C   41   3.419   2.512   4.628
    1C        C   42   3.630   2.482   4.743
    1C        C   43   3.487   2.478   4.747
    1C        C   44   3.709   2.484   4.860
    1C        C   45   3.634   2.479   4.978
    1C        C   46   2.839   2.751   2.795
    1C        C   47   2.895   2.709   2.918
    1C        C   48   2.850   2.765   3.039
    1C        C   49   3.021   2.640   3.163
    1C        C   50   2.904   2.720   3.162
    1C        C   51   3.081   2.609   3.287
    1C        C   52   3.022   2.648   3.409
    1C        C   53   3.211   2.555   3.530
    1C        C   54   3.081   2.611   3.532
    1C        C   55   3.277   2.530   3.653
    1C        C   56   3.207   2.545   3.774
    1C        C   57   3.414   2.505   3.898
    1C        C   58   3.275   2.528   3.897
    1C        C   59   3.486   2.504   4.020
    1C        C   60   3.414   2.513   4.142
    1C        C   61   3.629   2.503   4.261
    1C        C   62   3.488   2.503   4.261
    1C        C   63   3.700   2.515   4.383
    1C        C   64   3.628   2.505   4.504
    1C        C   65   3.839   2.538   4.625
    1C        C   66   3.702   2.503   4.624
    1C        C   67   3.910   2.557   4.746
    1C        C   68   3.845   2.522   4.866
    1C        C   69   4.056   2.581   4.979
    1C        C   70   3.924   2.534   4.981
    1C        C   71   2.826   2.734   2.310
    1C        C   72   2.887   2.695   2.432
    1C        C   73   2.831   2.741   2.553
    1C        C   74   3.007   2.620   2.673
    1C        C   75   2.887   2.695   2.674
    1C        C   76   3.074   2.595   2.795
    1C        C   77   3.014   2.633   2.917
    1C        C   78   3.207   2.545   3.038
    1C        C   79   3.078   2.603   3.039
    1C        C   80   3.274   2.532   3.162
    1C        C   81   3.211   2.553   3.286
    1C        C   82   3.417   2.506   3.406
    1C        C   83   3.278   2.530   3.408
    1C        C   84   3.486   2.500   3.529
    1C        C   85   3.416   2.507   3.652
    1C        C   86   3.626   2.502   3.774
    1C        C   87   3.485   2.506   3.776
    1C        C   88   3.697   2.509   3.896
    1C        C   89   3.627   2.512   4.019
    1C        C   90   3.835   2.560   4.138
    1C        C   91   3.700   2.519   4.140
    1C        C   92   3.903   2.579   4.261
    1C        C   93   3.838   2.548   4.382
    1C        C   94   4.030   2.633   4.502
    1C        C   95   3.907   2.563   4.504
    1C        C   96   4.087   2.676   4.624
    1C        C   97   4.031   2.631   4.745
    1C        C   98   4.192   2.768   4.866
    1C        C   99   4.100   2.658   4.866
    1C        C  100   4.210   2.850   4.977
    1C        C  101   2.828   2.731   2.072
    1C        C  102   2.993   2.592   2.192
    1C        C  103   2.878   2.677   2.191
    1C        C  104   3.065   2.574   2.313
    1C        C  105   3.003   2.614   2.433
    1C        C  106   3.203   2.535   2.551
    1C        C  107   3.071   2.583   2.553
    1C        C  108   3.273   2.520   2.674
    1C        C  109   3.203   2.537   2.795
    1C        C  110   3.413   2.496   2.921
    1C        C  111   3.274   2.520   2.916
    1C        C  112   3.486   2.489   3.042
    1C        C  113   3.412   2.501   3.161
    1C        C  114   3.627   2.497   3.281
    1C        C  115   3.485   2.495   3.282
    1C        C  116   3.692   2.510   3.406
    1C        C  117   3.627   2.501   3.531
    1C        C  118   3.834   2.545   3.649
    1C        C  119   3.698   2.507   3.653
    1C        C  120   3.904   2.568   3.770
    1C        C  121   3.834   2.542   3.890
    1C        C  122   4.022   2.641   4.012
    1C        C  123   3.898   2.574   4.012
    1C        C  124   4.088   2.677   4.132
    1C        C  125   4.031   2.638   4.256
    1C        C  126   4.195   2.767   4.379
    1C        C  127   4.087   2.675   4.380
    1C        C  128   4.244   2.820   4.500
    1C        C  129   4.193   2.770   4.622
    1C        C  130   4.327   2.936   4.743
    1C        C  131   4.242   2.822   4.744
    1C        C  132   4.354   3.009   4.861
    1C        C  133   4.285   2.967   4.976
    1C        C  134   3.175   2.466   2.083
    1C        C  135   3.040   2.504   2.090
    1C        C  136   3.262   2.485   2.192
    1C        C  137   3.198   2.523   2.312
    1C        C  138   3.410   2.478   2.429
    1C        C  139   3.270   2.503   2.431
    1C        C  140   3.480   2.482   2.551
    1C        C  141   3.412   2.495   2.675
    1C        C  142   3.623   2.494   2.794
    1C        C  143   3.481   2.488   2.797
    1C        C  144   3.695   2.504   2.915
    1C        C  145   3.627   2.493   3.038
    1C        C  146   3.835   2.541   3.160
    1C        C  147   3.699   2.504   3.160
    1C        C  148   3.899   2.565   3.283
    1C        C  149   3.828   2.550   3.404
    1C        C  150   4.027   2.629   3.524
    1C        C  151   3.898   2.571   3.525
    1C        C  152   4.086   2.672   3.645
    1C        C  153   4.026   2.638   3.769
    1C        C  154   4.197   2.765   3.890
    1C        C  155   4.084   2.680   3.891
    1C        C  156   4.247   2.812   4.013
    1C        C  157   4.196   2.768   4.137
    1C        C  158   4.342   2.922   4.255
    1C        C  159   4.251   2.814   4.258
    1C        C  160   4.377   2.986   4.376
    1C        C  161   4.333   2.930   4.499
    1C        C  162   4.439   3.114   4.619
    1C        C  163   4.372   2.990   4.620
    1C        C  164   4.465   3.188   4.737
    1C        C  165   4.427   3.130   4.860
    1C        C  166   4.509   3.327   4.974
    1C        C  167   4.483   3.190   4.974
    1C        C  168   3.483   2.437   2.078
    1C        C  169   3.401   2.464   2.188
    1C        C  170   3.621   2.469   2.310
    1C        C  171   3.479   2.468   2.306
    1C        C  172   3.695   2.487   2.429
    1C        C  173   3.621   2.489   2.549
    1C        C  174   3.830   2.532   2.668
    1C        C  175   3.692   2.501   2.671
    1C        C  176   3.896   2.561   2.789
    1C        C  177   3.831   2.543   2.913
    1C        C  178   4.023   2.632   3.034
    1C        C  179   3.898   2.566   3.035
    1C        C  180   4.087   2.661   3.157
    1C        C  181   4.029   2.622   3.279
    1C        C  182   4.196   2.753   3.401
    1C        C  183   4.087   2.663   3.401
    1C        C  184   4.251   2.804   3.520
    1C        C  185   4.196   2.760   3.643
    1C        C  186   4.340   2.916   3.769
    1C        C  187   4.246   2.811   3.765
    1C        C  188   4.378   2.979   3.889
    1C        C  189   4.335   2.923   4.012
    1C        C  190   4.444   3.107   4.130
    1C        C  191   4.380   2.981   4.132
    1C        C  192   4.467   3.175   4.252
    1C        C  193   4.437   3.114   4.376
    1C        C  194   4.499   3.318   4.496
    1C        C  195   4.460   3.182   4.497
    1C        C  196   4.520   3.392   4.614
    1C        C  197   4.509   3.324   4.737
    1C        C  198   4.552   3.541   4.854
    1C        C  199   4.524   3.400   4.855
    1C        C  200   4.591   3.624   4.964
    1C        C  201   3.622   2.422   2.072
    1C        C  202   3.826   2.521   2.185
    1C        C  203   3.695   2.462   2.189
    1C        C  204   3.900   2.544   2.304
    1C        C  205   3.833   2.516   2.425
    1C        C  206   4.020   2.622   2.543
    1C        C  207   3.896   2.554   2.545
    1C        C  208   4.083   2.656   2.665
    1C        C  209   4.023   2.623   2.789
    1C        C  210   4.197   2.747   2.911
    1C        C  211   4.086   2.659   2.910
    1C        C  212   4.249   2.796   3.032
    1C        C  213   4.199   2.747   3.155
    1C        C  214   4.335   2.911   3.277
    1C        C  215   4.246   2.801   3.277
    1C        C  216   4.372   2.973   3.399
    1C        C  217   4.336   2.917   3.523
    1C        C  218   4.433   3.103   3.640
    1C        C  219   4.380   2.973   3.645
    1C        C  220   4.461   3.170   3.761
    1C        C  221   4.439   3.107   3.885
    1C        C  222   4.502   3.309   4.006
    1C        C  223   4.469   3.171   4.007
    1C        C  224   4.519   3.378   4.128
    1C        C  225   4.509   3.310   4.251
    1C        C  226   4.521   3.525   4.370
    1C        C  227   4.518   3.383   4.372
    1C        C  228   4.522   3.603   4.487
    1C        C  229   4.524   3.534   4.610
    1C        C  230   4.500   3.745   4.730
    1C        C  231   4.537   3.608   4.730
    1C        C  232   4.500   3.823   4.848
    1C        C  233   4.547   3.757   4.962
    1C        C  234   4.021   2.610   2.067
    1C        C  235   3.896   2.549   2.067
    1C        C  236   4.090   2.645   2.183
    1C        C  237   4.030   2.603   2.304
    1C        C  238   4.205   2.731   2.426
    1C        C  239   4.088   2.651   2.423
    1C        C  240   4.254   2.785   2.547
    1C        C  241   4.194   2.743   2.668
    1C        C  242   4.341   2.901   2.788
    1C        C  243   4.246   2.796   2.788
    1C        C  244   4.379   2.963   2.909
    1C        C  245   4.336   2.907   3.032
    1C        C  246   4.436   3.094   3.151
    1C        C  247   4.375   2.966   3.154
    1C        C  248   4.455   3.165   3.272
    1C        C  249   4.431   3.101   3.395
    1C        C  250   4.499   3.304   3.515
    1C        C  251   4.461   3.167   3.517
    1C        C  252   4.509   3.373   3.638
    1C        C  253   4.504   3.305   3.762
    1C        C  254   4.524   3.518   3.882
    1C        C  255   4.515   3.377   3.883
    1C        C  256   4.516   3.591   4.003
    1C        C  257   4.517   3.520   4.125
    1C        C  258   4.492   3.732   4.243
    1C        C  259   4.513   3.592   4.246
    1C        C  260   4.474   3.807   4.361
    1C        C  261   4.490   3.741   4.485
    1C        C  262   4.429   3.944   4.604
    1C        C  263   4.474   3.810   4.607
    1C        C  264   4.400   4.011   4.725
    1C        C  265   4.434   3.948   4.846
    1C        C  266   4.314   4.131   4.958
    1C        C  267   4.388   4.014   4.961
    1C        C  268   4.262   2.778   2.065
    1C        C  269   4.204   2.729   2.183
    1C        C  270   4.349   2.887   2.301
    1C        C  271   4.258   2.778   2.304
    1C        C  272   4.384   2.952   2.421
    1C        C  273   4.341   2.897   2.543
    1C        C  274   4.444   3.083   2.660
    1C        C  275   4.383   2.955   2.665
    1C        C  276   4.465   3.153   2.781
    1C        C  277   4.437   3.092   2.905
    1C        C  278   4.502   3.292   3.024
    1C        C  279   4.467   3.155   3.028
    1C        C  280   4.506   3.365   3.145
    1C        C  281   4.497   3.300   3.270
    1C        C  282   4.517   3.512   3.390
    1C        C  283   4.511   3.371   3.392
    1C        C  284   4.512   3.581   3.513
    1C        C  285   4.515   3.514   3.638
    1C        C  286   4.493   3.727   3.754
    1C        C  287   4.512   3.587   3.759
    1C        C  288   4.476   3.795   3.877
    1C        C  289   4.490   3.730   4.001
    1C        C  290   4.433   3.936   4.117
    1C        C  291   4.481   3.803   4.122
    1C        C  292   4.400   4.003   4.237
    1C        C  293   4.432   3.942   4.360
    1C        C  294   4.336   4.133   4.478
    1C        C  295   4.405   4.010   4.481
    1C        C  296   4.286   4.189   4.598
    1C        C  297   4.333   4.136   4.721
    1C        C  298   4.204   4.315   4.837
    1C        C  299   4.294   4.204   4.840
    1C        C  300   4.166   4.402   4.944
    1C        C  301   4.353   2.884   2.063
    1C        C  302   4.468   3.070   2.177
    1C        C  303   4.397   2.946   2.180
    1C        C  304   4.477   3.146   2.297
    1C        C  305   4.449   3.078   2.418
    1C        C  306   4.509   3.285   2.539
    1C        C  307   4.473   3.148   2.538
    1C        C  308   4.511   3.360   2.658
    1C        C  309   4.496   3.291   2.780
    1C        C  310   4.524   3.502   2.900
    1C        C  311   4.514   3.361   2.902
    1C        C  312   4.519   3.574   3.021
    1C        C  313   4.514   3.506   3.145
    1C        C  314   4.485   3.717   3.263
    1C        C  315   4.515   3.580   3.266
    1C        C  316   4.471   3.788   3.385
    1C        C  317   4.491   3.721   3.508
    1C        C  318   4.427   3.924   3.631
    1C        C  319   4.475   3.791   3.629
    1C        C  320   4.397   3.991   3.751
    1C        C  321   4.425   3.926   3.874
    1C        C  322   4.321   4.115   3.993
    1C        C  323   4.396   3.995   3.994
    1C        C  324   4.282   4.180   4.112
    1C        C  325   4.327   4.124   4.234
    1C        C  326   4.190   4.286   4.354
    1C        C  327   4.290   4.186   4.355
    1C        C  328   4.138   4.341   4.473
    1C        C  329   4.194   4.295   4.594
    1C        C  330   4.029   4.435   4.714
    1C        C  331   4.141   4.348   4.714
    1C        C  332   3.969   4.489   4.831
    1C        C  333   4.049   4.478   4.945
    1C        C  334   4.551   3.269   2.062
    1C        C  335   4.535   3.129   2.065
    1C        C  336   4.534   3.352   2.173
    1C        C  337   4.508   3.285   2.295
    1C        C  338   4.524   3.496   2.411
    1C        C  339   4.516   3.355   2.417
    1C        C  340   4.527   3.570   2.531
    1C        C  341   4.518   3.501   2.654
    1C        C  342   4.495   3.711   2.775
    1C        C  343   4.516   3.571   2.777
    1C        C  344   4.478   3.781   2.897
    1C        C  345   4.495   3.714   3.019
    1C        C  346   4.421   3.916   3.140
    1C        C  347   4.467   3.783   3.139
    1C        C  348   4.392   3.982   3.262
    1C        C  349   4.422   3.920   3.385
    1C        C  350   4.316   4.101   3.504
    1C        C  351   4.397   3.986   3.508
    1C        C  352   4.273   4.163   3.624
    1C        C  353   4.322   4.111   3.745
    1C        C  354   4.187   4.272   3.868
    1C        C  355   4.282   4.168   3.868
    1C        C  356   4.132   4.327   3.986
    1C        C  357   4.186   4.284   4.109
    1C        C  358   4.011   4.400   4.231
    1C        C  359   4.134   4.330   4.232
    1C        C  360   3.953   4.443   4.352
    1C        C  361   4.019   4.418   4.475
    1C        C  362   3.827   4.514   4.594
    1C        C  363   3.956   4.457   4.595
    1C        C  364   3.762   4.547   4.715
    1C        C  365   3.837   4.539   4.834
    1C        C  366   3.629   4.595   4.950
    1C        C  367   3.766   4.571   4.950
    1C        C  368   4.507   3.566   2.052
    1C        C  369   4.529   3.493   2.170
    1C        C  370   4.505   3.708   2.288
    1C        C  371   4.522   3.568   2.289
    1C        C  372   4.484   3.778   2.410
    1C        C  373   4.502   3.709   2.532
    1C        C  374   4.423   3.908   2.648
    1C        C  375   4.482   3.780   2.653
    1C        C  376   4.392   3.972   2.770
    1C        C  377   4.429   3.914   2.893
    1C        C  378   4.322   4.097   3.014
    1C        C  379   4.399   3.979   3.015
    1C        C  380   4.276   4.157   3.133
    1C        C  381   4.317   4.101   3.256
    1C        C  382   4.175   4.255   3.379
    1C        C  383   4.271   4.152   3.380
    1C        C  384   4.125   4.308   3.500
    1C        C  385   4.177   4.267   3.625
    1C        C  386   4.008   4.392   3.744
    1C        C  387   4.128   4.318   3.748
    1C        C  388   3.946   4.431   3.865
    1C        C  389   4.011   4.400   3.986
    1C        C  390   3.818   4.487   4.109
    1C        C  391   3.947   4.430   4.108
    1C        C  392   3.754   4.520   4.230
    1C        C  393   3.823   4.497   4.351
    1C        C  394   3.620   4.563   4.472
    1C        C  395   3.758   4.531   4.472
    1C        C  396   3.549   4.568   4.595
    1C        C  397   3.622   4.568   4.716
    1C        C  398   3.409   4.560   4.841
    1C        C  399   3.549   4.581   4.836
    1C        C  400   3.346   4.516   4.958
    1C        C  401   4.508   3.705   2.053
    1C        C  402   4.462   3.919   2.166
    1C        C  403   4.501   3.783   2.169
    1C        C  404   4.418   3.980   2.286
    1C        C  405   4.438   3.911   2.408
    1C        C  406   4.323   4.095   2.525
    1C        C  407   4.402   3.978   2.527
    1C        C  408   4.282   4.153   2.647
    1C        C  409   4.321   4.094   2.770
    1C        C  410   4.173   4.248   2.888
    1C        C  411   4.276   4.151   2.891
    1C        C  412   4.123   4.300   3.009
    1C        C  413   4.178   4.259   3.133
    1C        C  414   4.003   4.375   3.253
    1C        C  415   4.122   4.300   3.256
    1C        C  416   3.942   4.410   3.376
    1C        C  417   4.005   4.382   3.499
    1C        C  418   3.817   4.479   3.620
    1C        C  419   3.947   4.425   3.621
    1C        C  420   3.749   4.504   3.741
    1C        C  421   3.815   4.486   3.865
    1C        C  422   3.613   4.542   3.989
    1C        C  423   3.751   4.511   3.988
    1C        C  424   3.544   4.548   4.112
    1C        C  425   3.615   4.547   4.234
    1C        C  426   3.402   4.555   4.358
    1C        C  427   3.543   4.562   4.354
    1C        C  428   3.332   4.554   4.481
    1C        C  429   3.408   4.562   4.600
    1C        C  430   3.196   4.524   4.725
    1C        C  431   3.335   4.553   4.721
    1C        C  432   3.128   4.495   4.846
    1C        C  433   3.209   4.496   4.961
    1C        C  434   4.383   4.122   2.048
    1C        C  435   4.455   4.001   2.053
    1C        C  436   4.304   4.163   2.160
    1C        C  437   4.339   4.098   2.281
    1C        C  438   4.183   4.249   2.405
    1C        C  439   4.284   4.150   2.401
    1C        C  440   4.125   4.297   2.524
    1C        C  441   4.184   4.255   2.645
    1C        C  442   4.009   4.381   2.763
    1C        C  443   4.122   4.296   2.765
    1C        C  444   3.947   4.412   2.885
    1C        C  445   4.005   4.378   3.009
    1C        C  446   3.810   4.465   3.131
    1C        C  447   3.941   4.412   3.131
    1C        C  448   3.749   4.493   3.255
    1C        C  449   3.814   4.469   3.378
    1C        C  450   3.608   4.527   3.499
    1C        C  451   3.746   4.497   3.499
    1C        C  452   3.542   4.542   3.622
    1C        C  453   3.612   4.537   3.745
    1C        C  454   3.400   4.547   3.867
    1C        C  455   3.541   4.547   3.867
    1C        C  456   3.333   4.537   3.991
    1C        C  457   3.403   4.546   4.114
    1C        C  458   3.196   4.508   4.240
    1C        C  459   3.332   4.545   4.236
    1C        C  460   3.127   4.493   4.362
    1C        C  461   3.195   4.518   4.483
    1C        C  462   2.999   4.437   4.605
    1C        C  463   3.126   4.498   4.605
    1C        C  464   2.934   4.396   4.724
    1C        C  465   2.998   4.436   4.844
    1C        C  466   2.804   4.338   4.962
    1C        C  467   2.910   4.430   4.957
    1C        C  468   4.124   4.290   2.046
    1C        C  469   4.185   4.243   2.163
    1C        C  470   4.008   4.371   2.280
    1C        C  471   4.125   4.290   2.283
    1C        C  472   3.944   4.407   2.400
    1C        C  473   4.007   4.374   2.523
    1C        C  474   3.813   4.470   2.643
    1C        C  475   3.942   4.412   2.642
    1C        C  476   3.745   4.486   2.766
    1C        C  477   3.814   4.462   2.887
    1C        C  478   3.607   4.520   3.010
    1C        C  479   3.743   4.483   3.007
    1C        C  480   3.538   4.528   3.133
    1C        C  481   3.611   4.525   3.254
    1C        C  482   3.398   4.536   3.377
    1C        C  483   3.539   4.532   3.375
    1C        C  484   3.329   4.532   3.500
    1C        C  485   3.400   4.536   3.622
    1C        C  486   3.194   4.499   3.747
    1C        C  487   3.331   4.537   3.745
    1C        C  488   3.131   4.478   3.871
    1C        C  489   3.197   4.497   3.994
    1C        C  490   3.004   4.417   4.117
    1C        C  491   3.130   4.482   4.117
    1C        C  492   2.944   4.385   4.241
    1C        C  493   3.001   4.430   4.362
    1C        C  494   2.828   4.307   4.484
    1C        C  495   2.939   4.394   4.484
    1C        C  496   2.771   4.260   4.604
    1C        C  497   2.819   4.313   4.727
    1C        C  498   2.668   4.165   4.844
    1C        C  499   2.756   4.275   4.847
    1C        C  500   2.597   4.115   4.954
    1C        C  501   4.004   4.360   2.044
    1C        C  502   3.814   4.467   2.157
    1C        C  503   3.943   4.409   2.160
    1C        C  504   3.744   4.482   2.279
    1C        C  505   3.812   4.456   2.401
    1C        C  506   3.605   4.510   2.522
    1C        C  507   3.745   4.488   2.521
    1C        C  508   3.536   4.523   2.645
    1C        C  509   3.607   4.515   2.767
    1C        C  510   3.394   4.528   2.889
    1C        C  511   3.536   4.525   2.888
    1C        C  512   3.323   4.527   3.011
    1C        C  513   3.396   4.530   3.132
    1C        C  514   3.190   4.495   3.257
    1C        C  515   3.327   4.528   3.255
    1C        C  516   3.126   4.472   3.381
    1C        C  517   3.191   4.500   3.503
    1C        C  518   3.000   4.412   3.626
    1C        C  519   3.126   4.477   3.626
    1C        C  520   2.945   4.375   3.751
    1C        C  521   3.003   4.418   3.873
    1C        C  522   2.841   4.282   3.999
    1C        C  523   2.944   4.378   3.995
    1C        C  524   2.788   4.237   4.122
    1C        C  525   2.835   4.295   4.241
    1C        C  526   2.705   4.129   4.365
    1C        C  527   2.785   4.246   4.364
    1C        C  528   2.659   4.074   4.486
    1C        C  529   2.690   4.145   4.605
    1C        C  530   2.587   3.960   4.733
    1C        C  531   2.645   4.090   4.727
    1C        C  532   2.541   3.903   4.854
    1C        C  533   2.523   3.997   4.961
    1C        C  534   3.618   4.563   2.041
    1C        C  535   3.750   4.514   2.042
    1C        C  536   3.538   4.536   2.156
    1C        C  537   3.605   4.508   2.279
    1C        C  538   3.393   4.520   2.401
    1C        C  539   3.534   4.521   2.401
    1C        C  540   3.323   4.516   2.523
    1C        C  541   3.395   4.518   2.645
    1C        C  542   3.186   4.493   2.767
    1C        C  543   3.324   4.521   2.767
    1C        C  544   3.121   4.468   2.890
    1C        C  545   3.187   4.489   3.013
    1C        C  546   2.997   4.403   3.137
    1C        C  547   3.122   4.469   3.136
    1C        C  548   2.940   4.367   3.262
    1C        C  549   2.998   4.411   3.383
    1C        C  550   2.829   4.285   3.506
    1C        C  551   2.937   4.377   3.505
    1C        C  552   2.781   4.238   3.630
    1C        C  553   2.834   4.289   3.751
    1C        C  554   2.708   4.122   3.875
    1C        C  555   2.793   4.234   3.875
    1C        C  556   2.667   4.063   3.997
    1C        C  557   2.706   4.122   4.120
    1C        C  558   2.602   3.941   4.248
    1C        C  559   2.669   4.065   4.244
    1C        C  560   2.572   3.878   4.371
    1C        C  561   2.599   3.947   4.491
    1C        C  562   2.531   3.749   4.615
    1C        C  563   2.568   3.885   4.615
    1C        C  564   2.519   3.683   4.740
    1C        C  565   2.519   3.762   4.859
    1C        C  566   2.527   3.548   4.979
    1C        C  567   2.517   3.686   4.977
    1C        C  568   3.328   4.479   2.042
    1C        C  569   3.398   4.512   2.159
    1C        C  570   3.184   4.476   2.283
    1C        C  571   3.323   4.509   2.279
    1C        C  572   3.116   4.461   2.406
    1C        C  573   3.185   4.488   2.526
    1C        C  574   2.988   4.403   2.648
    1C        C  575   3.117   4.461   2.647
    1C        C  576   2.931   4.365   2.772
    1C        C  577   2.998   4.398   2.892
    1C        C  578   2.827   4.276   3.018
    1C        C  579   2.940   4.361   3.015
    1C        C  580   2.777   4.228   3.141
    1C        C  581   2.831   4.277   3.262
    1C        C  582   2.702   4.112   3.387
    1C        C  583   2.785   4.226   3.385
    1C        C  584   2.666   4.055   3.511
    1C        C  585   2.703   4.120   3.631
    1C        C  586   2.598   3.938   3.758
    1C        C  587   2.667   4.061   3.754
    1C        C  588   2.575   3.871   3.880
    1C        C  589   2.608   3.935   4.002
    1C        C  590   2.546   3.736   4.129
    1C        C  591   2.580   3.873   4.126
    1C        C  592   2.525   3.670   4.253
    1C        C  593   2.534   3.742   4.374
    1C        C  594   2.507   3.533   4.497
    1C        C  595   2.517   3.674   4.496
    1C        C  596   2.517   3.466   4.620
    1C        C  597   2.516   3.541   4.740
    1C        C  598   2.529   3.330   4.867
    1C        C  599   2.520   3.471   4.862
    1C        C  600   2.527   3.249   4.982
    1C        C  601   3.197   4.436   2.047
    1C        C  602   2.980   4.401   2.162
    1C        C  603   3.117   4.441   2.163
    1C        C  604   2.927   4.359   2.287
    1C        C  605   2.988   4.401   2.407
    1C        C  606   2.815   4.276   2.530
    1C        C  607   2.924   4.367   2.528
    1C        C  608   2.772   4.220   2.653
    1C        C  609   2.823   4.275   2.773
    1C        C  610   2.688   4.116   2.895
    1C        C  611   2.770   4.231   2.897
    1C        C  612   2.656   4.056   3.019
    1C        C  613   2.691   4.116   3.142
    1C        C  614   2.600   3.926   3.269
    1C        C  615   2.662   4.053   3.265
    1C        C  616   2.571   3.864   3.392
    1C        C  617   2.600   3.930   3.514
    1C        C  618   2.539   3.730   3.641
    1C        C  619   2.575   3.867   3.638
    1C        C  620   2.523   3.660   3.763
    1C        C  621   2.537   3.735   3.882
    1C        C  622   2.508   3.528   4.007
    1C        C  623   2.530   3.668   4.007
    1C        C  624   2.510   3.458   4.129
    1C        C  625   2.515   3.530   4.251
    1C        C  626   2.537   3.323   4.382
    1C        C  627   2.511   3.462   4.375
    1C        C  628   2.545   3.253   4.504
    1C        C  629   2.527   3.325   4.625
    1C        C  630   2.593   3.123   4.746
    1C        C  631   2.543   3.256   4.747
    1C        C  632   2.618   3.053   4.867
    1C        C  633   2.560   3.113   4.982
    1C        C  634   2.785   4.306   2.052
    1C        C  635   2.893   4.396   2.049
    1C        C  636   2.752   4.232   2.167
    1C        C  637   2.813   4.273   2.287
    1C        C  638   2.676   4.114   2.411
    1C        C  639   2.761   4.226   2.410
    1C        C  640   2.644   4.048   2.532
    1C        C  641   2.684   4.110   2.653
    1C        C  642   2.586   3.924   2.780
    1C        C  643   2.646   4.052   2.776
    1C        C  644   2.564   3.859   2.904
    1C        C  645   2.595   3.929   3.023
    1C        C  646   2.538   3.726   3.149
    1C        C  647   2.570   3.864   3.146
    1C        C  648   2.523   3.657   3.271
    1C        C  649   2.538   3.727   3.393
    1C        C  650   2.513   3.522   3.519
    1C        C  651   2.526   3.663   3.518
    1C        C  652   2.514   3.449   3.640
    1C        C  653   2.515   3.519   3.763
    1C        C  654   2.533   3.314   3.889
    1C        C  655   2.511   3.453   3.888
    1C        C  656   2.553   3.250   4.013
    1C        C  657   2.537   3.319   4.136
    1C        C  658   2.603   3.121   4.260
    1C        C  659   2.554   3.254   4.260
    1C        C  660   2.637   3.063   4.384
    1C        C  661   2.599   3.123   4.507
    1C        C  662   2.706   2.937   4.628
    1C        C  663   2.627   3.054   4.627
    1C        C  664   2.750   2.877   4.748
    1C        C  665   2.697   2.934   4.868
    1C        C  666   2.746   2.875   4.985
    1C        C  667   2.689   4.020   2.061
    1C        C  668   2.683   4.109   2.169
    1C        C  669   2.596   3.914   2.292
    1C        C  670   2.643   4.048   2.290
    1C        C  671   2.557   3.853   2.414
    1C        C  672   2.584   3.921   2.535
    1C        C  673   2.528   3.719   2.658
    1C        C  674   2.562   3.856   2.659
    1C        C  675   2.517   3.652   2.782
    1C        C  676   2.535   3.721   2.904
    1C        C  677   2.509   3.514   3.026
    1C        C  678   2.525   3.654   3.028
    1C        C  679   2.512   3.445   3.150
    1C        C  680   2.507   3.516   3.272
    1C        C  681   2.537   3.312   3.400
    1C        C  682   2.512   3.451   3.397
    1C        C  683   2.555   3.243   3.522
    1C        C  684   2.535   3.310   3.644
    1C        C  685   2.600   3.110   3.769
    1C        C  686   2.550   3.242   3.768
    1C        C  687   2.635   3.055   3.894
    1C        C  688   2.605   3.119   4.016
    1C        C  689   2.711   2.937   4.142
    1C        C  690   2.631   3.053   4.139
    1C        C  691   2.756   2.883   4.265
    1C        C  692   2.713   2.945   4.385
    1C        C  693   2.753   2.884   4.506
    1C        C  694   2.629   3.894   2.059
    1C        C  695   2.525   3.706   2.178
    1C        C  696   2.578   3.837   2.176
    1C        C  697   2.511   3.637   2.301
    1C        C  698   2.522   3.716   2.417
    1C        C  699   2.497   3.506   2.542
    1C        C  700   2.508   3.646   2.539
    1C        C  701   2.505   3.437   2.665
    1C        C  702   2.507   3.511   2.785
    1C        C  703   2.527   3.299   2.910
    1C        C  704   2.508   3.439   2.907
    1C        C  705   2.554   3.235   3.033
    1C        C  706   2.539   3.307   3.154
    1C        C  707   2.601   3.108   3.279
    1C        C  708   2.554   3.241   3.279
    1C        C  709   2.632   3.044   3.401
    1C        C  710   2.602   3.109   3.522
    1C        C  711   2.712   2.932   3.651
    1C        C  712   2.630   3.047   3.646
    1C        C  713   2.757   2.880   3.774
    1C        C  714   2.713   2.937   3.896
    1C        C  715   2.752   2.881   4.019
    1C        C  716   2.453   3.499   2.062
    1C        C  717   2.494   3.633   2.063
    1C        C  718   2.465   3.422   2.182
    1C        C  719   2.481   3.498   2.301
    1C        C  720   2.515   3.289   2.426
    1C        C  721   2.491   3.428   2.424
    1C        C  722   2.543   3.225   2.549
    1C        C  723   2.535   3.299   2.669
    1C        C  724   2.593   3.095   2.791
    1C        C  725   2.543   3.227   2.790
    1C        C  726   2.629   3.036   2.914
    1C        C  727   2.597   3.101   3.036
    1C        C  728   2.702   2.918   3.161
    1C        C  729   2.627   3.038   3.159
    1C        C  730   2.749   2.867   3.284
    1C        C  731   2.712   2.928   3.406
    1C        C  732   2.753   2.872   3.529
    1C        C  733   2.492   3.198   2.073
    1C        C  734   2.491   3.281   2.186
    1C        C  735   2.587   3.086   2.306
    1C        C  736   2.525   3.214   2.307
    1C        C  737   2.623   3.024   2.428
    1C        C  738   2.596   3.094   2.548
    1C        C  739   2.699   2.910   2.672
    1C        C  740   2.622   3.028   2.670
    1C        C  741   2.743   2.854   2.794
    1C        C  742   2.708   2.919   2.915
    1C        C  743   2.754   2.868   3.039
    1C        C  744   2.545   3.069   2.074
    1C        C  745   2.689   2.899   2.187
    1C        C  746   2.611   3.017   2.186
    1C        C  747   2.731   2.840   2.309
    1C        C  748   2.687   2.899   2.430
    1C        C  749   2.736   2.846   2.552
    1C        C  750   2.742   2.841   2.071
    1C        C  751   3.673   2.310   1.991
    1C        O  752   3.670   2.192   2.035
    1C        O  753   3.693   2.323   1.853
    1C        C  754   4.617   3.062   1.961
    1C        O  755   4.588   3.086   1.841
    1C        O  756   4.744   3.003   1.971
    1C        C  757   4.453   4.223   1.966
    1C        O  758   4.552   4.287   2.011
    1C        O  759   4.433   4.239   1.828
    1C        C  760   3.595   4.687   1.964
    1C        O  761   3.603   4.795   2.028
    1C        O  762   3.667   4.719   1.847
    1C        C  763   2.880   4.492   1.937
    1C        O  764   2.919   4.465   1.820
    1C        O  765   2.829   4.621   1.952
    1C        C  766   2.350   3.485   1.957
    1C        O  767   2.396   3.486   1.840
    1C        O  768   2.228   3.418   1.976
    1C        C  769   4.721   3.596   5.029
    1C        O  770   4.746   3.563   5.149
    1C        O  771   4.843   3.615   4.963
    1C        C  772   4.265   4.443   5.047
    1C        O  773   4.265   4.406   5.167
    1C        O  774   4.350   4.551   5.022
    1C        C  775   4.147   2.497   5.060
    1C        O  776   4.257   2.453   5.018
    1C        O  777   4.159   2.529   5.196
    1C        C  778   2.871   4.553   5.029
    1C        O  779   2.813   4.657   4.987
    1C        O  780   2.901   4.568   5.165
    1C        C  781   2.464   3.031   5.060
    1C        O  782   2.359   2.989   5.005
    1C        O  783   2.500   2.959   5.173
    1C        C  784   2.403   3.994   5.048
    1C        O  785   2.294   4.042   5.004
    1C        O  786   2.411   4.007   5.187
    1C        C  787   2.946   2.410   2.023
    1C        O  788   2.900   2.445   1.911
    1C        O  789   2.923   2.286   2.080
    1C        C  790   3.199   2.404   5.092
    1C        O  791   3.123   2.304   5.104
    1C        O  792   3.237   2.444   5.221
    1C        H  793   4.256   3.041   5.048
    1C        H  794   4.173   2.829   5.076
    1C        H  795   4.547   3.127   5.032
    1C        H  796   4.502   3.373   5.070
    1C        H  797   4.572   3.818   5.046
    1C        H  798   4.389   3.958   5.052
    1C        H  799   4.315   4.188   5.048
    1C        H  800   4.046   4.547   5.027
    1C        H  801   3.805   4.562   5.049
    1C        H  802   3.592   4.645   5.036
    1C        H  803   3.402   4.476   5.040
    1C        H  804   3.161   4.529   5.051
    1C        H  805   3.876   2.542   5.077
    1C        H  806   3.686   2.452   5.068
    1C        H  807   2.992   2.550   5.058
    1C        H  808   3.454   2.492   5.081
    1C        H  809   2.892   2.766   5.082
    1C        H  810   2.705   2.899   5.081
    1C        H  811   2.443   3.277   5.042
    1C        H  812   2.511   3.499   5.073
    1C        H  813   2.545   3.733   5.069
    1C        H  814   2.621   4.149   5.053
    1C        H  815   2.812   4.274   5.048
    1C        H  816   2.716   2.878   1.974
    1C        H  817   2.829   2.659   1.993
    1C        H  818   3.197   2.375   2.031
    1C        H  819   3.438   2.422   1.982
    1C        H  820   3.849   2.526   1.973
    1C        H  821   4.086   2.562   1.996
    1C        H  822   4.235   2.729   1.974
    1C        H  823   4.378   2.919   1.965
    1C        H  824   4.607   3.310   1.981
    1C        H  825   4.494   3.510   1.961
    1C        H  826   4.556   3.745   1.967
    1C        H  827   3.781   4.481   1.945
    1C        H  828   3.973   4.395   1.948
    1C        H  829   4.185   4.306   1.959
    1C        H  830   4.528   3.984   1.978
    1C        H  831   2.673   3.822   1.992
    1C        H  832   2.730   4.048   1.966
    1C        H  833   2.706   4.321   1.982
    1C        H  834   3.372   4.467   1.945
    1C        H  835   3.159   4.403   1.953
    1C        H  836   2.520   3.009   1.989
    1C        H  837   2.409   3.209   2.007
    1C        H  838   2.511   3.676   1.966
    2V3OU   H29  839   2.805   3.555   1.145
    2V3OU   C27  840   2.787   3.501   1.241
    2V3OU   H27  841   2.722   3.570   1.299
    2V3OU   H28  842   2.739   3.400   1.236
    2V3OU   O11  843   2.915   3.479   1.302
    2V3OU   C15  844   2.924   3.393   1.409
    2V3OU   C13  845   3.055   3.379   1.458
    2V3OU   C14  846   3.081   3.268   1.540
    2V3OU   C16  847   2.974   3.188   1.577
    2V3OU    H6  848   2.995   3.100   1.639
    2V3OU   C12  849   3.215   3.230   1.590
    2V3OU    O2  850   3.236   3.126   1.656
    2V3OU   C10  851   3.328   3.308   1.538
    2V3OU    C8  852   3.458   3.274   1.574
    2V3OU   O10  853   3.486   3.154   1.631
    2V3OU   H26  854   3.401   3.115   1.658
    2V3OU    C6  855   3.566   3.355   1.528
    2V3OU    C5  856   3.539   3.471   1.457
    2V3OU    C4  857   3.703   3.295   1.528
    2V3OU    H4  858   3.721   3.228   1.617
    2V3OU    H5  859   3.709   3.231   1.435
    2V3OU    C2  860   3.816   3.398   1.524
    2V3OU    O6  861   3.805   3.480   1.641
    2V3OU   H21  862   3.753   3.557   1.614
    2V3OU    C3  863   3.786   3.494   1.409
    2V3OU    H2  864   3.865   3.572   1.407
    2V3OU    H3  865   3.789   3.437   1.312
    2V3OU   C25  866   3.954   3.332   1.513
    2V3OU    O7  867   4.003   3.296   1.406
    2V3OU   C26  868   4.034   3.297   1.637
    2V3OU   H22  869   4.067   3.385   1.697
    2V3OU   H23  870   4.118   3.228   1.610
    2V3OU    O8  871   3.964   3.213   1.726
    2V3OU   H24  872   3.938   3.268   1.801
    2V3OU    C1  873   3.651   3.563   1.418
    2V3OU    H1  874   3.628   3.617   1.321
    2V3OU    O3  875   3.660   3.658   1.524
    2V3OU   C19  876   3.618   3.793   1.501
    2V3OU    H9  877   3.516   3.798   1.452
    2V3OU    O4  878   3.713   3.853   1.416
    2V3OU   C20  879   3.845   3.875   1.467
    2V3OU   H10  880   3.896   3.775   1.479
    2V3OU   C24  881   3.609   3.857   1.640
    2V3OU   H16  882   3.538   3.793   1.698
    2V3OU   H17  883   3.566   3.960   1.628
    2V3OU   C23  884   3.748   3.879   1.700
    2V3OU   H15  885   3.790   3.773   1.709
    2V3OU    N1  886   3.737   3.957   1.821
    2V3OU   H19  887   3.807   3.931   1.888
    2V3OU   H20  888   3.649   3.938   1.865
    2V3OU   C21  889   3.846   3.949   1.601
    2V3OU   H11  890   3.952   3.929   1.637
    2V3OU    O5  891   3.824   4.089   1.604
    2V3OU   H18  892   3.784   4.108   1.691
    2V3OU   C22  893   3.913   3.952   1.355
    2V3OU   H12  894   3.863   4.051   1.340
    2V3OU   H13  895   3.915   3.889   1.262
    2V3OU   H14  896   4.022   3.960   1.378
    2V3OU   C11  897   3.165   3.470   1.421
    2V3OU    O1  898   3.146   3.587   1.382
    2V3OU    C9  899   3.299   3.424   1.461
    2V3OU    C7  900   3.404   3.508   1.426
    2V3OU    O9  901   3.385   3.625   1.355
    2V3OU   H25  902   3.289   3.638   1.368
    2V3OU   C17  903   2.814   3.314   1.451
    2V3OU    H7  904   2.716   3.359   1.439
    2V3OU   C18  905   2.842   3.207   1.535
    2V3OU    H8  906   2.762   3.143   1.574
    3SOL     OW  907   1.074   2.983   0.427
    3SOL    HW1  908   1.130   3.065   0.419
    3SOL    HW2  909   1.032   2.980   0.517
    4SOL     OW  910   5.448   0.507   1.941
    4SOL    HW1  911   5.485   0.554   2.021
    4SOL    HW2  912   5.462   0.563   1.860
    5SOL     OW  913   3.676   2.491   1.066
    5SOL    HW1  914   3.766   2.506   1.107
    5SOL    HW2  915   3.610   2.471   1.138
    6SOL     OW  916   2.846   2.162   1.087
    6SOL    HW1  917   2.838   2.063   1.099
    6SOL    HW2  918   2.924   2.182   1.028
    7SOL     OW  919   5.896   1.056   1.750
    7SOL    HW1  920   5.812   1.019   1.710
    7SOL    HW2  921   5.924   0.999   1.827
    8SOL     OW  922   2.374   1.371   4.419
    8SOL    HW1  923   2.389   1.469   4.406
    8SOL    HW2  924   2.284   1.357   4.461
    9SOL     OW  925   0.977   3.343   5.919
    9SOL    HW1  926   1.056   3.394   5.955
    9SOL    HW2  927   0.934   3.396   5.846
   10SOL     OW  928   0.328   3.763   0.145
   10SOL    HW1  929   0.313   3.754   0.046
   10SOL    HW2  930   0.254   3.816   0.185
   11SOL     OW  931   4.184   6.308   0.121
   11SOL    HW1  932   4.206   6.361   0.039
   11SOL    HW2  933   4.244   6.228   0.126
   12SOL     OW  934   5.728   6.239   2.290
   12SOL    HW1  935   5.788   6.282   2.357
   12SOL    HW2  936   5.689   6.155   2.329
   13SOL     OW  937   2.431   6.535   3.304
   13SOL    HW1  938   2.373   6.455   3.285
   13SOL    HW2  939   2.385   6.595   3.370
   14SOL     OW  940   2.899   6.564   1.428
   14SOL    HW1  941   2.901   6.611   1.340
   14SOL    HW2  942   2.967   6.603   1.489
   15SOL     OW  943   1.490   6.230   6.446
   15SOL    HW1  944   1.437   6.194   6.370
   15SOL    HW2  945   1.449   6.316   6.478
   16SOL     OW  946   6.436   1.711   6.020
   16SOL    HW1  947   6.374   1.788   6.036
   16SOL    HW2  948   6.508   1.739   5.956
   17SOL     OW  949   5.377   6.608   4.128
   17SOL    HW1  950   5.366   6.606   4.228
   17SOL    HW2  951   5.312   6.674   4.090
   18SOL     OW  952   1.783   1.235   6.718
   18SOL    HW1  953   1.739   1.303   6.777
   18SOL    HW2  954   1.725   1.217   6.639
   19SOL     OW  955   0.461   0.164   1.749
   19SOL    HW1  956   0.515   0.090   1.709
   19SOL    HW2  957   0.421   0.134   1.836
   20SOL     OW  958   3.221   1.599   4.609
   20SOL    HW1  959   3.161   1.632   4.682
   20SOL    HW2  960   3.302   1.656   4.604
   21SOL     OW  961   2.950   2.508   0.890
   21SOL    HW1  962   2.910   2.588   0.934
   21SOL    HW2  963   3.014   2.538   0.818
   22SOL     OW  964   1.076   0.436   6.137
   22SOL    HW1  965   1.157   0.434   6.079
   22SOL    HW2  966   1.076   0.357   6.198
   23SOL     OW  967   3.835   6.600   4.381
   23SOL    HW1  968   3.933   6.600   4.360
   23SOL    HW2  969   3.783   6.587   4.296
   24SOL     OW  970   4.300   1.528   4.482
   24SOL    HW1  971   4.304   1.432   4.510
   24SOL    HW2  972   4.272   1.534   4.386
   25SOL     OW  973   3.015   5.429   0.935
   25SOL    HW1  974   3.080   5.503   0.954
   25SOL    HW2  975   2.922   5.460   0.954
   26SOL     OW  976   6.479   1.555   2.485
   26SOL    HW1  977   6.535   1.629   2.446
   26SOL    HW2  978   6.382   1.575   2.470
   27SOL     OW  979   6.107   6.466   2.292
   27SOL    HW1  980   6.196   6.510   2.286
   27SOL    HW2  981   6.071   6.453   2.200
   28SOL     OW  982   3.454   0.279   0.343
   28SOL    HW1  983   3.450   0.221   0.424
   28SOL    HW2  984   3.484   0.371   0.370
   29SOL     OW  985   4.128   2.437   1.638
   29SOL    HW1  986   4.079   2.521   1.614
   29SOL    HW2  987   4.224   2.458   1.654
   30SOL     OW  988   3.904   0.758   4.426
   30SOL    HW1  989   3.833   0.802   4.481
   30SOL    HW2  990   3.862   0.713   4.347
   31SOL     OW  991   0.163   0.806   5.574
   31SOL    HW1  992   0.167   0.905   5.562
   31SOL    HW2  993   0.255   0.767   5.560
   32SOL     OW  994   0.102   1.832   1.960
   32SOL    HW1  995   0.063   1.856   1.871
   32SOL    HW2  996   0.174   1.897   1.983
   33SOL     OW  997   1.547   2.002   5.421
   33SOL    HW1  998   1.521   1.976   5.514
   33SOL    HW2  999   1.533   1.925   5.359
   34SOL     OW 1000   0.916   0.452   4.907
   34SOL    HW1 1001   0.956   0.520   4.846
   34SOL    HW2 1002   0.978   0.374   4.916
   35SOL     OW 1003   4.125   1.422   6.488
   35SOL    HW1 1004   4.097   1.484   6.415
   35SOL    HW2 1005   4.143   1.331   6.449
   36SOL     OW 1006   1.609   1.809   5.673
   36SOL    HW1 1007   1.707   1.792   5.664
   36SOL    HW2 1008   1.594   1.906   5.691
   37SOL     OW 1009   2.564   6.730   1.532
   37SOL    HW1 1010   2.582   6.639   1.569
   37SOL    HW2 1011   2.560   6.796   1.607
   38SOL     OW 1012   0.065   5.876   3.000
   38SOL    HW1 1013   0.092   5.809   2.930
   38SOL    HW2 1014   7.005   5.917   2.974
   39SOL     OW 1015   6.958   3.223   5.294
   39SOL    HW1 1016   6.948   3.144   5.354
   39SOL    HW2 1017   6.964   3.193   5.199
   40SOL     OW 1018   6.854   0.768   1.688
   40SOL    HW1 1019   6.890   0.857   1.660
   40SOL    HW2 1020   6.917   0.726   1.754
   41SOL     OW 1021   1.117   6.709   5.901
   41SOL    HW1 1022   1.190   6.728   5.966
   41SOL    HW2 1023   1.081   6.795   5.865
   42SOL     OW 1024   3.676   0.524   6.976
   42SOL    HW1 1025   3.748   0.521   0.019
   42SOL    HW2 1026   3.591   0.556   7.017
   43SOL     OW 1027   5.330   5.423   5.191
   43SOL    HW1 1028   5.282   5.365   5.125
   43SOL    HW2 1029   5.273   5.502   5.213
   44SOL     OW 1030   0.737   3.367   6.398
   44SOL    HW1 1031   0.661   3.429   6.381
   44SOL    HW2 1032   0.823   3.415   6.381
   45SOL     OW 1033   2.978   0.358   2.040
   45SOL    HW1 1034   3.052   0.292   2.033
   45SOL    HW2 1035   2.891   0.310   2.057
   46SOL     OW 1036   1.732   4.141   3.943
   46SOL    HW1 1037   1.701   4.197   3.865
   46SOL    HW2 1038   1.750   4.201   4.021
   47SOL     OW 1039   6.371   4.760   3.213
   47SOL    HW1 1040   6.430   4.752   3.133
   47SOL    HW2 1041   6.276   4.741   3.186
   48SOL     OW 1042   0.940   2.655   5.482
   48SOL    HW1 1043   0.840   2.648   5.489
   48SOL    HW2 1044   0.978   2.563   5.474
   49SOL     OW 1045   4.907   2.183   0.544
   49SOL    HW1 1046   4.936   2.108   0.603
   49SOL    HW2 1047   4.845   2.243   0.596
   50SOL     OW 1048   6.750   3.977   4.262
   50SOL    HW1 1049   6.678   3.912   4.236
   50SOL    HW2 1050   6.715   4.070   4.254
   51SOL     OW 1051   3.652   5.611   2.608
   51SOL    HW1 1052   3.581   5.680   2.595
   51SOL    HW2 1053   3.741   5.656   2.619
   52SOL     OW 1054   1.433   2.453   1.730
   52SOL    HW1 1055   1.509   2.500   1.687
   52SOL    HW2 1056   1.464   2.366   1.768
   53SOL     OW 1057   4.806   0.255   3.844
   53SOL    HW1 1058   4.810   0.265   3.944
   53SOL    HW2 1059   4.788   0.343   3.802
   54SOL     OW 1060   3.971   5.390   5.702
   54SOL    HW1 1061   4.039   5.397   5.629
   54SOL    HW2 1062   3.880   5.407   5.666
   55SOL     OW 1063   4.207   2.294   0.598
   55SOL    HW1 1064   4.124   2.238   0.601
   55SOL    HW2 1065   4.184   2.389   0.618
   56SOL     OW 1066   0.828   0.247   2.263
   56SOL    HW1 1067   0.744   0.194   2.273
   56SOL    HW2 1068   0.812   0.323   2.200
   57SOL     OW 1069   6.041   0.665   0.757
   57SOL    HW1 1070   6.066   0.754   0.720
   57SOL    HW2 1071   6.109   0.597   0.730
   58SOL     OW 1072   6.974   6.378   0.011
   58SOL    HW1 1073   6.988   6.476   0.028
   58SOL    HW2 1074   6.916   6.367   6.956
   59SOL     OW 1075   1.196   0.148   5.152
   59SOL    HW1 1076   1.163   0.211   5.223
   59SOL    HW2 1077   1.121   0.089   5.122
   60SOL     OW 1078   4.798   6.959   4.697
   60SOL    HW1 1079   4.860   0.011   4.690
   60SOL    HW2 1080   4.728   6.967   4.626
   61SOL     OW 1081   4.125   0.606   4.467
   61SOL    HW1 1082   4.040   0.659   4.462
   61SOL    HW2 1083   4.103   0.508   4.469
   62SOL     OW 1084   1.887   1.052   4.584
   62SOL    HW1 1085   1.959   1.031   4.518
   62SOL    HW2 1086   1.800   1.017   4.551
   63SOL     OW 1087   0.009   3.445   2.900
   63SOL    HW1 1088   0.061   3.394   2.968
   63SOL    HW2 1089   6.943   3.407   2.893
   64SOL     OW 1090   6.962   3.081   5.879
   64SOL    HW1 1091   6.867   3.095   5.906
   64SOL    HW2 1092   6.980   3.130   5.793
   65SOL     OW 1093   6.671   4.652   5.958
   65SOL    HW1 1094   6.685   4.558   5.990
   65SOL    HW2 1095   6.739   4.712   6.000
   66SOL     OW 1096   2.898   1.311   0.800
   66SOL    HW1 1097   2.862   1.230   0.753
   66SOL    HW2 1098   2.832   1.386   0.792
   67SOL     OW 1099   5.332   5.900   4.151
   67SOL    HW1 1100   5.348   5.924   4.055
   67SOL    HW2 1101   5.236   5.875   4.164
   68SOL     OW 1102   5.293   1.973   5.836
   68SOL    HW1 1103   5.227   1.904   5.864
   68SOL    HW2 1104   5.282   2.055   5.892
   69SOL     OW 1105   2.824   3.367   6.389
   69SOL    HW1 1106   2.905   3.323   6.427
   69SOL    HW2 1107   2.742   3.322   6.424
   70SOL     OW 1108   0.423   5.031   1.869
   70SOL    HW1 1109   0.398   4.939   1.899
   70SOL    HW2 1110   0.389   5.098   1.936
   71SOL     OW 1111   1.522   2.223   2.984
   71SOL    HW1 1112   1.495   2.201   2.890
   71SOL    HW2 1113   1.525   2.322   2.996
   72SOL     OW 1114   3.635   5.681   4.003
   72SOL    HW1 1115   3.593   5.690   3.914
   72SOL    HW2 1116   3.734   5.691   3.994
   73SOL     OW 1117   4.506   2.714   0.054
   73SOL    HW1 1118   4.448   2.678   0.127
   73SOL    HW2 1119   4.580   2.768   0.093
   74SOL     OW 1120   5.261   5.711   5.705
   74SOL    HW1 1121   5.258   5.808   5.683
   74SOL    HW2 1122   5.169   5.680   5.732
   75SOL     OW 1123   3.744   5.434   5.591
   75SOL    HW1 1124   3.658   5.435   5.641
   75SOL    HW2 1125   3.731   5.472   5.499
   76SOL     OW 1126   2.695   3.099   1.070
   76SOL    HW1 1127   2.604   3.126   1.099
   76SOL    HW2 1128   2.713   3.137   0.979
   77SOL     OW 1129   5.675   5.484   6.680
   77SOL    HW1 1130   5.702   5.551   6.749
   77SOL    HW2 1131   5.575   5.482   6.672
   78SOL     OW 1132   6.753   6.545   6.150
   78SOL    HW1 1133   6.733   6.555   6.247
   78SOL    HW2 1134   6.668   6.533   6.099
   79SOL     OW 1135   3.091   0.016   0.039
   79SOL    HW1 1136   3.079   6.969   0.105
   79SOL    HW2 1137   3.034   7.025   6.985
   80SOL     OW 1138   6.958   1.742   4.193
   80SOL    HW1 1139   6.924   1.723   4.101
   80SOL    HW2 1140   7.025   1.672   4.218
   81SOL     OW 1141   1.121   0.416   3.275
   81SOL    HW1 1142   1.188   0.477   3.318
   81SOL    HW2 1143   1.109   0.442   3.179
   82SOL     OW 1144   0.124   4.637   5.324
   82SOL    HW1 1145   0.109   4.577   5.245
   82SOL    HW2 1146   0.036   4.669   5.359
   83SOL     OW 1147   0.130   6.946   0.404
   83SOL    HW1 1148   0.135   0.016   0.380
   83SOL    HW2 1149   0.221   6.913   0.427
   84SOL     OW 1150   5.973   4.150   1.594
   84SOL    HW1 1151   5.983   4.115   1.501
   84SOL    HW2 1152   5.951   4.074   1.655
   85SOL     OW 1153   0.298   3.027   5.374
   85SOL    HW1 1154   0.211   2.982   5.358
   85SOL    HW2 1155   0.295   3.078   5.460
   86SOL     OW 1156   0.935   0.965   5.610
   86SOL    HW1 1157   1.031   0.959   5.585
   86SOL    HW2 1158   0.915   1.057   5.642
   87SOL     OW 1159   3.911   0.846   0.981
   87SOL    HW1 1160   3.936   0.917   1.046
   87SOL    HW2 1161   3.965   0.856   0.898
   88SOL     OW 1162   5.368   0.622   0.684
   88SOL    HW1 1163   5.331   0.586   0.598
   88SOL    HW2 1164   5.352   0.721   0.688
   89SOL     OW 1165   1.852   2.188   6.229
   89SOL    HW1 1166   1.754   2.183   6.252
   89SOL    HW2 1167   1.885   2.280   6.249
   90SOL     OW 1168   5.989   6.563   3.913
   90SOL    HW1 1169   6.038   6.485   3.951
   90SOL    HW2 1170   5.964   6.544   3.818
   91SOL     OW 1171   4.741   4.694   4.806
   91SOL    HW1 1172   4.687   4.626   4.756
   91SOL    HW2 1173   4.838   4.681   4.785
   92SOL     OW 1174   3.059   5.222   1.641
   92SOL    HW1 1175   2.991   5.294   1.627
   92SOL    HW2 1176   3.141   5.242   1.588
   93SOL     OW 1177   3.416   5.299   5.627
   93SOL    HW1 1178   3.382   5.209   5.653
   93SOL    HW2 1179   3.394   5.317   5.531
   94SOL     OW 1180   2.478   5.989   0.150
   94SOL    HW1 1181   2.482   5.898   0.109
   94SOL    HW2 1182   2.388   6.002   0.193
   95SOL     OW 1183   6.757   0.513   4.686
   95SOL    HW1 1184   6.664   0.526   4.719
   95SOL    HW2 1185   6.771   0.566   4.602
   96SOL     OW 1186   1.782   0.399   5.387
   96SOL    HW1 1187   1.682   0.401   5.385
   96SOL    HW2 1188   1.818   0.409   5.294
   97SOL     OW 1189   6.271   3.533   5.300
   97SOL    HW1 1190   6.211   3.501   5.226
   97SOL    HW2 1191   6.365   3.536   5.267
   98SOL     OW 1192   5.899   2.546   5.968
   98SOL    HW1 1193   5.995   2.555   5.993
   98SOL    HW2 1194   5.877   2.613   5.897
   99SOL     OW 1195   4.216   2.271   0.871
   99SOL    HW1 1196   4.301   2.236   0.911
   99SOL    HW2 1197   4.223   2.271   0.771
  100SOL     OW 1198   6.660   5.287   6.101
  100SOL    HW1 1199   6.563   5.275   6.079
  100SOL    HW2 1200   6.674   5.378   6.140
  101SOL     OW 1201   1.009   6.544   3.693
  101SOL    HW1 1202   0.962   6.583   3.773
  101SOL    HW2 1203   1.002   6.609   3.617
  102SOL     OW 1204   4.981   6.955   3.535
  102SOL    HW1 1205   5.061   6.995   3.579
  102SOL    HW2 1206   4.998   6.859   3.517
  103SOL     OW 1207   3.887   1.719   1.311
  103SOL    HW1 1208   3.796   1.760   1.325
  103SOL    HW2 1209   3.922   1.688   1.399
  104SOL     OW 1210   0.065   5.865   2.299
  104SOL    HW1 1211   0.150   5.908   2.329
  104SOL    HW2 1212   0.078   5.827   2.208
  105SOL     OW 1213   5.005   0.940   5.657
  105SOL    HW1 1214   4.909   0.914   5.668
  105SOL    HW2 1215   5.032   1.000   5.732
  106SOL     OW 1216   2.868   6.467   6.704
  106SOL    HW1 1217   2.836   6.395   6.765
  106SOL    HW2 1218   2.873   6.433   6.611
  107SOL     OW 1219   2.501   3.581   1.005
  107SOL    HW1 1220   2.492   3.568   1.104
  107SOL    HW2 1221   2.566   3.655   0.987
  108SOL     OW 1222   4.902   4.464   5.471
  108SOL    HW1 1223   4.983   4.438   5.419
  108SOL    HW2 1224   4.918   4.552   5.517
  109SOL     OW 1225   6.756   0.826   1.065
  109SOL    HW1 1226   6.734   0.728   1.070
  109SOL    HW2 1227   6.852   0.837   1.042
  110SOL     OW 1228   4.196   5.954   5.094
  110SOL    HW1 1229   4.114   5.913   5.133
  110SOL    HW2 1230   4.232   6.023   5.156
  111SOL     OW 1231   3.826   1.185   3.355
  111SOL    HW1 1232   3.852   1.092   3.379
  111SOL    HW2 1233   3.736   1.205   3.393
  112SOL     OW 1234   0.532   0.501   6.313
  112SOL    HW1 1235   0.449   0.547   6.343
  112SOL    HW2 1236   0.612   0.558   6.333
  113SOL     OW 1237   0.129   5.154   3.266
  113SOL    HW1 1238   0.120   5.244   3.307
  113SOL    HW2 1239   0.116   5.161   3.167
  114SOL     OW 1240   0.700   6.896   0.084
  114SOL    HW1 1241   0.674   6.974   0.141
  114SOL    HW2 1242   0.760   6.927   0.010
  115SOL     OW 1243   5.228   1.055   4.766
  115SOL    HW1 1244   5.323   1.032   4.787
  115SOL    HW2 1245   5.226   1.139   4.712
  116SOL     OW 1246   6.345   4.652   2.097
  116SOL    HW1 1247   6.354   4.631   2.000
  116SOL    HW2 1248   6.434   4.679   2.134
  117SOL     OW 1249   1.539   0.022   6.869
  117SOL    HW1 1250   1.629   0.061   6.887
  117SOL    HW2 1251   1.474   0.095   6.848
  118SOL     OW 1252   1.208   0.689   2.273
  118SOL    HW1 1253   1.255   0.697   2.185
  118SOL    HW2 1254   1.146   0.767   2.284
  119SOL     OW 1255   6.823   3.326   6.502
  119SOL    HW1 1256   6.920   3.307   6.515
  119SOL    HW2 1257   6.768   3.266   6.560
  120SOL     OW 1258   5.761   6.378   0.975
  120SOL    HW1 1259   5.731   6.445   0.908
  120SOL    HW2 1260   5.856   6.397   1.000
  121SOL     OW 1261   2.560   3.057   5.874
  121SOL    HW1 1262   2.571   3.151   5.843
  121SOL    HW2 1263   2.511   3.057   5.962
  122SOL     OW 1264   0.685   3.194   4.442
  122SOL    HW1 1265   0.783   3.179   4.461
  122SOL    HW2 1266   0.671   3.289   4.415
  123SOL     OW 1267   0.993   1.668   1.249
  123SOL    HW1 1268   0.908   1.616   1.248
  123SOL    HW2 1269   0.986   1.743   1.314
  124SOL     OW 1270   4.807   3.096   0.951
  124SOL    HW1 1271   4.765   3.109   1.040
  124SOL    HW2 1272   4.818   3.185   0.906
  125SOL     OW 1273   2.111   3.450   1.742
  125SOL    HW1 1274   2.115   3.352   1.724
  125SOL    HW2 1275   2.159   3.470   1.828
  126SOL     OW 1276   3.232   4.864   1.710
  126SOL    HW1 1277   3.195   4.813   1.788
  126SOL    HW2 1278   3.156   4.904   1.658
  127SOL     OW 1279   0.360   6.124   6.233
  127SOL    HW1 1280   0.439   6.134   6.174
  127SOL    HW2 1281   0.330   6.029   6.235
  128SOL     OW 1282   4.568   2.602   1.363
  128SOL    HW1 1283   4.506   2.529   1.393
  128SOL    HW2 1284   4.567   2.676   1.430
  129SOL     OW 1285   2.713   4.005   6.362
  129SOL    HW1 1286   2.691   3.930   6.424
  129SOL    HW2 1287   2.761   4.077   6.412
  130SOL     OW 1288   1.370   2.070   4.422
  130SOL    HW1 1289   1.427   2.104   4.497
  130SOL    HW2 1290   1.278   2.108   4.430
  131SOL     OW 1291   5.257   1.770   2.874
  131SOL    HW1 1292   5.157   1.780   2.872
  131SOL    HW2 1293   5.290   1.754   2.781
  132SOL     OW 1294   0.798   2.372   0.503
  132SOL    HW1 1295   0.869   2.438   0.481
  132SOL    HW2 1296   0.711   2.419   0.517
  133SOL     OW 1297   6.636   5.162   2.536
  133SOL    HW1 1298   6.610   5.067   2.523
  133SOL    HW2 1299   6.730   5.167   2.569
  134SOL     OW 1300   0.236   3.440   2.744
  134SOL    HW1 1301   0.233   3.353   2.694
  134SOL    HW2 1302   0.150   3.455   2.792
  135SOL     OW 1303   5.102   1.246   4.156
  135SOL    HW1 1304   5.113   1.343   4.177
  135SOL    HW2 1305   5.073   1.197   4.239
  136SOL     OW 1306   5.811   4.879   5.096
  136SOL    HW1 1307   5.871   4.832   5.031
  136SOL    HW2 1308   5.840   4.858   5.190
  137SOL     OW 1309   4.146   0.093   5.804
  137SOL    HW1 1310   4.204   0.106   5.724
  137SOL    HW2 1311   4.093   0.176   5.821
  138SOL     OW 1312   6.799   4.935   4.831
  138SOL    HW1 1313   6.847   5.004   4.885
  138SOL    HW2 1314   6.725   4.979   4.779
  139SOL     OW 1315   3.680   5.146   5.693
  139SOL    HW1 1316   3.622   5.090   5.751
  139SOL    HW2 1317   3.623   5.205   5.635
  140SOL     OW 1318   6.011   4.343   4.532
  140SOL    HW1 1319   6.069   4.261   4.528
  140SOL    HW2 1320   6.033   4.395   4.614
  141SOL     OW 1321   1.631   1.871   4.021
  141SOL    HW1 1322   1.725   1.896   4.044
  141SOL    HW2 1323   1.600   1.925   3.943
  142SOL     OW 1324   1.823   5.233   1.253
  142SOL    HW1 1325   1.887   5.175   1.203
  142SOL    HW2 1326   1.866   5.322   1.271
  143SOL     OW 1327   5.593   4.111   1.857
  143SOL    HW1 1328   5.520   4.050   1.887
  143SOL    HW2 1329   5.647   4.139   1.937
  144SOL     OW 1330   2.449   6.941   6.950
  144SOL    HW1 1331   2.388   7.017   6.926
  144SOL    HW2 1332   2.501   6.965   0.006
  145SOL     OW 1333   0.209   5.470   0.899
  145SOL    HW1 1334   0.137   5.537   0.882
  145SOL    HW2 1335   0.275   5.472   0.823
  146SOL     OW 1336   5.858   5.247   0.782
  146SOL    HW1 1337   5.884   5.158   0.745
  146SOL    HW2 1338   5.906   5.264   0.868
  147SOL     OW 1339   6.209   2.089   1.205
  147SOL    HW1 1340   6.241   1.997   1.181
  147SOL    HW2 1341   6.177   2.089   1.300
  148SOL     OW 1342   1.037   5.426   5.630
  148SOL    HW1 1343   1.136   5.416   5.640
  148SOL    HW2 1344   0.995   5.336   5.622
  149SOL     OW 1345   3.302   0.939   5.317
  149SOL    HW1 1346   3.288   0.859   5.375
  149SOL    HW2 1347   3.214   0.979   5.293
  150SOL     OW 1348   0.104   5.180   6.893
  150SOL    HW1 1349   0.025   5.235   6.867
  150SOL    HW2 1350   0.100   5.159   6.990
  151SOL     OW 1351   3.998   1.566   1.531
  151SOL    HW1 1352   3.979   1.610   1.619
  151SOL    HW2 1353   4.018   1.469   1.546
  152SOL     OW 1354   3.324   1.273   4.328
  152SOL    HW1 1355   3.241   1.308   4.284
  152SOL    HW2 1356   3.309   1.179   4.357
  153SOL     OW 1357   2.338   1.491   3.344
  153SOL    HW1 1358   2.424   1.443   3.360
  153SOL    HW2 1359   2.338   1.531   3.252
  154SOL     OW 1360   0.049   2.269   2.575
  154SOL    HW1 1361   7.014   2.302   2.503
  154SOL    HW2 1362   0.113   2.203   2.536
  155SOL     OW 1363   0.129   0.963   3.387
  155SOL    HW1 1364   0.147   0.873   3.348
  155SOL    HW2 1365   0.159   1.034   3.323
  156SOL     OW 1366   6.533   2.229   0.961
  156SOL    HW1 1367   6.618   2.204   1.009
  156SOL    HW2 1368   6.481   2.293   1.017
  157SOL     OW 1369   5.879   3.613   2.613
  157SOL    HW1 1370   5.809   3.541   2.608
  157SOL    HW2 1371   5.835   3.702   2.602
  158SOL     OW 1372   2.083   0.994   3.262
  158SOL    HW1 1373   2.003   1.003   3.203
  158SOL    HW2 1374   2.054   0.992   3.358
  159SOL     OW 1375   5.080   3.833   2.022
  159SOL    HW1 1376   5.172   3.871   2.020
  159SOL    HW2 1377   5.014   3.902   1.990
  160SOL     OW 1378   6.717   4.070   5.881
  160SOL    HW1 1379   6.760   3.986   5.915
  160SOL    HW2 1380   6.781   4.118   5.822
  161SOL     OW 1381   2.813   5.121   4.830
  161SOL    HW1 1382   2.784   5.084   4.741
  161SOL    HW2 1383   2.833   5.046   4.892
  162SOL     OW 1384   4.436   5.866   1.449
  162SOL    HW1 1385   4.443   5.957   1.490
  162SOL    HW2 1386   4.438   5.874   1.350
  163SOL     OW 1387   4.244   0.765   2.268
  163SOL    HW1 1388   4.294   0.824   2.331
  163SOL    HW2 1389   4.236   0.811   2.179
  164SOL     OW 1390   5.450   3.542   0.831
  164SOL    HW1 1391   5.461   3.599   0.750
  164SOL    HW2 1392   5.398   3.592   0.900
  165SOL     OW 1393   4.889   3.609   6.560
  165SOL    HW1 1394   4.927   3.695   6.526
  165SOL    HW2 1395   4.848   3.624   6.650
  166SOL     OW 1396   1.092   0.444   2.169
  166SOL    HW1 1397   1.149   0.475   2.093
  166SOL    HW2 1398   0.996   0.450   2.143
  167SOL     OW 1399   6.402   2.971   0.261
  167SOL    HW1 1400   6.450   3.057   0.246
  167SOL    HW2 1401   6.443   2.924   0.340
  168SOL     OW 1402   2.221   5.373   0.665
  168SOL    HW1 1403   2.309   5.390   0.621
  168SOL    HW2 1404   2.155   5.442   0.634
  169SOL     OW 1405   1.806   6.012   1.827
  169SOL    HW1 1406   1.786   6.075   1.752
  169SOL    HW2 1407   1.799   6.062   1.914
  170SOL     OW 1408   0.397   1.472   3.183
  170SOL    HW1 1409   0.461   1.546   3.200
  170SOL    HW2 1410   0.316   1.507   3.137
  171SOL     OW 1411   3.559   3.532   6.888
  171SOL    HW1 1412   3.606   3.445   6.877
  171SOL    HW2 1413   3.501   3.549   6.808
  172SOL     OW 1414   0.391   2.999   6.234
  172SOL    HW1 1415   0.343   2.927   6.184
  172SOL    HW2 1416   0.455   3.045   6.173
  173SOL     OW 1417   0.378   6.124   5.614
  173SOL    HW1 1418   0.457   6.185   5.605
  173SOL    HW2 1419   0.296   6.178   5.630
  174SOL     OW 1420   2.905   5.140   3.841
  174SOL    HW1 1421   2.837   5.197   3.887
  174SOL    HW2 1422   2.976   5.199   3.802
  175SOL     OW 1423   0.916   5.666   3.011
  175SOL    HW1 1424   0.981   5.591   3.024
  175SOL    HW2 1425   0.952   5.749   3.055
  176SOL     OW 1426   2.423   4.981   0.915
  176SOL    HW1 1427   2.382   5.044   0.849
  176SOL    HW2 1428   2.408   4.887   0.885
  177SOL     OW 1429   4.725   2.115   2.579
  177SOL    HW1 1430   4.811   2.068   2.558
  177SOL    HW2 1431   4.695   2.091   2.671
  178SOL     OW 1432   5.283   5.288   6.384
  178SOL    HW1 1433   5.377   5.268   6.355
  178SOL    HW2 1434   5.256   5.225   6.456
  179SOL     OW 1435   2.924   0.274   0.741
  179SOL    HW1 1436   2.880   0.363   0.726
  179SOL    HW2 1437   2.875   0.225   0.814
  180SOL     OW 1438   0.523   2.334   6.771
  180SOL    HW1 1439   0.575   2.418   6.787
  180SOL    HW2 1440   0.450   2.327   6.839
  181SOL     OW 1441   3.295   3.115   5.602
  181SOL    HW1 1442   3.295   3.165   5.688
  181SOL    HW2 1443   3.255   3.172   5.530
  182SOL     OW 1444   4.317   2.316   4.811
  182SOL    HW1 1445   4.232   2.292   4.763
  182SOL    HW2 1446   4.297   2.384   4.881
  183SOL     OW 1447   5.163   1.502   1.969
  183SOL    HW1 1448   5.146   1.445   2.049
  183SOL    HW2 1449   5.249   1.475   1.926
  184SOL     OW 1450   0.543   4.758   3.156
  184SOL    HW1 1451   0.484   4.678   3.168
  184SOL    HW2 1452   0.505   4.818   3.086
  185SOL     OW 1453   2.015   4.153   6.503
  185SOL    HW1 1454   2.021   4.053   6.507
  185SOL    HW2 1455   1.924   4.182   6.534
  186SOL     OW 1456   5.538   6.833   2.987
  186SOL    HW1 1457   5.552   6.811   2.890
  186SOL    HW2 1458   5.586   6.765   3.043
  187SOL     OW 1459   5.597   1.011   3.813
  187SOL    HW1 1460   5.668   1.039   3.748
  187SOL    HW2 1461   5.630   1.026   3.906
  188SOL     OW 1462   6.464   2.083   3.775
  188SOL    HW1 1463   6.433   2.084   3.680
  188SOL    HW2 1464   6.540   2.019   3.784
  189SOL     OW 1465   2.373   4.351   2.783
  189SOL    HW1 1466   2.424   4.377   2.701
  189SOL    HW2 1467   2.375   4.252   2.794
  190SOL     OW 1468   3.760   1.216   5.734
  190SOL    HW1 1469   3.801   1.137   5.688
  190SOL    HW2 1470   3.695   1.260   5.673
  191SOL     OW 1471   4.818   5.869   6.246
  191SOL    HW1 1472   4.883   5.829   6.181
  191SOL    HW2 1473   4.738   5.902   6.196
  192SOL     OW 1474   6.808   0.611   1.416
  192SOL    HW1 1475   6.815   0.655   1.506
  192SOL    HW2 1476   6.875   0.537   1.411
  193SOL     OW 1477   5.553   4.235   6.837
  193SOL    HW1 1478   5.628   4.288   6.798
  193SOL    HW2 1479   5.553   4.143   6.798
  194SOL     OW 1480   3.787   0.595   3.819
  194SOL    HW1 1481   3.741   0.614   3.732
  194SOL    HW2 1482   3.813   0.499   3.822
  195SOL     OW 1483   0.203   5.522   3.428
  195SOL    HW1 1484   0.115   5.556   3.392
  195SOL    HW2 1485   0.271   5.522   3.355
  196SOL     OW 1486   0.740   1.806   0.255
  196SOL    HW1 1487   0.805   1.876   0.286
  196SOL    HW2 1488   0.733   1.809   0.155
  197SOL     OW 1489   1.518   0.914   0.864
  197SOL    HW1 1490   1.497   0.824   0.902
  197SOL    HW2 1491   1.615   0.934   0.876
  198SOL     OW 1492   3.464   2.044   4.008
  198SOL    HW1 1493   3.504   2.066   3.919
  198SOL    HW2 1494   3.403   1.965   3.997
  199SOL     OW 1495   1.183   2.506   4.053
  199SOL    HW1 1496   1.220   2.573   4.117
  199SOL    HW2 1497   1.148   2.552   3.972
  200SOL     OW 1498   6.809   2.576   0.013
  200SOL    HW1 1499   6.832   2.494   0.066
  200SOL    HW2 1500   6.893   2.623   7.012
  201SOL     OW 1501   0.950   0.938   6.467
  201SOL    HW1 1502   0.962   1.022   6.520
  201SOL    HW2 1503   1.039   0.898   6.446
  202SOL     OW 1504   4.630   6.749   0.289
  202SOL    HW1 1505   4.714   6.727   0.338
  202SOL    HW2 1506   4.574   6.667   0.281
  203SOL     OW 1507   6.041   2.926   5.886
  203SOL    HW1 1508   6.105   2.915   5.809
  203SOL    HW2 1509   6.028   3.024   5.905
  204SOL     OW 1510   6.287   1.595   5.757
  204SOL    HW1 1511   6.376   1.566   5.722
  204SOL    HW2 1512   6.286   1.694   5.768
  205SOL     OW 1513   1.097   3.115   2.755
  205SOL    HW1 1514   1.008   3.084   2.722
  205SOL    HW2 1515   1.169   3.069   2.702
  206SOL     OW 1516   0.621   3.649   0.283
  206SOL    HW1 1517   0.710   3.623   0.320
  206SOL    HW2 1518   0.633   3.719   0.213
  207SOL     OW 1519   5.701   2.505   4.350
  207SOL    HW1 1520   5.651   2.492   4.436
  207SOL    HW2 1521   5.666   2.586   4.303
  208SOL     OW 1522   1.826   4.380   4.530
  208SOL    HW1 1523   1.733   4.349   4.549
  208SOL    HW2 1524   1.891   4.313   4.564
  209SOL     OW 1525   6.516   4.442   2.316
  209SOL    HW1 1526   6.440   4.483   2.266
  209SOL    HW2 1527   6.512   4.343   2.308
  210SOL     OW 1528   4.727   2.846   0.182
  210SOL    HW1 1529   4.810   2.803   0.145
  210SOL    HW2 1530   4.711   2.811   0.275
  211SOL     OW 1531   7.021   1.796   2.795
  211SOL    HW1 1532   6.925   1.768   2.787
  211SOL    HW2 1533   0.008   1.843   2.883
  212SOL     OW 1534   2.093   3.403   2.410
  212SOL    HW1 1535   2.075   3.350   2.327
  212SOL    HW2 1536   2.093   3.342   2.489
  213SOL     OW 1537   1.480   5.514   1.366
  213SOL    HW1 1538   1.441   5.447   1.303
  213SOL    HW2 1539   1.451   5.606   1.339
  214SOL     OW 1540   5.065   6.262   1.851
  214SOL    HW1 1541   5.160   6.282   1.873
  214SOL    HW2 1542   5.053   6.263   1.752
  215SOL     OW 1543   2.632   5.269   3.270
  215SOL    HW1 1544   2.612   5.194   3.332
  215SOL    HW2 1545   2.548   5.294   3.220
  216SOL     OW 1546   0.656   6.709   2.561
  216SOL    HW1 1547   0.744   6.677   2.595
  216SOL    HW2 1548   0.670   6.768   2.481
  217SOL     OW 1549   1.648   4.635   6.058
  217SOL    HW1 1550   1.744   4.632   6.086
  217SOL    HW2 1551   1.632   4.566   5.987
  218SOL     OW 1552   1.713   1.696   5.077
  218SOL    HW1 1553   1.793   1.755   5.064
  218SOL    HW2 1554   1.641   1.748   5.125
  219SOL     OW 1555   4.407   1.821   0.863
  219SOL    HW1 1556   4.494   1.793   0.903
  219SOL    HW2 1557   4.335   1.759   0.893
  220SOL     OW 1558   2.976   0.040   0.622
  220SOL    HW1 1559   2.958   0.136   0.641
  220SOL    HW2 1560   3.034   0.032   0.542
  221SOL     OW 1561   4.762   5.299   2.223
  221SOL    HW1 1562   4.738   5.390   2.256
  221SOL    HW2 1563   4.681   5.241   2.223
  222SOL     OW 1564   2.288   5.098   6.451
  222SOL    HW1 1565   2.266   5.009   6.491
  222SOL    HW2 1566   2.205   5.155   6.449
  223SOL     OW 1567   6.000   2.923   5.142
  223SOL    HW1 1568   6.017   2.824   5.141
  223SOL    HW2 1569   6.061   2.967   5.075
  224SOL     OW 1570   2.479   1.228   6.381
  224SOL    HW1 1571   2.440   1.167   6.451
  224SOL    HW2 1572   2.579   1.221   6.383
  225SOL     OW 1573   4.124   6.134   5.513
  225SOL    HW1 1574   4.219   6.165   5.508
  225SOL    HW2 1575   4.065   6.199   5.464
  226SOL     OW 1576   0.686   2.550   6.795
  226SOL    HW1 1577   0.748   2.495   6.851
  226SOL    HW2 1578   0.737   2.622   6.749
  227SOL     OW 1579   1.445   3.897   1.465
  227SOL    HW1 1580   1.487   3.851   1.543
  227SOL    HW2 1581   1.460   3.843   1.383
  228SOL     OW 1582   1.452   0.126   2.462
  228SOL    HW1 1583   1.389   0.192   2.502
  228SOL    HW2 1584   1.545   0.164   2.463
  229SOL     OW 1585   4.355   6.325   5.808
  229SOL    HW1 1586   4.355   6.353   5.904
  229SOL    HW2 1587   4.448   6.331   5.771
  230SOL     OW 1588   5.100   6.023   5.046
  230SOL    HW1 1589   5.015   6.002   4.998
  230SOL    HW2 1590   5.157   5.941   5.051
  231SOL     OW 1591   5.285   1.707   6.667
  231SOL    HW1 1592   5.222   1.754   6.728
  231SOL    HW2 1593   5.336   1.638   6.719
  232SOL     OW 1594   1.534   2.067   5.727
  232SOL    HW1 1595   1.594   2.070   5.808
  232SOL    HW2 1596   1.440   2.089   5.754
  233SOL     OW 1597   3.132   1.551   3.098
  233SOL    HW1 1598   3.149   1.633   3.044
  233SOL    HW2 1599   3.139   1.471   3.040
  234SOL     OW 1600   4.526   1.232   0.305
  234SOL    HW1 1601   4.550   1.139   0.277
  234SOL    HW2 1602   4.605   1.276   0.347
  235SOL     OW 1603   4.904   2.844   3.455
  235SOL    HW1 1604   5.001   2.846   3.434
  235SOL    HW2 1605   4.855   2.791   3.385
  236SOL     OW 1606   4.604   5.137   6.087
  236SOL    HW1 1607   4.676   5.178   6.031
  236SOL    HW2 1608   4.529   5.108   6.028
  237SOL     OW 1609   6.291   3.257   2.924
  237SOL    HW1 1610   6.225   3.292   2.858
  237SOL    HW2 1611   6.242   3.220   3.003
  238SOL     OW 1612   6.580   1.817   0.796
  238SOL    HW1 1613   6.523   1.795   0.875
  238SOL    HW2 1614   6.586   1.916   0.786
  239SOL     OW 1615   1.644   3.583   0.453
  239SOL    HW1 1616   1.559   3.546   0.416
  239SOL    HW2 1617   1.697   3.509   0.495
  240SOL     OW 1618   5.181   3.197   3.236
  240SOL    HW1 1619   5.252   3.219   3.169
  240SOL    HW2 1620   5.197   3.248   3.321
  241SOL     OW 1621   3.272   1.834   3.996
  241SOL    HW1 1622   3.269   1.839   4.096
  241SOL    HW2 1623   3.292   1.740   3.968
  242SOL     OW 1624   3.304   3.595   2.941
  242SOL    HW1 1625   3.249   3.676   2.918
  242SOL    HW2 1626   3.382   3.622   2.997
  243SOL     OW 1627   4.315   2.455   6.206
  243SOL    HW1 1628   4.228   2.443   6.159
  243SOL    HW2 1629   4.383   2.489   6.141
  244SOL     OW 1630   5.030   3.545   5.203
  244SOL    HW1 1631   4.994   3.559   5.295
  244SOL    HW2 1632   4.954   3.538   5.138
  245SOL     OW 1633   3.417   1.372   2.944
  245SOL    HW1 1634   3.323   1.345   2.926
  245SOL    HW2 1635   3.446   1.441   2.878
  246SOL     OW 1636   6.505   1.194   2.025
  246SOL    HW1 1637   6.544   1.237   1.944
  246SOL    HW2 1638   6.562   1.216   2.105
  247SOL     OW 1639   1.791   1.022   1.391
  247SOL    HW1 1640   1.698   1.051   1.412
  247SOL    HW2 1641   1.854   1.063   1.458
  248SOL     OW 1642   1.764   2.289   2.168
  248SOL    HW1 1643   1.778   2.315   2.072
  248SOL    HW2 1644   1.839   2.323   2.223
  249SOL     OW 1645   5.450   5.958   4.732
  249SOL    HW1 1646   5.444   5.998   4.823
  249SOL    HW2 1647   5.378   5.890   4.721
  250SOL     OW 1648   4.453   2.995   0.908
  250SOL    HW1 1649   4.501   3.060   0.966
  250SOL    HW2 1650   4.460   3.024   0.813
  251SOL     OW 1651   4.026   4.230   5.628
  251SOL    HW1 1652   4.109   4.181   5.599
  251SOL    HW2 1653   3.946   4.185   5.590
  252SOL     OW 1654   6.284   6.296   5.508
  252SOL    HW1 1655   6.321   6.318   5.417
  252SOL    HW2 1656   6.342   6.226   5.551
  253SOL     OW 1657   3.777   6.204   6.212
  253SOL    HW1 1658   3.782   6.226   6.309
  253SOL    HW2 1659   3.697   6.146   6.195
  254SOL     OW 1660   5.705   2.673   5.121
  254SOL    HW1 1661   5.670   2.763   5.095
  254SOL    HW2 1662   5.660   2.643   5.205
  255SOL     OW 1663   1.695   4.072   6.335
  255SOL    HW1 1664   1.706   4.124   6.420
  255SOL    HW2 1665   1.598   4.052   6.320
  256SOL     OW 1666   4.913   2.333   5.121
  256SOL    HW1 1667   4.912   2.291   5.030
  256SOL    HW2 1668   4.826   2.381   5.136
  257SOL     OW 1669   4.791   6.954   2.858
  257SOL    HW1 1670   4.700   6.980   2.825
  257SOL    HW2 1671   4.785   6.870   2.911
  258SOL     OW 1672   1.781   3.182   5.760
  258SOL    HW1 1673   1.718   3.158   5.834
  258SOL    HW2 1674   1.782   3.108   5.692
  259SOL     OW 1675   3.789   0.095   3.925
  259SOL    HW1 1676   3.726   0.061   3.994
  259SOL    HW2 1677   3.883   0.091   3.960
  260SOL     OW 1678   3.718   5.635   3.619
  260SOL    HW1 1679   3.741   5.547   3.660
  260SOL    HW2 1680   3.798   5.673   3.574
  261SOL     OW 1681   4.010   5.041   0.132
  261SOL    HW1 1682   4.043   5.132   0.108
  261SOL    HW2 1683   3.973   5.043   0.225
  262SOL     OW 1684   1.944   3.766   6.702
  262SOL    HW1 1685   1.848   3.739   6.691
  262SOL    HW2 1686   1.966   3.775   6.799
  263SOL     OW 1687   1.108   6.010   4.003
  263SOL    HW1 1688   1.016   6.037   4.032
  263SOL    HW2 1689   1.104   5.922   3.957
  264SOL     OW 1690   6.997   3.709   6.739
  264SOL    HW1 1691   7.018   3.782   6.805
  264SOL    HW2 1692   0.033   3.716   6.661
  265SOL     OW 1693   6.600   6.995   4.452
  265SOL    HW1 1694   6.684   7.010   4.399
  265SOL    HW2 1695   6.621   6.938   4.532
  266SOL     OW 1696   3.496   0.500   5.986
  266SOL    HW1 1697   3.464   0.495   6.081
  266SOL    HW2 1698   3.480   0.592   5.951
  267SOL     OW 1699   1.545   0.671   4.166
  267SOL    HW1 1700   1.592   0.604   4.109
  267SOL    HW2 1701   1.586   0.672   4.257
  268SOL     OW 1702   3.334   1.003   1.380
  268SOL    HW1 1703   3.332   0.955   1.292
  268SOL    HW2 1704   3.273   0.958   1.444
  269SOL     OW 1705   4.178   1.963   0.101
  269SOL    HW1 1706   4.193   2.040   0.163
  269SOL    HW2 1707   4.264   1.940   0.056
  270SOL     OW 1708   6.095   6.994   0.561
  270SOL    HW1 1709   6.106   6.926   0.488
  270SOL    HW2 1710   6.033   0.039   0.530
  271SOL     OW 1711   1.357   2.977   6.289
  271SOL    HW1 1712   1.419   2.942   6.219
  271SOL    HW2 1713   1.406   3.039   6.350
  272SOL     OW 1714   2.780   6.565   4.020
  272SOL    HW1 1715   2.728   6.622   3.956
  272SOL    HW2 1716   2.816   6.623   4.094
  273SOL     OW 1717   1.777   4.751   6.440
  273SOL    HW1 1718   1.853   4.705   6.393
  273SOL    HW2 1719   1.734   4.687   6.504
  274SOL     OW 1720   4.726   1.978   4.000
  274SOL    HW1 1721   4.692   1.978   3.906
  274SOL    HW2 1722   4.666   2.033   4.058
  275SOL     OW 1723   6.471   6.324   2.144
  275SOL    HW1 1724   6.452   6.383   2.066
  275SOL    HW2 1725   6.429   6.234   2.129
  276SOL     OW 1726   0.624   1.034   4.860
  276SOL    HW1 1727   0.711   0.989   4.839
  276SOL    HW2 1728   0.593   1.005   4.950
  277SOL     OW 1729   2.057   3.813   0.966
  277SOL    HW1 1730   2.029   3.908   0.974
  277SOL    HW2 1731   2.069   3.773   1.057
  278SOL     OW 1732   0.547   2.593   1.830
  278SOL    HW1 1733   0.497   2.508   1.813
  278SOL    HW2 1734   0.503   2.643   1.905
  279SOL     OW 1735   6.090   2.239   4.273
  279SOL    HW1 1736   6.164   2.304   4.252
  279SOL    HW2 1737   6.039   2.218   4.189
  280SOL     OW 1738   1.630   4.620   2.187
  280SOL    HW1 1739   1.659   4.561   2.112
  280SOL    HW2 1740   1.662   4.713   2.171
  281SOL     OW 1741   2.511   4.587   1.095
  281SOL    HW1 1742   2.526   4.653   1.169
  281SOL    HW2 1743   2.593   4.532   1.084
  282SOL     OW 1744   3.050   2.399   6.030
  282SOL    HW1 1745   3.031   2.336   5.955
  282SOL    HW2 1746   3.045   2.493   5.996
  283SOL     OW 1747   4.579   2.555   6.108
  283SOL    HW1 1748   4.598   2.567   6.011
  283SOL    HW2 1749   4.663   2.572   6.160
  284SOL     OW 1750   1.134   3.391   4.224
  284SOL    HW1 1751   1.082   3.463   4.268
  284SOL    HW2 1752   1.183   3.338   4.293
  285SOL     OW 1753   5.453   4.589   4.196
  285SOL    HW1 1754   5.484   4.495   4.186
  285SOL    HW2 1755   5.530   4.647   4.222
  286SOL     OW 1756   2.762   3.697   6.589
  286SOL    HW1 1757   2.799   3.611   6.624
  286SOL    HW2 1758   2.835   3.749   6.545
  287SOL     OW 1759   1.800   3.365   7.018
  287SOL    HW1 1760   1.852   3.402   0.069
  287SOL    HW2 1761   1.857   3.366   6.936
  288SOL     OW 1762   4.955   3.132   0.185
  288SOL    HW1 1763   5.035   3.116   0.127
  288SOL    HW2 1764   4.896   3.200   0.143
  289SOL     OW 1765   3.047   4.816   6.321
  289SOL    HW1 1766   2.963   4.780   6.281
  289SOL    HW2 1767   3.126   4.777   6.274
  290SOL     OW 1768   0.554   1.602   5.288
  290SOL    HW1 1769   0.474   1.569   5.239
  290SOL    HW2 1770   0.586   1.687   5.246
  291SOL     OW 1771   0.274   2.494   2.775
  291SOL    HW1 1772   0.320   2.508   2.862
  291SOL    HW2 1773   0.341   2.469   2.705
  292SOL     OW 1774   1.994   0.201   4.060
  292SOL    HW1 1775   2.079   0.254   4.065
  292SOL    HW2 1776   1.989   0.140   4.140
  293SOL     OW 1777   3.585   4.937   3.462
  293SOL    HW1 1778   3.684   4.925   3.454
  293SOL    HW2 1779   3.544   4.932   3.372
  294SOL     OW 1780   4.640   6.883   6.664
  294SOL    HW1 1781   4.598   6.875   6.754
  294SOL    HW2 1782   4.579   6.844   6.595
  295SOL     OW 1783   5.209   0.007   3.641
  295SOL    HW1 1784   5.213   0.003   3.741
  295SOL    HW2 1785   5.223   6.942   3.604
  296SOL     OW 1786   2.723   1.528   3.538
  296SOL    HW1 1787   2.702   1.610   3.485
  296SOL    HW2 1788   2.743   1.452   3.476
  297SOL     OW 1789   2.152   4.477   3.173
  297SOL    HW1 1790   2.123   4.478   3.078
  297SOL    HW2 1791   2.153   4.571   3.208
  298SOL     OW 1792   5.883   5.029   0.618
  298SOL    HW1 1793   5.856   5.034   0.522
  298SOL    HW2 1794   5.832   4.956   0.663
  299SOL     OW 1795   6.730   2.418   4.571
  299SOL    HW1 1796   6.649   2.461   4.531
  299SOL    HW2 1797   6.734   2.322   4.544
  300SOL     OW 1798   6.035   0.153   2.387
  300SOL    HW1 1799   6.076   0.242   2.366
  300SOL    HW2 1800   6.101   0.098   2.439
  301SOL     OW 1801   5.187   3.809   6.007
  301SOL    HW1 1802   5.153   3.903   5.998
  301SOL    HW2 1803   5.113   3.750   6.037
  302SOL     OW 1804   1.167   0.255   3.560
  302SOL    HW1 1805   1.100   0.191   3.523
  302SOL    HW2 1806   1.119   0.331   3.604
  303SOL     OW 1807   5.988   6.655   3.393
  303SOL    HW1 1808   5.984   6.572   3.337
  303SOL    HW2 1809   5.897   6.671   3.433
  304SOL     OW 1810   3.151   6.970   3.311
  304SOL    HW1 1811   3.229   0.006   3.310
  304SOL    HW2 1812   3.111   6.964   3.220
  305SOL     OW 1813   1.310   3.834   1.847
  305SOL    HW1 1814   1.383   3.813   1.782
  305SOL    HW2 1815   1.344   3.820   1.940
  306SOL     OW 1816   2.423   0.516   3.485
  306SOL    HW1 1817   2.391   0.423   3.467
  306SOL    HW2 1818   2.349   0.581   3.465
  307SOL     OW 1819   3.429   0.176   0.939
  307SOL    HW1 1820   3.349   0.154   0.995
  307SOL    HW2 1821   3.493   0.231   0.992
  308SOL     OW 1822   0.705   5.049   4.571
  308SOL    HW1 1823   0.700   5.089   4.480
  308SOL    HW2 1824   0.632   5.087   4.628
  309SOL     OW 1825   3.902   5.497   5.123
  309SOL    HW1 1826   3.978   5.434   5.109
  309SOL    HW2 1827   3.903   5.531   5.217
  310SOL     OW 1828   0.764   6.886   6.180
  310SOL    HW1 1829   0.808   6.973   6.156
  310SOL    HW2 1830   0.706   6.900   6.261
  311SOL     OW 1831   0.339   0.337   1.619
  311SOL    HW1 1832   0.395   0.268   1.664
  311SOL    HW2 1833   0.278   0.293   1.554
  312SOL     OW 1834   3.912   1.896   4.743
  312SOL    HW1 1835   3.885   1.985   4.781
  312SOL    HW2 1836   3.975   1.911   4.666
  313SOL     OW 1837   0.490   4.858   1.647
  313SOL    HW1 1838   0.473   4.877   1.551
  313SOL    HW2 1839   0.491   4.944   1.699
  314SOL     OW 1840   2.961   6.304   1.396
  314SOL    HW1 1841   2.957   6.404   1.396
  314SOL    HW2 1842   3.036   6.274   1.336
  315SOL     OW 1843   1.058   2.942   3.322
  315SOL    HW1 1844   1.050   3.008   3.248
  315SOL    HW2 1845   0.967   2.911   3.349
  316SOL     OW 1846   2.113   2.694   4.119
  316SOL    HW1 1847   2.038   2.631   4.139
  316SOL    HW2 1848   2.145   2.736   4.204
  317SOL     OW 1849   6.564   1.474   0.138
  317SOL    HW1 1850   6.630   1.528   0.190
  317SOL    HW2 1851   6.482   1.460   0.192
  318SOL     OW 1852   2.182   5.270   1.060
  318SOL    HW1 1853   2.280   5.248   1.054
  318SOL    HW2 1854   2.157   5.279   1.157
  319SOL     OW 1855   1.313   0.110   0.228
  319SOL    HW1 1856   1.397   0.159   0.206
  319SOL    HW2 1857   1.272   0.074   0.145
  320SOL     OW 1858   4.984   4.076   0.711
  320SOL    HW1 1859   4.937   4.076   0.623
  320SOL    HW2 1860   5.049   4.001   0.714
  321SOL     OW 1861   2.006   1.357   1.094
  321SOL    HW1 1862   2.084   1.347   1.033
  321SOL    HW2 1863   1.968   1.267   1.114
  322SOL     OW 1864   3.414   2.851   4.851
  322SOL    HW1 1865   3.337   2.914   4.856
  322SOL    HW2 1866   3.390   2.766   4.898
  323SOL     OW 1867   0.609   4.158   1.996
  323SOL    HW1 1868   0.684   4.092   2.001
  323SOL    HW2 1869   0.527   4.117   2.035
  324SOL     OW 1870   0.738   3.071   4.199
  324SOL    HW1 1871   0.713   3.122   4.281
  324SOL    HW2 1872   0.810   3.122   4.150
  325SOL     OW 1873   2.512   2.453   3.202
  325SOL    HW1 1874   2.458   2.390   3.258
  325SOL    HW2 1875   2.600   2.411   3.181
  326SOL     OW 1876   2.673   4.163   5.894
  326SOL    HW1 1877   2.739   4.222   5.847
  326SOL    HW2 1878   2.723   4.095   5.948
  327SOL     OW 1879   6.524   5.209   5.702
  327SOL    HW1 1880   6.435   5.222   5.659
  327SOL    HW2 1881   6.575   5.139   5.652
  328SOL     OW 1882   2.786   5.772   1.710
  328SOL    HW1 1883   2.829   5.860   1.727
  328SOL    HW2 1884   2.717   5.753   1.781
  329SOL     OW 1885   3.454   3.272   2.272
  329SOL    HW1 1886   3.447   3.362   2.316
  329SOL    HW2 1887   3.501   3.209   2.333
  330SOL     OW 1888   3.786   1.207   2.024
  330SOL    HW1 1889   3.791   1.219   1.924
  330SOL    HW2 1890   3.868   1.246   2.066
  331SOL     OW 1891   5.548   5.222   6.255
  331SOL    HW1 1892   5.526   5.198   6.161
  331SOL    HW2 1893   5.648   5.221   6.267
  332SOL     OW 1894   4.134   1.992   3.400
  332SOL    HW1 1895   4.158   1.934   3.478
  332SOL    HW2 1896   4.194   1.972   3.323
  333SOL     OW 1897   3.928   6.204   0.121
  333SOL    HW1 1898   3.958   6.116   0.159
  333SOL    HW2 1899   4.008   6.262   0.104
  334SOL     OW 1900   4.447   6.643   2.706
  334SOL    HW1 1901   4.511   6.566   2.709
  334SOL    HW2 1902   4.412   6.653   2.613
  335SOL     OW 1903   3.251   6.676   3.310
  335SOL    HW1 1904   3.235   6.771   3.337
  335SOL    HW2 1905   3.167   6.638   3.271
  336SOL     OW 1906   3.039   0.559   5.137
  336SOL    HW1 1907   3.033   0.632   5.069
  336SOL    HW2 1908   3.110   0.494   5.110
  337SOL     OW 1909   0.530   4.078   1.220
  337SOL    HW1 1910   0.587   4.161   1.229
  337SOL    HW2 1911   0.504   4.066   1.124
  338SOL     OW 1912   3.198   2.455   1.703
  338SOL    HW1 1913   3.102   2.459   1.728
  338SOL    HW2 1914   3.247   2.530   1.747
  339SOL     OW 1915   4.060   0.363   2.894
  339SOL    HW1 1916   4.077   0.448   2.844
  339SOL    HW2 1917   4.115   0.289   2.854
  340SOL     OW 1918   4.877   3.647   4.295
  340SOL    HW1 1919   4.956   3.586   4.305
  340SOL    HW2 1920   4.899   3.719   4.230
  341SOL     OW 1921   5.475   5.219   5.396
  341SOL    HW1 1922   5.407   5.275   5.347
  341SOL    HW2 1923   5.566   5.236   5.357
  342SOL     OW 1924   5.437   3.563   0.258
  342SOL    HW1 1925   5.535   3.565   0.279
  342SOL    HW2 1926   5.397   3.480   0.296
  343SOL     OW 1927   2.608   0.722   3.374
  343SOL    HW1 1928   2.560   0.801   3.336
  343SOL    HW2 1929   2.542   0.652   3.402
  344SOL     OW 1930   3.651   5.100   0.199
  344SOL    HW1 1931   3.612   5.040   0.269
  344SOL    HW2 1932   3.623   5.068   0.109
  345SOL     OW 1933   0.888   6.607   5.749
  345SOL    HW1 1934   0.899   6.509   5.764
  345SOL    HW2 1935   0.950   6.657   5.810
  346SOL     OW 1936   2.635   0.081   4.032
  346SOL    HW1 1937   2.537   0.092   4.015
  346SOL    HW2 1938   2.685   0.096   3.947
  347SOL     OW 1939   4.879   6.119   5.905
  347SOL    HW1 1940   4.978   6.121   5.912
  347SOL    HW2 1941   4.853   6.123   5.808
  348SOL     OW 1942   3.042   5.809   2.474
  348SOL    HW1 1943   2.959   5.798   2.528
  348SOL    HW2 1944   3.073   5.721   2.440
  349SOL     OW 1945   2.216   4.813   1.762
  349SOL    HW1 1946   2.204   4.714   1.753
  349SOL    HW2 1947   2.192   4.841   1.855
  350SOL     OW 1948   4.386   3.123   1.155
  350SOL    HW1 1949   4.331   3.173   1.223
  350SOL    HW2 1950   4.366   3.025   1.162
  351SOL     OW 1951   3.379   1.702   0.337
  351SOL    HW1 1952   3.344   1.688   0.244
  351SOL    HW2 1953   3.350   1.626   0.395
  352SOL     OW 1954   3.762   1.239   6.491
  352SOL    HW1 1955   3.805   1.328   6.478
  352SOL    HW2 1956   3.669   1.242   6.455
  353SOL     OW 1957   1.667   0.247   1.117
  353SOL    HW1 1958   1.689   0.280   1.025
  353SOL    HW2 1959   1.706   0.156   1.130
  354SOL     OW 1960   4.774   1.503   1.999
  354SOL    HW1 1961   4.739   1.586   1.955
  354SOL    HW2 1962   4.872   1.513   2.016
  355SOL     OW 1963   1.925   1.393   2.270
  355SOL    HW1 1964   1.907   1.304   2.310
  355SOL    HW2 1965   1.968   1.453   2.338
  356SOL     OW 1966   3.716   5.855   2.828
  356SOL    HW1 1967   3.664   5.861   2.743
  356SOL    HW2 1968   3.813   5.873   2.808
  357SOL     OW 1969   1.766   4.431   5.690
  357SOL    HW1 1970   1.718   4.513   5.657
  357SOL    HW2 1971   1.861   4.434   5.660
  358SOL     OW 1972   5.156   1.709   2.158
  358SOL    HW1 1973   5.188   1.798   2.128
  358SOL    HW2 1974   5.159   1.645   2.081
  359SOL     OW 1975   1.346   1.780   1.397
  359SOL    HW1 1976   1.392   1.860   1.358
  359SOL    HW2 1977   1.414   1.721   1.441
  360SOL     OW 1978   4.557   6.411   1.237
  360SOL    HW1 1979   4.657   6.406   1.235
  360SOL    HW2 1980   4.527   6.459   1.319
  361SOL     OW 1981   3.921   0.600   3.262
  361SOL    HW1 1982   3.917   0.694   3.229
  361SOL    HW2 1983   3.990   0.549   3.211
  362SOL     OW 1984   2.987   3.915   0.921
  362SOL    HW1 1985   3.012   4.006   0.888
  362SOL    HW2 1986   2.983   3.852   0.844
  363SOL     OW 1987   4.311   4.659   4.124
  363SOL    HW1 1988   4.297   4.663   4.223
  363SOL    HW2 1989   4.225   4.678   4.077
  364SOL     OW 1990   1.823   6.189   5.850
  364SOL    HW1 1991   1.750   6.216   5.913
  364SOL    HW2 1992   1.891   6.135   5.899
  365SOL     OW 1993   4.800   6.339   2.808
  365SOL    HW1 1994   4.705   6.346   2.777
  365SOL    HW2 1995   4.808   6.375   2.901
  366SOL     OW 1996   5.083   6.524   0.561
  366SOL    HW1 1997   5.139   6.453   0.602
  366SOL    HW2 1998   5.070   6.599   0.626
  367SOL     OW 1999   4.931   2.001   1.656
  367SOL    HW1 2000   4.981   2.046   1.581
  367SOL    HW2 2001   4.834   1.998   1.634
  368SOL     OW 2002   1.501   5.020   5.608
  368SOL    HW1 2003   1.462   5.015   5.516
  368SOL    HW2 2004   1.430   5.003   5.676
  369SOL     OW 2005   0.770   3.598   1.229
  369SOL    HW1 2006   0.767   3.698   1.223
  369SOL    HW2 2007   0.745   3.569   1.321
  370SOL     OW 2008   3.551   1.051   6.200
  370SOL    HW1 2009   3.619   1.080   6.132
  370SOL    HW2 2010   3.535   1.125   6.265
  371SOL     OW 2011   4.120   2.904   6.338
  371SOL    HW1 2012   4.141   2.830   6.402
  371SOL    HW2 2013   4.183   2.901   6.261
  372SOL     OW 2014   1.550   5.262   6.737
  372SOL    HW1 2015   1.470   5.226   6.787
  372SOL    HW2 2016   1.603   5.185   6.702
  373SOL     OW 2017   6.708   6.508   0.924
  373SOL    HW1 2018   6.674   6.580   0.984
  373SOL    HW2 2019   6.787   6.464   0.966
  374SOL     OW 2020   3.811   1.143   0.930
  374SOL    HW1 2021   3.851   1.168   0.842
  374SOL    HW2 2022   3.884   1.119   0.995
  375SOL     OW 2023   6.649   4.127   1.650
  375SOL    HW1 2024   6.614   4.056   1.588
  375SOL    HW2 2025   6.587   4.205   1.648
  376SOL     OW 2026   2.146   3.086   4.340
  376SOL    HW1 2027   2.143   3.137   4.254
  376SOL    HW2 2028   2.162   3.149   4.416
  377SOL     OW 2029   5.020   1.538   4.549
  377SOL    HW1 2030   4.958   1.569   4.621
  377SOL    HW2 2031   4.966   1.508   4.470
  378SOL     OW 2032   4.512   2.565   4.273
  378SOL    HW1 2033   4.517   2.562   4.373
  378SOL    HW2 2034   4.448   2.495   4.241
  379SOL     OW 2035   6.943   3.079   1.576
  379SOL    HW1 2036   7.022   3.099   1.518
  379SOL    HW2 2037   6.946   3.138   1.657
  380SOL     OW 2038   1.413   2.118   0.068
  380SOL    HW1 2039   1.445   2.200   0.116
  380SOL    HW2 2040   1.491   2.056   0.053
  381SOL     OW 2041   3.364   4.206   0.224
  381SOL    HW1 2042   3.395   4.301   0.213
  381SOL    HW2 2043   3.442   4.148   0.249
  382SOL     OW 2044   1.979   5.234   0.883
  382SOL    HW1 2045   2.058   5.230   0.945
  382SOL    HW2 2046   1.933   5.145   0.881
  383SOL     OW 2047   6.391   2.238   6.898
  383SOL    HW1 2048   6.398   2.318   6.838
  383SOL    HW2 2049   6.471   2.235   6.959
  384SOL     OW 2050   2.097   5.354   5.152
  384SOL    HW1 2051   2.000   5.356   5.174
  384SOL    HW2 2052   2.113   5.410   5.070
  385SOL     OW 2053   4.967   5.231   1.328
  385SOL    HW1 2054   4.906   5.214   1.250
  385SOL    HW2 2055   4.982   5.329   1.337
  386SOL     OW 2056   2.811   7.020   4.767
  386SOL    HW1 2057   2.857   6.931   4.773
  386SOL    HW2 2058   2.802   0.020   4.672
  387SOL     OW 2059   6.951   0.226   6.035
  387SOL    HW1 2060   6.992   0.146   5.994
  387SOL    HW2 2061   6.883   0.198   6.103
  388SOL     OW 2062   0.413   2.475   5.035
  388SOL    HW1 2063   0.473   2.412   5.084
  388SOL    HW2 2064   0.418   2.456   4.937
  389SOL     OW 2065   4.901   4.489   1.887
  389SOL    HW1 2066   4.873   4.585   1.889
  389SOL    HW2 2067   4.826   4.433   1.852
  390SOL     OW 2068   3.631   2.551   0.133
  390SOL    HW1 2069   3.559   2.494   0.091
  390SOL    HW2 2070   3.714   2.545   0.077
  391SOL     OW 2071   3.688   4.138   4.062
  391SOL    HW1 2072   3.763   4.201   4.083
  391SOL    HW2 2073   3.665   4.084   4.143
  392SOL     OW 2074   1.470   4.203   1.477
  392SOL    HW1 2075   1.376   4.234   1.491
  392SOL    HW2 2076   1.478   4.108   1.507
  393SOL     OW 2077   1.357   5.759   1.347
  393SOL    HW1 2078   1.355   5.823   1.270
  393SOL    HW2 2079   1.272   5.706   1.348
  394SOL     OW 2080   6.324   1.092   6.536
  394SOL    HW1 2081   6.256   1.156   6.573
  394SOL    HW2 2082   6.406   1.143   6.511
  395SOL     OW 2083   5.815   4.771   0.697
  395SOL    HW1 2084   5.908   4.805   0.710
  395SOL    HW2 2085   5.817   4.686   0.644
  396SOL     OW 2086   1.324   0.230   1.430
  396SOL    HW1 2087   1.380   0.265   1.505
  396SOL    HW2 2088   1.235   0.277   1.430
  397SOL     OW 2089   4.130   1.733   4.864
  397SOL    HW1 2090   4.145   1.758   4.960
  397SOL    HW2 2091   4.135   1.815   4.807
  398SOL     OW 2092   0.432   0.605   3.341
  398SOL    HW1 2093   0.482   0.600   3.427
  398SOL    HW2 2094   0.471   0.676   3.283
  399SOL     OW 2095   5.778   5.770   3.765
  399SOL    HW1 2096   5.791   5.847   3.703
  399SOL    HW2 2097   5.751   5.804   3.856
  400SOL     OW 2098   6.130   6.852   3.485
  400SOL    HW1 2099   6.062   6.788   3.451
  400SOL    HW2 2100   6.169   6.817   3.570
  401SOL     OW 2101   0.748   5.486   5.170
  401SOL    HW1 2102   0.764   5.415   5.239
  401SOL    HW2 2103   0.651   5.509   5.168
  402SOL     OW 2104   5.453   1.854   4.096
  402SOL    HW1 2105   5.382   1.925   4.097
  402SOL    HW2 2106   5.438   1.790   4.171
  403SOL     OW 2107   2.748   2.004   5.406
  403SOL    HW1 2108   2.724   1.974   5.313
  403SOL    HW2 2109   2.685   1.965   5.472
  404SOL     OW 2110   3.234   5.906   3.736
  404SOL    HW1 2111   3.316   5.915   3.792
  404SOL    HW2 2112   3.255   5.851   3.655
  405SOL     OW 2113   2.773   5.160   4.432
  405SOL    HW1 2114   2.774   5.239   4.494
  405SOL    HW2 2115   2.866   5.140   4.401
  406SOL     OW 2116   0.430   0.278   6.007
  406SOL    HW1 2117   0.349   0.332   6.031
  406SOL    HW2 2118   0.407   0.217   5.931
  407SOL     OW 2119   2.277   2.913   3.946
  407SOL    HW1 2120   2.202   2.846   3.950
  407SOL    HW2 2121   2.358   2.875   3.990
  408SOL     OW 2122   2.194   2.252   3.012
  408SOL    HW1 2123   2.115   2.208   3.056
  408SOL    HW2 2124   2.170   2.346   2.989
  409SOL     OW 2125   0.392   2.886   2.671
  409SOL    HW1 2126   0.411   2.973   2.718
  409SOL    HW2 2127   0.367   2.904   2.576
  410SOL     OW 2128   1.789   2.417   1.639
  410SOL    HW1 2129   1.742   2.505   1.630
  410SOL    HW2 2130   1.755   2.353   1.571
  411SOL     OW 2131   6.560   2.072   0.737
  411SOL    HW1 2132   6.482   2.081   0.675
  411SOL    HW2 2133   6.534   2.108   0.827
  412SOL     OW 2134   1.673   5.001   2.785
  412SOL    HW1 2135   1.704   5.096   2.790
  412SOL    HW2 2136   1.753   4.941   2.776
  413SOL     OW 2137   6.407   5.213   1.650
  413SOL    HW1 2138   6.390   5.118   1.625
  413SOL    HW2 2139   6.349   5.239   1.727
  414SOL     OW 2140   2.044   0.328   3.202
  414SOL    HW1 2141   2.051   0.293   3.109
  414SOL    HW2 2142   1.949   0.324   3.232
  415SOL     OW 2143   5.464   1.525   6.773
  415SOL    HW1 2144   5.497   1.432   6.789
  415SOL    HW2 2145   5.537   1.579   6.729
  416SOL     OW 2146   5.964   3.215   5.962
  416SOL    HW1 2147   6.004   3.302   5.933
  416SOL    HW2 2148   5.865   3.225   5.973
  417SOL     OW 2149   2.019   2.070   6.406
  417SOL    HW1 2150   1.981   2.124   6.331
  417SOL    HW2 2151   1.951   2.061   6.479
  418SOL     OW 2152   3.403   6.984   5.227
  418SOL    HW1 2153   3.426   6.930   5.308
  418SOL    HW2 2154   3.319   6.947   5.185
  419SOL     OW 2155   6.361   0.410   0.439
  419SOL    HW1 2156   6.394   0.504   0.444
  419SOL    HW2 2157   6.402   0.364   0.360
  420SOL     OW 2158   3.641   6.723   0.812
  420SOL    HW1 2159   3.665   6.820   0.820
  420SOL    HW2 2160   3.715   6.674   0.768
  421SOL     OW 2161   4.795   4.144   2.823
  421SOL    HW1 2162   4.717   4.109   2.771
  421SOL    HW2 2163   4.813   4.239   2.797
  422SOL     OW 2164   4.861   2.446   1.644
  422SOL    HW1 2165   4.946   2.466   1.691
  422SOL    HW2 2166   4.828   2.529   1.599
  423SOL     OW 2167   2.996   1.213   5.920
  423SOL    HW1 2168   2.998   1.288   5.854
  423SOL    HW2 2169   2.918   1.154   5.901
  424SOL     OW 2170   1.962   3.668   4.109
  424SOL    HW1 2171   1.957   3.574   4.143
  424SOL    HW2 2172   1.953   3.732   4.186
  425SOL     OW 2173   3.761   1.050   0.035
  425SOL    HW1 2174   3.837   1.116   0.041
  425SOL    HW2 2175   3.793   0.967   7.016
  426SOL     OW 2176   2.909   2.253   4.406
  426SOL    HW1 2177   2.888   2.319   4.478
  426SOL    HW2 2178   3.005   2.226   4.412
  427SOL     OW 2179   5.028   2.073   3.478
  427SOL    HW1 2180   4.992   2.099   3.568
  427SOL    HW2 2181   5.087   2.145   3.443
  428SOL     OW 2182   2.827   2.525   6.686
  428SOL    HW1 2183   2.742   2.548   6.637
  428SOL    HW2 2184   2.859   2.605   6.736
  429SOL     OW 2185   0.197   5.989   3.968
  429SOL    HW1 2186   0.210   6.000   3.870
  429SOL    HW2 2187   0.228   5.898   3.996
  430SOL     OW 2188   1.872   6.900   4.474
  430SOL    HW1 2189   1.809   6.961   4.521
  430SOL    HW2 2190   1.821   6.828   4.427
  431SOL     OW 2191   2.848   1.896   1.050
  431SOL    HW1 2192   2.830   1.822   0.985
  431SOL    HW2 2193   2.942   1.889   1.083
  432SOL     OW 2194   4.898   1.625   1.281
  432SOL    HW1 2195   4.890   1.710   1.334
  432SOL    HW2 2196   4.813   1.609   1.231
  433SOL     OW 2197   1.830   4.504   0.585
  433SOL    HW1 2198   1.926   4.480   0.595
  433SOL    HW2 2199   1.775   4.449   0.648
  434SOL     OW 2200   4.465   5.300   3.225
  434SOL    HW1 2201   4.552   5.272   3.267
  434SOL    HW2 2202   4.421   5.369   3.282
  435SOL     OW 2203   3.719   2.841   6.011
  435SOL    HW1 2204   3.810   2.882   6.022
  435SOL    HW2 2205   3.722   2.746   6.043
  436SOL     OW 2206   5.330   5.844   1.805
  436SOL    HW1 2207   5.370   5.931   1.833
  436SOL    HW2 2208   5.311   5.788   1.886
  437SOL     OW 2209   6.430   1.388   5.264
  437SOL    HW1 2210   6.455   1.319   5.196
  437SOL    HW2 2211   6.331   1.404   5.260
  438SOL     OW 2212   0.590   4.540   2.869
  438SOL    HW1 2213   0.503   4.561   2.914
  438SOL    HW2 2214   0.586   4.569   2.774
  439SOL     OW 2215   6.966   0.626   5.280
  439SOL    HW1 2216   7.019   0.584   5.353
  439SOL    HW2 2217   0.001   0.651   5.205
  440SOL     OW 2218   4.355   1.888   0.450
  440SOL    HW1 2219   4.411   1.875   0.368
  440SOL    HW2 2220   4.414   1.917   0.526
  441SOL     OW 2221   0.614   4.609   2.324
  441SOL    HW1 2222   0.572   4.619   2.234
  441SOL    HW2 2223   0.563   4.663   2.391
  442SOL     OW 2224   4.124   3.345   5.023
  442SOL    HW1 2225   4.185   3.285   4.971
  442SOL    HW2 2226   4.134   3.326   5.121
  443SOL     OW 2227   4.751   2.757   3.218
  443SOL    HW1 2228   4.845   2.779   3.192
  443SOL    HW2 2229   4.693   2.759   3.137
  444SOL     OW 2230   4.023   2.081   1.580
  444SOL    HW1 2231   3.985   1.988   1.579
  444SOL    HW2 2232   3.987   2.132   1.501
  445SOL     OW 2233   2.029   5.435   2.946
  445SOL    HW1 2234   2.047   5.471   3.037
  445SOL    HW2 2235   1.973   5.353   2.953
  446SOL     OW 2236   6.532   0.112   1.813
  446SOL    HW1 2237   6.526   0.059   1.897
  446SOL    HW2 2238   6.619   0.162   1.811
  447SOL     OW 2239   5.690   4.157   0.697
  447SOL    HW1 2240   5.621   4.194   0.759
  447SOL    HW2 2241   5.764   4.118   0.751
  448SOL     OW 2242   3.358   6.463   3.800
  448SOL    HW1 2243   3.424   6.530   3.834
  448SOL    HW2 2244   3.371   6.449   3.702
  449SOL     OW 2245   1.481   4.117   4.719
  449SOL    HW1 2246   1.416   4.096   4.791
  449SOL    HW2 2247   1.558   4.053   4.723
  450SOL     OW 2248   6.886   4.142   3.098
  450SOL    HW1 2249   6.891   4.242   3.105
  450SOL    HW2 2250   6.850   4.104   3.183
  451SOL     OW 2251   1.345   1.934   0.610
  451SOL    HW1 2252   1.379   1.943   0.516
  451SOL    HW2 2253   1.398   1.864   0.658
  452SOL     OW 2254   4.316   5.288   2.442
  452SOL    HW1 2255   4.395   5.232   2.419
  452SOL    HW2 2256   4.338   5.385   2.431
  453SOL     OW 2257   3.834   1.349   0.117
  453SOL    HW1 2258   3.811   1.351   0.019
  453SOL    HW2 2259   3.856   1.442   0.148
  454SOL     OW 2260   0.203   3.476   4.372
  454SOL    HW1 2261   0.216   3.389   4.420
  454SOL    HW2 2262   0.282   3.535   4.388
  455SOL     OW 2263   5.230   5.670   6.211
  455SOL    HW1 2264   5.319   5.688   6.169
  455SOL    HW2 2265   5.235   5.689   6.309
  456SOL     OW 2266   2.423   0.620   2.466
  456SOL    HW1 2267   2.460   0.621   2.559
  456SOL    HW2 2268   2.474   0.556   2.410
  457SOL     OW 2269   2.444   6.583   0.116
  457SOL    HW1 2270   2.541   6.558   0.111
  457SOL    HW2 2271   2.397   6.549   0.034
  458SOL     OW 2272   3.642   1.317   3.105
  458SOL    HW1 2273   3.625   1.232   3.156
  458SOL    HW2 2274   3.569   1.329   3.037
  459SOL     OW 2275   3.160   0.547   3.276
  459SOL    HW1 2276   3.257   0.549   3.300
  459SOL    HW2 2277   3.141   0.620   3.210
  460SOL     OW 2278   0.579   1.542   6.163
  460SOL    HW1 2279   0.589   1.595   6.247
  460SOL    HW2 2280   0.667   1.540   6.114
  461SOL     OW 2281   0.952   5.992   5.399
  461SOL    HW1 2282   1.017   6.054   5.354
  461SOL    HW2 2283   0.879   6.045   5.441
  462SOL     OW 2284   2.987   3.954   5.012
  462SOL    HW1 2285   2.940   3.928   5.097
  462SOL    HW2 2286   2.924   3.946   4.935
  463SOL     OW 2287   6.029   6.188   3.508
  463SOL    HW1 2288   5.936   6.172   3.541
  463SOL    HW2 2289   6.032   6.275   3.459
  464SOL     OW 2290   4.323   5.628   5.097
  464SOL    HW1 2291   4.307   5.724   5.074
  464SOL    HW2 2292   4.296   5.570   5.020
  465SOL     OW 2293   0.354   4.523   0.121
  465SOL    HW1 2294   0.392   4.436   0.152
  465SOL    HW2 2295   0.360   4.529   0.022
  466SOL     OW 2296   4.283   5.174   3.807
  466SOL    HW1 2297   4.206   5.146   3.750
  466SOL    HW2 2298   4.255   5.250   3.866
  467SOL     OW 2299   6.511   0.478   1.960
  467SOL    HW1 2300   6.501   0.568   1.918
  467SOL    HW2 2301   6.426   0.426   1.949
  468SOL     OW 2302   2.631   5.949   6.230
  468SOL    HW1 2303   2.662   6.044   6.232
  468SOL    HW2 2304   2.574   5.930   6.310
  469SOL     OW 2305   2.883   4.904   5.004
  469SOL    HW1 2306   2.912   4.916   5.099
  469SOL    HW2 2307   2.864   4.807   4.987
  470SOL     OW 2308   1.844   4.844   3.414
  470SOL    HW1 2309   1.938   4.853   3.381
  470SOL    HW2 2310   1.820   4.748   3.419
  471SOL     OW 2311   1.888   2.017   3.996
  471SOL    HW1 2312   1.837   2.053   4.075
  471SOL    HW2 2313   1.901   2.090   3.929
  472SOL     OW 2314   5.523   3.867   6.493
  472SOL    HW1 2315   5.452   3.797   6.494
  472SOL    HW2 2316   5.532   3.904   6.400
  473SOL     OW 2317   5.286   3.289   2.566
  473SOL    HW1 2318   5.292   3.221   2.493
  473SOL    HW2 2319   5.291   3.242   2.655
  474SOL     OW 2320   5.195   5.344   4.112
  474SOL    HW1 2321   5.186   5.354   4.013
  474SOL    HW2 2322   5.292   5.347   4.137
  475SOL     OW 2323   5.883   1.311   1.144
  475SOL    HW1 2324   5.899   1.395   1.196
  475SOL    HW2 2325   5.945   1.239   1.176
  476SOL     OW 2326   1.469   4.198   6.606
  476SOL    HW1 2327   1.466   4.164   6.512
  476SOL    HW2 2328   1.377   4.223   6.635
  477SOL     OW 2329   0.862   5.366   3.200
  477SOL    HW1 2330   0.869   5.452   3.252
  477SOL    HW2 2331   0.946   5.350   3.150
  478SOL     OW 2332   6.203   6.335   3.118
  478SOL    HW1 2333   6.292   6.324   3.163
  478SOL    HW2 2334   6.190   6.262   3.051
  479SOL     OW 2335   2.855   3.418   2.603
  479SOL    HW1 2336   2.792   3.421   2.681
  479SOL    HW2 2337   2.896   3.508   2.590
  480SOL     OW 2338   1.013   0.728   2.607
  480SOL    HW1 2339   0.963   0.806   2.570
  480SOL    HW2 2340   0.959   0.686   2.680
  481SOL     OW 2341   5.964   6.869   1.160
  481SOL    HW1 2342   5.961   6.786   1.216
  481SOL    HW2 2343   6.059   6.894   1.142
  482SOL     OW 2344   4.151   5.069   2.794
  482SOL    HW1 2345   4.167   5.164   2.767
  482SOL    HW2 2346   4.058   5.042   2.768
  483SOL     OW 2347   5.728   1.014   4.078
  483SOL    HW1 2348   5.822   0.997   4.048
  483SOL    HW2 2349   5.702   0.946   4.147
  484SOL     OW 2350   1.849   5.118   3.821
  484SOL    HW1 2351   1.830   5.215   3.829
  484SOL    HW2 2352   1.895   5.100   3.734
  485SOL     OW 2353   5.336   2.067   1.060
  485SOL    HW1 2354   5.266   2.024   1.116
  485SOL    HW2 2355   5.386   1.998   1.009
  486SOL     OW 2356   6.041   6.771   5.699
  486SOL    HW1 2357   6.073   6.678   5.717
  486SOL    HW2 2358   6.118   6.834   5.709
  487SOL     OW 2359   0.415   0.727   6.750
  487SOL    HW1 2360   0.387   0.733   6.846
  487SOL    HW2 2361   0.455   0.637   6.733
  488SOL     OW 2362   1.824   5.766   3.505
  488SOL    HW1 2363   1.857   5.859   3.491
  488SOL    HW2 2364   1.766   5.762   3.587
  489SOL     OW 2365   2.645   5.473   5.166
  489SOL    HW1 2366   2.704   5.497   5.089
  489SOL    HW2 2367   2.555   5.446   5.133
  490SOL     OW 2368   1.492   3.344   4.717
  490SOL    HW1 2369   1.511   3.383   4.627
  490SOL    HW2 2370   1.522   3.407   4.788
  491SOL     OW 2371   6.053   2.923   0.952
  491SOL    HW1 2372   6.004   2.947   1.035
  491SOL    HW2 2373   5.989   2.920   0.875
  492SOL     OW 2374   1.311   2.487   5.867
  492SOL    HW1 2375   1.358   2.568   5.833
  492SOL    HW2 2376   1.222   2.514   5.904
  493SOL     OW 2377   1.678   5.772   4.462
  493SOL    HW1 2378   1.689   5.704   4.389
  493SOL    HW2 2379   1.756   5.835   4.461
  494SOL     OW 2380   3.061   0.769   4.658
  494SOL    HW1 2381   3.039   0.676   4.628
  494SOL    HW2 2382   3.027   0.835   4.591
  495SOL     OW 2383   3.375   4.291   6.839
  495SOL    HW1 2384   3.308   4.267   6.909
  495SOL    HW2 2385   3.437   4.213   6.823
  496SOL     OW 2386   5.014   1.115   3.333
  496SOL    HW1 2387   4.978   1.128   3.425
  496SOL    HW2 2388   4.963   1.043   3.287
  497SOL     OW 2389   4.521   1.963   0.638
  497SOL    HW1 2390   4.523   1.913   0.725
  497SOL    HW2 2391   4.609   1.952   0.592
  498SOL     OW 2392   0.460   0.545   1.000
  498SOL    HW1 2393   0.535   0.577   1.058
  498SOL    HW2 2394   0.407   0.476   1.048
  499SOL     OW 2395   2.901   6.059   0.327
  499SOL    HW1 2396   2.982   6.057   0.386
  499SOL    HW2 2397   2.824   6.097   0.378
  500SOL     OW 2398   5.610   1.886   6.410
  500SOL    HW1 2399   5.511   1.870   6.419
  500SOL    HW2 2400   5.633   1.975   6.451
  501SOL     OW 2401   1.580   1.432   5.032
  501SOL    HW1 2402   1.645   1.502   5.063
  501SOL    HW2 2403   1.488   1.457   5.061
  502SOL     OW 2404   2.535   4.198   6.980
  502SOL    HW1 2405   2.516   4.134   6.905
  502SOL    HW2 2406   2.529   4.149   0.041
  503SOL     OW 2407   3.463   5.540   1.307
  503SOL    HW1 2408   3.402   5.582   1.373
  503SOL    HW2 2409   3.424   5.550   1.215
  504SOL     OW 2410   6.313   6.410   0.639
  504SOL    HW1 2411   6.231   6.392   0.693
  504SOL    HW2 2412   6.392   6.367   0.683
  505SOL     OW 2413   5.759   5.090   5.372
  505SOL    HW1 2414   5.775   5.145   5.453
  505SOL    HW2 2415   5.692   5.018   5.394
  506SOL     OW 2416   2.958   4.903   2.729
  506SOL    HW1 2417   2.925   4.865   2.815
  506SOL    HW2 2418   3.039   4.959   2.746
  507SOL     OW 2419   3.516   0.476   2.105
  507SOL    HW1 2420   3.482   0.480   2.011
  507SOL    HW2 2421   3.464   0.541   2.161
  508SOL     OW 2422   0.428   4.871   3.426
  508SOL    HW1 2423   0.483   4.792   3.399
  508SOL    HW2 2424   0.429   4.880   3.526
  509SOL     OW 2425   4.378   0.144   6.353
  509SOL    HW1 2426   4.347   0.048   6.350
  509SOL    HW2 2427   4.306   0.203   6.315
  510SOL     OW 2428   6.676   4.131   0.301
  510SOL    HW1 2429   6.665   4.194   0.377
  510SOL    HW2 2430   6.737   4.171   0.233
  511SOL     OW 2431   0.736   1.392   6.919
  511SOL    HW1 2432   0.706   1.457   6.849
  511SOL    HW2 2433   0.835   1.382   6.915
  512SOL     OW 2434   0.288   2.712   3.869
  512SOL    HW1 2435   0.228   2.643   3.829
  512SOL    HW2 2436   0.334   2.674   3.950
  513SOL     OW 2437   5.287   6.730   3.005
  513SOL    HW1 2438   5.375   6.777   3.000
  513SOL    HW2 2439   5.216   6.788   2.965
  514SOL     OW 2440   4.846   1.145   5.051
  514SOL    HW1 2441   4.917   1.105   4.994
  514SOL    HW2 2442   4.868   1.131   5.147
  515SOL     OW 2443   3.457   0.598   0.356
  515SOL    HW1 2444   3.548   0.637   0.372
  515SOL    HW2 2445   3.441   0.591   0.258
  516SOL     OW 2446   1.734   5.919   2.125
  516SOL    HW1 2447   1.819   5.866   2.116
  516SOL    HW2 2448   1.662   5.858   2.158
  517SOL     OW 2449   3.950   5.326   1.742
  517SOL    HW1 2450   3.868   5.372   1.707
  517SOL    HW2 2451   4.017   5.395   1.769
  518SOL     OW 2452   1.854   5.340   4.073
  518SOL    HW1 2453   1.830   5.362   3.979
  518SOL    HW2 2454   1.782   5.284   4.115
  519SOL     OW 2455   6.537   6.987   2.023
  519SOL    HW1 2456   6.469   6.937   2.076
  519SOL    HW2 2457   6.628   6.973   2.063
  520SOL     OW 2458   2.109   4.764   0.542
  520SOL    HW1 2459   2.134   4.806   0.629
  520SOL    HW2 2460   2.089   4.667   0.557
  521SOL     OW 2461   6.123   5.687   5.786
  521SOL    HW1 2462   6.120   5.606   5.729
  521SOL    HW2 2463   6.160   5.764   5.734
  522SOL     OW 2464   3.808   4.171   0.154
  522SOL    HW1 2465   3.873   4.246   0.165
  522SOL    HW2 2466   3.793   4.153   0.057
  523SOL     OW 2467   1.471   6.835   6.347
  523SOL    HW1 2468   1.560   6.848   6.393
  523SOL    HW2 2469   1.467   6.743   6.309
  524SOL     OW 2470   0.185   1.373   0.853
  524SOL    HW1 2471   0.168   1.313   0.775
  524SOL    HW2 2472   0.244   1.449   0.825
  525SOL     OW 2473   0.569   3.199   3.744
  525SOL    HW1 2474   0.613   3.260   3.679
  525SOL    HW2 2475   0.569   3.106   3.709
  526SOL     OW 2476   4.728   0.046   4.192
  526SOL    HW1 2477   4.757   0.133   4.150
  526SOL    HW2 2478   4.632   0.030   4.172
  527SOL     OW 2479   0.646   1.223   1.204
  527SOL    HW1 2480   0.716   1.221   1.275
  527SOL    HW2 2481   0.557   1.202   1.244
  528SOL     OW 2482   0.309   2.642   4.137
  528SOL    HW1 2483   0.354   2.653   4.226
  528SOL    HW2 2484   0.290   2.545   4.121
  529SOL     OW 2485   1.504   0.689   5.986
  529SOL    HW1 2486   1.553   0.690   5.899
  529SOL    HW2 2487   1.563   0.725   6.058
  530SOL     OW 2488   3.361   4.781   1.403
  530SOL    HW1 2489   3.390   4.859   1.348
  530SOL    HW2 2490   3.419   4.773   1.484
  531SOL     OW 2491   1.356   0.216   6.766
  531SOL    HW1 2492   1.330   0.171   6.680
  531SOL    HW2 2493   1.305   0.301   6.775
  532SOL     OW 2494   2.783   1.025   5.799
  532SOL    HW1 2495   2.767   1.079   5.717
  532SOL    HW2 2496   2.695   0.999   5.840
  533SOL     OW 2497   4.041   0.202   4.087
  533SOL    HW1 2498   4.075   0.164   4.173
  533SOL    HW2 2499   4.010   0.296   4.102
  534SOL     OW 2500   1.747   3.976   1.855
  534SOL    HW1 2501   1.778   3.896   1.907
  534SOL    HW2 2502   1.703   4.041   1.917
  535SOL     OW 2503   5.174   3.797   4.427
  535SOL    HW1 2504   5.095   3.781   4.486
  535SOL    HW2 2505   5.229   3.713   4.422
  536SOL     OW 2506   6.483   6.313   1.511
  536SOL    HW1 2507   6.551   6.375   1.549
  536SOL    HW2 2508   6.504   6.220   1.539
  537SOL     OW 2509   2.722   1.727   2.094
  537SOL    HW1 2510   2.800   1.786   2.114
  537SOL    HW2 2511   2.677   1.701   2.180
  538SOL     OW 2512   3.928   4.880   5.179
  538SOL    HW1 2513   4.026   4.889   5.197
  538SOL    HW2 2514   3.914   4.834   5.092
  539SOL     OW 2515   1.998   0.090   6.553
  539SOL    HW1 2516   1.904   0.075   6.582
  539SOL    HW2 2517   2.060   0.077   6.631
  540SOL     OW 2518   1.624   0.718   5.232
  540SOL    HW1 2519   1.723   0.711   5.224
  540SOL    HW2 2520   1.588   0.774   5.158
  541SOL     OW 2521   5.440   6.184   3.712
  541SOL    HW1 2522   5.460   6.276   3.747
  541SOL    HW2 2523   5.470   6.116   3.779
  542SOL     OW 2524   3.988   6.754   5.775
  542SOL    HW1 2525   3.970   6.794   5.685
  542SOL    HW2 2526   3.901   6.726   5.816
  543SOL     OW 2527   5.997   2.585   3.630
  543SOL    HW1 2528   5.940   2.638   3.692
  543SOL    HW2 2529   5.973   2.488   3.636
  544SOL     OW 2530   1.217   3.132   1.042
  544SOL    HW1 2531   1.251   3.130   0.948
  544SOL    HW2 2532   1.118   3.144   1.041
  545SOL     OW 2533   6.715   5.565   0.853
  545SOL    HW1 2534   6.787   5.527   0.794
  545SOL    HW2 2535   6.625   5.547   0.812
  546SOL     OW 2536   0.371   4.033   1.625
  546SOL    HW1 2537   0.452   4.021   1.567
  546SOL    HW2 2538   0.335   3.944   1.651
  547SOL     OW 2539   4.618   0.327   6.662
  547SOL    HW1 2540   4.591   0.405   6.719
  547SOL    HW2 2541   4.547   0.257   6.668
  548SOL     OW 2542   4.090   3.310   0.449
  548SOL    HW1 2543   4.006   3.351   0.414
  548SOL    HW2 2544   4.161   3.380   0.456
  549SOL     OW 2545   5.498   1.790   2.275
  549SOL    HW1 2546   5.553   1.862   2.233
  549SOL    HW2 2547   5.403   1.800   2.247
  550SOL     OW 2548   6.756   5.709   3.474
  550SOL    HW1 2549   6.714   5.623   3.446
  550SOL    HW2 2550   6.796   5.699   3.566
  551SOL     OW 2551   5.991   0.419   0.061
  551SOL    HW1 2552   5.981   0.494   0.127
  551SOL    HW2 2553   5.919   0.351   0.077
  552SOL     OW 2554   0.829   0.155   5.090
  552SOL    HW1 2555   0.732   0.140   5.074
  552SOL    HW2 2556   0.877   0.067   5.091
  553SOL     OW 2557   3.505   2.585   6.560
  553SOL    HW1 2558   3.583   2.592   6.623
  553SOL    HW2 2559   3.481   2.489   6.549
  554SOL     OW 2560   6.531   5.496   0.670
  554SOL    HW1 2561   6.475   5.433   0.723
  554SOL    HW2 2562   6.476   5.573   0.640
  555SOL     OW 2563   2.865   3.587   5.652
  555SOL    HW1 2564   2.883   3.602   5.555
  555SOL    HW2 2565   2.880   3.672   5.703
  556SOL     OW 2566   6.243   6.686   3.231
  556SOL    HW1 2567   6.160   6.699   3.284
  556SOL    HW2 2568   6.306   6.627   3.281
  557SOL     OW 2569   5.287   4.300   6.369
  557SOL    HW1 2570   5.374   4.310   6.418
  557SOL    HW2 2571   5.295   4.343   6.279
  558SOL     OW 2572   3.556   3.880   2.494
  558SOL    HW1 2573   3.628   3.949   2.484
  558SOL    HW2 2574   3.557   3.843   2.587
  559SOL     OW 2575   6.798   0.518   6.631
  559SOL    HW1 2576   6.844   0.564   6.707
  559SOL    HW2 2577   6.833   0.554   6.544
  560SOL     OW 2578   6.734   2.989   4.312
  560SOL    HW1 2579   6.745   3.004   4.214
  560SOL    HW2 2580   6.639   3.010   4.339
  561SOL     OW 2581   0.520   3.830   0.607
  561SOL    HW1 2582   0.614   3.840   0.640
  561SOL    HW2 2583   0.519   3.773   0.525
  562SOL     OW 2584   4.358   6.523   4.007
  562SOL    HW1 2585   4.350   6.621   4.024
  562SOL    HW2 2586   4.409   6.480   4.082
  563SOL     OW 2587   1.347   0.918   3.860
  563SOL    HW1 2588   1.366   1.016   3.853
  563SOL    HW2 2589   1.426   0.867   3.826
  564SOL     OW 2590   6.285   1.986   6.437
  564SOL    HW1 2591   6.221   1.913   6.461
  564SOL    HW2 2592   6.363   1.948   6.388
  565SOL     OW 2593   3.587   3.242   3.434
  565SOL    HW1 2594   3.512   3.237   3.369
  565SOL    HW2 2595   3.622   3.150   3.452
  566SOL     OW 2596   2.639   1.260   3.661
  566SOL    HW1 2597   2.556   1.229   3.708
  566SOL    HW2 2598   2.654   1.357   3.681
  567SOL     OW 2599   2.457   2.754   5.514
  567SOL    HW1 2600   2.425   2.821   5.581
  567SOL    HW2 2601   2.543   2.713   5.546
  568SOL     OW 2602   0.657   6.278   6.819
  568SOL    HW1 2603   0.672   6.355   6.757
  568SOL    HW2 2604   0.617   6.201   6.769
  569SOL     OW 2605   5.697   3.381   6.794
  569SOL    HW1 2606   5.696   3.357   6.697
  569SOL    HW2 2607   5.683   3.479   6.805
  570SOL     OW 2608   3.367   0.247   5.913
  570SOL    HW1 2609   3.406   0.339   5.920
  570SOL    HW2 2610   3.378   0.199   6.000
  571SOL     OW 2611   2.456   4.751   1.626
  571SOL    HW1 2612   2.525   4.732   1.695
  571SOL    HW2 2613   2.366   4.755   1.668
  572SOL     OW 2614   3.023   0.760   4.969
  572SOL    HW1 2615   3.060   0.736   4.880
  572SOL    HW2 2616   3.017   0.859   4.978
  573SOL     OW 2617   0.481   1.002   5.471
  573SOL    HW1 2618   0.471   0.970   5.565
  573SOL    HW2 2619   0.555   0.952   5.426
  574SOL     OW 2620   2.262   1.095   5.773
  574SOL    HW1 2621   2.308   1.162   5.831
  574SOL    HW2 2622   2.168   1.082   5.805
  575SOL     OW 2623   3.774   3.994   6.913
  575SOL    HW1 2624   3.825   4.066   6.866
  575SOL    HW2 2625   3.837   3.923   6.944
  576SOL     OW 2626   1.611   1.264   2.973
  576SOL    HW1 2627   1.686   1.323   2.944
  576SOL    HW2 2628   1.620   1.175   2.928
  577SOL     OW 2629   0.267   1.038   1.701
  577SOL    HW1 2630   0.312   1.020   1.614
  577SOL    HW2 2631   0.259   0.952   1.753
  578SOL     OW 2632   3.883   6.563   6.897
  578SOL    HW1 2633   3.801   6.621   6.894
  578SOL    HW2 2634   3.856   6.468   6.913
  579SOL     OW 2635   1.341   3.863   2.146
  579SOL    HW1 2636   1.287   3.932   2.194
  579SOL    HW2 2637   1.287   3.780   2.134
  580SOL     OW 2638   4.548   4.866   4.669
  580SOL    HW1 2639   4.552   4.819   4.581
  580SOL    HW2 2640   4.599   4.814   4.737
  581SOL     OW 2641   2.021   2.580   4.379
  581SOL    HW1 2642   2.121   2.576   4.383
  581SOL    HW2 2643   1.984   2.591   4.471
  582SOL     OW 2644   5.894   4.870   4.690
  582SOL    HW1 2645   5.957   4.868   4.613
  582SOL    HW2 2646   5.833   4.791   4.684
  583SOL     OW 2647   3.777   6.298   5.776
  583SOL    HW1 2648   3.782   6.198   5.783
  583SOL    HW2 2649   3.863   6.338   5.810
  584SOL     OW 2650   3.869   0.187   5.044
  584SOL    HW1 2651   3.861   0.277   5.087
  584SOL    HW2 2652   3.808   0.123   5.091
  585SOL     OW 2653   3.494   6.862   1.475
  585SOL    HW1 2654   3.465   6.827   1.386
  585SOL    HW2 2655   3.515   6.786   1.536
  586SOL     OW 2656   3.748   6.992   0.819
  586SOL    HW1 2657   3.795   6.996   0.731
  586SOL    HW2 2658   3.655   0.002   0.809
  587SOL     OW 2659   4.594   1.538   2.405
  587SOL    HW1 2660   4.597   1.456   2.347
  587SOL    HW2 2661   4.648   1.610   2.363
  588SOL     OW 2662   1.778   4.656   2.874
  588SOL    HW1 2663   1.782   4.574   2.930
  588SOL    HW2 2664   1.804   4.735   2.929
  589SOL     OW 2665   3.297   5.548   0.639
  589SOL    HW1 2666   3.277   5.531   0.735
  589SOL    HW2 2667   3.225   5.507   0.583
  590SOL     OW 2668   3.106   1.880   0.157
  590SOL    HW1 2669   3.184   1.941   0.144
  590SOL    HW2 2670   3.139   1.788   0.180
  591SOL     OW 2671   2.570   6.440   3.722
  591SOL    HW1 2672   2.574   6.540   3.731
  591SOL    HW2 2673   2.658   6.407   3.689
  592SOL     OW 2674   4.080   2.213   4.705
  592SOL    HW1 2675   4.081   2.212   4.605
  592SOL    HW2 2676   3.986   2.197   4.737
  593SOL     OW 2677   2.303   1.713   6.827
  593SOL    HW1 2678   2.245   1.787   6.794
  593SOL    HW2 2679   2.376   1.751   6.884
  594SOL     OW 2680   4.552   1.181   2.890
  594SOL    HW1 2681   4.620   1.147   2.823
  594SOL    HW2 2682   4.593   1.254   2.944
  595SOL     OW 2683   6.252   4.876   2.837
  595SOL    HW1 2684   6.183   4.853   2.905
  595SOL    HW2 2685   6.275   4.973   2.845
  596SOL     OW 2686   6.486   4.966   4.390
  596SOL    HW1 2687   6.584   4.967   4.371
  596SOL    HW2 2688   6.447   4.882   4.354
  597SOL     OW 2689   3.372   1.435   6.599
  597SOL    HW1 2690   3.445   1.450   6.666
  597SOL    HW2 2691   3.395   1.483   6.514
  598SOL     OW 2692   3.400   4.120   3.597
  598SOL    HW1 2693   3.441   4.149   3.683
  598SOL    HW2 2694   3.470   4.122   3.525
  599SOL     OW 2695   1.640   5.262   1.737
  599SOL    HW1 2696   1.613   5.313   1.818
  599SOL    HW2 2697   1.559   5.235   1.686
  600SOL     OW 2698   6.940   3.448   5.433
  600SOL    HW1 2699   6.857   3.459   5.487
  600SOL    HW2 2700   6.935   3.362   5.381
  601SOL     OW 2701   0.413   6.252   5.950
  601SOL    HW1 2702   0.449   6.335   5.908
  601SOL    HW2 2703   0.484   6.210   6.006
  602SOL     OW 2704   1.677   0.561   3.512
  602SOL    HW1 2705   1.654   0.658   3.514
  602SOL    HW2 2706   1.676   0.524   3.605
  603SOL     OW 2707   1.857   1.628   4.232
  603SOL    HW1 2708   1.839   1.677   4.318
  603SOL    HW2 2709   1.897   1.538   4.253
  604SOL     OW 2710   5.830   3.012   1.075
  604SOL    HW1 2711   5.895   3.014   1.151
  604SOL    HW2 2712   5.766   2.937   1.088
  605SOL     OW 2713   6.352   6.362   1.280
  605SOL    HW1 2714   6.289   6.437   1.299
  605SOL    HW2 2715   6.402   6.338   1.362
  606SOL     OW 2716   3.810   6.793   5.026
  606SOL    HW1 2717   3.777   6.725   5.091
  606SOL    HW2 2718   3.777   6.884   5.053
  607SOL     OW 2719   1.782   3.028   6.103
  607SOL    HW1 2720   1.779   2.989   6.011
  607SOL    HW2 2721   1.787   2.953   6.170
  608SOL     OW 2722   3.290   1.194   5.919
  608SOL    HW1 2723   3.194   1.212   5.899
  608SOL    HW2 2724   3.302   1.098   5.946
  609SOL     OW 2725   3.772   3.065   2.375
  609SOL    HW1 2726   3.761   3.027   2.284
  609SOL    HW2 2727   3.848   3.019   2.422
  610SOL     OW 2728   4.625   3.639   1.597
  610SOL    HW1 2729   4.713   3.662   1.638
  610SOL    HW2 2730   4.638   3.568   1.527
  611SOL     OW 2731   4.121   1.440   2.973
  611SOL    HW1 2732   4.163   1.373   2.911
  611SOL    HW2 2733   4.052   1.395   3.029
  612SOL     OW 2734   4.856   4.944   3.548
  612SOL    HW1 2735   4.888   4.943   3.453
  612SOL    HW2 2736   4.768   4.897   3.554
  613SOL     OW 2737   3.830   4.893   6.039
  613SOL    HW1 2738   3.917   4.940   6.026
  613SOL    HW2 2739   3.777   4.897   5.954
  614SOL     OW 2740   2.565   6.312   6.082
  614SOL    HW1 2741   2.631   6.265   6.024
  614SOL    HW2 2742   2.557   6.264   6.169
  615SOL     OW 2743   0.224   4.584   2.852
  615SOL    HW1 2744   0.255   4.502   2.900
  615SOL    HW2 2745   0.240   4.573   2.754
  616SOL     OW 2746   6.116   3.006   3.689
  616SOL    HW1 2747   6.181   3.025   3.763
  616SOL    HW2 2748   6.063   2.924   3.711
  617SOL     OW 2749   3.153   6.485   6.098
  617SOL    HW1 2750   3.198   6.397   6.081
  617SOL    HW2 2751   3.080   6.498   6.031
  618SOL     OW 2752   1.560   0.861   3.527
  618SOL    HW1 2753   1.619   0.903   3.596
  618SOL    HW2 2754   1.596   0.884   3.436
  619SOL     OW 2755   0.793   2.089   6.587
  619SOL    HW1 2756   0.798   2.158   6.515
  619SOL    HW2 2757   0.885   2.066   6.618
  620SOL     OW 2758   4.224   3.345   1.218
  620SOL    HW1 2759   4.217   3.443   1.201
  620SOL    HW2 2760   4.152   3.317   1.281
  621SOL     OW 2761   0.062   5.796   0.830
  621SOL    HW1 2762   0.079   5.742   0.748
  621SOL    HW2 2763   6.991   5.813   0.839
  622SOL     OW 2764   0.767   0.734   6.521
  622SOL    HW1 2765   0.676   0.726   6.480
  622SOL    HW2 2766   0.811   0.817   6.486
  623SOL     OW 2767   0.352   5.199   5.056
  623SOL    HW1 2768   0.396   5.264   4.994
  623SOL    HW2 2769   0.382   5.215   5.150
  624SOL     OW 2770   1.053   1.470   1.008
  624SOL    HW1 2771   0.954   1.471   0.997
  624SOL    HW2 2772   1.085   1.561   1.033
  625SOL     OW 2773   1.814   1.408   2.875
  625SOL    HW1 2774   1.795   1.437   2.781
  625SOL    HW2 2775   1.896   1.455   2.909
  626SOL     OW 2776   3.413   6.663   4.450
  626SOL    HW1 2777   3.424   6.613   4.364
  626SOL    HW2 2778   3.446   6.757   4.439
  627SOL     OW 2779   5.367   7.022   0.309
  627SOL    HW1 2780   5.417   0.050   0.376
  627SOL    HW2 2781   5.428   6.996   0.234
  628SOL     OW 2782   5.575   4.051   3.407
  628SOL    HW1 2783   5.580   3.984   3.332
  628SOL    HW2 2784   5.551   4.004   3.492
  629SOL     OW 2785   1.320   6.844   1.232
  629SOL    HW1 2786   1.361   6.934   1.223
  629SOL    HW2 2787   1.351   6.802   1.318
  630SOL     OW 2788   3.075   1.995   1.349
  630SOL    HW1 2789   3.096   2.090   1.375
  630SOL    HW2 2790   3.080   1.985   1.250
  631SOL     OW 2791   2.411   0.250   4.824
  631SOL    HW1 2792   2.493   0.192   4.826
  631SOL    HW2 2793   2.343   0.210   4.762
  632SOL     OW 2794   2.863   0.522   1.080
  632SOL    HW1 2795   2.832   0.582   1.007
  632SOL    HW2 2796   2.894   0.578   1.158
  633SOL     OW 2797   2.349   6.687   5.181
  633SOL    HW1 2798   2.347   6.620   5.255
  633SOL    HW2 2799   2.421   6.663   5.115
  634SOL     OW 2800   2.886   5.381   1.969
  634SOL    HW1 2801   2.822   5.454   1.992
  634SOL    HW2 2802   2.889   5.369   1.870
  635SOL     OW 2803   2.878   0.416   3.098
  635SOL    HW1 2804   2.948   0.458   3.040
  635SOL    HW2 2805   2.792   0.409   3.048
  636SOL     OW 2806   5.066   5.565   6.923
  636SOL    HW1 2807   5.108   5.475   6.935
  636SOL    HW2 2808   5.051   5.582   6.826
  637SOL     OW 2809   5.985   4.285   0.124
  637SOL    HW1 2810   6.070   4.337   0.121
  637SOL    HW2 2811   5.910   4.345   0.153
  638SOL     OW 2812   5.320   1.350   2.995
  638SOL    HW1 2813   5.290   1.283   3.064
  638SOL    HW2 2814   5.377   1.304   2.928
  639SOL     OW 2815   4.853   3.909   2.306
  639SOL    HW1 2816   4.768   3.902   2.358
  639SOL    HW2 2817   4.877   3.818   2.270
  640SOL     OW 2818   2.202   3.211   5.671
  640SOL    HW1 2819   2.169   3.128   5.626
  640SOL    HW2 2820   2.138   3.237   5.743
  641SOL     OW 2821   0.450   5.949   5.798
  641SOL    HW1 2822   0.372   5.923   5.856
  641SOL    HW2 2823   0.418   6.006   5.722
  642SOL     OW 2824   1.299   4.906   6.271
  642SOL    HW1 2825   1.376   4.909   6.207
  642SOL    HW2 2826   1.265   4.998   6.287
  643SOL     OW 2827   5.897   5.993   5.116
  643SOL    HW1 2828   5.965   5.923   5.136
  643SOL    HW2 2829   5.911   6.028   5.023
  644SOL     OW 2830   2.471   5.703   2.219
  644SOL    HW1 2831   2.492   5.624   2.161
  644SOL    HW2 2832   2.419   5.769   2.166
  645SOL     OW 2833   6.667   2.623   2.901
  645SOL    HW1 2834   6.676   2.715   2.940
  645SOL    HW2 2835   6.756   2.578   2.900
  646SOL     OW 2836   1.217   2.402   4.522
  646SOL    HW1 2837   1.177   2.368   4.437
  646SOL    HW2 2838   1.205   2.333   4.594
  647SOL     OW 2839   5.276   3.044   0.200
  647SOL    HW1 2840   5.276   3.078   0.294
  647SOL    HW2 2841   5.243   2.950   0.199
  648SOL     OW 2842   4.914   2.218   3.964
  648SOL    HW1 2843   4.978   2.147   3.934
  648SOL    HW2 2844   4.833   2.174   4.003
  649SOL     OW 2845   4.493   4.559   2.038
  649SOL    HW1 2846   4.480   4.598   1.947
  649SOL    HW2 2847   4.507   4.460   2.030
  650SOL     OW 2848   5.307   4.056   0.513
  650SOL    HW1 2849   5.295   4.011   0.602
  650SOL    HW2 2850   5.384   4.014   0.465
  651SOL     OW 2851   1.069   6.379   6.319
  651SOL    HW1 2852   1.094   6.320   6.395
  651SOL    HW2 2853   0.973   6.363   6.296
  652SOL     OW 2854   5.169   1.524   2.521
  652SOL    HW1 2855   5.229   1.598   2.551
  652SOL    HW2 2856   5.084   1.563   2.484
  653SOL     OW 2857   3.137   4.952   2.987
  653SOL    HW1 2858   3.097   5.043   2.976
  653SOL    HW2 2859   3.065   4.883   2.986
  654SOL     OW 2860   6.209   5.729   6.531
  654SOL    HW1 2861   6.120   5.761   6.499
  654SOL    HW2 2862   6.214   5.629   6.522
  655SOL     OW 2863   0.202   1.130   0.202
  655SOL    HW1 2864   0.248   1.049   0.238
  655SOL    HW2 2865   0.225   1.140   0.105
  656SOL     OW 2866   2.319   5.838   1.266
  656SOL    HW1 2867   2.414   5.819   1.240
  656SOL    HW2 2868   2.274   5.891   1.194
  657SOL     OW 2869   3.774   1.614   6.916
  657SOL    HW1 2870   3.762   1.709   6.889
  657SOL    HW2 2871   3.841   1.609   6.991
  658SOL     OW 2872   3.823   5.392   6.156
  658SOL    HW1 2873   3.912   5.429   6.183
  658SOL    HW2 2874   3.833   5.334   6.075
  659SOL     OW 2875   3.694   0.279   5.433
  659SOL    HW1 2876   3.717   0.372   5.460
  659SOL    HW2 2877   3.628   0.240   5.497
  660SOL     OW 2878   3.507   5.471   3.086
  660SOL    HW1 2879   3.461   5.470   2.998
  660SOL    HW2 2880   3.449   5.517   3.154
  661SOL     OW 2881   6.101   5.765   2.814
  661SOL    HW1 2882   6.162   5.791   2.739
  661SOL    HW2 2883   6.076   5.845   2.867
  662SOL     OW 2884   3.767   1.377   0.615
  662SOL    HW1 2885   3.747   1.404   0.520
  662SOL    HW2 2886   3.762   1.278   0.623
  663SOL     OW 2887   1.743   4.800   4.810
  663SOL    HW1 2888   1.823   4.765   4.760
  663SOL    HW2 2889   1.769   4.883   4.860
  664SOL     OW 2890   5.524   0.679   6.714
  664SOL    HW1 2891   5.569   0.616   6.777
  664SOL    HW2 2892   5.487   0.757   6.765
  665SOL     OW 2893   1.385   4.546   2.368
  665SOL    HW1 2894   1.414   4.601   2.289
  665SOL    HW2 2895   1.290   4.516   2.354
  666SOL     OW 2896   4.455   1.274   1.176
  666SOL    HW1 2897   4.534   1.286   1.117
  666SOL    HW2 2898   4.419   1.363   1.204
  667SOL     OW 2899   1.020   6.948   2.425
  667SOL    HW1 2900   0.969   6.962   2.510
  667SOL    HW2 2901   1.039   0.010   2.382
  668SOL     OW 2902   5.503   3.951   0.708
  668SOL    HW1 2903   5.505   3.925   0.804
  668SOL    HW2 2904   5.565   4.029   0.693
  669SOL     OW 2905   4.991   1.760   2.375
  669SOL    HW1 2906   4.902   1.723   2.351
  669SOL    HW2 2907   5.047   1.768   2.292
  670SOL     OW 2908   3.326   1.986   3.201
  670SOL    HW1 2909   3.316   1.893   3.237
  670SOL    HW2 2910   3.265   2.047   3.251
  671SOL     OW 2911   2.402   6.521   1.896
  671SOL    HW1 2912   2.487   6.548   1.942
  671SOL    HW2 2913   2.346   6.603   1.879
  672SOL     OW 2914   0.759   6.873   2.329
  672SOL    HW1 2915   0.765   6.832   2.238
  672SOL    HW2 2916   0.851   6.889   2.364
  673SOL     OW 2917   6.092   0.141   6.907
  673SOL    HW1 2918   6.112   0.239   6.896
  673SOL    HW2 2919   6.178   0.090   6.912
  674SOL     OW 2920   5.084   0.467   3.717
  674SOL    HW1 2921   5.024   0.392   3.689
  674SOL    HW2 2922   5.032   0.553   3.718
  675SOL     OW 2923   0.454   3.842   3.434
  675SOL    HW1 2924   0.430   3.934   3.403
  675SOL    HW2 2925   0.540   3.846   3.485
  676SOL     OW 2926   2.423   6.539   6.029
  676SOL    HW1 2927   2.430   6.444   6.060
  676SOL    HW2 2928   2.468   6.548   5.940
  677SOL     OW 2929   5.517   1.847   1.027
  677SOL    HW1 2930   5.487   1.776   0.963
  677SOL    HW2 2931   5.571   1.805   1.100
  678SOL     OW 2932   1.145   5.178   3.798
  678SOL    HW1 2933   1.089   5.099   3.771
  678SOL    HW2 2934   1.215   5.149   3.863
  679SOL     OW 2935   4.398   2.043   5.236
  679SOL    HW1 2936   4.333   2.012   5.167
  679SOL    HW2 2937   4.486   2.063   5.192
  680SOL     OW 2938   6.335   5.941   4.161
  680SOL    HW1 2939   6.314   5.854   4.205
  680SOL    HW2 2940   6.363   6.008   4.231
  681SOL     OW 2941   4.767   4.289   3.107
  681SOL    HW1 2942   4.724   4.228   3.041
  681SOL    HW2 2943   4.810   4.235   3.180
  682SOL     OW 2944   0.208   1.329   2.872
  682SOL    HW1 2945   0.244   1.269   2.944
  682SOL    HW2 2946   0.159   1.406   2.914
  683SOL     OW 2947   3.311   4.181   1.226
  683SOL    HW1 2948   3.285   4.112   1.293
  683SOL    HW2 2949   3.393   4.229   1.257
  684SOL     OW 2950   6.471   1.412   5.546
  684SOL    HW1 2951   6.527   1.337   5.582
  684SOL    HW2 2952   6.462   1.403   5.447
  685SOL     OW 2953   2.832   6.751   2.912
  685SOL    HW1 2954   2.875   6.716   2.828
  685SOL    HW2 2955   2.901   6.791   2.971
  686SOL     OW 2956   3.889   0.599   4.764
  686SOL    HW1 2957   3.791   0.615   4.772
  686SOL    HW2 2958   3.937   0.647   4.838
  687SOL     OW 2959   7.016   1.427   3.427
  687SOL    HW1 2960   6.968   1.359   3.481
  687SOL    HW2 2961   0.062   1.469   3.482
  688SOL     OW 2962   5.795   1.556   0.083
  688SOL    HW1 2963   5.840   1.645   0.078
  688SOL    HW2 2964   5.762   1.541   0.176
  689SOL     OW 2965   1.500   5.670   6.746
  689SOL    HW1 2966   1.403   5.694   6.742
  689SOL    HW2 2967   1.534   5.651   6.654
  690SOL     OW 2968   5.613   3.847   3.233
  690SOL    HW1 2969   5.637   3.862   3.137
  690SOL    HW2 2970   5.624   3.750   3.255
  691SOL     OW 2971   6.208   1.568   1.443
  691SOL    HW1 2972   6.133   1.516   1.403
  691SOL    HW2 2973   6.292   1.514   1.436
  692SOL     OW 2974   1.818   0.449   5.110
  692SOL    HW1 2975   1.742   0.427   5.047
  692SOL    HW2 2976   1.876   0.519   5.068
  693SOL     OW 2977   5.777   5.321   3.193
  693SOL    HW1 2978   5.838   5.391   3.230
  693SOL    HW2 2979   5.753   5.255   3.264
  694SOL     OW 2980   4.468   6.187   4.578
  694SOL    HW1 2981   4.473   6.231   4.668
  694SOL    HW2 2982   4.417   6.246   4.515
  695SOL     OW 2983   4.662   0.057   3.783
  695SOL    HW1 2984   4.708   0.142   3.807
  695SOL    HW2 2985   4.697   0.023   3.696
  696SOL     OW 2986   5.567   4.109   2.494
  696SOL    HW1 2987   5.642   4.140   2.551
  696SOL    HW2 2988   5.574   4.010   2.480
  697SOL     OW 2989   1.247   6.377   2.014
  697SOL    HW1 2990   1.203   6.293   2.047
  697SOL    HW2 2991   1.179   6.433   1.967
  698SOL     OW 2992   5.727   6.228   6.562
  698SOL    HW1 2993   5.676   6.213   6.477
  698SOL    HW2 2994   5.692   6.309   6.608
  699SOL     OW 2995   2.978   3.089   0.973
  699SOL    HW1 2996   3.042   3.131   0.909
  699SOL    HW2 2997   2.887   3.084   0.931
  700SOL     OW 2998   4.081   6.807   4.947
  700SOL    HW1 2999   3.984   6.801   4.971
  700SOL    HW2 3000   4.113   6.900   4.963
  701SOL     OW 3001   4.722   5.598   1.315
  701SOL    HW1 3002   4.803   5.556   1.274
  701SOL    HW2 3003   4.642   5.542   1.294
  702SOL     OW 3004   4.225   0.702   4.697
  702SOL    HW1 3005   4.164   0.662   4.629
  702SOL    HW2 3006   4.280   0.774   4.654
  703SOL     OW 3007   2.711   2.655   0.292
  703SOL    HW1 3008   2.712   2.556   0.303
  703SOL    HW2 3009   2.805   2.688   0.277
  704SOL     OW 3010   3.260   2.016   5.498
  704SOL    HW1 3011   3.183   2.074   5.523
  704SOL    HW2 3012   3.298   1.973   5.580
  705SOL     OW 3013   0.403   6.349   5.394
  705SOL    HW1 3014   0.442   6.404   5.320
  705SOL    HW2 3015   0.330   6.290   5.358
  706SOL     OW 3016   3.820   1.464   4.473
  706SOL    HW1 3017   3.874   1.381   4.485
  706SOL    HW2 3018   3.723   1.441   4.472
  707SOL     OW 3019   3.032   5.179   4.283
  707SOL    HW1 3020   3.086   5.157   4.202
  707SOL    HW2 3021   2.990   5.269   4.271
  708SOL     OW 3022   5.025   6.020   3.889
  708SOL    HW1 3023   5.082   5.946   3.853
  708SOL    HW2 3024   4.930   6.006   3.862
  709SOL     OW 3025   2.312   0.667   1.190
  709SOL    HW1 3026   2.359   0.579   1.189
  709SOL    HW2 3027   2.228   0.661   1.137
  710SOL     OW 3028   5.094   3.372   2.007
  710SOL    HW1 3029   5.054   3.441   1.946
  710SOL    HW2 3030   5.024   3.339   2.070
  711SOL     OW 3031   0.168   1.564   0.383
  711SOL    HW1 3032   0.227   1.639   0.353
  711SOL    HW2 3033   0.219   1.478   0.380
  712SOL     OW 3034   4.910   4.052   6.954
  712SOL    HW1 3035   4.842   4.105   7.005
  712SOL    HW2 3036   4.969   4.003   7.019
  713SOL     OW 3037   4.462   3.528   5.575
  713SOL    HW1 3038   4.464   3.617   5.620
  713SOL    HW2 3039   4.520   3.531   5.493
  714SOL     OW 3040   5.400   5.867   3.128
  714SOL    HW1 3041   5.467   5.806   3.086
  714SOL    HW2 3042   5.362   5.928   3.058
  715SOL     OW 3043   6.187   4.759   5.268
  715SOL    HW1 3044   6.252   4.756   5.192
  715SOL    HW2 3045   6.224   4.706   5.345
  716SOL     OW 3046   2.922   2.291   3.352
  716SOL    HW1 3047   2.884   2.340   3.274
  716SOL    HW2 3048   2.899   2.341   3.436
  717SOL     OW 3049   5.144   4.957   4.110
  717SOL    HW1 3050   5.135   5.055   4.130
  717SOL    HW2 3051   5.075   4.907   4.161
  718SOL     OW 3052   5.528   2.271   5.162
  718SOL    HW1 3053   5.551   2.278   5.259
  718SOL    HW2 3054   5.472   2.349   5.135
  719SOL     OW 3055   5.235   6.474   3.710
  719SOL    HW1 3056   5.260   6.429   3.796
  719SOL    HW2 3057   5.166   6.545   3.729
  720SOL     OW 3058   2.790   1.169   1.043
  720SOL    HW1 3059   2.837   1.232   0.982
  720SOL    HW2 3060   2.854   1.101   1.077
  721SOL     OW 3061   0.082   2.574   1.916
  721SOL    HW1 3062   0.062   2.551   2.011
  721SOL    HW2 3063   7.024   2.601   1.870
  722SOL     OW 3064   5.033   6.097   0.793
  722SOL    HW1 3065   5.004   6.127   0.702
  722SOL    HW2 3066   5.000   6.162   0.861
  723SOL     OW 3067   2.362   0.535   4.742
  723SOL    HW1 3068   2.398   0.610   4.798
  723SOL    HW2 3069   2.391   0.448   4.781
  724SOL     OW 3070   0.862   2.109   4.124
  724SOL    HW1 3071   0.869   2.031   4.185
  724SOL    HW2 3072   0.815   2.081   4.040
  725SOL     OW 3073   1.841   4.367   2.896
  725SOL    HW1 3074   1.941   4.368   2.886
  725SOL    HW2 3075   1.817   4.347   2.991
  726SOL     OW 3076   1.720   3.651   1.154
  726SOL    HW1 3077   1.721   3.705   1.238
  726SOL    HW2 3078   1.761   3.561   1.171
  727SOL     OW 3079   3.652   5.247   4.585
  727SOL    HW1 3080   3.621   5.157   4.555
  727SOL    HW2 3081   3.741   5.268   4.545
  728SOL     OW 3082   6.716   3.055   3.618
  728SOL    HW1 3083   6.623   3.083   3.596
  728SOL    HW2 3084   6.717   2.958   3.641
  729SOL     OW 3085   0.688   4.249   0.740
  729SOL    HW1 3086   0.780   4.251   0.780
  729SOL    HW2 3087   0.682   4.172   0.675
  730SOL     OW 3088   3.942   1.358   3.165
  730SOL    HW1 3089   3.852   1.376   3.125
  730SOL    HW2 3090   3.934   1.285   3.233
  731SOL     OW 3091   4.579   4.753   4.403
  731SOL    HW1 3092   4.639   4.677   4.380
  731SOL    HW2 3093   4.612   4.836   4.360
  732SOL     OW 3094   3.691   1.019   5.226
  732SOL    HW1 3095   3.779   1.005   5.271
  732SOL    HW2 3096   3.683   1.115   5.197
  733SOL     OW 3097   6.196   5.234   3.558
  733SOL    HW1 3098   6.209   5.293   3.638
  733SOL    HW2 3099   6.165   5.289   3.481
  734SOL     OW 3100   6.221   6.898   2.537
  734SOL    HW1 3101   6.179   6.873   2.450
  734SOL    HW2 3102   6.259   6.816   2.581
  735SOL     OW 3103   4.399   0.129   1.948
  735SOL    HW1 3104   4.458   0.202   1.983
  735SOL    HW2 3105   4.452   0.070   1.887
  736SOL     OW 3106   2.190   1.501   3.913
  736SOL    HW1 3107   2.144   1.590   3.909
  736SOL    HW2 3108   2.216   1.472   3.821
  737SOL     OW 3109   3.590   0.799   6.291
  737SOL    HW1 3110   3.571   0.883   6.239
  737SOL    HW2 3111   3.650   0.740   6.237
  738SOL     OW 3112   2.297   4.704   0.342
  738SOL    HW1 3113   2.374   4.758   0.374
  738SOL    HW2 3114   2.225   4.703   0.411
  739SOL     OW 3115   2.254   6.652   3.523
  739SOL    HW1 3116   2.197   6.734   3.519
  739SOL    HW2 3117   2.231   6.599   3.605
  740SOL     OW 3118   4.909   3.274   3.131
  740SOL    HW1 3119   4.999   3.237   3.154
  740SOL    HW2 3120   4.912   3.374   3.140
  741SOL     OW 3121   2.992   0.783   3.128
  741SOL    HW1 3122   2.915   0.733   3.088
  741SOL    HW2 3123   2.957   0.856   3.188
  742SOL     OW 3124   2.362   6.027   1.584
  742SOL    HW1 3125   2.288   6.059   1.643
  742SOL    HW2 3126   2.384   6.098   1.517
  743SOL     OW 3127   0.598   6.219   2.937
  743SOL    HW1 3128   0.500   6.235   2.924
  743SOL    HW2 3129   0.649   6.266   2.864
  744SOL     OW 3130   5.103   1.744   6.939
  744SOL    HW1 3131   5.078   1.686   6.861
  744SOL    HW2 3132   5.045   1.721   7.017
  745SOL     OW 3133   2.527   6.897   4.489
  745SOL    HW1 3134   2.453   6.879   4.424
  745SOL    HW2 3135   2.575   6.811   4.510
  746SOL     OW 3136   0.386   4.967   4.863
  746SOL    HW1 3137   0.405   5.042   4.926
  746SOL    HW2 3138   0.371   5.003   4.771
  747SOL     OW 3139   4.930   5.857   2.459
  747SOL    HW1 3140   4.991   5.803   2.401
  747SOL    HW2 3141   4.896   5.935   2.407
  748SOL     OW 3142   5.470   5.235   1.664
  748SOL    HW1 3143   5.389   5.184   1.692
  748SOL    HW2 3144   5.551   5.198   1.711
  749SOL     OW 3145   5.063   4.381   4.770
  749SOL    HW1 3146   5.027   4.289   4.784
  749SOL    HW2 3147   5.019   4.423   4.691
  750SOL     OW 3148   2.339   2.076   2.294
  750SOL    HW1 3149   2.338   2.176   2.289
  750SOL    HW2 3150   2.263   2.045   2.351
  751SOL     OW 3151   3.445   0.440   0.822
  751SOL    HW1 3152   3.394   0.486   0.749
  751SOL    HW2 3153   3.408   0.348   0.835
  752SOL     OW 3154   3.599   2.729   5.310
  752SOL    HW1 3155   3.508   2.687   5.315
  752SOL    HW2 3156   3.599   2.798   5.237
  753SOL     OW 3157   3.465   3.812   4.144
  753SOL    HW1 3158   3.405   3.855   4.076
  753SOL    HW2 3159   3.492   3.879   4.213
  754SOL     OW 3160   5.747   0.495   0.444
  754SOL    HW1 3161   5.676   0.508   0.513
  754SOL    HW2 3162   5.797   0.410   0.463
  755SOL     OW 3163   4.513   4.371   5.243
  755SOL    HW1 3164   4.425   4.413   5.221
  755SOL    HW2 3165   4.499   4.280   5.281
  756SOL     OW 3166   2.327   4.989   6.131
  756SOL    HW1 3167   2.318   5.069   6.190
  756SOL    HW2 3168   2.286   5.009   6.042
  757SOL     OW 3169   2.119   5.943   1.923
  757SOL    HW1 3170   2.039   5.932   1.865
  757SOL    HW2 3171   2.098   6.004   1.999
  758SOL     OW 3172   5.005   0.807   4.319
  758SOL    HW1 3173   5.034   0.790   4.413
  758SOL    HW2 3174   5.074   0.770   4.256
  759SOL     OW 3175   0.581   3.556   3.709
  759SOL    HW1 3176   0.579   3.640   3.763
  759SOL    HW2 3177   0.670   3.512   3.719
  760SOL     OW 3178   6.764   4.986   3.386
  760SOL    HW1 3179   6.730   5.018   3.474
  760SOL    HW2 3180   6.856   4.949   3.397
  761SOL     OW 3181   4.752   5.036   6.302
  761SOL    HW1 3182   4.850   5.055   6.294
  761SOL    HW2 3183   4.707   5.057   6.216
  762SOL     OW 3184   3.584   5.982   3.262
  762SOL    HW1 3185   3.573   6.010   3.166
  762SOL    HW2 3186   3.588   5.883   3.267
  763SOL     OW 3187   5.577   0.442   0.683
  763SOL    HW1 3188   5.508   0.505   0.718
  763SOL    HW2 3189   5.539   0.349   0.679
  764SOL     OW 3190   5.393   6.675   5.501
  764SOL    HW1 3191   5.441   6.707   5.582
  764SOL    HW2 3192   5.322   6.741   5.475
  765SOL     OW 3193   6.459   6.967   0.279
  765SOL    HW1 3194   6.470   6.906   0.358
  765SOL    HW2 3195   6.542   6.967   0.224
  766SOL     OW 3196   2.745   2.022   4.345
  766SOL    HW1 3197   2.771   1.976   4.260
  766SOL    HW2 3198   2.808   2.098   4.362
  767SOL     OW 3199   6.654   5.465   4.392
  767SOL    HW1 3200   6.718   5.469   4.469
  767SOL    HW2 3201   6.627   5.558   4.366
  768SOL     OW 3202   1.853   5.203   3.060
  768SOL    HW1 3203   1.763   5.245   3.047
  768SOL    HW2 3204   1.883   5.217   3.154
  769SOL     OW 3205   3.013   2.177   5.736
  769SOL    HW1 3206   3.071   2.219   5.665
  769SOL    HW2 3207   2.921   2.217   5.731
  770SOL     OW 3208   1.349   5.146   6.048
  770SOL    HW1 3209   1.366   5.236   6.007
  770SOL    HW2 3210   1.252   5.124   6.039
  771SOL     OW 3211   1.334   5.065   2.968
  771SOL    HW1 3212   1.362   4.981   2.923
  771SOL    HW2 3213   1.409   5.100   3.023
  772SOL     OW 3214   5.731   4.332   0.238
  772SOL    HW1 3215   5.693   4.411   0.287
  772SOL    HW2 3216   5.722   4.250   0.294
  773SOL     OW 3217   2.000   4.073   3.857
  773SOL    HW1 3218   2.043   4.006   3.918
  773SOL    HW2 3219   1.901   4.067   3.865
  774SOL     OW 3220   2.402   0.950   3.451
  774SOL    HW1 3221   2.397   0.937   3.550
  774SOL    HW2 3222   2.430   1.044   3.430
  775SOL     OW 3223   1.453   4.787   3.318
  775SOL    HW1 3224   1.545   4.823   3.299
  775SOL    HW2 3225   1.430   4.717   3.251
  776SOL     OW 3226   2.410   5.259   5.830
  776SOL    HW1 3227   2.441   5.193   5.898
  776SOL    HW2 3228   2.348   5.325   5.873
  777SOL     OW 3229   2.020   3.546   6.142
  777SOL    HW1 3230   1.928   3.584   6.153
  777SOL    HW2 3231   2.034   3.473   6.208
  778SOL     OW 3232   3.027   5.707   6.904
  778SOL    HW1 3233   2.976   5.621   6.899
  778SOL    HW2 3234   3.074   5.724   6.817
  779SOL     OW 3235   6.025   2.583   2.890
  779SOL    HW1 3236   5.936   2.556   2.853
  779SOL    HW2 3237   6.073   2.641   2.824
  780SOL     OW 3238   6.947   2.208   5.094
  780SOL    HW1 3239   6.909   2.262   5.019
  780SOL    HW2 3240   7.026   2.255   5.133
  781SOL     OW 3241   0.245   4.432   6.636
  781SOL    HW1 3242   0.321   4.494   6.617
  781SOL    HW2 3243   0.159   4.483   6.632
  782SOL     OW 3244   1.714   3.673   5.040
  782SOL    HW1 3245   1.767   3.685   5.124
  782SOL    HW2 3246   1.704   3.761   4.994
  783SOL     OW 3247   6.245   4.937   6.768
  783SOL    HW1 3248   6.248   5.036   6.779
  783SOL    HW2 3249   6.270   4.912   6.674
  784SOL     OW 3250   2.217   5.717   0.615
  784SOL    HW1 3251   2.308   5.752   0.638
  784SOL    HW2 3252   2.149   5.757   0.678
  785SOL     OW 3253   0.690   1.149   4.393
  785SOL    HW1 3254   0.698   1.079   4.321
  785SOL    HW2 3255   0.612   1.208   4.374
  786SOL     OW 3256   5.965   0.621   4.076
  786SOL    HW1 3257   5.974   0.687   4.151
  786SOL    HW2 3258   6.000   0.532   4.105
  787SOL     OW 3259   2.138   0.065   1.462
  787SOL    HW1 3260   2.133   7.018   1.530
  787SOL    HW2 3261   2.145   0.025   1.371
  788SOL     OW 3262   2.094   2.567   1.713
  788SOL    HW1 3263   2.128   2.481   1.750
  788SOL    HW2 3264   2.049   2.550   1.625
  789SOL     OW 3265   4.163   4.689   2.681
  789SOL    HW1 3266   4.253   4.656   2.709
  789SOL    HW2 3267   4.157   4.691   2.581
  790SOL     OW 3268   0.554   3.185   1.929
  790SOL    HW1 3269   0.548   3.147   2.021
  790SOL    HW2 3270   0.483   3.254   1.916
  791SOL     OW 3271   2.767   6.882   3.757
  791SOL    HW1 3272   2.745   6.864   3.661
  791SOL    HW2 3273   2.708   6.827   3.816
  792SOL     OW 3274   2.262   0.389   0.613
  792SOL    HW1 3275   2.232   0.411   0.706
  792SOL    HW2 3276   2.287   0.473   0.565
  793SOL     OW 3277   2.410   6.092   4.561
  793SOL    HW1 3278   2.352   6.125   4.486
  793SOL    HW2 3279   2.506   6.104   4.537
  794SOL     OW 3280   3.336   3.046   2.620
  794SOL    HW1 3281   3.320   2.988   2.700
  794SOL    HW2 3282   3.360   2.989   2.542
  795SOL     OW 3283   4.743   0.887   5.689
  795SOL    HW1 3284   4.769   0.791   5.686
  795SOL    HW2 3285   4.689   0.905   5.771
  796SOL     OW 3286   0.062   2.393   0.285
  796SOL    HW1 3287   0.081   2.485   0.320
  796SOL    HW2 3288   0.147   2.341   0.279
  797SOL     OW 3289   3.405   6.803   1.222
  797SOL    HW1 3290   3.412   6.732   1.152
  797SOL    HW2 3291   3.365   6.885   1.183
  798SOL     OW 3292   5.311   5.291   1.315
  798SOL    HW1 3293   5.326   5.194   1.296
  798SOL    HW2 3294   5.253   5.300   1.396
  799SOL     OW 3295   2.948   2.683   5.983
  799SOL    HW1 3296   2.918   2.761   5.927
  799SOL    HW2 3297   2.907   2.599   5.948
  800SOL     OW 3298   5.356   2.700   3.136
  800SOL    HW1 3299   5.373   2.642   3.216
  800SOL    HW2 3300   5.354   2.796   3.164
  801SOL     OW 3301   1.853   5.985   6.682
  801SOL    HW1 3302   1.919   5.910   6.674
  801SOL    HW2 3303   1.817   6.006   6.592
  802SOL     OW 3304   4.602   2.392   6.766
  802SOL    HW1 3305   4.697   2.425   6.774
  802SOL    HW2 3306   4.560   2.393   6.856
  803SOL     OW 3307   2.382   2.098   4.167
  803SOL    HW1 3308   2.343   2.058   4.083
  803SOL    HW2 3309   2.324   2.073   4.245
  804SOL     OW 3310   5.084   0.576   2.857
  804SOL    HW1 3311   5.065   0.601   2.952
  804SOL    HW2 3312   5.180   0.549   2.848
  805SOL     OW 3313   3.410   0.692   3.903
  805SOL    HW1 3314   3.368   0.650   3.822
  805SOL    HW2 3315   3.352   0.766   3.937
  806SOL     OW 3316   3.117   6.556   5.266
  806SOL    HW1 3317   3.124   6.604   5.354
  806SOL    HW2 3318   3.203   6.508   5.248
  807SOL     OW 3319   1.185   6.302   5.800
  807SOL    HW1 3320   1.227   6.392   5.793
  807SOL    HW2 3321   1.254   6.236   5.830
  808SOL     OW 3322   5.143   2.882   5.936
  808SOL    HW1 3323   5.164   2.864   5.840
  808SOL    HW2 3324   5.050   2.918   5.943
  809SOL     OW 3325   2.723   5.598   0.081
  809SOL    HW1 3326   2.785   5.663   0.125
  809SOL    HW2 3327   2.772   5.549   0.008
  810SOL     OW 3328   3.463   3.795   0.154
  810SOL    HW1 3329   3.365   3.816   0.159
  810SOL    HW2 3330   3.515   3.876   0.183
  811SOL     OW 3331   6.368   5.457   4.442
  811SOL    HW1 3332   6.436   5.390   4.412
  811SOL    HW2 3333   6.361   5.454   4.542
  812SOL     OW 3334   1.034   3.776   1.476
  812SOL    HW1 3335   1.071   3.720   1.402
  812SOL    HW2 3336   0.994   3.716   1.546
  813SOL     OW 3337   1.896   1.339   5.439
  813SOL    HW1 3338   1.854   1.251   5.462
  813SOL    HW2 3339   1.994   1.328   5.427
  814SOL     OW 3340   0.710   4.307   2.964
  814SOL    HW1 3341   0.667   4.397   2.950
  814SOL    HW2 3342   0.661   4.258   3.035
  815SOL     OW 3343   4.245   1.967   4.740
  815SOL    HW1 3344   4.179   2.040   4.760
  815SOL    HW2 3345   4.301   1.950   4.822
  816SOL     OW 3346   5.760   3.788   6.612
  816SOL    HW1 3347   5.679   3.806   6.557
  816SOL    HW2 3348   5.837   3.768   6.551
  817SOL     OW 3349   0.514   4.834   6.645
  817SOL    HW1 3350   0.549   4.804   6.734
  817SOL    HW2 3351   0.590   4.862   6.586
  818SOL     OW 3352   0.126   1.997   5.065
  818SOL    HW1 3353   0.157   2.040   4.980
  818SOL    HW2 3354   0.040   2.039   5.095
  819SOL     OW 3355   4.911   3.488   1.831
  819SOL    HW1 3356   4.894   3.572   1.780
  819SOL    HW2 3357   4.838   3.422   1.812
  820SOL     OW 3358   2.599   2.262   5.227
  820SOL    HW1 3359   2.522   2.311   5.268
  820SOL    HW2 3360   2.566   2.204   5.152
  821SOL     OW 3361   5.147   3.246   6.727
  821SOL    HW1 3362   5.190   3.221   6.814
  821SOL    HW2 3363   5.204   3.214   6.651
  822SOL     OW 3364   0.260   4.897   3.201
  822SOL    HW1 3365   0.186   4.951   3.240
  822SOL    HW2 3366   0.332   4.884   3.270
  823SOL     OW 3367   1.912   3.263   4.808
  823SOL    HW1 3368   1.885   3.316   4.728
  823SOL    HW2 3369   1.962   3.181   4.779
  824SOL     OW 3370   4.908   0.083   6.404
  824SOL    HW1 3371   4.921   0.114   6.498
  824SOL    HW2 3372   4.811   0.071   6.385
  825SOL     OW 3373   6.150   6.132   1.156
  825SOL    HW1 3374   6.155   6.077   1.072
  825SOL    HW2 3375   6.059   6.124   1.195
  826SOL     OW 3376   3.550   2.047   0.199
  826SOL    HW1 3377   3.497   2.106   0.139
  826SOL    HW2 3378   3.506   2.041   0.288
  827SOL     OW 3379   3.401   3.575   5.105
  827SOL    HW1 3380   3.419   3.563   5.007
  827SOL    HW2 3381   3.340   3.653   5.118
  828SOL     OW 3382   0.358   6.673   6.066
  828SOL    HW1 3383   0.351   6.577   6.090
  828SOL    HW2 3384   0.281   6.724   6.104
  829SOL     OW 3385   3.562   3.528   2.339
  829SOL    HW1 3386   3.469   3.546   2.372
  829SOL    HW2 3387   3.627   3.546   2.413
  830SOL     OW 3388   6.559   4.723   6.968
  830SOL    HW1 3389   6.482   4.660   6.962
  830SOL    HW2 3390   6.639   4.674   7.001
  831SOL     OW 3391   5.102   1.331   2.163
  831SOL    HW1 3392   5.175   1.335   2.231
  831SOL    HW2 3393   5.014   1.327   2.209
  832SOL     OW 3394   3.096   1.914   5.045
  832SOL    HW1 3395   3.184   1.894   5.002
  832SOL    HW2 3396   3.109   1.977   5.121
  833SOL     OW 3397   4.198   3.118   6.930
  833SOL    HW1 3398   4.122   3.057   6.907
  833SOL    HW2 3399   4.251   3.080   7.006
  834SOL     OW 3400   5.527   2.360   0.606
  834SOL    HW1 3401   5.491   2.307   0.683
  834SOL    HW2 3402   5.502   2.456   0.616
  835SOL     OW 3403   7.008   0.270   4.573
  835SOL    HW1 3404   0.009   0.266   4.669
  835SOL    HW2 3405   6.910   0.253   4.565
  836SOL     OW 3406   5.094   0.499   4.892
  836SOL    HW1 3407   5.062   0.450   4.811
  836SOL    HW2 3408   5.102   0.436   4.969
  837SOL     OW 3409   1.509   0.268   0.173
  837SOL    HW1 3410   1.601   0.276   0.136
  837SOL    HW2 3411   1.448   0.329   0.123
  838SOL     OW 3412   1.131   5.675   3.670
  838SOL    HW1 3413   1.184   5.634   3.595
  838SOL    HW2 3414   1.111   5.604   3.738
  839SOL     OW 3415   1.229   2.091   0.839
  839SOL    HW1 3416   1.254   2.031   0.763
  839SOL    HW2 3417   1.295   2.165   0.846
  840SOL     OW 3418   4.702   5.170   0.825
  840SOL    HW1 3419   4.675   5.186   0.730
  840SOL    HW2 3420   4.661   5.240   0.883
  841SOL     OW 3421   2.493   5.332   6.867
  841SOL    HW1 3422   2.495   5.336   6.767
  841SOL    HW2 3423   2.439   5.253   6.896
  842SOL     OW 3424   3.846   5.615   1.089
  842SOL    HW1 3425   3.790   5.594   1.169
  842SOL    HW2 3426   3.937   5.574   1.100
  843SOL     OW 3427   1.691   0.344   2.178
  843SOL    HW1 3428   1.694   0.312   2.273
  843SOL    HW2 3429   1.728   0.437   2.173
  844SOL     OW 3430   6.728   0.392   1.756
  844SOL    HW1 3431   6.822   0.406   1.787
  844SOL    HW2 3432   6.664   0.419   1.829
  845SOL     OW 3433   3.185   1.533   2.612
  845SOL    HW1 3434   3.281   1.507   2.612
  845SOL    HW2 3435   3.174   1.619   2.663
  846SOL     OW 3436   2.695   2.276   0.692
  846SOL    HW1 3437   2.704   2.358   0.635
  846SOL    HW2 3438   2.691   2.303   0.788
  847SOL     OW 3439   2.599   3.663   1.583
  847SOL    HW1 3440   2.590   3.566   1.605
  847SOL    HW2 3441   2.590   3.677   1.484
  848SOL     OW 3442   6.354   6.267   0.130
  848SOL    HW1 3443   6.417   6.248   0.054
  848SOL    HW2 3444   6.276   6.205   0.125
  849SOL     OW 3445   5.786   3.309   6.540
  849SOL    HW1 3446   5.879   3.290   6.508
  849SOL    HW2 3447   5.728   3.335   6.463
  850SOL     OW 3448   1.298   0.973   4.909
  850SOL    HW1 3449   1.316   1.070   4.889
  850SOL    HW2 3450   1.205   0.950   4.879
  851SOL     OW 3451   5.709   3.256   6.055
  851SOL    HW1 3452   5.687   3.248   6.152
  851SOL    HW2 3453   5.640   3.313   6.010
  852SOL     OW 3454   0.340   4.041   1.956
  852SOL    HW1 3455   0.271   3.971   1.973
  852SOL    HW2 3456   0.330   4.115   2.023
  853SOL     OW 3457   3.138   3.210   0.798
  853SOL    HW1 3458   3.163   3.304   0.772
  853SOL    HW2 3459   3.214   3.149   0.779
  854SOL     OW 3460   5.998   6.331   5.499
  854SOL    HW1 3461   6.083   6.279   5.492
  854SOL    HW2 3462   5.932   6.279   5.553
  855SOL     OW 3463   5.993   1.408   0.567
  855SOL    HW1 3464   5.923   1.379   0.633
  855SOL    HW2 3465   6.014   1.332   0.506
  856SOL     OW 3466   1.940   5.191   1.946
  856SOL    HW1 3467   1.916   5.273   1.895
  856SOL    HW2 3468   2.011   5.213   2.013
  857SOL     OW 3469   0.217   5.676   4.845
  857SOL    HW1 3470   0.272   5.597   4.819
  857SOL    HW2 3471   0.121   5.660   4.820
  858SOL     OW 3472   4.461   3.986   0.001
  858SOL    HW1 3473   4.470   3.937   0.088
  858SOL    HW2 3474   4.545   4.037   7.009
  859SOL     OW 3475   5.172   6.001   5.377
  859SOL    HW1 3476   5.120   6.076   5.336
  859SOL    HW2 3477   5.229   5.957   5.308
  860SOL     OW 3478   4.472   2.769   6.270
  860SOL    HW1 3479   4.455   2.736   6.363
  860SOL    HW2 3480   4.497   2.692   6.212
  861SOL     OW 3481   1.688   5.129   2.012
  861SOL    HW1 3482   1.664   5.205   2.073
  861SOL    HW2 3483   1.779   5.144   1.975
  862SOL     OW 3484   0.518   4.107   3.649
  862SOL    HW1 3485   0.577   4.033   3.617
  862SOL    HW2 3486   0.572   4.174   3.699
  863SOL     OW 3487   6.151   0.642   1.715
  863SOL    HW1 3488   6.082   0.576   1.744
  863SOL    HW2 3489   6.181   0.620   1.622
  864SOL     OW 3490   5.899   6.460   3.668
  864SOL    HW1 3491   5.811   6.497   3.637
  864SOL    HW2 3492   5.890   6.361   3.681
  865SOL     OW 3493   1.660   5.935   5.012
  865SOL    HW1 3494   1.722   5.878   5.066
  865SOL    HW2 3495   1.690   5.936   4.917
  866SOL     OW 3496   3.579   0.208   1.707
  866SOL    HW1 3497   3.535   0.157   1.781
  866SOL    HW2 3498   3.579   0.152   1.624
  867SOL     OW 3499   5.968   2.385   5.714
  867SOL    HW1 3500   6.023   2.329   5.652
  867SOL    HW2 3501   6.025   2.419   5.788
  868SOL     OW 3502   0.475   2.576   1.553
  868SOL    HW1 3503   0.490   2.563   1.652
  868SOL    HW2 3504   0.553   2.625   1.514
  869SOL     OW 3505   0.007   3.794   3.399
  869SOL    HW1 3506   6.986   3.865   3.450
  869SOL    HW2 3507   0.028   3.827   3.307
  870SOL     OW 3508   3.870   5.228   2.047
  870SOL    HW1 3509   3.890   5.325   2.037
  870SOL    HW2 3510   3.955   5.175   2.045
  871SOL     OW 3511   4.989   1.890   3.247
  871SOL    HW1 3512   5.006   1.961   3.316
  871SOL    HW2 3513   5.005   1.929   3.155
  872SOL     OW 3514   1.304   2.329   4.827
  872SOL    HW1 3515   1.206   2.330   4.850
  872SOL    HW2 3516   1.358   2.327   4.911
  873SOL     OW 3517   4.210   6.992   6.072
  873SOL    HW1 3518   4.187   0.009   5.985
  873SOL    HW2 3519   4.300   6.949   6.065
  874SOL     OW 3520   5.118   3.383   1.653
  874SOL    HW1 3521   5.087   3.391   1.558
  874SOL    HW2 3522   5.065   3.446   1.710
  875SOL     OW 3523   4.763   5.447   1.735
  875SOL    HW1 3524   4.718   5.432   1.646
  875SOL    HW2 3525   4.724   5.384   1.802
  876SOL     OW 3526   6.842   0.177   0.539
  876SOL    HW1 3527   6.792   0.242   0.482
  876SOL    HW2 3528   6.799   0.087   0.534
  877SOL     OW 3529   2.034   3.718   6.953
  877SOL    HW1 3530   2.114   3.665   6.980
  877SOL    HW2 3531   1.964   3.710   7.024
  878SOL     OW 3532   3.731   6.510   4.135
  878SOL    HW1 3533   3.641   6.471   4.154
  878SOL    HW2 3534   3.722   6.579   4.063
  879SOL     OW 3535   5.916   6.943   6.986
  879SOL    HW1 3536   5.994   7.001   6.964
  879SOL    HW2 3537   5.868   6.918   6.902
  880SOL     OW 3538   3.127   3.139   2.455
  880SOL    HW1 3539   3.215   3.137   2.502
  880SOL    HW2 3540   3.058   3.094   2.511
  881SOL     OW 3541   4.820   1.906   0.237
  881SOL    HW1 3542   4.881   1.984   0.223
  881SOL    HW2 3543   4.872   1.821   0.226
  882SOL     OW 3544   1.475   2.926   4.339
  882SOL    HW1 3545   1.539   2.856   4.370
  882SOL    HW2 3546   1.463   2.918   4.240
  883SOL     OW 3547   2.665   0.167   3.458
  883SOL    HW1 3548   2.646   0.069   3.464
  883SOL    HW2 3549   2.751   0.187   3.505
  884SOL     OW 3550   4.047   3.764   5.628
  884SOL    HW1 3551   4.059   3.695   5.556
  884SOL    HW2 3552   4.137   3.797   5.658
  885SOL     OW 3553   4.162   2.777   6.621
  885SOL    HW1 3554   4.133   2.705   6.558
  885SOL    HW2 3555   4.262   2.777   6.627
  886SOL     OW 3556   3.271   1.205   6.688
  886SOL    HW1 3557   3.354   1.158   6.716
  886SOL    HW2 3558   3.294   1.294   6.650
  887SOL     OW 3559   5.378   1.103   5.115
  887SOL    HW1 3560   5.359   1.200   5.097
  887SOL    HW2 3561   5.333   1.075   5.200
  888SOL     OW 3562   0.092   6.218   2.778
  888SOL    HW1 3563   0.033   6.156   2.726
  888SOL    HW2 3564   0.042   6.251   2.858
  889SOL     OW 3565   0.942   3.866   6.925
  889SOL    HW1 3566   1.035   3.845   6.894
  889SOL    HW2 3567   0.943   3.881   7.024
  890SOL     OW 3568   2.486   5.538   4.156
  890SOL    HW1 3569   2.550   5.555   4.081
  890SOL    HW2 3570   2.536   5.527   4.241
  891SOL     OW 3571   4.583   5.650   2.230
  891SOL    HW1 3572   4.582   5.677   2.326
  891SOL    HW2 3573   4.650   5.705   2.181
  892SOL     OW 3574   2.885   4.678   0.914
  892SOL    HW1 3575   2.975   4.691   0.872
  892SOL    HW2 3576   2.895   4.677   1.014
  893SOL     OW 3577   1.717   6.108   2.684
  893SOL    HW1 3578   1.733   6.012   2.707
  893SOL    HW2 3579   1.653   6.149   2.749
  894SOL     OW 3580   0.945   4.451   1.441
  894SOL    HW1 3581   0.917   4.429   1.534
  894SOL    HW2 3582   1.006   4.530   1.443
  895SOL     OW 3583   0.206   5.716   4.004
  895SOL    HW1 3584   0.229   5.691   3.910
  895SOL    HW2 3585   0.113   5.687   4.024
  896SOL     OW 3586   0.523   0.842   6.387
  896SOL    HW1 3587   0.531   0.911   6.315
  896SOL    HW2 3588   0.436   0.793   6.375
  897SOL     OW 3589   4.852   0.752   0.224
  897SOL    HW1 3590   4.772   0.703   0.189
  897SOL    HW2 3591   4.827   0.847   0.243
  898SOL     OW 3592   4.149   6.540   3.234
  898SOL    HW1 3593   4.144   6.445   3.263
  898SOL    HW2 3594   4.077   6.592   3.280
  899SOL     OW 3595   6.828   5.024   0.575
  899SOL    HW1 3596   6.835   4.962   0.654
  899SOL    HW2 3597   6.915   5.026   0.526
  900SOL     OW 3598   5.367   5.484   0.915
  900SOL    HW1 3599   5.327   5.526   0.834
  900SOL    HW2 3600   5.326   5.393   0.928
  901SOL     OW 3601   1.539   0.554   2.705
  901SOL    HW1 3602   1.501   0.548   2.613
  901SOL    HW2 3603   1.534   0.463   2.748
  902SOL     OW 3604   6.146   3.351   1.857
  902SOL    HW1 3605   6.157   3.295   1.774
  902SOL    HW2 3606   6.104   3.296   1.928
  903SOL     OW 3607   0.164   2.001   1.147
  903SOL    HW1 3608   0.212   2.069   1.092
  903SOL    HW2 3609   0.078   1.976   1.103
  904SOL     OW 3610   3.122   0.963   2.070
  904SOL    HW1 3611   3.026   0.979   2.045
  904SOL    HW2 3612   3.130   0.963   2.170
  905SOL     OW 3613   5.772   2.918   6.293
  905SOL    HW1 3614   5.732   2.834   6.328
  905SOL    HW2 3615   5.867   2.902   6.266
  906SOL     OW 3616   5.626   3.175   6.343
  906SOL    HW1 3617   5.695   3.103   6.348
  906SOL    HW2 3618   5.582   3.186   6.432
  907SOL     OW 3619   5.022   3.901   6.574
  907SOL    HW1 3620   5.090   3.858   6.635
  907SOL    HW2 3621   5.062   3.914   6.483
  908SOL     OW 3622   1.368   4.630   3.090
  908SOL    HW1 3623   1.339   4.543   3.130
  908SOL    HW2 3624   1.375   4.620   2.990
  909SOL     OW 3625   5.195   5.489   6.577
  909SOL    HW1 3626   5.226   5.439   6.496
  909SOL    HW2 3627   5.262   5.479   6.650
  910SOL     OW 3628   2.665   4.841   1.128
  910SOL    HW1 3629   2.658   4.858   1.227
  910SOL    HW2 3630   2.661   4.928   1.079
  911SOL     OW 3631   1.066   5.136   6.103
  911SOL    HW1 3632   1.027   5.044   6.093
  911SOL    HW2 3633   1.019   5.199   6.041
  912SOL     OW 3634   5.346   1.566   4.029
  912SOL    HW1 3635   5.283   1.509   3.976
  912SOL    HW2 3636   5.319   1.565   4.125
  913SOL     OW 3637   5.560   6.811   2.707
  913SOL    HW1 3638   5.646   6.783   2.664
  913SOL    HW2 3639   5.498   6.847   2.637
  914SOL     OW 3640   2.976   6.997   6.761
  914SOL    HW1 3641   2.926   6.911   6.748
  914SOL    HW2 3642   3.070   6.986   6.729
  915SOL     OW 3643   5.538   5.769   0.978
  915SOL    HW1 3644   5.615   5.808   1.028
  915SOL    HW2 3645   5.548   5.670   0.973
  916SOL     OW 3646   1.787   2.621   2.588
  916SOL    HW1 3647   1.787   2.554   2.662
  916SOL    HW2 3648   1.847   2.588   2.514
  917SOL     OW 3649   0.034   6.722   0.775
  917SOL    HW1 3650   0.017   6.772   0.690
  917SOL    HW2 3651   6.996   6.752   0.845
  918SOL     OW 3652   2.577   5.466   0.297
  918SOL    HW1 3653   2.634   5.513   0.229
  918SOL    HW2 3654   2.544   5.380   0.259
  919SOL     OW 3655   5.924   1.723   5.109
  919SOL    HW1 3656   5.900   1.768   5.022
  919SOL    HW2 3657   5.840   1.695   5.156
  920SOL     OW 3658   3.093   5.176   2.355
  920SOL    HW1 3659   3.120   5.082   2.374
  920SOL    HW2 3660   3.001   5.177   2.316
  921SOL     OW 3661   4.685   5.460   5.053
  921SOL    HW1 3662   4.651   5.499   5.139
  921SOL    HW2 3663   4.617   5.472   4.981
  922SOL     OW 3664   3.741   2.966   3.733
  922SOL    HW1 3665   3.830   2.933   3.763
  922SOL    HW2 3666   3.669   2.915   3.779
  923SOL     OW 3667   2.222   3.516   5.366
  923SOL    HW1 3668   2.259   3.602   5.330
  923SOL    HW2 3669   2.225   3.518   5.466
  924SOL     OW 3670   6.929   3.305   1.961
  924SOL    HW1 3671   6.853   3.241   1.950
  924SOL    HW2 3672   7.005   3.260   2.008
  925SOL     OW 3673   0.365   1.744   0.285
  925SOL    HW1 3674   0.394   1.779   0.375
  925SOL    HW2 3675   0.440   1.692   0.245
  926SOL     OW 3676   2.010   1.964   1.987
  926SOL    HW1 3677   2.055   1.877   1.967
  926SOL    HW2 3678   2.079   2.036   1.995
  927SOL     OW 3679   6.402   3.608   4.362
  927SOL    HW1 3680   6.388   3.669   4.440
  927SOL    HW2 3681   6.326   3.544   4.355
  928SOL     OW 3682   3.767   4.966   6.299
  928SOL    HW1 3683   3.806   4.941   6.210
  928SOL    HW2 3684   3.769   4.887   6.360
  929SOL     OW 3685   0.031   1.746   5.006
  929SOL    HW1 3686   0.087   1.829   5.004
  929SOL    HW2 3687   0.089   1.666   4.987
  930SOL     OW 3688   5.023   5.209   5.203
  930SOL    HW1 3689   4.924   5.195   5.195
  930SOL    HW2 3690   5.041   5.291   5.256
  931SOL     OW 3691   6.165   1.244   2.946
  931SOL    HW1 3692   6.069   1.226   2.969
  931SOL    HW2 3693   6.224   1.193   3.009
  932SOL     OW 3694   3.763   0.995   3.738
  932SOL    HW1 3695   3.836   0.953   3.793
  932SOL    HW2 3696   3.797   1.079   3.697
  933SOL     OW 3697   1.288   5.800   2.172
  933SOL    HW1 3698   1.387   5.792   2.163
  933SOL    HW2 3699   1.260   5.894   2.151
  934SOL     OW 3700   1.979   3.490   0.258
  934SOL    HW1 3701   1.968   3.472   0.355
  934SOL    HW2 3702   2.064   3.449   0.226
  935SOL     OW 3703   5.836   2.664   4.554
  935SOL    HW1 3704   5.924   2.631   4.588
  935SOL    HW2 3705   5.791   2.591   4.502
  936SOL     OW 3706   1.692   6.743   6.062
  936SOL    HW1 3707   1.652   6.821   6.013
  936SOL    HW2 3708   1.767   6.705   6.008
  937SOL     OW 3709   3.637   1.996   6.148
  937SOL    HW1 3710   3.643   1.967   6.053
  937SOL    HW2 3711   3.725   1.978   6.193
  938SOL     OW 3712   6.093   5.815   4.317
  938SOL    HW1 3713   6.090   5.913   4.336
  938SOL    HW2 3714   6.181   5.778   4.348
  939SOL     OW 3715   0.652   6.636   5.644
  939SOL    HW1 3716   0.654   6.694   5.562
  939SOL    HW2 3717   0.745   6.614   5.672
  940SOL     OW 3718   1.829   5.068   0.227
  940SOL    HW1 3719   1.885   5.024   0.298
  940SOL    HW2 3720   1.796   4.999   0.163
  941SOL     OW 3721   3.514   7.026   0.400
  941SOL    HW1 3722   3.426   6.994   0.365
  941SOL    HW2 3723   3.500   0.062   0.477
  942SOL     OW 3724   6.804   5.306   0.941
  942SOL    HW1 3725   6.763   5.394   0.919
  942SOL    HW2 3726   6.759   5.268   1.022
  943SOL     OW 3727   3.395   5.897   1.688
  943SOL    HW1 3728   3.422   5.901   1.591
  943SOL    HW2 3729   3.298   5.921   1.697
  944SOL     OW 3730   6.412   6.405   3.988
  944SOL    HW1 3731   6.333   6.344   3.986
  944SOL    HW2 3732   6.381   6.500   3.982
  945SOL     OW 3733   0.508   5.016   6.970
  945SOL    HW1 3734   0.488   4.968   0.030
  945SOL    HW2 3735   0.527   5.112   6.989
  946SOL     OW 3736   5.411   1.689   4.339
  946SOL    HW1 3737   5.484   1.635   4.380
  946SOL    HW2 3738   5.330   1.687   4.398
  947SOL     OW 3739   3.636   4.186   4.537
  947SOL    HW1 3740   3.634   4.282   4.564
  947SOL    HW2 3741   3.545   4.146   4.550
  948SOL     OW 3742   4.120   0.458   3.154
  948SOL    HW1 3743   4.094   0.416   3.067
  948SOL    HW2 3744   4.152   0.551   3.138
  949SOL     OW 3745   3.531   6.884   5.941
  949SOL    HW1 3746   3.465   6.816   5.973
  949SOL    HW2 3747   3.559   6.942   6.017
  950SOL     OW 3748   6.553   0.355   2.587
  950SOL    HW1 3749   6.584   0.439   2.631
  950SOL    HW2 3750   6.472   0.374   2.532
  951SOL     OW 3751   1.713   6.591   2.766
  951SOL    HW1 3752   1.714   6.687   2.792
  951SOL    HW2 3753   1.718   6.584   2.666
  952SOL     OW 3754   3.703   0.889   3.255
  952SOL    HW1 3755   3.753   0.926   3.176
  952SOL    HW2 3756   3.760   0.895   3.336
  953SOL     OW 3757   7.003   4.519   5.737
  953SOL    HW1 3758   0.011   4.561   5.821
  953SOL    HW2 3759   0.049   4.516   5.668
  954SOL     OW 3760   4.832   6.111   2.427
  954SOL    HW1 3761   4.789   6.145   2.343
  954SOL    HW2 3762   4.762   6.075   2.489
  955SOL     OW 3763   2.097   4.884   0.846
  955SOL    HW1 3764   2.005   4.920   0.826
  955SOL    HW2 3765   2.095   4.833   0.932
  956SOL     OW 3766   4.737   0.541   0.811
  956SOL    HW1 3767   4.725   0.456   0.760
  956SOL    HW2 3768   4.799   0.525   0.888
  957SOL     OW 3769   6.136   0.925   3.048
  957SOL    HW1 3770   6.088   0.840   3.026
  957SOL    HW2 3771   6.088   0.973   3.121
  958SOL     OW 3772   5.210   6.840   1.581
  958SOL    HW1 3773   5.229   6.921   1.525
  958SOL    HW2 3774   5.111   6.834   1.599
  959SOL     OW 3775   5.271   6.436   3.434
  959SOL    HW1 3776   5.241   6.433   3.529
  959SOL    HW2 3777   5.207   6.385   3.377
  960SOL     OW 3778   1.692   6.442   6.189
  960SOL    HW1 3779   1.703   6.434   6.288
  960SOL    HW2 3780   1.780   6.467   6.148
  961SOL     OW 3781   3.678   0.495   3.310
  961SOL    HW1 3782   3.625   0.533   3.234
  961SOL    HW2 3783   3.774   0.523   3.301
  962SOL     OW 3784   6.992   0.868   4.718
  962SOL    HW1 3785   6.945   0.881   4.805
  962SOL    HW2 3786   6.928   0.830   4.650
  963SOL     OW 3787   5.473   2.617   0.674
  963SOL    HW1 3788   5.464   2.562   0.757
  963SOL    HW2 3789   5.383   2.635   0.635
  964SOL     OW 3790   4.030   5.654   4.819
  964SOL    HW1 3791   3.944   5.649   4.870
  964SOL    HW2 3792   4.010   5.669   4.723
  965SOL     OW 3793   5.818   2.050   3.316
  965SOL    HW1 3794   5.776   1.971   3.270
  965SOL    HW2 3795   5.857   2.111   3.247
  966SOL     OW 3796   4.756   0.849   4.128
  966SOL    HW1 3797   4.835   0.839   4.188
  966SOL    HW2 3798   4.777   0.811   4.038
  967SOL     OW 3799   4.280   4.360   6.516
  967SOL    HW1 3800   4.356   4.363   6.452
  967SOL    HW2 3801   4.313   4.337   6.607
  968SOL     OW 3802   3.776   0.442   1.419
  968SOL    HW1 3803   3.689   0.462   1.373
  968SOL    HW2 3804   3.771   0.470   1.514
  969SOL     OW 3805   3.264   4.323   6.295
  969SOL    HW1 3806   3.208   4.246   6.264
  969SOL    HW2 3807   3.241   4.343   6.390
  970SOL     OW 3808   5.014   6.794   6.146
  970SOL    HW1 3809   5.109   6.822   6.129
  970SOL    HW2 3810   5.005   6.767   6.242
  971SOL     OW 3811   5.724   3.308   3.704
  971SOL    HW1 3812   5.776   3.359   3.635
  971SOL    HW2 3813   5.671   3.370   3.760
  972SOL     OW 3814   0.073   2.655   0.331
  972SOL    HW1 3815   0.106   2.725   0.268
  972SOL    HW2 3816   7.012   2.684   0.370
  973SOL     OW 3817   0.246   3.555   5.710
  973SOL    HW1 3818   0.259   3.620   5.635
  973SOL    HW2 3819   0.193   3.477   5.677
  974SOL     OW 3820   0.570   4.711   2.623
  974SOL    HW1 3821   0.501   4.645   2.595
  974SOL    HW2 3822   0.542   4.803   2.596
  975SOL     OW 3823   3.119   0.161   2.744
  975SOL    HW1 3824   3.128   0.254   2.709
  975SOL    HW2 3825   3.029   0.124   2.718
  976SOL     OW 3826   0.123   3.242   3.391
  976SOL    HW1 3827   0.197   3.284   3.445
  976SOL    HW2 3828   0.051   3.210   3.452
  977SOL     OW 3829   6.246   1.261   2.078
  977SOL    HW1 3830   6.214   1.353   2.101
  977SOL    HW2 3831   6.345   1.261   2.067
  978SOL     OW 3832   5.187   3.023   1.451
  978SOL    HW1 3833   5.272   2.981   1.419
  978SOL    HW2 3834   5.203   3.062   1.542
  979SOL     OW 3835   0.365   4.226   0.057
  979SOL    HW1 3836   0.388   4.179   0.142
  979SOL    HW2 3837   0.270   4.257   0.059
  980SOL     OW 3838   3.979   1.044   4.959
  980SOL    HW1 3839   3.920   1.095   4.897
  980SOL    HW2 3840   4.050   0.997   4.907
  981SOL     OW 3841   0.590   6.322   5.581
  981SOL    HW1 3842   0.623   6.409   5.619
  981SOL    HW2 3843   0.525   6.341   5.507
  982SOL     OW 3844   6.490   1.110   6.112
  982SOL    HW1 3845   6.584   1.096   6.144
  982SOL    HW2 3846   6.490   1.177   6.038
  983SOL     OW 3847   0.597   4.168   3.174
  983SOL    HW1 3848   0.503   4.179   3.205
  983SOL    HW2 3849   0.647   4.110   3.238
  984SOL     OW 3850   0.541   3.498   3.421
  984SOL    HW1 3851   0.531   3.548   3.507
  984SOL    HW2 3852   0.624   3.529   3.374
  985SOL     OW 3853   6.604   5.417   5.095
  985SOL    HW1 3854   6.656   5.364   5.162
  985SOL    HW2 3855   6.565   5.497   5.141
  986SOL     OW 3856   4.506   5.425   1.308
  986SOL    HW1 3857   4.428   5.446   1.250
  986SOL    HW2 3858   4.498   5.330   1.341
  987SOL     OW 3859   4.762   4.245   4.750
  987SOL    HW1 3860   4.755   4.277   4.845
  987SOL    HW2 3861   4.798   4.152   4.750
  988SOL     OW 3862   2.587   4.627   2.136
  988SOL    HW1 3863   2.527   4.548   2.135
  988SOL    HW2 3864   2.662   4.613   2.071
  989SOL     OW 3865   1.184   2.077   1.249
  989SOL    HW1 3866   1.276   2.100   1.218
  989SOL    HW2 3867   1.180   2.081   1.349
  990SOL     OW 3868   3.888   6.835   4.566
  990SOL    HW1 3869   3.818   6.832   4.637
  990SOL    HW2 3870   3.898   6.744   4.526
  991SOL     OW 3871   0.500   5.311   4.003
  991SOL    HW1 3872   0.528   5.363   4.083
  991SOL    HW2 3873   0.427   5.247   4.029
  992SOL     OW 3874   6.831   2.307   0.109
  992SOL    HW1 3875   6.809   2.219   0.066
  992SOL    HW2 3876   6.878   2.290   0.196
  993SOL     OW 3877   0.873   5.285   0.610
  993SOL    HW1 3878   0.875   5.197   0.563
  993SOL    HW2 3879   0.909   5.274   0.703
  994SOL     OW 3880   3.367   6.698   0.150
  994SOL    HW1 3881   3.367   6.605   0.112
  994SOL    HW2 3882   3.401   6.695   0.244
  995SOL     OW 3883   6.437   4.078   5.949
  995SOL    HW1 3884   6.534   4.072   5.922
  995SOL    HW2 3885   6.392   4.149   5.894
  996SOL     OW 3886   4.298   6.223   4.293
  996SOL    HW1 3887   4.284   6.133   4.252
  996SOL    HW2 3888   4.389   6.256   4.269
  997SOL     OW 3889   1.154   6.636   3.284
  997SOL    HW1 3890   1.107   6.655   3.370
  997SOL    HW2 3891   1.242   6.684   3.284
  998SOL     OW 3892   4.432   0.234   6.058
  998SOL    HW1 3893   4.363   0.298   6.023
  998SOL    HW2 3894   4.465   0.265   6.147
  999SOL     OW 3895   4.913   3.061   2.623
  999SOL    HW1 3896   4.883   3.042   2.716
  999SOL    HW2 3897   4.975   2.989   2.593
 1000SOL     OW 3898   5.292   2.041   1.670
 1000SOL    HW1 3899   5.215   2.001   1.721
 1000SOL    HW2 3900   5.336   1.969   1.616
 1001SOL     OW 3901   2.852   6.644   2.312
 1001SOL    HW1 3902   2.837   6.591   2.395
 1001SOL    HW2 3903   2.950   6.646   2.291
 1002SOL     OW 3904   4.527   2.547   1.092
 1002SOL    HW1 3905   4.447   2.490   1.107
 1002SOL    HW2 3906   4.553   2.591   1.178
 1003SOL     OW 3907   0.608   0.188   3.388
 1003SOL    HW1 3908   0.620   0.122   3.314
 1003SOL    HW2 3909   0.542   0.152   3.454
 1004SOL     OW 3910   5.188   1.326   4.573
 1004SOL    HW1 3911   5.136   1.412   4.573
 1004SOL    HW2 3912   5.159   1.270   4.495
 1005SOL     OW 3913   1.073   5.049   2.170
 1005SOL    HW1 3914   1.166   5.084   2.174
 1005SOL    HW2 3915   1.018   5.107   2.111
 1006SOL     OW 3916   2.301   3.994   1.917
 1006SOL    HW1 3917   2.308   3.901   1.879
 1006SOL    HW2 3918   2.304   3.989   2.017
 1007SOL     OW 3919   4.666   0.933   6.152
 1007SOL    HW1 3920   4.655   0.978   6.241
 1007SOL    HW2 3921   4.754   0.886   6.150
 1008SOL     OW 3922   0.659   4.849   5.079
 1008SOL    HW1 3923   0.714   4.807   5.007
 1008SOL    HW2 3924   0.596   4.781   5.117
 1009SOL     OW 3925   6.652   5.789   6.231
 1009SOL    HW1 3926   6.692   5.698   6.228
 1009SOL    HW2 3927   6.557   5.785   6.201
 1010SOL     OW 3928   3.141   3.892   0.547
 1010SOL    HW1 3929   3.140   3.980   0.499
 1010SOL    HW2 3930   3.211   3.894   0.619
 1011SOL     OW 3931   6.585   5.808   2.990
 1011SOL    HW1 3932   6.613   5.712   3.000
 1011SOL    HW2 3933   6.564   5.827   2.894
 1012SOL     OW 3934   5.380   6.493   2.905
 1012SOL    HW1 3935   5.308   6.423   2.904
 1012SOL    HW2 3936   5.340   6.583   2.918
 1013SOL     OW 3937   6.998   0.345   6.447
 1013SOL    HW1 3938   0.042   0.276   6.430
 1013SOL    HW2 3939   6.979   0.351   6.545
 1014SOL     OW 3940   1.200   4.627   5.414
 1014SOL    HW1 3941   1.181   4.617   5.512
 1014SOL    HW2 3942   1.139   4.568   5.362
 1015SOL     OW 3943   2.135   6.337   0.350
 1015SOL    HW1 3944   2.165   6.250   0.309
 1015SOL    HW2 3945   2.099   6.396   0.279
 1016SOL     OW 3946   6.491   4.113   0.732
 1016SOL    HW1 3947   6.435   4.187   0.767
 1016SOL    HW2 3948   6.496   4.040   0.799
 1017SOL     OW 3949   2.452   1.449   2.111
 1017SOL    HW1 3950   2.511   1.371   2.087
 1017SOL    HW2 3951   2.433   1.446   2.209
 1018SOL     OW 3952   6.303   6.550   4.304
 1018SOL    HW1 3953   6.287   6.557   4.205
 1018SOL    HW2 3954   6.238   6.608   4.353
 1019SOL     OW 3955   6.726   3.999   0.632
 1019SOL    HW1 3956   6.733   3.942   0.550
 1019SOL    HW2 3957   6.638   4.046   0.632
 1020SOL     OW 3958   5.126   1.326   0.613
 1020SOL    HW1 3959   5.091   1.289   0.699
 1020SOL    HW2 3960   5.222   1.302   0.604
 1021SOL     OW 3961   1.038   6.679   0.769
 1021SOL    HW1 3962   1.091   6.724   0.841
 1021SOL    HW2 3963   1.023   6.583   0.794
 1022SOL     OW 3964   2.377   5.599   6.577
 1022SOL    HW1 3965   2.399   5.502   6.572
 1022SOL    HW2 3966   2.462   5.652   6.581
 1023SOL     OW 3967   0.704   1.375   3.082
 1023SOL    HW1 3968   0.620   1.328   3.057
 1023SOL    HW2 3969   0.695   1.473   3.063
 1024SOL     OW 3970   1.432   1.881   4.208
 1024SOL    HW1 3971   1.426   1.945   4.285
 1024SOL    HW2 3972   1.516   1.900   4.155
 1025SOL     OW 3973   5.030   4.311   0.187
 1025SOL    HW1 3974   5.122   4.273   0.191
 1025SOL    HW2 3975   5.010   4.359   0.273
 1026SOL     OW 3976   2.893   2.879   1.730
 1026SOL    HW1 3977   2.846   2.952   1.781
 1026SOL    HW2 3978   2.974   2.916   1.686
 1027SOL     OW 3979   0.472   6.773   0.172
 1027SOL    HW1 3980   0.544   6.832   0.136
 1027SOL    HW2 3981   0.512   6.694   0.218
 1028SOL     OW 3982   1.251   6.102   2.887
 1028SOL    HW1 3983   1.278   6.142   2.799
 1028SOL    HW2 3984   1.291   6.011   2.896
 1029SOL     OW 3985   0.956   1.288   5.401
 1029SOL    HW1 3986   0.914   1.221   5.462
 1029SOL    HW2 3987   0.922   1.274   5.308
 1030SOL     OW 3988   3.732   3.359   1.051
 1030SOL    HW1 3989   3.718   3.260   1.045
 1030SOL    HW2 3990   3.646   3.403   1.077
 1031SOL     OW 3991   3.909   3.129   1.232
 1031SOL    HW1 3992   3.822   3.087   1.207
 1031SOL    HW2 3993   3.895   3.196   1.305
 1032SOL     OW 3994   1.938   1.493   0.150
 1032SOL    HW1 3995   1.970   1.404   0.115
 1032SOL    HW2 3996   1.841   1.503   0.131
 1033SOL     OW 3997   0.199   0.000   2.685
 1033SOL    HW1 3998   0.159   0.034   2.600
 1033SOL    HW2 3999   0.274   6.964   2.665
 1034SOL     OW 4000   3.400   0.653   5.004
 1034SOL    HW1 4001   3.434   0.582   5.066
 1034SOL    HW2 4002   3.417   0.743   5.044
 1035SOL     OW 4003   1.688   1.360   0.034
 1035SOL    HW1 4004   1.631   1.371   6.979
 1035SOL    HW2 4005   1.689   1.264   0.062
 1036SOL     OW 4006   4.793   1.175   1.196
 1036SOL    HW1 4007   4.848   1.238   1.250
 1036SOL    HW2 4008   4.747   1.225   1.123
 1037SOL     OW 4009   1.806   3.306   1.968
 1037SOL    HW1 4010   1.788   3.264   2.057
 1037SOL    HW2 4011   1.856   3.392   1.981
 1038SOL     OW 4012   2.321   5.985   6.944
 1038SOL    HW1 4013   2.403   5.964   6.997
 1038SOL    HW2 4014   2.288   6.076   6.968
 1039SOL     OW 4015   3.516   3.715   3.061
 1039SOL    HW1 4016   3.520   3.811   3.087
 1039SOL    HW2 4017   3.608   3.677   3.061
 1040SOL     OW 4018   3.541   2.129   3.496
 1040SOL    HW1 4019   3.481   2.197   3.454
 1040SOL    HW2 4020   3.632   2.136   3.455
 1041SOL     OW 4021   6.104   5.940   6.790
 1041SOL    HW1 4022   6.127   5.848   6.757
 1041SOL    HW2 4023   6.055   5.990   6.719
 1042SOL     OW 4024   5.440   4.575   3.353
 1042SOL    HW1 4025   5.530   4.535   3.339
 1042SOL    HW2 4026   5.378   4.507   3.390
 1043SOL     OW 4027   2.802   1.710   3.736
 1043SOL    HW1 4028   2.750   1.640   3.687
 1043SOL    HW2 4029   2.856   1.667   3.808
 1044SOL     OW 4030   6.071   4.931   1.475
 1044SOL    HW1 4031   6.157   4.946   1.426
 1044SOL    HW2 4032   6.074   4.842   1.521
 1045SOL     OW 4033   2.242   0.922   1.879
 1045SOL    HW1 4034   2.276   0.829   1.895
 1045SOL    HW2 4035   2.318   0.986   1.878
 1046SOL     OW 4036   3.113   2.255   1.461
 1046SOL    HW1 4037   3.027   2.296   1.493
 1046SOL    HW2 4038   3.172   2.327   1.424
 1047SOL     OW 4039   3.487   6.704   3.434
 1047SOL    HW1 4040   3.407   6.696   3.375
 1047SOL    HW2 4041   3.461   6.749   3.519
 1048SOL     OW 4042   1.074   6.574   2.286
 1048SOL    HW1 4043   1.149   6.593   2.223
 1048SOL    HW2 4044   1.097   6.609   2.377
 1049SOL     OW 4045   3.974   6.333   5.404
 1049SOL    HW1 4046   3.903   6.379   5.458
 1049SOL    HW2 4047   4.017   6.399   5.342
 1050SOL     OW 4048   2.567   6.705   3.807
 1050SOL    HW1 4049   2.506   6.757   3.748
 1050SOL    HW2 4050   2.529   6.702   3.900
 1051SOL     OW 4051   1.400   0.968   5.676
 1051SOL    HW1 4052   1.383   1.017   5.761
 1051SOL    HW2 4053   1.482   0.912   5.686
 1052SOL     OW 4054   3.557   1.239   0.022
 1052SOL    HW1 4055   3.583   1.324   7.003
 1052SOL    HW2 4056   3.637   1.200   0.069
 1053SOL     OW 4057   5.200   1.742   4.503
 1053SOL    HW1 4058   5.136   1.666   4.520
 1053SOL    HW2 4059   5.229   1.781   4.590
 1054SOL     OW 4060   4.195   5.120   6.227
 1054SOL    HW1 4061   4.259   5.047   6.251
 1054SOL    HW2 4062   4.150   5.153   6.309
 1055SOL     OW 4063   4.587   5.877   6.624
 1055SOL    HW1 4064   4.676   5.854   6.586
 1055SOL    HW2 4065   4.560   5.968   6.593
 1056SOL     OW 4066   3.161   3.798   0.175
 1056SOL    HW1 4067   3.131   3.741   0.252
 1056SOL    HW2 4068   3.100   3.876   0.165
 1057SOL     OW 4069   2.956   3.018   0.199
 1057SOL    HW1 4070   3.047   3.055   0.219
 1057SOL    HW2 4071   2.893   3.093   0.177
 1058SOL     OW 4072   2.955   2.190   2.325
 1058SOL    HW1 4073   2.898   2.209   2.405
 1058SOL    HW2 4074   2.937   2.258   2.254
 1059SOL     OW 4075   2.046   6.133   2.097
 1059SOL    HW1 4076   1.994   6.153   2.180
 1059SOL    HW2 4077   2.085   6.217   2.061
 1060SOL     OW 4078   6.299   0.628   5.767
 1060SOL    HW1 4079   6.336   0.717   5.794
 1060SOL    HW2 4080   6.207   0.639   5.731
 1061SOL     OW 4081   0.080   3.511   6.128
 1061SOL    HW1 4082   0.057   3.416   6.111
 1061SOL    HW2 4083   0.001   3.559   6.167
 1062SOL     OW 4084   3.446   5.863   4.375
 1062SOL    HW1 4085   3.492   5.915   4.303
 1062SOL    HW2 4086   3.470   5.901   4.464
 1063SOL     OW 4087   3.705   6.780   4.771
 1063SOL    HW1 4088   3.659   6.693   4.789
 1063SOL    HW2 4089   3.750   6.812   4.855
 1064SOL     OW 4090   1.503   3.489   0.032
 1064SOL    HW1 4091   1.583   3.437   0.003
 1064SOL    HW2 4092   1.459   3.443   0.109
 1065SOL     OW 4093   6.068   0.790   4.727
 1065SOL    HW1 4094   6.156   0.837   4.733
 1065SOL    HW2 4095   5.998   0.844   4.773
 1066SOL     OW 4096   5.503   6.827   0.775
 1066SOL    HW1 4097   5.579   6.839   0.712
 1066SOL    HW2 4098   5.435   6.766   0.734
 1067SOL     OW 4099   2.642   1.400   0.522
 1067SOL    HW1 4100   2.668   1.325   0.462
 1067SOL    HW2 4101   2.668   1.379   0.616
 1068SOL     OW 4102   6.709   3.158   1.402
 1068SOL    HW1 4103   6.616   3.122   1.409
 1068SOL    HW2 4104   6.768   3.112   1.468
 1069SOL     OW 4105   6.028   3.673   2.378
 1069SOL    HW1 4106   6.126   3.654   2.369
 1069SOL    HW2 4107   6.010   3.713   2.467
 1070SOL     OW 4108   1.041   0.474   2.450
 1070SOL    HW1 4109   1.089   0.501   2.367
 1070SOL    HW2 4110   1.021   0.555   2.506
 1071SOL     OW 4111   0.506   3.133   5.981
 1071SOL    HW1 4112   0.421   3.111   5.934
 1071SOL    HW2 4113   0.583   3.094   5.932
 1072SOL     OW 4114   1.664   1.442   2.207
 1072SOL    HW1 4115   1.618   1.433   2.295
 1072SOL    HW2 4116   1.763   1.434   2.219
 1073SOL     OW 4117   5.276   2.720   2.883
 1073SOL    HW1 4118   5.313   2.744   2.972
 1073SOL    HW2 4119   5.246   2.625   2.884
 1074SOL     OW 4120   2.941   4.974   1.584
 1074SOL    HW1 4121   2.998   5.055   1.597
 1074SOL    HW2 4122   2.907   4.943   1.673
 1075SOL     OW 4123   6.224   4.364   5.990
 1075SOL    HW1 4124   6.211   4.387   5.894
 1075SOL    HW2 4125   6.136   4.346   6.033
 1076SOL     OW 4126   1.616   4.681   5.141
 1076SOL    HW1 4127   1.638   4.598   5.191
 1076SOL    HW2 4128   1.660   4.760   5.185
 1077SOL     OW 4129   6.829   6.676   0.342
 1077SOL    HW1 4130   6.836   6.638   0.434
 1077SOL    HW2 4131   6.746   6.643   0.298
 1078SOL     OW 4132   6.262   6.548   4.834
 1078SOL    HW1 4133   6.318   6.620   4.793
 1078SOL    HW2 4134   6.239   6.574   4.928
 1079SOL     OW 4135   0.735   6.817   1.969
 1079SOL    HW1 4136   0.692   6.781   1.886
 1079SOL    HW2 4137   0.799   6.749   2.005
 1080SOL     OW 4138   3.815   6.253   6.886
 1080SOL    HW1 4139   3.732   6.208   6.855
 1080SOL    HW2 4140   3.839   6.220   6.977
 1081SOL     OW 4141   6.682   6.451   4.094
 1081SOL    HW1 4142   6.730   6.367   4.119
 1081SOL    HW2 4143   6.601   6.428   4.039
 1082SOL     OW 4144   4.329   6.894   0.141
 1082SOL    HW1 4145   4.426   6.908   0.121
 1082SOL    HW2 4146   4.273   6.935   0.069
 1083SOL     OW 4147   5.551   4.606   2.165
 1083SOL    HW1 4148   5.475   4.611   2.100
 1083SOL    HW2 4149   5.518   4.572   2.253
 1084SOL     OW 4150   6.024   0.644   5.607
 1084SOL    HW1 4151   6.049   0.726   5.555
 1084SOL    HW2 4152   5.981   0.578   5.546
 1085SOL     OW 4153   2.152   3.865   4.649
 1085SOL    HW1 4154   2.218   3.940   4.639
 1085SOL    HW2 4155   2.146   3.837   4.744
 1086SOL     OW 4156   5.877   5.517   0.624
 1086SOL    HW1 4157   5.845   5.445   0.686
 1086SOL    HW2 4158   5.808   5.589   0.619
 1087SOL     OW 4159   4.175   0.054   5.535
 1087SOL    HW1 4160   4.274   0.062   5.522
 1087SOL    HW2 4161   4.128   0.100   5.460
 1088SOL     OW 4162   6.707   5.127   3.610
 1088SOL    HW1 4163   6.781   5.156   3.671
 1088SOL    HW2 4164   6.656   5.207   3.579
 1089SOL     OW 4165   6.111   4.820   4.072
 1089SOL    HW1 4166   6.015   4.848   4.067
 1089SOL    HW2 4167   6.169   4.901   4.078
 1090SOL     OW 4168   5.122   2.360   5.267
 1090SOL    HW1 4169   5.067   2.313   5.198
 1090SOL    HW2 4170   5.144   2.296   5.340
 1091SOL     OW 4171   1.968   2.532   3.243
 1091SOL    HW1 4172   1.972   2.472   3.323
 1091SOL    HW2 4173   1.879   2.576   3.239
 1092SOL     OW 4174   0.027   6.021   0.594
 1092SOL    HW1 4175   0.022   5.958   0.672
 1092SOL    HW2 4176   0.096   6.091   0.612
 1093SOL     OW 4177   1.552   0.346   2.866
 1093SOL    HW1 4178   1.645   0.384   2.875
 1093SOL    HW2 4179   1.538   0.275   2.935
 1094SOL     OW 4180   7.009   0.531   3.281
 1094SOL    HW1 4181   6.979   0.552   3.374
 1094SOL    HW2 4182   6.947   0.575   3.215
 1095SOL     OW 4183   5.210   3.173   0.696
 1095SOL    HW1 4184   5.305   3.163   0.724
 1095SOL    HW2 4185   5.181   3.093   0.645
 1096SOL     OW 4186   2.257   5.722   1.842
 1096SOL    HW1 4187   2.211   5.708   1.755
 1096SOL    HW2 4188   2.234   5.812   1.878
 1097SOL     OW 4189   2.706   5.711   4.506
 1097SOL    HW1 4190   2.747   5.743   4.421
 1097SOL    HW2 4191   2.642   5.781   4.540
 1098SOL     OW 4192   6.058   4.051   0.695
 1098SOL    HW1 4193   6.130   4.020   0.633
 1098SOL    HW2 4194   6.070   4.149   0.715
 1099SOL     OW 4195   4.788   0.340   6.079
 1099SOL    HW1 4196   4.732   0.378   6.152
 1099SOL    HW2 4197   4.859   0.282   6.119
 1100SOL     OW 4198   4.030   1.740   4.526
 1100SOL    HW1 4199   4.061   1.665   4.584
 1100SOL    HW2 4200   4.041   1.714   4.430
 1101SOL     OW 4201   4.799   3.190   6.204
 1101SOL    HW1 4202   4.845   3.109   6.240
 1101SOL    HW2 4203   4.709   3.199   6.248
 1102SOL     OW 4204   2.866   0.662   3.397
 1102SOL    HW1 4205   2.769   0.675   3.377
 1102SOL    HW2 4206   2.905   0.600   3.329
 1103SOL     OW 4207   3.496   6.407   0.591
 1103SOL    HW1 4208   3.457   6.499   0.597
 1103SOL    HW2 4209   3.430   6.345   0.550
 1104SOL     OW 4210   0.513   2.950   3.643
 1104SOL    HW1 4211   0.424   2.979   3.608
 1104SOL    HW2 4212   0.519   2.850   3.640
 1105SOL     OW 4213   5.044   1.342   6.114
 1105SOL    HW1 4214   5.067   1.361   6.018
 1105SOL    HW2 4215   5.126   1.316   6.163
 1106SOL     OW 4216   6.495   1.275   0.957
 1106SOL    HW1 4217   6.531   1.365   0.981
 1106SOL    HW2 4218   6.532   1.206   1.020
 1107SOL     OW 4219   0.873   1.250   6.640
 1107SOL    HW1 4220   0.840   1.242   6.546
 1107SOL    HW2 4221   0.815   1.313   6.691
 1108SOL     OW 4222   2.443   0.771   4.351
 1108SOL    HW1 4223   2.518   0.777   4.416
 1108SOL    HW2 4224   2.476   0.795   4.260
 1109SOL     OW 4225   4.687   2.536   5.136
 1109SOL    HW1 4226   4.695   2.636   5.139
 1109SOL    HW2 4227   4.590   2.511   5.143
 1110SOL     OW 4228   2.059   0.661   2.231
 1110SOL    HW1 4229   2.138   0.722   2.221
 1110SOL    HW2 4230   1.992   0.702   2.293
 1111SOL     OW 4231   5.719   4.123   6.249
 1111SOL    HW1 4232   5.776   4.072   6.314
 1111SOL    HW2 4233   5.759   4.115   6.157
 1112SOL     OW 4234   5.447   0.848   2.280
 1112SOL    HW1 4235   5.526   0.905   2.304
 1112SOL    HW2 4236   5.410   0.878   2.192
 1113SOL     OW 4237   5.838   3.870   2.255
 1113SOL    HW1 4238   5.888   3.957   2.256
 1113SOL    HW2 4239   5.884   3.805   2.316
 1114SOL     OW 4240   3.336   3.835   4.708
 1114SOL    HW1 4241   3.401   3.848   4.783
 1114SOL    HW2 4242   3.255   3.890   4.725
 1115SOL     OW 4243   2.752   4.567   5.566
 1115SOL    HW1 4244   2.814   4.556   5.488
 1115SOL    HW2 4245   2.670   4.617   5.537
 1116SOL     OW 4246   4.783   0.103   6.755
 1116SOL    HW1 4247   4.737   0.184   6.719
 1116SOL    HW2 4248   4.740   0.020   6.718
 1117SOL     OW 4249   2.492   2.787   1.333
 1117SOL    HW1 4250   2.414   2.849   1.333
 1117SOL    HW2 4251   2.514   2.761   1.428
 1118SOL     OW 4252   4.420   6.088   0.267
 1118SOL    HW1 4253   4.466   6.003   0.242
 1118SOL    HW2 4254   4.349   6.069   0.335
 1119SOL     OW 4255   3.658   4.935   3.889
 1119SOL    HW1 4256   3.615   4.944   3.979
 1119SOL    HW2 4257   3.588   4.921   3.819
 1120SOL     OW 4258   6.711   3.414   1.264
 1120SOL    HW1 4259   6.726   3.344   1.333
 1120SOL    HW2 4260   6.713   3.504   1.308
 1121SOL     OW 4261   6.639   4.432   4.870
 1121SOL    HW1 4262   6.644   4.532   4.875
 1121SOL    HW2 4263   6.728   4.396   4.841
 1122SOL     OW 4264   5.597   2.386   1.567
 1122SOL    HW1 4265   5.649   2.461   1.608
 1122SOL    HW2 4266   5.541   2.341   1.637
 1123SOL     OW 4267   4.233   1.496   3.536
 1123SOL    HW1 4268   4.240   1.572   3.471
 1123SOL    HW2 4269   4.294   1.513   3.613
 1124SOL     OW 4270   2.299   2.478   4.356
 1124SOL    HW1 4271   2.370   2.510   4.420
 1124SOL    HW2 4272   2.340   2.464   4.266
 1125SOL     OW 4273   1.689   3.200   3.698
 1125SOL    HW1 4274   1.730   3.191   3.788
 1125SOL    HW2 4275   1.755   3.242   3.635
 1126SOL     OW 4276   4.321   4.997   4.810
 1126SOL    HW1 4277   4.347   4.934   4.883
 1126SOL    HW2 4278   4.369   4.973   4.726
 1127SOL     OW 4279   6.304   6.853   2.083
 1127SOL    HW1 4280   6.232   6.838   2.151
 1127SOL    HW2 4281   6.286   6.798   2.002
 1128SOL     OW 4282   5.186   0.860   4.592
 1128SOL    HW1 4283   5.189   0.948   4.640
 1128SOL    HW2 4284   5.275   0.817   4.597
 1129SOL     OW 4285   1.101   0.797   0.633
 1129SOL    HW1 4286   1.143   0.812   0.543
 1129SOL    HW2 4287   1.067   0.703   0.638
 1130SOL     OW 4288   2.347   4.776   2.238
 1130SOL    HW1 4289   2.433   4.732   2.211
 1130SOL    HW2 4290   2.270   4.722   2.206
 1131SOL     OW 4291   1.533   5.569   4.008
 1131SOL    HW1 4292   1.453   5.627   3.989
 1131SOL    HW2 4293   1.526   5.533   4.101
 1132SOL     OW 4294   2.093   1.633   2.524
 1132SOL    HW1 4295   2.061   1.540   2.509
 1132SOL    HW2 4296   2.131   1.669   2.439
 1133SOL     OW 4297   0.914   0.104   6.050
 1133SOL    HW1 4298   0.826   0.141   6.022
 1133SOL    HW2 4299   0.950   0.157   6.126
 1134SOL     OW 4300   3.683   6.132   1.626
 1134SOL    HW1 4301   3.716   6.203   1.687
 1134SOL    HW2 4302   3.589   6.152   1.598
 1135SOL     OW 4303   1.669   5.998   3.097
 1135SOL    HW1 4304   1.720   6.063   3.153
 1135SOL    HW2 4305   1.732   5.941   3.046
 1136SOL     OW 4306   1.693   5.483   2.340
 1136SOL    HW1 4307   1.723   5.558   2.399
 1136SOL    HW2 4308   1.772   5.428   2.314
 1137SOL     OW 4309   1.144   5.585   4.932
 1137SOL    HW1 4310   1.188   5.499   4.961
 1137SOL    HW2 4311   1.158   5.654   5.003
 1138SOL     OW 4312   2.154   3.286   4.556
 1138SOL    HW1 4313   2.092   3.223   4.602
 1138SOL    HW2 4314   2.154   3.374   4.604
 1139SOL     OW 4315   2.067   5.140   4.904
 1139SOL    HW1 4316   2.154   5.180   4.875
 1139SOL    HW2 4317   1.991   5.199   4.876
 1140SOL     OW 4318   2.004   2.135   1.378
 1140SOL    HW1 4319   1.986   2.081   1.460
 1140SOL    HW2 4320   2.100   2.122   1.350
 1141SOL     OW 4321   6.846   4.803   6.118
 1141SOL    HW1 4322   6.811   4.896   6.126
 1141SOL    HW2 4323   6.862   4.765   6.209
 1142SOL     OW 4324   1.790   6.141   2.277
 1142SOL    HW1 4325   1.734   6.136   2.360
 1142SOL    HW2 4326   1.771   6.061   2.220
 1143SOL     OW 4327   0.615   3.803   1.907
 1143SOL    HW1 4328   0.670   3.732   1.952
 1143SOL    HW2 4329   0.594   3.875   1.973
 1144SOL     OW 4330   5.611   4.534   0.345
 1144SOL    HW1 4331   5.515   4.516   0.367
 1144SOL    HW2 4332   5.616   4.586   0.260
 1145SOL     OW 4333   5.760   6.790   0.944
 1145SOL    HW1 4334   5.761   6.861   0.873
 1145SOL    HW2 4335   5.840   6.802   1.004
 1146SOL     OW 4336   1.147   0.833   1.398
 1146SOL    HW1 4337   1.064   0.879   1.429
 1146SOL    HW2 4338   1.165   0.859   1.303
 1147SOL     OW 4339   1.858   6.248   1.185
 1147SOL    HW1 4340   1.907   6.208   1.263
 1147SOL    HW2 4341   1.762   6.261   1.209
 1148SOL     OW 4342   4.227   5.841   3.328
 1148SOL    HW1 4343   4.242   5.862   3.425
 1148SOL    HW2 4344   4.144   5.887   3.297
 1149SOL     OW 4345   4.729   3.373   1.488
 1149SOL    HW1 4346   4.641   3.358   1.442
 1149SOL    HW2 4347   4.732   3.317   1.571
 1150SOL     OW 4348   1.628   3.427   0.825
 1150SOL    HW1 4349   1.647   3.376   0.909
 1150SOL    HW2 4350   1.631   3.365   0.747
 1151SOL     OW 4351   6.537   5.357   4.150
 1151SOL    HW1 4352   6.599   5.293   4.104
 1151SOL    HW2 4353   6.583   5.395   4.230
 1152SOL     OW 4354   3.408   6.180   6.309
 1152SOL    HW1 4355   3.376   6.202   6.217
 1152SOL    HW2 4356   3.351   6.226   6.376
 1153SOL     OW 4357   5.644   6.993   1.851
 1153SOL    HW1 4358   5.740   6.966   1.846
 1153SOL    HW2 4359   5.610   6.982   1.944
 1154SOL     OW 4360   2.062   2.931   0.742
 1154SOL    HW1 4361   1.975   2.882   0.734
 1154SOL    HW2 4362   2.073   2.963   0.836
 1155SOL     OW 4363   2.992   6.471   4.599
 1155SOL    HW1 4364   3.028   6.382   4.570
 1155SOL    HW2 4365   3.067   6.536   4.610
 1156SOL     OW 4366   2.802   1.997   3.212
 1156SOL    HW1 4367   2.871   2.043   3.156
 1156SOL    HW2 4368   2.804   1.899   3.194
 1157SOL     OW 4369   3.295   1.146   0.068
 1157SOL    HW1 4370   3.239   1.145   7.012
 1157SOL    HW2 4371   3.387   1.178   0.045
 1158SOL     OW 4372   5.906   4.239   2.923
 1158SOL    HW1 4373   5.877   4.328   2.959
 1158SOL    HW2 4374   6.000   4.221   2.952
 1159SOL     OW 4375   6.657   4.913   1.073
 1159SOL    HW1 4376   6.613   4.954   1.153
 1159SOL    HW2 4377   6.674   4.816   1.092
 1160SOL     OW 4378   5.705   1.849   0.197
 1160SOL    HW1 4379   5.633   1.814   0.136
 1160SOL    HW2 4380   5.793   1.844   0.149
 1161SOL     OW 4381   0.032   4.867   1.392
 1161SOL    HW1 4382   0.100   4.880   1.464
 1161SOL    HW2 4383   0.054   4.786   1.338
 1162SOL     OW 4384   3.118   2.145   4.874
 1162SOL    HW1 4385   3.108   2.047   4.891
 1162SOL    HW2 4386   3.133   2.192   4.960
 1163SOL     OW 4387   5.407   2.912   1.353
 1163SOL    HW1 4388   5.367   2.846   1.289
 1163SOL    HW2 4389   5.491   2.949   1.315
 1164SOL     OW 4390   3.953   2.538   5.760
 1164SOL    HW1 4391   3.883   2.569   5.696
 1164SOL    HW2 4392   3.999   2.618   5.801
 1165SOL     OW 4393   3.871   6.421   3.282
 1165SOL    HW1 4394   3.950   6.360   3.290
 1165SOL    HW2 4395   3.860   6.449   3.187
 1166SOL     OW 4396   3.170   4.863   6.011
 1166SOL    HW1 4397   3.247   4.925   6.027
 1166SOL    HW2 4398   3.090   4.916   5.982
 1167SOL     OW 4399   5.163   4.543   2.395
 1167SOL    HW1 4400   5.123   4.602   2.325
 1167SOL    HW2 4401   5.157   4.588   2.484
 1168SOL     OW 4402   6.766   0.178   2.628
 1168SOL    HW1 4403   6.850   0.224   2.658
 1168SOL    HW2 4404   6.696   0.247   2.608
 1169SOL     OW 4405   4.930   1.163   5.327
 1169SOL    HW1 4406   4.899   1.197   5.416
 1169SOL    HW2 4407   4.962   1.069   5.337
 1170SOL     OW 4408   4.801   5.564   3.202
 1170SOL    HW1 4409   4.895   5.539   3.226
 1170SOL    HW2 4410   4.798   5.660   3.174
 1171SOL     OW 4411   0.262   5.876   1.046
 1171SOL    HW1 4412   0.270   5.975   1.035
 1171SOL    HW2 4413   0.217   5.837   0.965
 1172SOL     OW 4414   6.727   3.299   6.902
 1172SOL    HW1 4415   6.820   3.262   6.896
 1172SOL    HW2 4416   6.728   3.396   6.877
 1173SOL     OW 4417   3.803   1.733   0.527
 1173SOL    HW1 4418   3.837   1.803   0.464
 1173SOL    HW2 4419   3.705   1.719   0.511
 1174SOL     OW 4420   2.416   4.344   0.692
 1174SOL    HW1 4421   2.485   4.359   0.763
 1174SOL    HW2 4422   2.456   4.364   0.602
 1175SOL     OW 4423   3.230   2.974   4.233
 1175SOL    HW1 4424   3.253   2.984   4.137
 1175SOL    HW2 4425   3.308   2.935   4.282
 1176SOL     OW 4426   5.424   3.298   5.966
 1176SOL    HW1 4427   5.360   3.362   5.924
 1176SOL    HW2 4428   5.401   3.204   5.937
 1177SOL     OW 4429   0.501   1.739   4.186
 1177SOL    HW1 4430   0.591   1.701   4.164
 1177SOL    HW2 4431   0.434   1.706   4.119
 1178SOL     OW 4432   4.113   5.757   0.597
 1178SOL    HW1 4433   4.054   5.716   0.668
 1178SOL    HW2 4434   4.092   5.714   0.509
 1179SOL     OW 4435   1.651   5.967   0.297
 1179SOL    HW1 4436   1.584   6.020   0.348
 1179SOL    HW2 4437   1.607   5.925   0.217
 1180SOL     OW 4438   3.376   6.133   0.501
 1180SOL    HW1 4439   3.390   6.046   0.548
 1180SOL    HW2 4440   3.349   6.116   0.407
 1181SOL     OW 4441   0.034   6.394   0.360
 1181SOL    HW1 4442   0.133   6.395   0.376
 1181SOL    HW2 4443   7.013   6.412   0.445
 1182SOL     OW 4444   4.414   4.634   2.754
 1182SOL    HW1 4445   4.402   4.701   2.828
 1182SOL    HW2 4446   4.508   4.636   2.722
 1183SOL     OW 4447   2.593   3.263   5.551
 1183SOL    HW1 4448   2.669   3.200   5.563
 1183SOL    HW2 4449   2.539   3.235   5.471
 1184SOL     OW 4450   0.761   6.832   5.451
 1184SOL    HW1 4451   0.677   6.883   5.469
 1184SOL    HW2 4452   0.840   6.893   5.458
 1185SOL     OW 4453   6.806   1.327   6.691
 1185SOL    HW1 4454   6.737   1.257   6.673
 1185SOL    HW2 4455   6.791   1.367   6.781
 1186SOL     OW 4456   5.828   6.115   4.490
 1186SOL    HW1 4457   5.814   6.212   4.513
 1186SOL    HW2 4458   5.785   6.058   4.561
 1187SOL     OW 4459   6.025   0.543   6.320
 1187SOL    HW1 4460   6.014   0.630   6.272
 1187SOL    HW2 4461   6.118   0.509   6.306
 1188SOL     OW 4462   2.295   0.135   6.374
 1188SOL    HW1 4463   2.265   0.053   6.422
 1188SOL    HW2 4464   2.309   0.209   6.440
 1189SOL     OW 4465   5.144   3.998   3.384
 1189SOL    HW1 4466   5.215   4.000   3.314
 1189SOL    HW2 4467   5.154   3.916   3.440
 1190SOL     OW 4468   1.923   6.018   3.437
 1190SOL    HW1 4469   1.909   6.064   3.350
 1190SOL    HW2 4470   2.020   6.018   3.460
 1191SOL     OW 4471   3.985   5.947   2.593
 1191SOL    HW1 4472   3.985   5.852   2.562
 1191SOL    HW2 4473   4.040   6.002   2.531
 1192SOL     OW 4474   5.888   5.936   3.369
 1192SOL    HW1 4475   5.867   5.978   3.280
 1192SOL    HW2 4476   5.981   5.899   3.367
 1193SOL     OW 4477   6.877   5.239   4.291
 1193SOL    HW1 4478   6.877   5.338   4.277
 1193SOL    HW2 4479   6.881   5.220   4.389
 1194SOL     OW 4480   3.752   0.633   1.061
 1194SOL    HW1 4481   3.782   0.538   1.049
 1194SOL    HW2 4482   3.824   0.695   1.029
 1195SOL     OW 4483   5.494   2.223   3.761
 1195SOL    HW1 4484   5.465   2.176   3.844
 1195SOL    HW2 4485   5.586   2.258   3.772
 1196SOL     OW 4486   6.297   6.307   5.193
 1196SOL    HW1 4487   6.307   6.313   5.093
 1196SOL    HW2 4488   6.202   6.328   5.218
 1197SOL     OW 4489   2.237   6.057   0.270
 1197SOL    HW1 4490   2.171   6.059   0.195
 1197SOL    HW2 4491   2.227   5.973   0.323
 1198SOL     OW 4492   1.512   2.726   0.180
 1198SOL    HW1 4493   1.555   2.681   0.258
 1198SOL    HW2 4494   1.582   2.749   0.112
 1199SOL     OW 4495   5.646   4.049   1.598
 1199SOL    HW1 4496   5.670   4.093   1.685
 1199SOL    HW2 4497   5.550   4.020   1.600
 1200SOL     OW 4498   3.164   3.184   2.200
 1200SOL    HW1 4499   3.264   3.187   2.195
 1200SOL    HW2 4500   3.136   3.140   2.286
 1201SOL     OW 4501   1.910   1.841   4.404
 1201SOL    HW1 4502   1.998   1.870   4.441
 1201SOL    HW2 4503   1.865   1.919   4.361
 1202SOL     OW 4504   0.674   5.057   5.442
 1202SOL    HW1 4505   0.604   5.123   5.418
 1202SOL    HW2 4506   0.677   5.044   5.541
 1203SOL     OW 4507   4.527   5.985   5.379
 1203SOL    HW1 4508   4.580   6.041   5.443
 1203SOL    HW2 4509   4.468   6.045   5.323
 1204SOL     OW 4510   2.036   6.693   3.102
 1204SOL    HW1 4511   2.108   6.746   3.057
 1204SOL    HW2 4512   1.946   6.724   3.071
 1205SOL     OW 4513   5.144   4.254   2.332
 1205SOL    HW1 4514   5.237   4.221   2.317
 1205SOL    HW2 4515   5.145   4.353   2.345
 1206SOL     OW 4516   3.004   3.298   4.793
 1206SOL    HW1 4517   2.925   3.324   4.737
 1206SOL    HW2 4518   3.061   3.378   4.809
 1207SOL     OW 4519   1.351   6.533   2.220
 1207SOL    HW1 4520   1.331   6.460   2.155
 1207SOL    HW2 4521   1.391   6.611   2.171
 1208SOL     OW 4522   3.536   4.156   5.925
 1208SOL    HW1 4523   3.612   4.138   5.862
 1208SOL    HW2 4524   3.451   4.162   5.874
 1209SOL     OW 4525   4.135   6.547   5.621
 1209SOL    HW1 4526   4.132   6.453   5.656
 1209SOL    HW2 4527   4.054   6.596   5.652
 1210SOL     OW 4528   3.567   0.675   3.131
 1210SOL    HW1 4529   3.633   0.668   3.055
 1210SOL    HW2 4530   3.593   0.752   3.190
 1211SOL     OW 4531   0.952   3.346   0.051
 1211SOL    HW1 4532   0.933   3.260   0.099
 1211SOL    HW2 4533   0.887   3.358   7.003
 1212SOL     OW 4534   1.306   6.706   0.447
 1212SOL    HW1 4535   1.207   6.693   0.441
 1212SOL    HW2 4536   1.339   6.744   0.361
 1213SOL     OW 4537   5.228   2.719   1.210
 1213SOL    HW1 4538   5.156   2.772   1.255
 1213SOL    HW2 4539   5.209   2.714   1.112
 1214SOL     OW 4540   0.016   2.404   1.654
 1214SOL    HW1 4541   6.979   2.460   1.601
 1214SOL    HW2 4542   0.047   2.455   1.734
 1215SOL     OW 4543   1.327   5.740   3.925
 1215SOL    HW1 4544   1.364   5.822   3.970
 1215SOL    HW2 4545   1.227   5.743   3.927
 1216SOL     OW 4546   4.577   6.018   1.062
 1216SOL    HW1 4547   4.516   6.088   1.027
 1216SOL    HW2 4548   4.627   5.975   0.986
 1217SOL     OW 4549   3.033   4.417   6.910
 1217SOL    HW1 4550   3.061   4.509   6.938
 1217SOL    HW2 4551   3.007   4.364   6.992
 1218SOL     OW 4552   1.864   4.663   3.895
 1218SOL    HW1 4553   1.827   4.635   3.807
 1218SOL    HW2 4554   1.922   4.591   3.931
 1219SOL     OW 4555   4.424   6.278   2.382
 1219SOL    HW1 4556   4.384   6.264   2.473
 1219SOL    HW2 4557   4.429   6.376   2.363
 1220SOL     OW 4558   1.112   4.867   2.875
 1220SOL    HW1 4559   1.149   4.922   2.800
 1220SOL    HW2 4560   1.129   4.770   2.856
 1221SOL     OW 4561   5.128   4.107   6.273
 1221SOL    HW1 4562   5.181   4.179   6.318
 1221SOL    HW2 4563   5.037   4.142   6.252
 1222SOL     OW 4564   6.439   6.959   6.678
 1222SOL    HW1 4565   6.366   7.000   6.623
 1222SOL    HW2 4566   6.403   6.933   6.767
 1223SOL     OW 4567   3.327   6.452   0.951
 1223SOL    HW1 4568   3.267   6.406   1.017
 1223SOL    HW2 4569   3.391   6.511   1.000
 1224SOL     OW 4570   3.290   0.174   2.455
 1224SOL    HW1 4571   3.271   0.271   2.471
 1224SOL    HW2 4572   3.208   0.130   2.418
 1225SOL     OW 4573   2.765   3.970   6.091
 1225SOL    HW1 4574   2.832   3.898   6.074
 1225SOL    HW2 4575   2.732   3.964   6.185
 1226SOL     OW 4576   1.738   4.733   0.821
 1226SOL    HW1 4577   1.740   4.634   0.835
 1226SOL    HW2 4578   1.761   4.779   0.907
 1227SOL     OW 4579   0.519   3.980   6.215
 1227SOL    HW1 4580   0.528   4.042   6.138
 1227SOL    HW2 4581   0.500   3.887   6.182
 1228SOL     OW 4582   3.500   1.649   6.009
 1228SOL    HW1 4583   3.456   1.601   5.933
 1228SOL    HW2 4584   3.592   1.613   6.022
 1229SOL     OW 4585   3.498   4.044   6.212
 1229SOL    HW1 4586   3.573   3.997   6.165
 1229SOL    HW2 4587   3.526   4.139   6.230
 1230SOL     OW 4588   4.588   6.568   3.339
 1230SOL    HW1 4589   4.643   6.649   3.357
 1230SOL    HW2 4590   4.502   6.574   3.389
 1231SOL     OW 4591   1.146   4.762   4.566
 1231SOL    HW1 4592   1.072   4.795   4.626
 1231SOL    HW2 4593   1.232   4.804   4.594
 1232SOL     OW 4594   2.068   2.070   4.513
 1232SOL    HW1 4595   2.071   2.169   4.518
 1232SOL    HW2 4596   2.030   2.033   4.598
 1233SOL     OW 4597   0.487   3.010   4.486
 1233SOL    HW1 4598   0.528   2.924   4.516
 1233SOL    HW2 4599   0.558   3.079   4.472
 1234SOL     OW 4600   6.600   4.273   4.214
 1234SOL    HW1 4601   6.576   4.359   4.259
 1234SOL    HW2 4602   6.597   4.285   4.114
 1235SOL     OW 4603   7.016   5.503   3.925
 1235SOL    HW1 4604   6.922   5.494   3.891
 1235SOL    HW2 4605   0.052   5.513   3.847
 1236SOL     OW 4606   4.954   0.945   6.594
 1236SOL    HW1 4607   5.018   0.876   6.629
 1236SOL    HW2 4608   5.006   1.023   6.558
 1237SOL     OW 4609   3.114   4.719   6.685
 1237SOL    HW1 4610   3.194   4.756   6.732
 1237SOL    HW2 4611   3.144   4.670   6.603
 1238SOL     OW 4612   1.453   1.541   1.471
 1238SOL    HW1 4613   1.369   1.490   1.457
 1238SOL    HW2 4614   1.526   1.502   1.414
 1239SOL     OW 4615   0.255   6.863   5.839
 1239SOL    HW1 4616   0.286   6.926   5.910
 1239SOL    HW2 4617   0.290   6.771   5.858
 1240SOL     OW 4618   4.199   5.952   2.095
 1240SOL    HW1 4619   4.217   5.870   2.149
 1240SOL    HW2 4620   4.262   6.025   2.123
 1241SOL     OW 4621   6.711   2.813   3.738
 1241SOL    HW1 4622   6.768   2.856   3.808
 1241SOL    HW2 4623   6.757   2.731   3.703
 1242SOL     OW 4624   2.209   3.715   6.291
 1242SOL    HW1 4625   2.163   3.650   6.231
 1242SOL    HW2 4626   2.286   3.756   6.242
 1243SOL     OW 4627   2.903   5.444   5.808
 1243SOL    HW1 4628   2.911   5.454   5.907
 1243SOL    HW2 4629   2.994   5.432   5.768
 1244SOL     OW 4630   0.906   1.072   2.928
 1244SOL    HW1 4631   0.915   1.163   2.969
 1244SOL    HW2 4632   0.983   1.056   2.865
 1245SOL     OW 4633   2.743   2.957   6.113
 1245SOL    HW1 4634   2.788   2.948   6.024
 1245SOL    HW2 4635   2.714   3.052   6.126
 1246SOL     OW 4636   1.261   6.966   2.215
 1246SOL    HW1 4637   1.209   7.003   2.138
 1246SOL    HW2 4638   1.220   6.997   2.301
 1247SOL     OW 4639   1.404   6.844   6.975
 1247SOL    HW1 4640   1.463   6.917   6.940
 1247SOL    HW2 4641   1.318   6.844   6.924
 1248SOL     OW 4642   1.921   6.419   3.552
 1248SOL    HW1 4643   1.934   6.479   3.473
 1248SOL    HW2 4644   1.860   6.344   3.527
 1249SOL     OW 4645   6.312   3.101   3.268
 1249SOL    HW1 4646   6.385   3.033   3.265
 1249SOL    HW2 4647   6.242   3.077   3.201
 1250SOL     OW 4648   0.827   3.955   4.387
 1250SOL    HW1 4649   0.893   3.900   4.439
 1250SOL    HW2 4650   0.864   4.047   4.372
 1251SOL     OW 4651   3.164   6.711   5.795
 1251SOL    HW1 4652   3.215   6.780   5.744
 1251SOL    HW2 4653   3.108   6.755   5.864
 1252SOL     OW 4654   3.292   3.131   6.591
 1252SOL    HW1 4655   3.279   3.060   6.660
 1252SOL    HW2 4656   3.344   3.094   6.514
 1253SOL     OW 4657   4.101   6.280   3.325
 1253SOL    HW1 4658   4.187   6.299   3.371
 1253SOL    HW2 4659   4.118   6.224   3.244
 1254SOL     OW 4660   6.236   2.311   2.436
 1254SOL    HW1 4661   6.326   2.317   2.481
 1254SOL    HW2 4662   6.187   2.231   2.471
 1255SOL     OW 4663   5.838   0.215   0.508
 1255SOL    HW1 4664   5.912   0.264   0.461
 1255SOL    HW2 4665   5.869   0.186   0.598
 1256SOL     OW 4666   4.417   2.008   3.786
 1256SOL    HW1 4667   4.397   2.102   3.813
 1256SOL    HW2 4668   4.510   2.003   3.749
 1257SOL     OW 4669   6.394   1.279   4.441
 1257SOL    HW1 4670   6.388   1.377   4.419
 1257SOL    HW2 4671   6.385   1.225   4.358
 1258SOL     OW 4672   0.058   6.315   3.994
 1258SOL    HW1 4673   0.019   6.248   3.931
 1258SOL    HW2 4674   0.060   6.277   4.086
 1259SOL     OW 4675   4.098   2.066   5.639
 1259SOL    HW1 4676   4.015   2.023   5.604
 1259SOL    HW2 4677   4.112   2.154   5.594
 1260SOL     OW 4678   0.412   1.688   5.510
 1260SOL    HW1 4679   0.455   1.633   5.438
 1260SOL    HW2 4680   0.445   1.783   5.503
 1261SOL     OW 4681   6.170   3.718   0.908
 1261SOL    HW1 4682   6.268   3.712   0.926
 1261SOL    HW2 4683   6.127   3.630   0.928
 1262SOL     OW 4684   5.035   6.439   2.683
 1262SOL    HW1 4685   4.942   6.408   2.698
 1262SOL    HW2 4686   5.081   6.376   2.619
 1263SOL     OW 4687   6.649   2.224   3.370
 1263SOL    HW1 4688   6.725   2.286   3.349
 1263SOL    HW2 4689   6.585   2.224   3.293
 1264SOL     OW 4690   0.919   2.993   5.216
 1264SOL    HW1 4691   0.906   3.039   5.303
 1264SOL    HW2 4692   0.973   2.910   5.229
 1265SOL     OW 4693   5.573   6.997   5.789
 1265SOL    HW1 4694   5.646   6.930   5.773
 1265SOL    HW2 4695   5.526   6.976   5.875
 1266SOL     OW 4696   2.185   1.764   5.983
 1266SOL    HW1 4697   2.143   1.809   5.904
 1266SOL    HW2 4698   2.125   1.690   6.015
 1267SOL     OW 4699   3.663   6.895   2.637
 1267SOL    HW1 4700   3.658   6.801   2.602
 1267SOL    HW2 4701   3.590   6.949   2.597
 1268SOL     OW 4702   4.026   2.820   5.792
 1268SOL    HW1 4703   3.951   2.881   5.764
 1268SOL    HW2 4704   4.102   2.874   5.827
 1269SOL     OW 4705   5.802   1.997   3.879
 1269SOL    HW1 4706   5.851   1.923   3.834
 1269SOL    HW2 4707   5.714   1.963   3.912
 1270SOL     OW 4708   6.028   5.194   2.846
 1270SOL    HW1 4709   5.981   5.264   2.900
 1270SOL    HW2 4710   5.960   5.131   2.809
 1271SOL     OW 4711   1.912   1.111   1.145
 1271SOL    HW1 4712   1.865   1.088   1.231
 1271SOL    HW2 4713   1.852   1.093   1.068
 1272SOL     OW 4714   6.389   2.448   6.724
 1272SOL    HW1 4715   6.448   2.399   6.660
 1272SOL    HW2 4716   6.297   2.454   6.686
 1273SOL     OW 4717   1.422   4.742   5.779
 1273SOL    HW1 4718   1.330   4.713   5.754
 1273SOL    HW2 4719   1.437   4.836   5.749
 1274SOL     OW 4720   6.906   4.874   3.111
 1274SOL    HW1 4721   6.956   4.796   3.148
 1274SOL    HW2 4722   6.832   4.842   3.052
 1275SOL     OW 4723   2.208   1.420   2.750
 1275SOL    HW1 4724   2.125   1.409   2.694
 1275SOL    HW2 4725   2.201   1.361   2.831
 1276SOL     OW 4726   5.706   4.671   3.388
 1276SOL    HW1 4727   5.740   4.604   3.454
 1276SOL    HW2 4728   5.702   4.761   3.431
 1277SOL     OW 4729   0.119   6.031   0.296
 1277SOL    HW1 4730   0.094   6.039   0.392
 1277SOL    HW2 4731   0.212   5.995   0.288
 1278SOL     OW 4732   1.053   5.844   3.196
 1278SOL    HW1 4733   1.113   5.856   3.275
 1278SOL    HW2 4734   0.990   5.922   3.191
 1279SOL     OW 4735   2.590   2.771   1.576
 1279SOL    HW1 4736   2.589   2.844   1.644
 1279SOL    HW2 4737   2.680   2.729   1.573
 1280SOL     OW 4738   2.632   2.160   3.787
 1280SOL    HW1 4739   2.662   2.253   3.807
 1280SOL    HW2 4740   2.702   2.095   3.814
 1281SOL     OW 4741   5.488   6.607   4.827
 1281SOL    HW1 4742   5.417   6.545   4.794
 1281SOL    HW2 4743   5.467   6.637   4.920
 1282SOL     OW 4744   0.524   3.216   1.216
 1282SOL    HW1 4745   0.590   3.180   1.150
 1282SOL    HW2 4746   0.573   3.248   1.298
 1283SOL     OW 4747   6.727   2.577   4.900
 1283SOL    HW1 4748   6.697   2.484   4.881
 1283SOL    HW2 4749   6.806   2.575   4.961
 1284SOL     OW 4750   3.931   2.185   1.832
 1284SOL    HW1 4751   3.959   2.161   1.739
 1284SOL    HW2 4752   3.838   2.222   1.830
 1285SOL     OW 4753   4.403   1.267   4.512
 1285SOL    HW1 4754   4.346   1.215   4.575
 1285SOL    HW2 4755   4.497   1.267   4.544
 1286SOL     OW 4756   5.337   1.539   0.796
 1286SOL    HW1 4757   5.385   1.452   0.781
 1286SOL    HW2 4758   5.388   1.613   0.753
 1287SOL     OW 4759   6.622   4.699   4.844
 1287SOL    HW1 4760   6.678   4.774   4.878
 1287SOL    HW2 4761   6.564   4.732   4.769
 1288SOL     OW 4762   5.135   4.874   6.985
 1288SOL    HW1 4763   5.167   4.794   6.935
 1288SOL    HW2 4764   5.043   4.857   7.019
 1289SOL     OW 4765   6.776   6.978   1.148
 1289SOL    HW1 4766   6.775   6.896   1.204
 1289SOL    HW2 4767   6.683   7.015   1.140
 1290SOL     OW 4768   1.183   6.153   5.213
 1290SOL    HW1 4769   1.200   6.238   5.262
 1290SOL    HW2 4770   1.091   6.155   5.175
 1291SOL     OW 4771   6.312   4.887   3.686
 1291SOL    HW1 4772   6.352   4.978   3.700
 1291SOL    HW2 4773   6.266   4.884   3.598
 1292SOL     OW 4774   0.841   6.598   1.719
 1292SOL    HW1 4775   0.875   6.676   1.667
 1292SOL    HW2 4776   0.744   6.584   1.700
 1293SOL     OW 4777   4.716   0.992   0.491
 1293SOL    HW1 4778   4.667   0.964   0.409
 1293SOL    HW2 4779   4.718   0.917   0.557
 1294SOL     OW 4780   2.049   4.622   5.128
 1294SOL    HW1 4781   1.957   4.589   5.150
 1294SOL    HW2 4782   2.110   4.544   5.118
 1295SOL     OW 4783   6.570   4.336   0.545
 1295SOL    HW1 4784   6.606   4.281   0.620
 1295SOL    HW2 4785   6.602   4.431   0.554
 1296SOL     OW 4786   5.111   0.292   5.977
 1296SOL    HW1 4787   5.192   0.349   5.992
 1296SOL    HW2 4788   5.083   0.249   6.063
 1297SOL     OW 4789   7.002   0.417   1.512
 1297SOL    HW1 4790   7.009   0.344   1.444
 1297SOL    HW2 4791   7.020   0.378   1.603
 1298SOL     OW 4792   5.395   0.620   2.452
 1298SOL    HW1 4793   5.400   0.702   2.395
 1298SOL    HW2 4794   5.366   0.645   2.545
 1299SOL     OW 4795   0.923   3.159   3.891
 1299SOL    HW1 4796   0.854   3.091   3.865
 1299SOL    HW2 4797   1.013   3.115   3.894
 1300SOL     OW 4798   0.298   5.760   1.371
 1300SOL    HW1 4799   0.231   5.693   1.340
 1300SOL    HW2 4800   0.366   5.775   1.300
 1301SOL     OW 4801   6.852   0.217   0.142
 1301SOL    HW1 4802   6.828   0.125   0.111
 1301SOL    HW2 4803   6.808   0.235   0.230
 1302SOL     OW 4804   6.472   6.652   5.289
 1302SOL    HW1 4805   6.379   6.646   5.325
 1302SOL    HW2 4806   6.473   6.625   5.193
 1303SOL     OW 4807   3.133   5.960   1.705
 1303SOL    HW1 4808   3.114   6.055   1.727
 1303SOL    HW2 4809   3.082   5.901   1.768
 1304SOL     OW 4810   0.452   0.578   0.515
 1304SOL    HW1 4811   0.362   0.605   0.550
 1304SOL    HW2 4812   0.500   0.524   0.585
 1305SOL     OW 4813   4.373   4.227   5.991
 1305SOL    HW1 4814   4.338   4.264   5.905
 1305SOL    HW2 4815   4.301   4.228   6.060
 1306SOL     OW 4816   3.388   6.172   4.073
 1306SOL    HW1 4817   3.401   6.114   3.993
 1306SOL    HW2 4818   3.318   6.241   4.053
 1307SOL     OW 4819   2.258   2.769   3.576
 1307SOL    HW1 4820   2.312   2.715   3.511
 1307SOL    HW2 4821   2.200   2.708   3.630
 1308SOL     OW 4822   0.069   3.883   6.533
 1308SOL    HW1 4823   0.152   3.847   6.577
 1308SOL    HW2 4824   0.093   3.922   6.444
 1309SOL     OW 4825   5.924   4.486   6.555
 1309SOL    HW1 4826   5.936   4.391   6.584
 1309SOL    HW2 4827   6.011   4.534   6.562
 1310SOL     OW 4828   1.787   4.302   3.353
 1310SOL    HW1 4829   1.752   4.225   3.405
 1310SOL    HW2 4830   1.722   4.325   3.280
 1311SOL     OW 4831   5.794   5.052   0.353
 1311SOL    HW1 4832   5.856   5.030   0.278
 1311SOL    HW2 4833   5.718   4.987   0.355
 1312SOL     OW 4834   2.594   1.367   5.725
 1312SOL    HW1 4835   2.629   1.455   5.758
 1312SOL    HW2 4836   2.667   1.316   5.680
 1313SOL     OW 4837   6.512   5.713   1.914
 1313SOL    HW1 4838   6.433   5.719   1.975
 1313SOL    HW2 4839   6.593   5.686   1.967
 1314SOL     OW 4840   2.209   1.926   4.341
 1314SOL    HW1 4841   2.129   1.981   4.367
 1314SOL    HW2 4842   2.196   1.831   4.369
 1315SOL     OW 4843   6.393   0.766   2.694
 1315SOL    HW1 4844   6.403   0.699   2.768
 1315SOL    HW2 4845   6.336   0.842   2.725
 1316SOL     OW 4846   5.432   0.442   6.510
 1316SOL    HW1 4847   5.479   0.524   6.542
 1316SOL    HW2 4848   5.395   0.392   6.589
 1317SOL     OW 4849   3.296   3.496   5.971
 1317SOL    HW1 4850   3.322   3.576   6.026
 1317SOL    HW2 4851   3.296   3.520   5.874
 1318SOL     OW 4852   1.960   1.841   6.299
 1318SOL    HW1 4853   2.020   1.764   6.320
 1318SOL    HW2 4854   1.995   1.924   6.342
 1319SOL     OW 4855   6.896   6.927   0.287
 1319SOL    HW1 4856   6.987   6.954   0.319
 1319SOL    HW2 4857   6.875   6.836   0.323
 1320SOL     OW 4858   3.408   3.337   6.252
 1320SOL    HW1 4859   3.335   3.401   6.229
 1320SOL    HW2 4860   3.372   3.244   6.254
 1321SOL     OW 4861   6.940   2.588   0.655
 1321SOL    HW1 4862   6.915   2.629   0.567
 1321SOL    HW2 4863   7.021   2.530   0.642
 1322SOL     OW 4864   3.406   2.366   0.036
 1322SOL    HW1 4865   3.428   2.425   6.985
 1322SOL    HW2 4866   3.406   2.270   0.006
 1323SOL     OW 4867   3.959   6.322   1.179
 1323SOL    HW1 4868   3.902   6.265   1.238
 1323SOL    HW2 4869   3.953   6.288   1.085
 1324SOL     OW 4870   2.437   4.298   6.272
 1324SOL    HW1 4871   2.474   4.211   6.238
 1324SOL    HW2 4872   2.477   4.374   6.221
 1325SOL     OW 4873   3.275   5.630   5.460
 1325SOL    HW1 4874   3.259   5.577   5.376
 1325SOL    HW2 4875   3.218   5.712   5.460
 1326SOL     OW 4876   4.813   1.625   4.733
 1326SOL    HW1 4877   4.715   1.618   4.750
 1326SOL    HW2 4878   4.835   1.717   4.701
 1327SOL     OW 4879   5.033   5.541   2.553
 1327SOL    HW1 4880   5.036   5.471   2.625
 1327SOL    HW2 4881   5.109   5.604   2.566
 1328SOL     OW 4882   1.661   2.320   5.798
 1328SOL    HW1 4883   1.566   2.292   5.813
 1328SOL    HW2 4884   1.686   2.390   5.864
 1329SOL     OW 4885   0.832   2.603   3.768
 1329SOL    HW1 4886   0.805   2.626   3.861
 1329SOL    HW2 4887   0.932   2.597   3.763
 1330SOL     OW 4888   5.707   3.268   2.723
 1330SOL    HW1 4889   5.793   3.217   2.717
 1330SOL    HW2 4890   5.632   3.205   2.746
 1331SOL     OW 4891   4.444   2.123   3.446
 1331SOL    HW1 4892   4.488   2.121   3.357
 1331SOL    HW2 4893   4.353   2.165   3.438
 1332SOL     OW 4894   2.143   5.805   0.368
 1332SOL    HW1 4895   2.043   5.795   0.369
 1332SOL    HW2 4896   2.180   5.776   0.456
 1333SOL     OW 4897   3.112   4.002   3.164
 1333SOL    HW1 4898   3.180   4.023   3.233
 1333SOL    HW2 4899   3.063   3.919   3.189
 1334SOL     OW 4900   6.472   3.609   1.554
 1334SOL    HW1 4901   6.383   3.601   1.598
 1334SOL    HW2 4902   6.535   3.541   1.593
 1335SOL     OW 4903   0.806   3.321   3.142
 1335SOL    HW1 4904   0.743   3.246   3.124
 1335SOL    HW2 4905   0.757   3.408   3.139
 1336SOL     OW 4906   2.065   0.223   5.437
 1336SOL    HW1 4907   1.982   0.173   5.412
 1336SOL    HW2 4908   2.062   0.246   5.534
 1337SOL     OW 4909   0.045   0.101   3.106
 1337SOL    HW1 4910   7.014   0.059   3.036
 1337SOL    HW2 4911   0.134   0.055   3.107
 1338SOL     OW 4912   6.602   3.938   4.777
 1338SOL    HW1 4913   6.667   3.950   4.703
 1338SOL    HW2 4914   6.570   4.027   4.808
 1339SOL     OW 4915   6.521   0.240   0.242
 1339SOL    HW1 4916   6.525   0.226   0.143
 1339SOL    HW2 4917   6.517   0.152   0.288
 1340SOL     OW 4918   3.861   2.733   1.346
 1340SOL    HW1 4919   3.762   2.735   1.330
 1340SOL    HW2 4920   3.906   2.683   1.271
 1341SOL     OW 4921   5.184   5.813   6.887
 1341SOL    HW1 4922   5.137   5.725   6.896
 1341SOL    HW2 4923   5.120   5.887   6.906
 1342SOL     OW 4924   1.947   5.901   1.608
 1342SOL    HW1 4925   1.882   5.907   1.533
 1342SOL    HW2 4926   1.899   5.916   1.695
 1343SOL     OW 4927   6.039   5.915   3.033
 1343SOL    HW1 4928   5.969   5.982   3.057
 1343SOL    HW2 4929   6.068   5.866   3.116
 1344SOL     OW 4930   0.755   0.719   4.615
 1344SOL    HW1 4931   0.779   0.766   4.530
 1344SOL    HW2 4932   0.829   0.657   4.640
 1345SOL     OW 4933   0.552   6.504   6.991
 1345SOL    HW1 4934   0.566   6.413   6.951
 1345SOL    HW2 4935   0.479   6.498   0.033
 1346SOL     OW 4936   3.396   4.961   4.762
 1346SOL    HW1 4937   3.444   4.979   4.848
 1346SOL    HW2 4938   3.300   4.941   4.782
 1347SOL     OW 4939   1.307   0.081   6.498
 1347SOL    HW1 4940   1.361   0.096   6.416
 1347SOL    HW2 4941   1.246   0.003   6.484
 1348SOL     OW 4942   0.579   6.213   5.135
 1348SOL    HW1 4943   0.487   6.195   5.101
 1348SOL    HW2 4944   0.636   6.132   5.121
 1349SOL     OW 4945   4.895   3.360   3.901
 1349SOL    HW1 4946   4.933   3.399   3.817
 1349SOL    HW2 4947   4.817   3.415   3.930
 1350SOL     OW 4948   4.275   4.564   6.804
 1350SOL    HW1 4949   4.358   4.604   6.764
 1350SOL    HW2 4950   4.258   4.607   6.892
 1351SOL     OW 4951   0.649   2.834   5.717
 1351SOL    HW1 4952   0.697   2.787   5.643
 1351SOL    HW2 4953   0.555   2.801   5.723
 1352SOL     OW 4954   0.013   0.692   2.442
 1352SOL    HW1 4955   7.016   0.770   2.384
 1352SOL    HW2 4956   0.085   0.638   2.399
 1353SOL     OW 4957   0.545   1.003   0.676
 1353SOL    HW1 4958   0.542   0.982   0.578
 1353SOL    HW2 4959   0.486   1.082   0.695
 1354SOL     OW 4960   4.732   5.259   2.657
 1354SOL    HW1 4961   4.712   5.332   2.592
 1354SOL    HW2 4962   4.758   5.176   2.608
 1355SOL     OW 4963   5.283   3.155   5.646
 1355SOL    HW1 4964   5.251   3.202   5.728
 1355SOL    HW2 4965   5.242   3.064   5.642
 1356SOL     OW 4966   2.241   3.341   0.347
 1356SOL    HW1 4967   2.289   3.261   0.382
 1356SOL    HW2 4968   2.237   3.412   0.418
 1357SOL     OW 4969   1.803   2.966   5.574
 1357SOL    HW1 4970   1.838   3.024   5.501
 1357SOL    HW2 4971   1.717   2.924   5.545
 1358SOL     OW 4972   2.357   0.173   0.454
 1358SOL    HW1 4973   2.297   0.097   0.428
 1358SOL    HW2 4974   2.315   0.226   0.528
 1359SOL     OW 4975   6.523   4.323   1.094
 1359SOL    HW1 4976   6.567   4.234   1.108
 1359SOL    HW2 4977   6.517   4.372   1.181
 1360SOL     OW 4978   1.993   2.680   0.137
 1360SOL    HW1 4979   1.921   2.720   0.194
 1360SOL    HW2 4980   2.082   2.696   0.180
 1361SOL     OW 4981   6.837   4.140   4.950
 1361SOL    HW1 4982   6.866   4.079   4.875
 1361SOL    HW2 4983   6.881   4.229   4.939
 1362SOL     OW 4984   3.339   3.315   2.886
 1362SOL    HW1 4985   3.324   3.413   2.902
 1362SOL    HW2 4986   3.412   3.304   2.818
 1363SOL     OW 4987   1.025   6.234   4.284
 1363SOL    HW1 4988   1.086   6.264   4.210
 1363SOL    HW2 4989   1.055   6.145   4.317
 1364SOL     OW 4990   4.797   4.329   0.673
 1364SOL    HW1 4991   4.767   4.288   0.759
 1364SOL    HW2 4992   4.723   4.386   0.637
 1365SOL     OW 4993   6.407   3.284   6.569
 1365SOL    HW1 4994   6.491   3.231   6.582
 1365SOL    HW2 4995   6.350   3.275   6.651
 1366SOL     OW 4996   2.869   6.849   5.485
 1366SOL    HW1 4997   2.790   6.803   5.444
 1366SOL    HW2 4998   2.838   6.934   5.529
 1367SOL     OW 4999   2.646   1.258   2.099
 1367SOL    HW1 5000   2.644   1.249   2.198
 1367SOL    HW2 5001   2.700   1.338   2.073
 1368SOL     OW 5002   5.564   6.068   3.223
 1368SOL    HW1 5003   5.543   6.101   3.315
 1368SOL    HW2 5004   5.513   5.983   3.206
 1369SOL     OW 5005   1.104   1.083   2.753
 1369SOL    HW1 5006   1.187   1.121   2.793
 1369SOL    HW2 5007   1.127   1.035   2.668
 1370SOL     OW 5008   2.371   0.520   1.651
 1370SOL    HW1 5009   2.311   0.451   1.611
 1370SOL    HW2 5010   2.419   0.569   1.578
 1371SOL     OW 5011   3.662   0.223   6.623
 1371SOL    HW1 5012   3.586   0.277   6.659
 1371SOL    HW2 5013   3.739   0.229   6.686
 1372SOL     OW 5014   3.010   2.048   2.026
 1372SOL    HW1 5015   3.039   2.057   1.931
 1372SOL    HW2 5016   2.963   2.131   2.055
 1373SOL     OW 5017   1.513   5.917   0.056
 1373SOL    HW1 5018   1.593   5.944   0.002
 1373SOL    HW2 5019   1.446   5.991   0.057
 1374SOL     OW 5020   5.301   4.243   0.271
 1374SOL    HW1 5021   5.361   4.214   0.197
 1374SOL    HW2 5022   5.301   4.175   0.344
 1375SOL     OW 5023   0.999   4.518   5.267
 1375SOL    HW1 5024   0.982   4.431   5.220
 1375SOL    HW2 5025   0.914   4.550   5.309
 1376SOL     OW 5026   4.440   1.413   2.582
 1376SOL    HW1 5027   4.504   1.467   2.527
 1376SOL    HW2 5028   4.443   1.317   2.551
 1377SOL     OW 5029   1.084   4.609   4.336
 1377SOL    HW1 5030   1.060   4.675   4.408
 1377SOL    HW2 5031   1.010   4.605   4.269
 1378SOL     OW 5032   1.747   2.795   6.604
 1378SOL    HW1 5033   1.772   2.724   6.538
 1378SOL    HW2 5034   1.791   2.882   6.578
 1379SOL     OW 5035   4.204   6.100   1.114
 1379SOL    HW1 5036   4.197   6.052   1.201
 1379SOL    HW2 5037   4.170   6.194   1.124
 1380SOL     OW 5038   5.861   5.677   2.871
 1380SOL    HW1 5039   5.785   5.740   2.852
 1380SOL    HW2 5040   5.947   5.718   2.841
 1381SOL     OW 5041   6.141   6.968   1.557
 1381SOL    HW1 5042   6.127   0.038   1.581
 1381SOL    HW2 5043   6.225   6.935   1.601
 1382SOL     OW 5044   0.071   4.811   6.548
 1382SOL    HW1 5045   0.154   4.862   6.525
 1382SOL    HW2 5046   7.023   4.841   6.488
 1383SOL     OW 5047   2.482   0.581   0.282
 1383SOL    HW1 5048   2.575   0.568   0.318
 1383SOL    HW2 5049   2.482   0.654   0.214
 1384SOL     OW 5050   2.225   2.317   2.252
 1384SOL    HW1 5051   2.143   2.298   2.198
 1384SOL    HW2 5052   2.244   2.415   2.251
 1385SOL     OW 5053   5.419   2.699   3.890
 1385SOL    HW1 5054   5.327   2.687   3.926
 1385SOL    HW2 5055   5.434   2.795   3.866
 1386SOL     OW 5056   2.100   2.593   3.861
 1386SOL    HW1 5057   2.190   2.626   3.831
 1386SOL    HW2 5058   2.088   2.615   3.958
 1387SOL     OW 5059   2.769   0.577   4.601
 1387SOL    HW1 5060   2.740   0.592   4.506
 1387SOL    HW2 5061   2.869   0.566   4.603
 1388SOL     OW 5062   5.955   1.320   4.110
 1388SOL    HW1 5063   6.015   1.369   4.173
 1388SOL    HW2 5064   5.903   1.251   4.161
 1389SOL     OW 5065   6.615   0.601   4.068
 1389SOL    HW1 5066   6.652   0.646   4.150
 1389SOL    HW2 5067   6.608   0.503   4.084
 1390SOL     OW 5068   4.467   2.460   2.249
 1390SOL    HW1 5069   4.526   2.529   2.292
 1390SOL    HW2 5070   4.407   2.420   2.318
 1391SOL     OW 5071   5.967   1.397   4.701
 1391SOL    HW1 5072   6.037   1.463   4.729
 1391SOL    HW2 5073   6.006   1.305   4.703
 1392SOL     OW 5074   4.710   6.613   5.380
 1392SOL    HW1 5075   4.782   6.544   5.375
 1392SOL    HW2 5076   4.628   6.572   5.421
 1393SOL     OW 5077   4.847   0.179   7.009
 1393SOL    HW1 5078   4.765   0.232   0.001
 1393SOL    HW2 5079   4.830   0.116   6.933
 1394SOL     OW 5080   4.236   0.229   3.884
 1394SOL    HW1 5081   4.184   0.231   3.970
 1394SOL    HW2 5082   4.174   0.210   3.808
 1395SOL     OW 5083   0.561   5.188   2.696
 1395SOL    HW1 5084   0.532   5.284   2.692
 1395SOL    HW2 5085   0.661   5.184   2.685
 1396SOL     OW 5086   1.592   1.737   3.736
 1396SOL    HW1 5087   1.687   1.726   3.764
 1396SOL    HW2 5088   1.532   1.703   3.809
 1397SOL     OW 5089   1.174   5.181   5.207
 1397SOL    HW1 5090   1.132   5.270   5.228
 1397SOL    HW2 5091   1.105   5.121   5.166
 1398SOL     OW 5092   1.903   6.695   6.694
 1398SOL    HW1 5093   1.962   6.774   6.679
 1398SOL    HW2 5094   1.944   6.635   6.762
 1399SOL     OW 5095   4.012   0.219   6.668
 1399SOL    HW1 5096   3.976   0.305   6.705
 1399SOL    HW2 5097   4.109   0.210   6.691
 1400SOL     OW 5098   0.323   1.312   5.160
 1400SOL    HW1 5099   0.421   1.292   5.149
 1400SOL    HW2 5100   0.271   1.227   5.164
 1401SOL     OW 5101   5.286   0.325   2.105
 1401SOL    HW1 5102   5.189   0.351   2.112
 1401SOL    HW2 5103   5.334   0.394   2.050
 1402SOL     OW 5104   6.738   4.673   1.954
 1402SOL    HW1 5105   6.697   4.617   1.883
 1402SOL    HW2 5106   6.760   4.616   2.034
 1403SOL     OW 5107   2.960   3.560   6.253
 1403SOL    HW1 5108   2.926   3.485   6.309
 1403SOL    HW2 5109   3.055   3.544   6.228
 1404SOL     OW 5110   3.858   6.598   0.375
 1404SOL    HW1 5111   3.947   6.553   0.363
 1404SOL    HW2 5112   3.842   6.660   0.299
 1405SOL     OW 5113   0.977   3.543   0.284
 1405SOL    HW1 5114   0.927   3.477   0.341
 1405SOL    HW2 5115   1.007   3.498   0.200
 1406SOL     OW 5116   2.452   2.841   0.161
 1406SOL    HW1 5117   2.419   2.850   0.067
 1406SOL    HW2 5118   2.374   2.833   0.223
 1407SOL     OW 5119   0.584   2.843   1.425
 1407SOL    HW1 5120   0.653   2.777   1.395
 1407SOL    HW2 5121   0.628   2.915   1.478
 1408SOL     OW 5122   5.562   6.730   0.527
 1408SOL    HW1 5123   5.499   6.674   0.473
 1408SOL    HW2 5124   5.605   6.798   0.467
 1409SOL     OW 5125   6.211   1.943   5.785
 1409SOL    HW1 5126   6.197   2.035   5.820
 1409SOL    HW2 5127   6.127   1.890   5.795
 1410SOL     OW 5128   3.191   0.379   0.246
 1410SOL    HW1 5129   3.278   0.406   0.288
 1410SOL    HW2 5130   3.206   0.359   0.149
 1411SOL     OW 5131   3.617   5.089   6.518
 1411SOL    HW1 5132   3.662   5.052   6.599
 1411SOL    HW2 5133   3.649   5.041   6.437
 1412SOL     OW 5134   2.771   2.441   6.970
 1412SOL    HW1 5135   2.829   2.520   6.982
 1412SOL    HW2 5136   2.813   2.378   6.904
 1413SOL     OW 5137   2.284   1.617   5.420
 1413SOL    HW1 5138   2.219   1.690   5.438
 1413SOL    HW2 5139   2.367   1.632   5.475
 1414SOL     OW 5140   0.969   5.258   2.023
 1414SOL    HW1 5141   1.036   5.285   1.955
 1414SOL    HW2 5142   0.899   5.200   1.981
 1415SOL     OW 5143   3.861   1.695   4.957
 1415SOL    HW1 5144   3.810   1.762   5.011
 1415SOL    HW2 5145   3.928   1.743   4.900
 1416SOL     OW 5146   4.194   0.319   5.058
 1416SOL    HW1 5147   4.117   0.291   5.001
 1416SOL    HW2 5148   4.264   0.362   5.000
 1417SOL     OW 5149   3.218   3.388   4.106
 1417SOL    HW1 5150   3.232   3.452   4.181
 1417SOL    HW2 5151   3.140   3.329   4.127
 1418SOL     OW 5152   2.992   3.796   5.812
 1418SOL    HW1 5153   3.017   3.815   5.907
 1418SOL    HW2 5154   2.937   3.871   5.776
 1419SOL     OW 5155   0.954   5.961   2.072
 1419SOL    HW1 5156   0.865   5.973   2.116
 1419SOL    HW2 5157   0.958   5.870   2.031
 1420SOL     OW 5158   3.207   5.902   3.064
 1420SOL    HW1 5159   3.201   5.852   2.978
 1420SOL    HW2 5160   3.252   5.990   3.048
 1421SOL     OW 5161   1.758   5.315   0.093
 1421SOL    HW1 5162   1.758   5.230   0.146
 1421SOL    HW2 5163   1.716   5.299   0.004
 1422SOL     OW 5164   1.710   3.286   6.619
 1422SOL    HW1 5165   1.628   3.326   6.660
 1422SOL    HW2 5166   1.724   3.324   6.527
 1423SOL     OW 5167   3.930   0.805   5.099
 1423SOL    HW1 5168   3.930   0.895   5.055
 1423SOL    HW2 5169   3.991   0.744   5.050
 1424SOL     OW 5170   6.336   2.560   1.385
 1424SOL    HW1 5171   6.378   2.587   1.299
 1424SOL    HW2 5172   6.344   2.461   1.398
 1425SOL     OW 5173   5.323   0.230   3.551
 1425SOL    HW1 5174   5.234   0.219   3.508
 1425SOL    HW2 5175   5.342   0.151   3.610
 1426SOL     OW 5176   4.382   0.741   0.267
 1426SOL    HW1 5177   4.290   0.707   0.250
 1426SOL    HW2 5178   4.390   0.770   0.362
 1427SOL     OW 5179   1.264   0.702   4.267
 1427SOL    HW1 5180   1.359   0.726   4.249
 1427SOL    HW2 5181   1.255   0.602   4.268
 1428SOL     OW 5182   2.152   3.848   3.689
 1428SOL    HW1 5183   2.237   3.893   3.661
 1428SOL    HW2 5184   2.138   3.861   3.787
 1429SOL     OW 5185   5.594   0.274   2.017
 1429SOL    HW1 5186   5.514   0.216   2.027
 1429SOL    HW2 5187   5.566   0.365   1.987
 1430SOL     OW 5188   2.004   4.192   4.615
 1430SOL    HW1 5189   2.062   4.206   4.535
 1430SOL    HW2 5190   2.061   4.173   4.695
 1431SOL     OW 5191   3.365   1.411   0.475
 1431SOL    HW1 5192   3.327   1.390   0.385
 1431SOL    HW2 5193   3.291   1.415   0.542
 1432SOL     OW 5194   4.410   6.799   2.911
 1432SOL    HW1 5195   4.413   6.745   2.826
 1432SOL    HW2 5196   4.324   6.779   2.959
 1433SOL     OW 5197   3.244   1.522   3.807
 1433SOL    HW1 5198   3.268   1.450   3.872
 1433SOL    HW2 5199   3.327   1.561   3.768
 1434SOL     OW 5200   5.247   4.115   0.868
 1434SOL    HW1 5201   5.188   4.195   0.854
 1434SOL    HW2 5202   5.343   4.144   0.868
 1435SOL     OW 5203   0.612   6.688   4.039
 1435SOL    HW1 5204   0.617   6.626   4.118
 1435SOL    HW2 5205   0.666   6.650   3.964
 1436SOL     OW 5206   5.644   0.856   0.700
 1436SOL    HW1 5207   5.683   0.767   0.722
 1436SOL    HW2 5208   5.586   0.849   0.618
 1437SOL     OW 5209   4.529   1.567   0.203
 1437SOL    HW1 5210   4.543   1.665   0.221
 1437SOL    HW2 5211   4.611   1.529   0.161
 1438SOL     OW 5212   2.263   6.778   2.568
 1438SOL    HW1 5213   2.325   6.733   2.632
 1438SOL    HW2 5214   2.284   6.876   2.564
 1439SOL     OW 5215   0.727   5.126   6.428
 1439SOL    HW1 5216   0.652   5.160   6.370
 1439SOL    HW2 5217   0.747   5.194   6.499
 1440SOL     OW 5218   3.976   3.009   2.529
 1440SOL    HW1 5219   4.071   2.985   2.512
 1440SOL    HW2 5220   3.971   3.098   2.576
 1441SOL     OW 5221   6.205   2.191   5.916
 1441SOL    HW1 5222   6.129   2.195   5.981
 1441SOL    HW2 5223   6.211   2.277   5.867
 1442SOL     OW 5224   5.352   6.181   0.363
 1442SOL    HW1 5225   5.436   6.128   0.364
 1442SOL    HW2 5226   5.350   6.241   0.283
 1443SOL     OW 5227   1.052   2.506   3.605
 1443SOL    HW1 5228   1.012   2.557   3.528
 1443SOL    HW2 5229   1.046   2.408   3.586
 1444SOL     OW 5230   5.208   6.269   5.051
 1444SOL    HW1 5231   5.145   6.345   5.065
 1444SOL    HW2 5232   5.158   6.183   5.051
 1445SOL     OW 5233   6.256   1.870   0.100
 1445SOL    HW1 5234   6.179   1.862   0.164
 1445SOL    HW2 5235   6.329   1.924   0.144
 1446SOL     OW 5236   4.036   5.660   1.353
 1446SOL    HW1 5237   4.094   5.720   1.409
 1446SOL    HW2 5238   3.945   5.654   1.394
 1447SOL     OW 5239   6.319   0.958   4.772
 1447SOL    HW1 5240   6.372   0.889   4.821
 1447SOL    HW2 5241   6.363   1.047   4.781
 1448SOL     OW 5242   5.742   0.538   6.809
 1448SOL    HW1 5243   5.794   0.598   6.869
 1448SOL    HW2 5244   5.787   0.533   6.720
 1449SOL     OW 5245   4.171   5.198   0.815
 1449SOL    HW1 5246   4.221   5.261   0.755
 1449SOL    HW2 5247   4.160   5.239   0.905
 1450SOL     OW 5248   6.259   1.732   3.308
 1450SOL    HW1 5249   6.192   1.801   3.335
 1450SOL    HW2 5250   6.300   1.692   3.390
 1451SOL     OW 5251   1.491   6.656   1.672
 1451SOL    HW1 5252   1.577   6.621   1.711
 1451SOL    HW2 5253   1.428   6.678   1.746
 1452SOL     OW 5254   3.559   0.453   5.678
 1452SOL    HW1 5255   3.609   0.520   5.624
 1452SOL    HW2 5256   3.462   0.479   5.683
 1453SOL     OW 5257   5.100   4.538   3.977
 1453SOL    HW1 5258   5.169   4.606   4.001
 1453SOL    HW2 5259   5.011   4.583   3.968
 1454SOL     OW 5260   4.999   4.275   0.903
 1454SOL    HW1 5261   5.049   4.351   0.862
 1454SOL    HW2 5262   4.981   4.206   0.834
 1455SOL     OW 5263   2.045   2.365   2.010
 1455SOL    HW1 5264   2.122   2.340   1.953
 1455SOL    HW2 5265   2.065   2.449   2.060
 1456SOL     OW 5266   6.010   5.156   5.208
 1456SOL    HW1 5267   6.041   5.081   5.149
 1456SOL    HW2 5268   5.929   5.128   5.258
 1457SOL     OW 5269   2.075   0.696   3.864
 1457SOL    HW1 5270   2.073   0.636   3.784
 1457SOL    HW2 5271   2.140   0.660   3.931
 1458SOL     OW 5272   0.039   5.555   0.211
 1458SOL    HW1 5273   0.119   5.496   0.198
 1458SOL    HW2 5274   7.019   5.529   0.296
 1459SOL     OW 5275   2.932   0.242   1.427
 1459SOL    HW1 5276   2.912   0.339   1.413
 1459SOL    HW2 5277   2.887   0.210   1.510
 1460SOL     OW 5278   0.795   0.095   6.865
 1460SOL    HW1 5279   0.696   0.092   6.856
 1460SOL    HW2 5280   0.832   0.002   6.857
 1461SOL     OW 5281   4.760   5.487   2.500
 1461SOL    HW1 5282   4.849   5.510   2.541
 1461SOL    HW2 5283   4.705   5.570   2.492
 1462SOL     OW 5284   5.493   0.254   5.176
 1462SOL    HW1 5285   5.545   0.201   5.244
 1462SOL    HW2 5286   5.471   0.344   5.213
 1463SOL     OW 5287   0.744   2.295   6.136
 1463SOL    HW1 5288   0.677   2.235   6.180
 1463SOL    HW2 5289   0.706   2.388   6.130
 1464SOL     OW 5290   0.895   0.892   1.472
 1464SOL    HW1 5291   0.815   0.873   1.415
 1464SOL    HW2 5292   0.899   0.827   1.547
 1465SOL     OW 5293   0.705   1.001   4.171
 1465SOL    HW1 5294   0.748   0.917   4.137
 1465SOL    HW2 5295   0.615   1.012   4.129
 1466SOL     OW 5296   5.891   5.317   4.902
 1466SOL    HW1 5297   5.961   5.286   4.838
 1466SOL    HW2 5298   5.843   5.237   4.939
 1467SOL     OW 5299   5.955   3.685   3.928
 1467SOL    HW1 5300   5.995   3.697   4.019
 1467SOL    HW2 5301   5.934   3.589   3.914
 1468SOL     OW 5302   4.849   0.360   2.271
 1468SOL    HW1 5303   4.790   0.279   2.265
 1468SOL    HW2 5304   4.804   0.429   2.329
 1469SOL     OW 5305   0.814   0.818   2.032
 1469SOL    HW1 5306   0.810   0.867   1.945
 1469SOL    HW2 5307   0.850   0.879   2.103
 1470SOL     OW 5308   6.675   0.559   3.260
 1470SOL    HW1 5309   6.732   0.484   3.226
 1470SOL    HW2 5310   6.639   0.535   3.351
 1471SOL     OW 5311   5.897   0.698   1.401
 1471SOL    HW1 5312   5.959   0.631   1.444
 1471SOL    HW2 5313   5.950   0.757   1.340
 1472SOL     OW 5314   4.628   5.306   4.667
 1472SOL    HW1 5315   4.583   5.254   4.595
 1472SOL    HW2 5316   4.691   5.246   4.716
 1473SOL     OW 5317   6.319   3.571   3.231
 1473SOL    HW1 5318   6.275   3.482   3.235
 1473SOL    HW2 5319   6.367   3.581   3.144
 1474SOL     OW 5320   4.786   5.319   3.061
 1474SOL    HW1 5321   4.819   5.411   3.086
 1474SOL    HW2 5322   4.786   5.261   3.142
 1475SOL     OW 5323   6.100   0.042   3.333
 1475SOL    HW1 5324   6.118   0.011   3.240
 1475SOL    HW2 5325   6.137   7.003   3.399
 1476SOL     OW 5326   0.259   2.530   1.198
 1476SOL    HW1 5327   0.228   2.598   1.265
 1476SOL    HW2 5328   0.183   2.470   1.173
 1477SOL     OW 5329   2.209   6.276   3.831
 1477SOL    HW1 5330   2.270   6.234   3.765
 1477SOL    HW2 5331   2.252   6.276   3.922
 1478SOL     OW 5332   0.144   3.853   1.437
 1478SOL    HW1 5333   0.103   3.921   1.498
 1478SOL    HW2 5334   0.241   3.874   1.424
 1479SOL     OW 5335   0.850   5.641   0.755
 1479SOL    HW1 5336   0.823   5.736   0.773
 1479SOL    HW2 5337   0.776   5.580   0.783
 1480SOL     OW 5338   2.462   0.856   0.206
 1480SOL    HW1 5339   2.535   0.904   0.158
 1480SOL    HW2 5340   2.382   0.848   0.145
 1481SOL     OW 5341   0.499   3.519   6.671
 1481SOL    HW1 5342   0.523   3.508   6.574
 1481SOL    HW2 5343   0.556   3.590   6.712
 1482SOL     OW 5344   5.422   0.824   6.232
 1482SOL    HW1 5345   5.492   0.773   6.182
 1482SOL    HW2 5346   5.360   0.759   6.276
 1483SOL     OW 5347   6.617   1.835   6.593
 1483SOL    HW1 5348   6.581   1.851   6.501
 1483SOL    HW2 5349   6.545   1.797   6.651
 1484SOL     OW 5350   6.483   6.807   3.103
 1484SOL    HW1 5351   6.400   6.780   3.153
 1484SOL    HW2 5352   6.472   6.900   3.069
 1485SOL     OW 5353   5.664   2.602   3.755
 1485SOL    HW1 5354   5.665   2.670   3.681
 1485SOL    HW2 5355   5.582   2.613   3.810
 1486SOL     OW 5356   5.385   2.306   1.797
 1486SOL    HW1 5357   5.390   2.337   1.892
 1486SOL    HW2 5358   5.332   2.221   1.792
 1487SOL     OW 5359   6.911   0.676   5.689
 1487SOL    HW1 5360   6.998   0.639   5.655
 1487SOL    HW2 5361   6.908   0.774   5.671
 1488SOL     OW 5362   5.276   2.032   4.237
 1488SOL    HW1 5363   5.338   2.049   4.314
 1488SOL    HW2 5364   5.183   2.057   4.263
 1489SOL     OW 5365   4.115   5.611   4.098
 1489SOL    HW1 5366   4.035   5.628   4.041
 1489SOL    HW2 5367   4.188   5.674   4.073
 1490SOL     OW 5368   2.370   2.586   1.169
 1490SOL    HW1 5369   2.411   2.641   1.241
 1490SOL    HW2 5370   2.293   2.534   1.205
 1491SOL     OW 5371   0.332   2.473   5.437
 1491SOL    HW1 5372   0.296   2.539   5.372
 1491SOL    HW2 5373   0.307   2.380   5.407
 1492SOL     OW 5374   5.933   2.535   1.118
 1492SOL    HW1 5375   5.906   2.458   1.176
 1492SOL    HW2 5376   5.984   2.602   1.172
 1493SOL     OW 5377   6.062   2.334   5.145
 1493SOL    HW1 5378   6.080   2.238   5.123
 1493SOL    HW2 5379   6.140   2.372   5.195
 1494SOL     OW 5380   6.081   1.454   4.349
 1494SOL    HW1 5381   6.044   1.371   4.390
 1494SOL    HW2 5382   6.022   1.532   4.369
 1495SOL     OW 5383   1.369   3.544   2.818
 1495SOL    HW1 5384   1.356   3.597   2.901
 1495SOL    HW2 5385   1.352   3.447   2.837
 1496SOL     OW 5386   1.269   0.849   2.628
 1496SOL    HW1 5387   1.295   0.896   2.544
 1496SOL    HW2 5388   1.185   0.796   2.612
 1497SOL     OW 5389   5.180   5.393   5.528
 1497SOL    HW1 5390   5.157   5.443   5.612
 1497SOL    HW2 5391   5.150   5.445   5.449
 1498SOL     OW 5392   2.068   5.532   0.510
 1498SOL    HW1 5393   2.127   5.599   0.555
 1498SOL    HW2 5394   2.092   5.527   0.413
 1499SOL     OW 5395   1.183   4.212   4.475
 1499SOL    HW1 5396   1.230   4.297   4.499
 1499SOL    HW2 5397   1.203   4.143   4.545
 1500SOL     OW 5398   4.168   6.736   5.315
 1500SOL    HW1 5399   4.213   6.672   5.377
 1500SOL    HW2 5400   4.233   6.767   5.246
 1501SOL     OW 5401   4.027   0.324   0.243
 1501SOL    HW1 5402   4.033   0.240   0.296
 1501SOL    HW2 5403   4.113   0.375   0.252
 1502SOL     OW 5404   6.940   5.863   6.589
 1502SOL    HW1 5405   7.001   5.850   6.667
 1502SOL    HW2 5406   6.934   5.960   6.567
 1503SOL     OW 5407   3.705   4.593   5.560
 1503SOL    HW1 5408   3.628   4.547   5.515
 1503SOL    HW2 5409   3.791   4.556   5.526
 1504SOL     OW 5410   2.543   6.500   4.314
 1504SOL    HW1 5411   2.527   6.543   4.225
 1504SOL    HW2 5412   2.635   6.524   4.346
 1505SOL     OW 5413   4.688   6.854   2.359
 1505SOL    HW1 5414   4.664   6.900   2.273
 1505SOL    HW2 5415   4.758   6.785   2.341
 1506SOL     OW 5416   0.970   6.770   3.123
 1506SOL    HW1 5417   1.034   6.707   3.168
 1506SOL    HW2 5418   0.879   6.729   3.120
 1507SOL     OW 5419   2.777   2.366   0.319
 1507SOL    HW1 5420   2.769   2.266   0.319
 1507SOL    HW2 5421   2.818   2.396   0.405
 1508SOL     OW 5422   4.711   0.008   1.051
 1508SOL    HW1 5423   4.615   0.016   1.077
 1508SOL    HW2 5424   4.719   6.972   0.974
 1509SOL     OW 5425   5.641   1.892   6.853
 1509SOL    HW1 5426   5.650   1.969   6.916
 1509SOL    HW2 5427   5.604   1.814   6.901
 1510SOL     OW 5428   6.814   2.033   3.004
 1510SOL    HW1 5429   6.745   2.072   2.942
 1510SOL    HW2 5430   6.768   1.995   3.084
 1511SOL     OW 5431   1.081   3.073   0.098
 1511SOL    HW1 5432   1.035   3.057   0.185
 1511SOL    HW2 5433   1.104   2.985   0.056
 1512SOL     OW 5434   6.573   1.323   1.794
 1512SOL    HW1 5435   6.490   1.304   1.741
 1512SOL    HW2 5436   6.651   1.278   1.751
 1513SOL     OW 5437   3.352   0.612   2.958
 1513SOL    HW1 5438   3.365   0.664   2.874
 1513SOL    HW2 5439   3.435   0.617   3.014
 1514SOL     OW 5440   4.599   0.510   5.879
 1514SOL    HW1 5441   4.669   0.451   5.920
 1514SOL    HW2 5442   4.549   0.557   5.952
 1515SOL     OW 5443   5.571   5.607   5.193
 1515SOL    HW1 5444   5.487   5.556   5.172
 1515SOL    HW2 5445   5.623   5.621   5.108
 1516SOL     OW 5446   0.807   1.428   0.916
 1516SOL    HW1 5447   0.819   1.521   0.882
 1516SOL    HW2 5448   0.742   1.379   0.858
 1517SOL     OW 5449   3.088   5.417   3.241
 1517SOL    HW1 5450   3.099   5.451   3.334
 1517SOL    HW2 5451   3.131   5.327   3.233
 1518SOL     OW 5452   0.810   4.737   0.841
 1518SOL    HW1 5453   0.766   4.652   0.813
 1518SOL    HW2 5454   0.857   4.777   0.762
 1519SOL     OW 5455   0.453   4.156   0.831
 1519SOL    HW1 5456   0.483   4.062   0.840
 1519SOL    HW2 5457   0.520   4.207   0.777
 1520SOL     OW 5458   1.400   2.494   3.000
 1520SOL    HW1 5459   1.318   2.462   3.048
 1520SOL    HW2 5460   1.439   2.572   3.049
 1521SOL     OW 5461   2.346   4.255   5.198
 1521SOL    HW1 5462   2.386   4.166   5.175
 1521SOL    HW2 5463   2.419   4.319   5.224
 1522SOL     OW 5464   1.102   2.107   6.374
 1522SOL    HW1 5465   1.078   2.018   6.412
 1522SOL    HW2 5466   1.025   2.170   6.386
 1523SOL     OW 5467   5.645   1.205   1.175
 1523SOL    HW1 5468   5.729   1.245   1.139
 1523SOL    HW2 5469   5.616   1.130   1.116
 1524SOL     OW 5470   6.725   1.046   1.792
 1524SOL    HW1 5471   6.803   1.108   1.792
 1524SOL    HW2 5472   6.721   0.997   1.879
 1525SOL     OW 5473   4.629   1.004   5.910
 1525SOL    HW1 5474   4.671   1.091   5.884
 1525SOL    HW2 5475   4.647   0.985   6.006
 1526SOL     OW 5476   6.376   1.128   6.870
 1526SOL    HW1 5477   6.364   1.217   6.913
 1526SOL    HW2 5478   6.418   1.140   6.780
 1527SOL     OW 5479   3.112   1.690   5.601
 1527SOL    HW1 5480   3.203   1.697   5.642
 1527SOL    HW2 5481   3.078   1.782   5.580
 1528SOL     OW 5482   5.695   5.277   3.913
 1528SOL    HW1 5483   5.683   5.252   4.009
 1528SOL    HW2 5484   5.644   5.360   3.893
 1529SOL     OW 5485   2.351   0.221   5.624
 1529SOL    HW1 5486   2.261   0.262   5.635
 1529SOL    HW2 5487   2.353   0.131   5.668
 1530SOL     OW 5488   2.645   6.699   1.269
 1530SOL    HW1 5489   2.613   6.701   1.363
 1530SOL    HW2 5490   2.624   6.787   1.225
 1531SOL     OW 5491   5.745   0.630   6.362
 1531SOL    HW1 5492   5.816   0.561   6.352
 1531SOL    HW2 5493   5.699   0.643   6.274
 1532SOL     OW 5494   2.953   2.610   5.519
 1532SOL    HW1 5495   2.999   2.534   5.473
 1532SOL    HW2 5496   2.958   2.691   5.461
 1533SOL     OW 5497   5.098   2.978   6.943
 1533SOL    HW1 5498   5.011   2.976   6.893
 1533SOL    HW2 5499   5.139   3.068   6.935
 1534SOL     OW 5500   6.696   0.251   2.060
 1534SOL    HW1 5501   6.602   0.247   2.025
 1534SOL    HW2 5502   6.695   0.239   2.159
 1535SOL     OW 5503   5.255   4.399   4.412
 1535SOL    HW1 5504   5.244   4.496   4.432
 1535SOL    HW2 5505   5.165   4.357   4.400
 1536SOL     OW 5506   3.144   5.821   2.772
 1536SOL    HW1 5507   3.224   5.838   2.715
 1536SOL    HW2 5508   3.071   5.885   2.746
 1537SOL     OW 5509   2.884   5.654   4.732
 1537SOL    HW1 5510   2.799   5.655   4.679
 1537SOL    HW2 5511   2.941   5.731   4.705
 1538SOL     OW 5512   3.479   5.535   6.630
 1538SOL    HW1 5513   3.503   5.505   6.722
 1538SOL    HW2 5514   3.538   5.611   6.603
 1539SOL     OW 5515   3.213   6.326   1.712
 1539SOL    HW1 5516   3.287   6.265   1.741
 1539SOL    HW2 5517   3.126   6.294   1.750
 1540SOL     OW 5518   6.046   6.899   5.126
 1540SOL    HW1 5519   6.059   6.933   5.219
 1540SOL    HW2 5520   5.985   6.961   5.076
 1541SOL     OW 5521   5.351   1.453   1.061
 1541SOL    HW1 5522   5.327   1.498   0.975
 1541SOL    HW2 5523   5.436   1.492   1.096
 1542SOL     OW 5524   0.212   6.366   0.938
 1542SOL    HW1 5525   0.221   6.358   1.038
 1542SOL    HW2 5526   0.126   6.325   0.909
 1543SOL     OW 5527   3.524   3.848   3.383
 1543SOL    HW1 5528   3.553   3.762   3.340
 1543SOL    HW2 5529   3.602   3.910   3.388
 1544SOL     OW 5530   3.443   3.296   2.577
 1544SOL    HW1 5531   3.406   3.204   2.592
 1544SOL    HW2 5532   3.371   3.364   2.592
 1545SOL     OW 5533   0.257   0.618   4.508
 1545SOL    HW1 5534   0.293   0.574   4.590
 1545SOL    HW2 5535   0.159   0.599   4.501
 1546SOL     OW 5536   6.351   6.478   6.355
 1546SOL    HW1 5537   6.266   6.506   6.311
 1546SOL    HW2 5538   6.356   6.378   6.357
 1547SOL     OW 5539   3.366   5.750   0.166
 1547SOL    HW1 5540   3.382   5.765   0.264
 1547SOL    HW2 5541   3.269   5.767   0.146
 1548SOL     OW 5542   6.065   3.835   3.720
 1548SOL    HW1 5543   6.015   3.833   3.633
 1548SOL    HW2 5544   6.020   3.773   3.785
 1549SOL     OW 5545   0.150   2.404   0.641
 1549SOL    HW1 5546   0.212   2.465   0.591
 1549SOL    HW2 5547   0.189   2.381   0.730
 1550SOL     OW 5548   2.448   5.338   2.820
 1550SOL    HW1 5549   2.398   5.406   2.767
 1550SOL    HW2 5550   2.544   5.364   2.825
 1551SOL     OW 5551   0.338   2.915   1.666
 1551SOL    HW1 5552   0.377   2.871   1.585
 1551SOL    HW2 5553   0.335   2.849   1.741
 1552SOL     OW 5554   0.896   6.601   2.077
 1552SOL    HW1 5555   0.955   6.591   2.157
 1552SOL    HW2 5556   0.951   6.599   1.994
 1553SOL     OW 5557   5.165   1.059   6.083
 1553SOL    HW1 5558   5.155   1.031   6.179
 1553SOL    HW2 5559   5.246   1.015   6.044
 1554SOL     OW 5560   2.699   2.364   0.964
 1554SOL    HW1 5561   2.752   2.282   0.985
 1554SOL    HW2 5562   2.758   2.444   0.970
 1555SOL     OW 5563   3.922   0.862   0.264
 1555SOL    HW1 5564   3.922   0.956   0.231
 1555SOL    HW2 5565   3.913   0.861   0.363
 1556SOL     OW 5566   3.835   1.957   0.328
 1556SOL    HW1 5567   3.858   2.040   0.278
 1556SOL    HW2 5568   3.748   1.921   0.296
 1557SOL     OW 5569   1.624   3.223   0.624
 1557SOL    HW1 5570   1.588   3.200   0.534
 1557SOL    HW2 5571   1.722   3.204   0.627
 1558SOL     OW 5572   5.059   2.826   6.298
 1558SOL    HW1 5573   5.120   2.772   6.240
 1558SOL    HW2 5574   4.987   2.867   6.242
 1559SOL     OW 5575   2.559   6.096   3.261
 1559SOL    HW1 5576   2.550   6.024   3.329
 1559SOL    HW2 5577   2.483   6.091   3.196
 1560SOL     OW 5578   4.187   2.872   1.266
 1560SOL    HW1 5579   4.157   2.898   1.175
 1560SOL    HW2 5580   4.115   2.892   1.333
 1561SOL     OW 5581   5.584   5.928   0.765
 1561SOL    HW1 5582   5.658   5.992   0.783
 1561SOL    HW2 5583   5.555   5.886   0.851
 1562SOL     OW 5584   3.095   0.415   2.629
 1562SOL    HW1 5585   3.006   0.410   2.583
 1562SOL    HW2 5586   3.134   0.506   2.616
 1563SOL     OW 5587   1.932   2.965   4.156
 1563SOL    HW1 5588   1.889   2.875   4.149
 1563SOL    HW2 5589   2.008   2.960   4.220
 1564SOL     OW 5590   0.638   1.509   2.772
 1564SOL    HW1 5591   0.539   1.495   2.763
 1564SOL    HW2 5592   0.657   1.560   2.856
 1565SOL     OW 5593   4.875   1.433   5.287
 1565SOL    HW1 5594   4.876   1.334   5.301
 1565SOL    HW2 5595   4.783   1.469   5.304
 1566SOL     OW 5596   6.892   3.558   3.474
 1566SOL    HW1 5597   6.925   3.526   3.562
 1566SOL    HW2 5598   6.932   3.648   3.454
 1567SOL     OW 5599   5.692   0.140   4.899
 1567SOL    HW1 5600   5.718   0.145   4.996
 1567SOL    HW2 5601   5.593   0.147   4.891
 1568SOL     OW 5602   2.307   4.970   1.188
 1568SOL    HW1 5603   2.359   4.982   1.104
 1568SOL    HW2 5604   2.257   4.884   1.185
 1569SOL     OW 5605   2.492   1.258   2.592
 1569SOL    HW1 5606   2.431   1.332   2.623
 1569SOL    HW2 5607   2.457   1.171   2.624
 1570SOL     OW 5608   2.811   5.944   6.467
 1570SOL    HW1 5609   2.784   6.024   6.414
 1570SOL    HW2 5610   2.907   5.922   6.448
 1571SOL     OW 5611   6.843   2.990   4.568
 1571SOL    HW1 5612   6.818   2.997   4.471
 1571SOL    HW2 5613   6.848   3.081   4.608
 1572SOL     OW 5614   2.220   6.067   3.230
 1572SOL    HW1 5615   2.234   6.026   3.320
 1572SOL    HW2 5616   2.292   6.036   3.168
 1573SOL     OW 5617   5.211   5.711   0.254
 1573SOL    HW1 5618   5.179   5.805   0.245
 1573SOL    HW2 5619   5.311   5.708   0.245
 1574SOL     OW 5620   1.246   4.400   3.174
 1574SOL    HW1 5621   1.165   4.358   3.132
 1574SOL    HW2 5622   1.256   4.366   3.267
 1575SOL     OW 5623   6.840   2.339   0.426
 1575SOL    HW1 5624   6.933   2.341   0.389
 1575SOL    HW2 5625   6.794   2.425   0.403
 1576SOL     OW 5626   1.877   5.418   1.732
 1576SOL    HW1 5627   1.866   5.468   1.818
 1576SOL    HW2 5628   1.790   5.378   1.705
 1577SOL     OW 5629   4.057   6.191   3.931
 1577SOL    HW1 5630   4.062   6.265   3.998
 1577SOL    HW2 5631   4.129   6.202   3.863
 1578SOL     OW 5632   5.184   1.525   1.535
 1578SOL    HW1 5633   5.210   1.437   1.576
 1578SOL    HW2 5634   5.116   1.569   1.593
 1579SOL     OW 5635   1.485   3.125   1.674
 1579SOL    HW1 5636   1.428   3.054   1.631
 1579SOL    HW2 5637   1.548   3.163   1.606
 1580SOL     OW 5638   2.931   3.368   3.176
 1580SOL    HW1 5639   2.896   3.377   3.083
 1580SOL    HW2 5640   2.915   3.453   3.226
 1581SOL     OW 5641   6.180   4.137   4.547
 1581SOL    HW1 5642   6.174   4.087   4.633
 1581SOL    HW2 5643   6.203   4.073   4.473
 1582SOL     OW 5644   4.965   5.919   4.806
 1582SOL    HW1 5645   5.053   5.871   4.803
 1582SOL    HW2 5646   4.977   6.013   4.775
 1583SOL     OW 5647   1.340   5.634   5.537
 1583SOL    HW1 5648   1.317   5.585   5.453
 1583SOL    HW2 5649   1.272   5.706   5.552
 1584SOL     OW 5650   0.294   3.878   0.760
 1584SOL    HW1 5651   0.364   3.835   0.703
 1584SOL    HW2 5652   0.207   3.880   0.711
 1585SOL     OW 5653   4.787   6.601   4.163
 1585SOL    HW1 5654   4.733   6.638   4.088
 1585SOL    HW2 5655   4.880   6.582   4.132
 1586SOL     OW 5656   2.932   5.652   2.919
 1586SOL    HW1 5657   2.861   5.596   2.877
 1586SOL    HW2 5658   2.978   5.706   2.849
 1587SOL     OW 5659   3.630   6.678   6.872
 1587SOL    HW1 5660   3.567   6.704   6.799
 1587SOL    HW2 5661   3.590   6.605   6.927
 1588SOL     OW 5662   6.397   1.979   2.887
 1588SOL    HW1 5663   6.357   1.893   2.918
 1588SOL    HW2 5664   6.326   2.050   2.887
 1589SOL     OW 5665   6.809   3.264   4.441
 1589SOL    HW1 5666   6.906   3.261   4.462
 1589SOL    HW2 5667   6.787   3.350   4.395
 1590SOL     OW 5668   5.983   0.943   3.297
 1590SOL    HW1 5669   6.027   1.006   3.360
 1590SOL    HW2 5670   5.972   0.854   3.341
 1591SOL     OW 5671   1.115   5.960   0.753
 1591SOL    HW1 5672   1.123   5.877   0.808
 1591SOL    HW2 5673   1.138   5.939   0.658
 1592SOL     OW 5674   0.309   3.586   5.992
 1592SOL    HW1 5675   0.297   3.575   5.893
 1592SOL    HW2 5676   0.232   3.542   6.039
 1593SOL     OW 5677   3.535   6.189   0.848
 1593SOL    HW1 5678   3.472   6.232   0.912
 1593SOL    HW2 5679   3.558   6.253   0.775
 1594SOL     OW 5680   5.387   0.719   2.789
 1594SOL    HW1 5681   5.483   0.727   2.764
 1594SOL    HW2 5682   5.367   0.625   2.817
 1595SOL     OW 5683   0.764   3.229   6.645
 1595SOL    HW1 5684   0.807   3.141   6.626
 1595SOL    HW2 5685   0.755   3.281   6.560
 1596SOL     OW 5686   4.947   4.563   3.433
 1596SOL    HW1 5687   4.932   4.606   3.522
 1596SOL    HW2 5688   4.914   4.468   3.436
 1597SOL     OW 5689   3.189   6.004   0.296
 1597SOL    HW1 5690   3.193   5.917   0.346
 1597SOL    HW2 5691   3.111   6.004   0.234
 1598SOL     OW 5692   1.067   4.530   6.313
 1598SOL    HW1 5693   1.129   4.582   6.254
 1598SOL    HW2 5694   1.110   4.443   6.337
 1599SOL     OW 5695   4.616   5.678   3.726
 1599SOL    HW1 5696   4.528   5.633   3.738
 1599SOL    HW2 5697   4.689   5.619   3.758
 1600SOL     OW 5698   4.187   0.871   1.485
 1600SOL    HW1 5699   4.228   0.901   1.399
 1600SOL    HW2 5700   4.103   0.924   1.501
 1601SOL     OW 5701   6.524   1.055   4.575
 1601SOL    HW1 5702   6.597   1.058   4.507
 1601SOL    HW2 5703   6.479   1.144   4.578
 1602SOL     OW 5704   4.701   5.819   3.951
 1602SOL    HW1 5705   4.730   5.746   4.012
 1602SOL    HW2 5706   4.666   5.780   3.866
 1603SOL     OW 5707   3.119   4.901   2.442
 1603SOL    HW1 5708   3.175   4.910   2.524
 1603SOL    HW2 5709   3.025   4.929   2.462
 1604SOL     OW 5710   4.501   4.926   2.900
 1604SOL    HW1 5711   4.564   4.849   2.912
 1604SOL    HW2 5712   4.554   5.011   2.892
 1605SOL     OW 5713   4.882   4.876   0.392
 1605SOL    HW1 5714   4.955   4.895   0.458
 1605SOL    HW2 5715   4.859   4.959   0.342
 1606SOL     OW 5716   3.170   6.061   5.052
 1606SOL    HW1 5717   3.081   6.015   5.050
 1606SOL    HW2 5718   3.235   6.004   5.103
 1607SOL     OW 5719   4.732   4.075   3.848
 1607SOL    HW1 5720   4.709   4.139   3.921
 1607SOL    HW2 5721   4.657   4.010   3.835
 1608SOL     OW 5722   5.623   2.250   3.454
 1608SOL    HW1 5723   5.613   2.244   3.553
 1608SOL    HW2 5724   5.670   2.169   3.420
 1609SOL     OW 5725   1.771   0.007   1.208
 1609SOL    HW1 5726   1.775   6.964   1.136
 1609SOL    HW2 5727   1.701   7.009   1.275
 1610SOL     OW 5728   5.665   6.557   0.762
 1610SOL    HW1 5729   5.641   6.651   0.783
 1610SOL    HW2 5730   5.616   6.527   0.680
 1611SOL     OW 5731   1.521   4.146   6.921
 1611SOL    HW1 5732   1.611   4.111   6.951
 1611SOL    HW2 5733   1.477   4.077   6.864
 1612SOL     OW 5734   4.227   1.247   2.325
 1612SOL    HW1 5735   4.206   1.343   2.344
 1612SOL    HW2 5736   4.325   1.238   2.307
 1613SOL     OW 5737   6.919   5.261   2.596
 1613SOL    HW1 5738   6.947   5.320   2.672
 1613SOL    HW2 5739   6.927   5.312   2.510
 1614SOL     OW 5740   6.564   1.453   6.072
 1614SOL    HW1 5741   6.515   1.540   6.062
 1614SOL    HW2 5742   6.506   1.379   6.039
 1615SOL     OW 5743   6.931   3.880   5.633
 1615SOL    HW1 5744   6.930   3.979   5.620
 1615SOL    HW2 5745   7.003   3.839   5.577
 1616SOL     OW 5746   0.334   0.633   4.140
 1616SOL    HW1 5747   0.383   0.595   4.219
 1616SOL    HW2 5748   0.284   0.715   4.168
 1617SOL     OW 5749   6.728   5.495   3.873
 1617SOL    HW1 5750   6.705   5.541   3.959
 1617SOL    HW2 5751   6.721   5.561   3.798
 1618SOL     OW 5752   3.605   5.315   2.677
 1618SOL    HW1 5753   3.620   5.410   2.650
 1618SOL    HW2 5754   3.672   5.289   2.746
 1619SOL     OW 5755   0.940   4.578   6.556
 1619SOL    HW1 5756   0.915   4.483   6.576
 1619SOL    HW2 5757   0.988   4.581   6.468
 1620SOL     OW 5758   3.416   6.788   4.199
 1620SOL    HW1 5759   3.428   6.787   4.099
 1620SOL    HW2 5760   3.462   6.869   4.237
 1621SOL     OW 5761   4.721   5.669   0.754
 1621SOL    HW1 5762   4.654   5.633   0.690
 1621SOL    HW2 5763   4.680   5.743   0.808
 1622SOL     OW 5764   6.159   4.557   4.161
 1622SOL    HW1 5765   6.212   4.502   4.097
 1622SOL    HW2 5766   6.144   4.648   4.121
 1623SOL     OW 5767   0.190   2.568   3.228
 1623SOL    HW1 5768   0.216   2.550   3.323
 1623SOL    HW2 5769   0.126   2.497   3.198
 1624SOL     OW 5770   3.761   3.144   0.848
 1624SOL    HW1 5771   3.667   3.176   0.860
 1624SOL    HW2 5772   3.766   3.087   0.766
 1625SOL     OW 5773   0.431   6.831   0.436
 1625SOL    HW1 5774   0.413   6.805   0.341
 1625SOL    HW2 5775   0.527   6.817   0.457
 1626SOL     OW 5776   2.473   1.897   1.648
 1626SOL    HW1 5777   2.503   1.848   1.730
 1626SOL    HW2 5778   2.553   1.934   1.601
 1627SOL     OW 5779   3.895   2.304   6.179
 1627SOL    HW1 5780   3.812   2.358   6.195
 1627SOL    HW2 5781   3.915   2.250   6.261
 1628SOL     OW 5782   5.379   7.024   0.935
 1628SOL    HW1 5783   5.439   6.966   0.879
 1628SOL    HW2 5784   5.417   0.005   1.027
 1629SOL     OW 5785   1.403   0.243   3.679
 1629SOL    HW1 5786   1.312   0.256   3.639
 1629SOL    HW2 5787   1.395   0.212   3.774
 1630SOL     OW 5788   0.512   3.728   6.136
 1630SOL    HW1 5789   0.438   3.700   6.075
 1630SOL    HW2 5790   0.597   3.683   6.108
 1631SOL     OW 5791   5.800   3.409   0.736
 1631SOL    HW1 5792   5.773   3.505   0.731
 1631SOL    HW2 5793   5.792   3.376   0.830
 1632SOL     OW 5794   6.401   5.911   2.237
 1632SOL    HW1 5795   6.338   5.939   2.310
 1632SOL    HW2 5796   6.495   5.933   2.264
 1633SOL     OW 5797   5.329   3.556   4.463
 1633SOL    HW1 5798   5.267   3.480   4.479
 1633SOL    HW2 5799   5.339   3.610   4.546
 1634SOL     OW 5800   1.039   3.119   6.074
 1634SOL    HW1 5801   0.987   3.196   6.039
 1634SOL    HW2 5802   1.117   3.101   6.012
 1635SOL     OW 5803   3.355   6.829   3.666
 1635SOL    HW1 5804   3.264   6.869   3.667
 1635SOL    HW2 5805   3.420   6.893   3.707
 1636SOL     OW 5806   6.512   5.771   0.869
 1636SOL    HW1 5807   6.426   5.785   0.919
 1636SOL    HW2 5808   6.536   5.856   0.822
 1637SOL     OW 5809   1.491   1.251   2.627
 1637SOL    HW1 5810   1.566   1.189   2.605
 1637SOL    HW2 5811   1.515   1.343   2.596
 1638SOL     OW 5812   5.335   2.364   2.081
 1638SOL    HW1 5813   5.244   2.371   2.040
 1638SOL    HW2 5814   5.327   2.349   2.179
 1639SOL     OW 5815   5.082   2.416   2.009
 1639SOL    HW1 5816   5.043   2.500   1.971
 1639SOL    HW2 5817   5.014   2.372   2.068
 1640SOL     OW 5818   5.805   0.985   6.758
 1640SOL    HW1 5819   5.737   0.947   6.821
 1640SOL    HW2 5820   5.852   0.910   6.711
 1641SOL     OW 5821   6.314   1.551   2.894
 1641SOL    HW1 5822   6.221   1.574   2.923
 1641SOL    HW2 5823   6.351   1.481   2.955
 1642SOL     OW 5824   0.036   3.236   6.092
 1642SOL    HW1 5825   0.013   3.167   6.023
 1642SOL    HW2 5826   0.087   3.193   6.166
 1643SOL     OW 5827   2.038   5.520   4.099
 1643SOL    HW1 5828   1.957   5.461   4.104
 1643SOL    HW2 5829   2.031   5.580   4.019
 1644SOL     OW 5830   6.620   2.153   1.771
 1644SOL    HW1 5831   6.545   2.189   1.826
 1644SOL    HW2 5832   6.707   2.189   1.805
 1645SOL     OW 5833   2.516   0.626   5.137
 1645SOL    HW1 5834   2.593   0.584   5.186
 1645SOL    HW2 5835   2.457   0.554   5.101
 1646SOL     OW 5836   1.210   5.252   1.349
 1646SOL    HW1 5837   1.116   5.223   1.370
 1646SOL    HW2 5838   1.264   5.173   1.322
 1647SOL     OW 5839   6.050   2.948   4.712
 1647SOL    HW1 5840   6.049   2.849   4.695
 1647SOL    HW2 5841   6.099   2.967   4.797
 1648SOL     OW 5842   6.113   6.000   1.995
 1648SOL    HW1 5843   6.081   5.906   2.009
 1648SOL    HW2 5844   6.076   6.035   1.909
 1649SOL     OW 5845   3.709   1.799   3.183
 1649SOL    HW1 5846   3.672   1.794   3.276
 1649SOL    HW2 5847   3.683   1.716   3.132
 1650SOL     OW 5848   3.271   3.429   5.681
 1650SOL    HW1 5849   3.198   3.494   5.660
 1650SOL    HW2 5850   3.234   3.352   5.731
 1651SOL     OW 5851   0.982   2.211   3.523
 1651SOL    HW1 5852   0.911   2.207   3.453
 1651SOL    HW2 5853   1.061   2.158   3.492
 1652SOL     OW 5854   0.499   3.654   1.516
 1652SOL    HW1 5855   0.587   3.612   1.493
 1652SOL    HW2 5856   0.498   3.749   1.483
 1653SOL     OW 5857   0.518   4.643   2.073
 1653SOL    HW1 5858   0.440   4.681   2.023
 1653SOL    HW2 5859   0.571   4.584   2.012
 1654SOL     OW 5860   0.362   3.781   1.758
 1654SOL    HW1 5861   0.395   3.717   1.689
 1654SOL    HW2 5862   0.436   3.802   1.822
 1655SOL     OW 5863   0.616   0.783   5.888
 1655SOL    HW1 5864   0.591   0.686   5.880
 1655SOL    HW2 5865   0.680   0.794   5.964
 1656SOL     OW 5866   2.207   3.867   3.264
 1656SOL    HW1 5867   2.203   3.926   3.184
 1656SOL    HW2 5868   2.258   3.912   3.337
 1657SOL     OW 5869   0.397   0.196   5.730
 1657SOL    HW1 5870   0.468   0.225   5.666
 1657SOL    HW2 5871   0.376   0.100   5.716
 1658SOL     OW 5872   4.989   6.517   6.299
 1658SOL    HW1 5873   4.965   6.422   6.318
 1658SOL    HW2 5874   5.017   6.526   6.203
 1659SOL     OW 5875   4.283   6.841   5.706
 1659SOL    HW1 5876   4.327   6.930   5.698
 1659SOL    HW2 5877   4.185   6.850   5.688
 1660SOL     OW 5878   2.237   0.517   2.049
 1660SOL    HW1 5879   2.160   0.551   2.104
 1660SOL    HW2 5880   2.223   0.542   1.954
 1661SOL     OW 5881   4.907   3.918   2.931
 1661SOL    HW1 5882   4.911   3.841   2.868
 1661SOL    HW2 5883   4.869   3.998   2.883
 1662SOL     OW 5884   0.149   2.034   3.721
 1662SOL    HW1 5885   0.174   2.055   3.627
 1662SOL    HW2 5886   0.051   2.047   3.734
 1663SOL     OW 5887   5.001   4.359   1.223
 1663SOL    HW1 5888   4.961   4.451   1.223
 1663SOL    HW2 5889   5.026   4.333   1.316
 1664SOL     OW 5890   1.767   0.248   6.135
 1664SOL    HW1 5891   1.720   0.266   6.221
 1664SOL    HW2 5892   1.863   0.275   6.143
 1665SOL     OW 5893   2.832   4.582   6.773
 1665SOL    HW1 5894   2.927   4.605   6.792
 1665SOL    HW2 5895   2.796   4.525   6.848
 1666SOL     OW 5896   4.806   6.608   6.473
 1666SOL    HW1 5897   4.843   6.653   6.554
 1666SOL    HW2 5898   4.882   6.583   6.412
 1667SOL     OW 5899   0.124   5.620   0.633
 1667SOL    HW1 5900   0.193   5.634   0.562
 1667SOL    HW2 5901   0.059   5.550   0.602
 1668SOL     OW 5902   5.894   3.424   2.352
 1668SOL    HW1 5903   5.819   3.430   2.418
 1668SOL    HW2 5904   5.938   3.514   2.345
 1669SOL     OW 5905   6.724   3.138   5.475
 1669SOL    HW1 5906   6.730   3.092   5.387
 1669SOL    HW2 5907   6.646   3.101   5.527
 1670SOL     OW 5908   2.852   4.420   5.802
 1670SOL    HW1 5909   2.823   4.450   5.711
 1670SOL    HW2 5910   2.840   4.495   5.868
 1671SOL     OW 5911   6.051   2.551   0.493
 1671SOL    HW1 5912   6.032   2.533   0.589
 1671SOL    HW2 5913   6.132   2.609   0.485
 1672SOL     OW 5914   0.412   2.340   1.379
 1672SOL    HW1 5915   0.384   2.389   1.296
 1672SOL    HW2 5916   0.448   2.405   1.445
 1673SOL     OW 5917   0.978   0.570   4.647
 1673SOL    HW1 5918   1.016   0.494   4.594
 1673SOL    HW2 5919   1.043   0.646   4.648
 1674SOL     OW 5920   5.057   2.209   2.437
 1674SOL    HW1 5921   5.051   2.220   2.536
 1674SOL    HW2 5922   4.969   2.235   2.395
 1675SOL     OW 5923   5.001   0.367   1.830
 1675SOL    HW1 5924   5.018   0.394   1.925
 1675SOL    HW2 5925   4.913   0.320   1.824
 1676SOL     OW 5926   1.055   2.119   3.775
 1676SOL    HW1 5927   1.026   2.166   3.691
 1676SOL    HW2 5928   1.118   2.177   3.826
 1677SOL     OW 5929   3.631   3.210   3.132
 1677SOL    HW1 5930   3.683   3.260   3.201
 1677SOL    HW2 5931   3.534   3.211   3.156
 1678SOL     OW 5932   1.341   0.553   0.512
 1678SOL    HW1 5933   1.251   0.536   0.553
 1678SOL    HW2 5934   1.384   0.466   0.490
 1679SOL     OW 5935   6.623   1.131   6.654
 1679SOL    HW1 5936   6.630   1.036   6.684
 1679SOL    HW2 5937   6.600   1.133   6.556
 1680SOL     OW 5938   5.588   2.527   3.109
 1680SOL    HW1 5939   5.532   2.581   3.046
 1680SOL    HW2 5940   5.653   2.472   3.057
 1681SOL     OW 5941   3.792   6.400   4.564
 1681SOL    HW1 5942   3.797   6.470   4.492
 1681SOL    HW2 5943   3.847   6.428   4.642
 1682SOL     OW 5944   3.849   0.360   4.593
 1682SOL    HW1 5945   3.849   0.281   4.654
 1682SOL    HW2 5946   3.871   0.443   4.645
 1683SOL     OW 5947   6.723   2.864   3.047
 1683SOL    HW1 5948   6.695   2.960   3.039
 1683SOL    HW2 5949   6.823   2.859   3.057
 1684SOL     OW 5950   2.778   4.918   1.806
 1684SOL    HW1 5951   2.822   4.896   1.893
 1684SOL    HW2 5952   2.680   4.931   1.821
 1685SOL     OW 5953   7.014   1.434   5.537
 1685SOL    HW1 5954   0.076   1.481   5.545
 1685SOL    HW2 5955   6.948   1.496   5.494
 1686SOL     OW 5956   4.085   5.337   2.298
 1686SOL    HW1 5957   3.986   5.327   2.310
 1686SOL    HW2 5958   4.132   5.284   2.369
 1687SOL     OW 5959   4.985   4.580   0.769
 1687SOL    HW1 5960   5.040   4.599   0.688
 1687SOL    HW2 5961   4.915   4.512   0.746
 1688SOL     OW 5962   1.761   0.295   3.393
 1688SOL    HW1 5963   1.817   0.311   3.475
 1688SOL    HW2 5964   1.708   0.378   3.374
 1689SOL     OW 5965   4.247   0.662   1.650
 1689SOL    HW1 5966   4.181   0.592   1.676
 1689SOL    HW2 5967   4.200   0.737   1.605
 1690SOL     OW 5968   6.751   4.817   4.060
 1690SOL    HW1 5969   6.672   4.877   4.050
 1690SOL    HW2 5970   6.735   4.752   4.135
 1691SOL     OW 5971   4.269   2.603   5.425
 1691SOL    HW1 5972   4.363   2.569   5.428
 1691SOL    HW2 5973   4.230   2.585   5.335
 1692SOL     OW 5974   5.323   4.990   1.516
 1692SOL    HW1 5975   5.276   5.074   1.545
 1692SOL    HW2 5976   5.378   5.008   1.435
 1693SOL     OW 5977   5.249   6.730   5.880
 1693SOL    HW1 5978   5.212   6.778   5.800
 1693SOL    HW2 5979   5.338   6.770   5.903
 1694SOL     OW 5980   4.775   1.608   6.447
 1694SOL    HW1 5981   4.736   1.693   6.483
 1694SOL    HW2 5982   4.871   1.623   6.422
 1695SOL     OW 5983   4.034   0.492   5.573
 1695SOL    HW1 5984   3.940   0.517   5.549
 1695SOL    HW2 5985   4.093   0.502   5.493
 1696SOL     OW 5986   4.206   6.719   0.846
 1696SOL    HW1 5987   4.301   6.692   0.832
 1696SOL    HW2 5988   4.157   6.715   0.759
 1697SOL     OW 5989   4.689   2.807   1.794
 1697SOL    HW1 5990   4.698   2.729   1.856
 1697SOL    HW2 5991   4.700   2.892   1.846
 1698SOL     OW 5992   4.366   1.462   1.353
 1698SOL    HW1 5993   4.316   1.544   1.380
 1698SOL    HW2 5994   4.406   1.419   1.434
 1699SOL     OW 5995   1.880   0.354   0.824
 1699SOL    HW1 5996   1.823   0.418   0.876
 1699SOL    HW2 5997   1.975   0.361   0.853
 1700SOL     OW 5998   5.240   3.076   2.788
 1700SOL    HW1 5999   5.221   2.987   2.746
 1700SOL    HW2 6000   5.337   3.081   2.813
 1701SOL     OW 6001   0.373   5.809   5.033
 1701SOL    HW1 6002   0.429   5.860   4.967
 1701SOL    HW2 6003   0.314   5.746   4.984
 1702SOL     OW 6004   2.422   2.947   6.856
 1702SOL    HW1 6005   2.508   2.914   6.818
 1702SOL    HW2 6006   2.346   2.907   6.804
 1703SOL     OW 6007   1.155   1.841   1.871
 1703SOL    HW1 6008   1.153   1.941   1.879
 1703SOL    HW2 6009   1.249   1.812   1.853
 1704SOL     OW 6010   2.704   2.901   0.033
 1704SOL    HW1 6011   2.785   2.899   0.091
 1704SOL    HW2 6012   2.623   2.882   0.088
 1705SOL     OW 6013   4.743   3.417   0.499
 1705SOL    HW1 6014   4.793   3.331   0.505
 1705SOL    HW2 6015   4.768   3.476   0.576
 1706SOL     OW 6016   6.349   1.803   6.699
 1706SOL    HW1 6017   6.324   1.900   6.692
 1706SOL    HW2 6018   6.346   1.762   6.608
 1707SOL     OW 6019   4.067   1.123   2.143
 1707SOL    HW1 6020   4.074   1.185   2.064
 1707SOL    HW2 6021   4.113   1.164   2.222
 1708SOL     OW 6022   2.873   4.866   2.060
 1708SOL    HW1 6023   2.849   4.769   2.050
 1708SOL    HW2 6024   2.971   4.873   2.080
 1709SOL     OW 6025   5.040   4.921   0.631
 1709SOL    HW1 6026   5.139   4.936   0.633
 1709SOL    HW2 6027   4.994   4.991   0.686
 1710SOL     OW 6028   4.962   3.461   2.378
 1710SOL    HW1 6029   4.913   3.376   2.357
 1710SOL    HW2 6030   4.942   3.529   2.307
 1711SOL     OW 6031   4.046   5.630   0.360
 1711SOL    HW1 6032   3.949   5.648   0.346
 1711SOL    HW2 6033   4.060   5.532   0.376
 1712SOL     OW 6034   0.454   1.751   2.027
 1712SOL    HW1 6035   0.403   1.685   2.082
 1712SOL    HW2 6036   0.509   1.702   1.960
 1713SOL     OW 6037   2.910   1.717   2.492
 1713SOL    HW1 6038   2.965   1.657   2.434
 1713SOL    HW2 6039   2.961   1.740   2.575
 1714SOL     OW 6040   3.010   4.113   1.172
 1714SOL    HW1 6041   2.981   4.086   1.080
 1714SOL    HW2 6042   3.108   4.132   1.173
 1715SOL     OW 6043   0.943   6.131   0.869
 1715SOL    HW1 6044   0.989   6.050   0.832
 1715SOL    HW2 6045   0.869   6.158   0.807
 1716SOL     OW 6046   4.292   1.320   2.768
 1716SOL    HW1 6047   4.346   1.372   2.701
 1716SOL    HW2 6048   4.349   1.250   2.810
 1717SOL     OW 6049   3.574   6.150   3.459
 1717SOL    HW1 6050   3.538   6.106   3.541
 1717SOL    HW2 6051   3.574   6.085   3.383
 1718SOL     OW 6052   1.539   3.251   1.414
 1718SOL    HW1 6053   1.493   3.270   1.327
 1718SOL    HW2 6054   1.638   3.254   1.400
 1719SOL     OW 6055   1.600   5.643   2.915
 1719SOL    HW1 6056   1.679   5.666   2.858
 1719SOL    HW2 6057   1.518   5.637   2.858
 1720SOL     OW 6058   0.705   3.367   5.215
 1720SOL    HW1 6059   0.708   3.271   5.186
 1720SOL    HW2 6060   0.720   3.426   5.136
 1721SOL     OW 6061   1.819   2.800   0.336
 1721SOL    HW1 6062   1.812   2.900   0.336
 1721SOL    HW2 6063   1.742   2.761   0.386
 1722SOL     OW 6064   2.334   2.185   3.839
 1722SOL    HW1 6065   2.428   2.155   3.824
 1722SOL    HW2 6066   2.272   2.107   3.830
 1723SOL     OW 6067   5.507   4.430   1.319
 1723SOL    HW1 6068   5.558   4.477   1.391
 1723SOL    HW2 6069   5.500   4.489   1.239
 1724SOL     OW 6070   4.998   2.211   0.938
 1724SOL    HW1 6071   4.986   2.281   0.867
 1724SOL    HW2 6072   5.034   2.254   1.021
 1725SOL     OW 6073   2.110   6.848   5.741
 1725SOL    HW1 6074   2.027   6.903   5.729
 1725SOL    HW2 6075   2.113   6.812   5.834
 1726SOL     OW 6076   5.070   4.492   2.818
 1726SOL    HW1 6077   5.012   4.493   2.899
 1726SOL    HW2 6078   5.117   4.403   2.812
 1727SOL     OW 6079   3.187   3.826   2.918
 1727SOL    HW1 6080   3.129   3.866   2.847
 1727SOL    HW2 6081   3.252   3.895   2.951
 1728SOL     OW 6082   5.992   2.396   3.930
 1728SOL    HW1 6083   5.979   2.441   4.018
 1728SOL    HW2 6084   5.994   2.297   3.944
 1729SOL     OW 6085   1.297   2.358   2.429
 1729SOL    HW1 6086   1.391   2.367   2.396
 1729SOL    HW2 6087   1.252   2.282   2.382
 1730SOL     OW 6088   2.394   6.455   4.541
 1730SOL    HW1 6089   2.386   6.551   4.568
 1730SOL    HW2 6090   2.443   6.450   4.454
 1731SOL     OW 6091   4.878   4.737   3.960
 1731SOL    HW1 6092   4.781   4.722   3.941
 1731SOL    HW2 6093   4.892   4.741   4.059
 1732SOL     OW 6094   2.913   3.587   5.346
 1732SOL    HW1 6095   2.857   3.508   5.372
 1732SOL    HW2 6096   2.962   3.567   5.261
 1733SOL     OW 6097   1.907   2.814   6.265
 1733SOL    HW1 6098   1.946   2.772   6.347
 1733SOL    HW2 6099   1.871   2.743   6.205
 1734SOL     OW 6100   6.979   2.918   1.043
 1734SOL    HW1 6101   6.892   2.945   1.084
 1734SOL    HW2 6102   6.972   2.924   0.944
 1735SOL     OW 6103   3.412   5.291   6.546
 1735SOL    HW1 6104   3.456   5.378   6.569
 1735SOL    HW2 6105   3.480   5.218   6.551
 1736SOL     OW 6106   5.261   2.404   6.483
 1736SOL    HW1 6107   5.248   2.420   6.385
 1736SOL    HW2 6108   5.292   2.310   6.497
 1737SOL     OW 6109   3.262   0.787   5.844
 1737SOL    HW1 6110   3.318   0.822   5.919
 1737SOL    HW2 6111   3.211   0.707   5.875
 1738SOL     OW 6112   1.544   3.641   2.098
 1738SOL    HW1 6113   1.636   3.654   2.060
 1738SOL    HW2 6114   1.521   3.718   2.157
 1739SOL     OW 6115   5.284   6.289   3.188
 1739SOL    HW1 6116   5.383   6.281   3.182
 1739SOL    HW2 6117   5.244   6.278   3.097
 1740SOL     OW 6118   6.747   3.305   4.709
 1740SOL    HW1 6119   6.793   3.309   4.621
 1740SOL    HW2 6120   6.668   3.366   4.708
 1741SOL     OW 6121   0.932   2.255   5.108
 1741SOL    HW1 6122   0.898   2.170   5.148
 1741SOL    HW2 6123   1.013   2.286   5.156
 1742SOL     OW 6124   6.789   6.753   6.978
 1742SOL    HW1 6125   6.736   6.668   6.975
 1742SOL    HW2 6126   6.867   6.741   0.013
 1743SOL     OW 6127   1.808   2.416   1.904
 1743SOL    HW1 6128   1.907   2.414   1.919
 1743SOL    HW2 6129   1.788   2.403   1.807
 1744SOL     OW 6130   3.562   2.348   5.565
 1744SOL    HW1 6131   3.497   2.402   5.618
 1744SOL    HW2 6132   3.513   2.298   5.493
 1745SOL     OW 6133   6.514   6.325   0.825
 1745SOL    HW1 6134   6.520   6.242   0.880
 1745SOL    HW2 6135   6.557   6.401   0.873
 1746SOL     OW 6136   2.531   4.569   3.179
 1746SOL    HW1 6137   2.479   4.493   3.216
 1746SOL    HW2 6138   2.486   4.605   3.097
 1747SOL     OW 6139   4.030   0.104   2.423
 1747SOL    HW1 6140   4.058   0.147   2.338
 1747SOL    HW2 6141   3.975   0.169   2.477
 1748SOL     OW 6142   6.823   2.152   4.491
 1748SOL    HW1 6143   6.900   2.167   4.429
 1748SOL    HW2 6144   6.833   2.064   4.536
 1749SOL     OW 6145   6.803   5.238   1.469
 1749SOL    HW1 6146   6.867   5.305   1.507
 1749SOL    HW2 6147   6.776   5.174   1.540
 1750SOL     OW 6148   3.442   0.820   0.613
 1750SOL    HW1 6149   3.446   0.860   0.521
 1750SOL    HW2 6150   3.361   0.854   0.660
 1751SOL     OW 6151   5.290   3.337   4.941
 1751SOL    HW1 6152   5.297   3.402   5.016
 1751SOL    HW2 6153   5.282   3.387   4.854
 1752SOL     OW 6154   0.463   0.805   2.466
 1752SOL    HW1 6155   0.525   0.790   2.388
 1752SOL    HW2 6156   0.370   0.819   2.432
 1753SOL     OW 6157   0.148   1.732   1.225
 1753SOL    HW1 6158   0.140   1.831   1.215
 1753SOL    HW2 6159   0.104   1.688   1.146
 1754SOL     OW 6160   3.317   5.231   3.446
 1754SOL    HW1 6161   3.255   5.303   3.477
 1754SOL    HW2 6162   3.405   5.239   3.494
 1755SOL     OW 6163   6.526   0.371   5.251
 1755SOL    HW1 6164   6.513   0.332   5.343
 1755SOL    HW2 6165   6.623   0.373   5.228
 1756SOL     OW 6166   4.632   5.951   0.804
 1756SOL    HW1 6167   4.683   5.933   0.720
 1756SOL    HW2 6168   4.536   5.930   0.790
 1757SOL     OW 6169   2.615   4.740   5.169
 1757SOL    HW1 6170   2.614   4.702   5.261
 1757SOL    HW2 6171   2.698   4.709   5.121
 1758SOL     OW 6172   1.217   6.361   3.759
 1758SOL    HW1 6173   1.238   6.379   3.855
 1758SOL    HW2 6174   1.152   6.430   3.726
 1759SOL     OW 6175   0.880   5.734   0.361
 1759SOL    HW1 6176   0.891   5.743   0.262
 1759SOL    HW2 6177   0.937   5.659   0.394
 1760SOL     OW 6178   6.441   1.540   4.889
 1760SOL    HW1 6179   6.380   1.598   4.943
 1760SOL    HW2 6180   6.481   1.469   4.948
 1761SOL     OW 6181   5.232   1.245   3.238
 1761SOL    HW1 6182   5.312   1.197   3.273
 1761SOL    HW2 6183   5.149   1.197   3.266
 1762SOL     OW 6184   0.734   1.501   5.734
 1762SOL    HW1 6185   0.758   1.546   5.820
 1762SOL    HW2 6186   0.756   1.561   5.657
 1763SOL     OW 6187   1.356   5.266   3.562
 1763SOL    HW1 6188   1.410   5.284   3.645
 1763SOL    HW2 6189   1.262   5.295   3.577
 1764SOL     OW 6190   0.837   6.183   3.394
 1764SOL    HW1 6191   0.837   6.242   3.474
 1764SOL    HW2 6192   0.787   6.228   3.319
 1765SOL     OW 6193   5.352   4.312   2.034
 1765SOL    HW1 6194   5.294   4.392   2.022
 1765SOL    HW2 6195   5.322   4.239   1.972
 1766SOL     OW 6196   4.718   4.522   4.291
 1766SOL    HW1 6197   4.698   4.471   4.375
 1766SOL    HW2 6198   4.815   4.515   4.269
 1767SOL     OW 6199   0.497   5.215   1.688
 1767SOL    HW1 6200   0.442   5.298   1.690
 1767SOL    HW2 6201   0.459   5.149   1.753
 1768SOL     OW 6202   4.680   4.412   2.435
 1768SOL    HW1 6203   4.678   4.335   2.371
 1768SOL    HW2 6204   4.590   4.458   2.435
 1769SOL     OW 6205   5.174   0.195   1.132
 1769SOL    HW1 6206   5.218   0.129   1.193
 1769SOL    HW2 6207   5.155   0.280   1.182
 1770SOL     OW 6208   1.629   5.194   0.384
 1770SOL    HW1 6209   1.542   5.211   0.336
 1770SOL    HW2 6210   1.695   5.156   0.319
 1771SOL     OW 6211   1.781   3.450   5.975
 1771SOL    HW1 6212   1.775   3.549   5.962
 1771SOL    HW2 6213   1.690   3.412   5.991
 1772SOL     OW 6214   2.051   3.824   2.874
 1772SOL    HW1 6215   2.127   3.786   2.821
 1772SOL    HW2 6216   1.994   3.881   2.815
 1773SOL     OW 6217   2.227   6.084   5.985
 1773SOL    HW1 6218   2.281   6.046   5.911
 1773SOL    HW2 6219   2.283   6.092   6.067
 1774SOL     OW 6220   5.565   5.964   1.562
 1774SOL    HW1 6221   5.481   5.916   1.537
 1774SOL    HW2 6222   5.621   5.905   1.621
 1775SOL     OW 6223   1.692   5.820   0.634
 1775SOL    HW1 6224   1.606   5.862   0.661
 1775SOL    HW2 6225   1.679   5.770   0.549
 1776SOL     OW 6226   4.577   3.285   5.977
 1776SOL    HW1 6227   4.552   3.331   6.062
 1776SOL    HW2 6228   4.645   3.340   5.928
 1777SOL     OW 6229   4.431   6.155   6.905
 1777SOL    HW1 6230   4.491   6.234   6.892
 1777SOL    HW2 6231   4.478   6.086   6.960
 1778SOL     OW 6232   5.907   0.208   3.935
 1778SOL    HW1 6233   5.901   0.286   3.872
 1778SOL    HW2 6234   5.970   0.140   3.898
 1779SOL     OW 6235   5.857   0.624   4.612
 1779SOL    HW1 6236   5.857   0.528   4.639
 1779SOL    HW2 6237   5.920   0.675   4.671
 1780SOL     OW 6238   2.473   6.082   5.499
 1780SOL    HW1 6239   2.509   6.175   5.488
 1780SOL    HW2 6240   2.530   6.017   5.449
 1781SOL     OW 6241   3.728   0.791   5.695
 1781SOL    HW1 6242   3.700   0.754   5.783
 1781SOL    HW2 6243   3.824   0.818   5.699
 1782SOL     OW 6244   4.983   1.080   2.420
 1782SOL    HW1 6245   4.938   1.007   2.370
 1782SOL    HW2 6246   5.072   1.047   2.454
 1783SOL     OW 6247   1.910   4.534   6.827
 1783SOL    HW1 6248   2.003   4.533   6.864
 1783SOL    HW2 6249   1.910   4.494   6.735
 1784SOL     OW 6250   2.540   6.225   1.492
 1784SOL    HW1 6251   2.542   6.324   1.507
 1784SOL    HW2 6252   2.584   6.178   1.569
 1785SOL     OW 6253   1.403   6.369   4.763
 1785SOL    HW1 6254   1.439   6.338   4.850
 1785SOL    HW2 6255   1.304   6.374   4.767
 1786SOL     OW 6256   0.403   6.061   1.712
 1786SOL    HW1 6257   0.309   6.093   1.731
 1786SOL    HW2 6258   0.447   6.124   1.648
 1787SOL     OW 6259   1.914   2.881   5.882
 1787SOL    HW1 6260   1.926   2.781   5.884
 1787SOL    HW2 6261   1.942   2.916   5.793
 1788SOL     OW 6262   3.971   3.731   0.354
 1788SOL    HW1 6263   3.918   3.649   0.330
 1788SOL    HW2 6264   4.042   3.746   0.286
 1789SOL     OW 6265   5.593   3.057   2.005
 1789SOL    HW1 6266   5.565   3.065   1.909
 1789SOL    HW2 6267   5.633   3.143   2.035
 1790SOL     OW 6268   1.654   2.097   4.830
 1790SOL    HW1 6269   1.630   2.013   4.879
 1790SOL    HW2 6270   1.721   2.149   4.883
 1791SOL     OW 6271   4.800   0.430   3.633
 1791SOL    HW1 6272   4.813   0.363   3.560
 1791SOL    HW2 6273   4.774   0.518   3.592
 1792SOL     OW 6274   6.598   2.467   6.531
 1792SOL    HW1 6275   6.644   2.385   6.498
 1792SOL    HW2 6276   6.585   2.531   6.454
 1793SOL     OW 6277   6.621   1.815   5.109
 1793SOL    HW1 6278   6.691   1.869   5.156
 1793SOL    HW2 6279   6.611   1.848   5.015
 1794SOL     OW 6280   0.337   1.476   6.604
 1794SOL    HW1 6281   0.388   1.515   6.681
 1794SOL    HW2 6282   0.401   1.430   6.542
 1795SOL     OW 6283   5.399   5.086   0.977
 1795SOL    HW1 6284   5.464   5.078   1.053
 1795SOL    HW2 6285   5.446   5.123   0.897
 1796SOL     OW 6286   6.236   0.119   0.997
 1796SOL    HW1 6287   6.223   0.029   1.039
 1796SOL    HW2 6288   6.251   0.188   1.068
 1797SOL     OW 6289   3.068   5.830   5.535
 1797SOL    HW1 6290   3.016   5.897   5.482
 1797SOL    HW2 6291   3.009   5.789   5.604
 1798SOL     OW 6292   1.997   3.776   5.557
 1798SOL    HW1 6293   2.072   3.841   5.544
 1798SOL    HW2 6294   2.020   3.689   5.512
 1799SOL     OW 6295   2.934   1.206   2.211
 1799SOL    HW1 6296   2.978   1.248   2.131
 1799SOL    HW2 6297   2.884   1.276   2.262
 1800SOL     OW 6298   6.311   2.908   5.779
 1800SOL    HW1 6299   6.300   2.859   5.692
 1800SOL    HW2 6300   6.403   2.947   5.784
 1801SOL     OW 6301   0.180   0.752   2.980
 1801SOL    HW1 6302   0.170   0.725   3.075
 1801SOL    HW2 6303   0.133   0.839   2.965
 1802SOL     OW 6304   6.065   4.994   3.817
 1802SOL    HW1 6305   6.085   5.092   3.819
 1802SOL    HW2 6306   6.139   4.945   3.772
 1803SOL     OW 6307   7.019   0.196   4.127
 1803SOL    HW1 6308   0.050   0.139   4.069
 1803SOL    HW2 6309   6.930   0.151   4.140
 1804SOL     OW 6310   1.566   2.204   6.307
 1804SOL    HW1 6311   1.550   2.127   6.245
 1804SOL    HW2 6312   1.479   2.247   6.330
 1805SOL     OW 6313   6.680   4.609   0.485
 1805SOL    HW1 6314   6.759   4.584   0.429
 1805SOL    HW2 6315   6.600   4.620   0.426
 1806SOL     OW 6316   0.669   1.779   1.330
 1806SOL    HW1 6317   0.696   1.726   1.250
 1806SOL    HW2 6318   0.574   1.808   1.320
 1807SOL     OW 6319   6.015   3.113   2.870
 1807SOL    HW1 6320   6.070   3.177   2.815
 1807SOL    HW2 6321   5.982   3.039   2.811
 1808SOL     OW 6322   5.483   1.194   6.208
 1808SOL    HW1 6323   5.478   1.140   6.292
 1808SOL    HW2 6324   5.528   1.141   6.137
 1809SOL     OW 6325   5.724   0.454   5.669
 1809SOL    HW1 6326   5.702   0.386   5.739
 1809SOL    HW2 6327   5.822   0.474   5.671
 1810SOL     OW 6328   1.313   1.133   4.401
 1810SOL    HW1 6329   1.306   1.100   4.307
 1810SOL    HW2 6330   1.266   1.220   4.410
 1811SOL     OW 6331   3.043   5.803   1.901
 1811SOL    HW1 6332   3.042   5.706   1.876
 1811SOL    HW2 6333   3.115   5.819   1.969
 1812SOL     OW 6334   3.835   6.825   6.623
 1812SOL    HW1 6335   3.885   6.836   6.709
 1812SOL    HW2 6336   3.767   6.898   6.614
 1813SOL     OW 6337   4.760   3.968   1.811
 1813SOL    HW1 6338   4.662   3.953   1.799
 1813SOL    HW2 6339   4.775   4.055   1.859
 1814SOL     OW 6340   6.332   5.943   0.736
 1814SOL    HW1 6341   6.359   5.853   0.700
 1814SOL    HW2 6342   6.321   6.007   0.660
 1815SOL     OW 6343   6.194   5.224   1.301
 1815SOL    HW1 6344   6.213   5.129   1.323
 1815SOL    HW2 6345   6.255   5.284   1.354
 1816SOL     OW 6346   4.243   5.479   4.863
 1816SOL    HW1 6347   4.180   5.556   4.854
 1816SOL    HW2 6348   4.203   5.409   4.922
 1817SOL     OW 6349   6.915   2.615   3.734
 1817SOL    HW1 6350   6.881   2.531   3.776
 1817SOL    HW2 6351   6.953   2.674   3.805
 1818SOL     OW 6352   2.360   1.434   0.566
 1818SOL    HW1 6353   2.295   1.424   0.491
 1818SOL    HW2 6354   2.453   1.430   0.531
 1819SOL     OW 6355   0.976   4.617   1.855
 1819SOL    HW1 6356   0.981   4.517   1.854
 1819SOL    HW2 6357   0.975   4.651   1.761
 1820SOL     OW 6358   3.871   0.145   4.784
 1820SOL    HW1 6359   3.777   0.111   4.793
 1820SOL    HW2 6360   3.908   0.166   4.874
 1821SOL     OW 6361   3.609   1.177   2.442
 1821SOL    HW1 6362   3.515   1.154   2.466
 1821SOL    HW2 6363   3.613   1.203   2.345
 1822SOL     OW 6364   1.512   3.848   4.095
 1822SOL    HW1 6365   1.541   3.853   4.000
 1822SOL    HW2 6366   1.507   3.940   4.133
 1823SOL     OW 6367   4.000   6.774   3.375
 1823SOL    HW1 6368   3.995   6.873   3.358
 1823SOL    HW2 6369   3.909   6.734   3.363
 1824SOL     OW 6370   4.308   3.156   1.808
 1824SOL    HW1 6371   4.288   3.254   1.804
 1824SOL    HW2 6372   4.406   3.142   1.800
 1825SOL     OW 6373   1.193   3.906   6.600
 1825SOL    HW1 6374   1.160   3.909   6.506
 1825SOL    HW2 6375   1.156   3.983   6.651
 1826SOL     OW 6376   3.825   2.367   0.444
 1826SOL    HW1 6377   3.820   2.403   0.351
 1826SOL    HW2 6378   3.830   2.444   0.508
 1827SOL     OW 6379   5.352   4.477   0.398
 1827SOL    HW1 6380   5.264   4.511   0.432
 1827SOL    HW2 6381   5.339   4.388   0.356
 1828SOL     OW 6382   2.281   4.858   4.638
 1828SOL    HW1 6383   2.262   4.765   4.669
 1828SOL    HW2 6384   2.342   4.903   4.704
 1829SOL     OW 6385   2.341   5.948   2.091
 1829SOL    HW1 6386   2.356   5.993   2.179
 1829SOL    HW2 6387   2.249   5.968   2.059
 1830SOL     OW 6388   4.455   1.250   5.965
 1830SOL    HW1 6389   4.470   1.229   6.062
 1830SOL    HW2 6390   4.398   1.179   5.924
 1831SOL     OW 6391   3.837   4.616   0.320
 1831SOL    HW1 6392   3.835   4.704   0.368
 1831SOL    HW2 6393   3.792   4.546   0.375
 1832SOL     OW 6394   1.498   3.429   5.551
 1832SOL    HW1 6395   1.589   3.469   5.540
 1832SOL    HW2 6396   1.502   3.332   5.530
 1833SOL     OW 6397   5.891   0.724   6.952
 1833SOL    HW1 6398   5.980   0.753   6.917
 1833SOL    HW2 6399   5.897   0.711   0.025
 1834SOL     OW 6400   0.973   3.496   6.345
 1834SOL    HW1 6401   0.953   3.593   6.358
 1834SOL    HW2 6402   1.072   3.484   6.331
 1835SOL     OW 6403   7.013   6.613   1.417
 1835SOL    HW1 6404   6.981   6.600   1.511
 1835SOL    HW2 6405   0.049   6.691   1.412
 1836SOL     OW 6406   5.645   1.691   2.607
 1836SOL    HW1 6407   5.622   1.620   2.674
 1836SOL    HW2 6408   5.655   1.649   2.517
 1837SOL     OW 6409   2.117   2.308   0.103
 1837SOL    HW1 6410   2.126   2.398   0.146
 1837SOL    HW2 6411   2.181   2.302   0.026
 1838SOL     OW 6412   4.705   0.495   0.504
 1838SOL    HW1 6413   4.669   0.483   0.411
 1838SOL    HW2 6414   4.699   0.408   0.553
 1839SOL     OW 6415   6.439   0.491   0.054
 1839SOL    HW1 6416   6.529   0.532   0.067
 1839SOL    HW2 6417   6.424   0.473   6.983
 1840SOL     OW 6418   4.260   0.226   4.517
 1840SOL    HW1 6419   4.281   0.151   4.579
 1840SOL    HW2 6420   4.209   0.191   4.438
 1841SOL     OW 6421   1.561   0.767   1.484
 1841SOL    HW1 6422   1.643   0.736   1.531
 1841SOL    HW2 6423   1.583   0.793   1.390
 1842SOL     OW 6424   6.992   5.137   1.742
 1842SOL    HW1 6425   7.015   5.200   1.668
 1842SOL    HW2 6426   6.896   5.111   1.736
 1843SOL     OW 6427   2.589   1.468   6.997
 1843SOL    HW1 6428   2.516   1.419   6.951
 1843SOL    HW2 6429   2.638   1.525   6.930
 1844SOL     OW 6430   5.332   3.119   6.585
 1844SOL    HW1 6431   5.327   3.057   6.506
 1844SOL    HW2 6432   5.404   3.087   6.647
 1845SOL     OW 6433   0.921   2.348   3.996
 1845SOL    HW1 6434   0.933   2.254   4.028
 1845SOL    HW2 6435   1.008   2.397   4.004
 1846SOL     OW 6436   2.893   1.007   1.505
 1846SOL    HW1 6437   2.904   1.059   1.589
 1846SOL    HW2 6438   2.938   1.056   1.430
 1847SOL     OW 6439   2.096   5.699   6.187
 1847SOL    HW1 6440   2.158   5.737   6.119
 1847SOL    HW2 6441   2.135   5.713   6.279
 1848SOL     OW 6442   4.004   5.908   3.189
 1848SOL    HW1 6443   4.050   5.954   3.113
 1848SOL    HW2 6444   3.918   5.955   3.208
 1849SOL     OW 6445   4.659   2.797   2.965
 1849SOL    HW1 6446   4.668   2.893   2.994
 1849SOL    HW2 6447   4.689   2.788   2.870
 1850SOL     OW 6448   4.185   1.654   0.959
 1850SOL    HW1 6449   4.159   1.718   1.032
 1850SOL    HW2 6450   4.102   1.616   0.917
 1851SOL     OW 6451   0.656   4.764   4.449
 1851SOL    HW1 6452   0.590   4.738   4.521
 1851SOL    HW2 6453   0.714   4.838   4.482
 1852SOL     OW 6454   0.350   6.771   3.597
 1852SOL    HW1 6455   0.285   6.841   3.568
 1852SOL    HW2 6456   0.354   6.769   3.697
 1853SOL     OW 6457   0.947   1.814   5.592
 1853SOL    HW1 6458   1.017   1.801   5.662
 1853SOL    HW2 6459   0.894   1.730   5.583
 1854SOL     OW 6460   0.013   0.462   3.782
 1854SOL    HW1 6461   0.036   0.529   3.852
 1854SOL    HW2 6462   0.077   0.385   3.788
 1855SOL     OW 6463   5.967   2.095   5.096
 1855SOL    HW1 6464   5.914   2.057   5.020
 1855SOL    HW2 6465   5.929   2.062   5.182
 1856SOL     OW 6466   5.097   3.893   0.054
 1856SOL    HW1 6467   5.193   3.913   0.071
 1856SOL    HW2 6468   5.065   3.822   0.117
 1857SOL     OW 6469   3.782   1.034   6.707
 1857SOL    HW1 6470   3.794   0.973   6.786
 1857SOL    HW2 6471   3.730   0.986   6.636
 1858SOL     OW 6472   5.269   2.005   5.249
 1858SOL    HW1 6473   5.346   1.942   5.265
 1858SOL    HW2 6474   5.276   2.082   5.313
 1859SOL     OW 6475   6.675   0.466   2.906
 1859SOL    HW1 6476   6.718   0.427   2.987
 1859SOL    HW2 6477   6.746   0.503   2.845
 1860SOL     OW 6478   2.778   1.429   6.208
 1860SOL    HW1 6479   2.831   1.345   6.197
 1860SOL    HW2 6480   2.716   1.440   6.131
 1861SOL     OW 6481   6.032   6.382   5.203
 1861SOL    HW1 6482   5.941   6.350   5.177
 1861SOL    HW2 6483   6.037   6.391   5.303
 1862SOL     OW 6484   3.181   5.558   6.080
 1862SOL    HW1 6485   3.161   5.499   6.159
 1862SOL    HW2 6486   3.260   5.522   6.031
 1863SOL     OW 6487   0.097   1.751   1.489
 1863SOL    HW1 6488   0.110   1.754   1.390
 1863SOL    HW2 6489   0.181   1.781   1.534
 1864SOL     OW 6490   2.608   6.302   1.809
 1864SOL    HW1 6491   2.530   6.364   1.810
 1864SOL    HW2 6492   2.582   6.215   1.852
 1865SOL     OW 6493   6.230   2.463   5.846
 1865SOL    HW1 6494   6.328   2.456   5.829
 1865SOL    HW2 6495   6.214   2.510   5.933
 1866SOL     OW 6496   0.040   4.544   3.893
 1866SOL    HW1 6497   0.039   4.589   3.804
 1866SOL    HW2 6498   0.080   4.606   3.961
 1867SOL     OW 6499   0.813   1.336   1.631
 1867SOL    HW1 6500   0.824   1.277   1.550
 1867SOL    HW2 6501   0.887   1.402   1.634
 1868SOL     OW 6502   5.185   3.860   6.348
 1868SOL    HW1 6503   5.256   3.813   6.295
 1868SOL    HW2 6504   5.169   3.951   6.311
 1869SOL     OW 6505   5.119   0.813   5.450
 1869SOL    HW1 6506   5.134   0.716   5.470
 1869SOL    HW2 6507   5.081   0.858   5.531
 1870SOL     OW 6508   6.015   0.207   6.249
 1870SOL    HW1 6509   5.964   0.278   6.201
 1870SOL    HW2 6510   6.000   0.119   6.204
 1871SOL     OW 6511   0.807   5.960   0.032
 1871SOL    HW1 6512   0.893   5.958   7.006
 1871SOL    HW2 6513   0.730   5.961   6.995
 1872SOL     OW 6514   2.720   3.167   0.801
 1872SOL    HW1 6515   2.708   3.266   0.800
 1872SOL    HW2 6516   2.690   3.129   0.714
 1873SOL     OW 6517   6.271   0.918   1.585
 1873SOL    HW1 6518   6.290   0.882   1.493
 1873SOL    HW2 6519   6.198   0.865   1.627
 1874SOL     OW 6520   1.416   5.978   6.545
 1874SOL    HW1 6521   1.461   6.067   6.540
 1874SOL    HW2 6522   1.350   5.969   6.470
 1875SOL     OW 6523   0.439   6.368   2.281
 1875SOL    HW1 6524   0.343   6.362   2.254
 1875SOL    HW2 6525   0.497   6.347   2.202
 1876SOL     OW 6526   0.758   4.539   0.647
 1876SOL    HW1 6527   0.780   4.572   0.555
 1876SOL    HW2 6528   0.777   4.441   0.653
 1877SOL     OW 6529   1.258   1.419   2.583
 1877SOL    HW1 6530   1.320   1.352   2.623
 1877SOL    HW2 6531   1.170   1.376   2.561
 1878SOL     OW 6532   5.390   3.573   4.141
 1878SOL    HW1 6533   5.462   3.512   4.174
 1878SOL    HW2 6534   5.398   3.661   4.187
 1879SOL     OW 6535   4.390   6.771   5.156
 1879SOL    HW1 6536   4.354   6.712   5.084
 1879SOL    HW2 6537   4.488   6.753   5.167
 1880SOL     OW 6538   0.854   2.318   4.317
 1880SOL    HW1 6539   0.951   2.343   4.312
 1880SOL    HW2 6540   0.836   2.241   4.256
 1881SOL     OW 6541   1.969   1.141   4.060
 1881SOL    HW1 6542   2.034   1.135   3.984
 1881SOL    HW2 6543   2.012   1.190   4.136
 1882SOL     OW 6544   2.600   5.590   0.711
 1882SOL    HW1 6545   2.584   5.637   0.798
 1882SOL    HW2 6546   2.602   5.657   0.637
 1883SOL     OW 6547   2.357   2.790   2.905
 1883SOL    HW1 6548   2.309   2.787   2.817
 1883SOL    HW2 6549   2.384   2.698   2.932
 1884SOL     OW 6550   5.263   0.485   0.477
 1884SOL    HW1 6551   5.309   0.510   0.392
 1884SOL    HW2 6552   5.164   0.489   0.464
 1885SOL     OW 6553   0.360   1.219   0.644
 1885SOL    HW1 6554   0.261   1.236   0.640
 1885SOL    HW2 6555   0.403   1.255   0.562
 1886SOL     OW 6556   3.737   2.610   5.582
 1886SOL    HW1 6557   3.689   2.526   5.558
 1886SOL    HW2 6558   3.675   2.671   5.631
 1887SOL     OW 6559   0.686   6.166   4.758
 1887SOL    HW1 6560   0.690   6.203   4.666
 1887SOL    HW2 6561   0.778   6.171   4.799
 1888SOL     OW 6562   1.898   1.822   6.010
 1888SOL    HW1 6563   1.892   1.826   6.110
 1888SOL    HW2 6564   1.914   1.727   5.982
 1889SOL     OW 6565   3.180   3.159   0.319
 1889SOL    HW1 6566   3.160   3.099   0.396
 1889SOL    HW2 6567   3.276   3.185   0.321
 1890SOL     OW 6568   5.977   5.861   6.446
 1890SOL    HW1 6569   5.957   5.950   6.489
 1890SOL    HW2 6570   5.958   5.867   6.348
 1891SOL     OW 6571   5.359   3.436   7.022
 1891SOL    HW1 6572   5.419   3.469   0.068
 1891SOL    HW2 6573   5.373   3.492   6.939
 1892SOL     OW 6574   3.859   0.190   2.998
 1892SOL    HW1 6575   3.785   0.247   3.035
 1892SOL    HW2 6576   3.935   0.249   2.971
 1893SOL     OW 6577   3.231   0.896   6.296
 1893SOL    HW1 6578   3.330   0.899   6.287
 1893SOL    HW2 6579   3.201   0.964   6.363
 1894SOL     OW 6580   4.869   3.342   0.837
 1894SOL    HW1 6581   4.950   3.351   0.896
 1894SOL    HW2 6582   4.844   3.432   0.802
 1895SOL     OW 6583   4.748   5.807   3.078
 1895SOL    HW1 6584   4.650   5.796   3.096
 1895SOL    HW2 6585   4.761   5.855   2.992
 1896SOL     OW 6586   6.227   1.989   5.001
 1896SOL    HW1 6587   6.136   2.013   5.036
 1896SOL    HW2 6588   6.253   2.055   4.930
 1897SOL     OW 6589   5.288   5.001   2.894
 1897SOL    HW1 6590   5.328   5.083   2.936
 1897SOL    HW2 6591   5.309   4.921   2.952
 1898SOL     OW 6592   5.695   6.819   0.062
 1898SOL    HW1 6593   5.763   6.879   0.020
 1898SOL    HW2 6594   5.710   6.725   0.032
 1899SOL     OW 6595   1.954   2.709   3.587
 1899SOL    HW1 6596   1.959   2.780   3.658
 1899SOL    HW2 6597   2.014   2.734   3.511
 1900SOL     OW 6598   2.550   5.392   1.662
 1900SOL    HW1 6599   2.473   5.334   1.689
 1900SOL    HW2 6600   2.600   5.349   1.587
 1901SOL     OW 6601   1.213   0.669   5.484
 1901SOL    HW1 6602   1.167   0.696   5.398
 1901SOL    HW2 6603   1.187   0.733   5.556
 1902SOL     OW 6604   1.148   2.691   4.607
 1902SOL    HW1 6605   1.176   2.597   4.585
 1902SOL    HW2 6606   1.048   2.697   4.604
 1903SOL     OW 6607   6.466   4.877   3.968
 1903SOL    HW1 6608   6.371   4.896   3.993
 1903SOL    HW2 6609   6.486   4.920   3.879
 1904SOL     OW 6610   0.690   0.262   4.293
 1904SOL    HW1 6611   0.610   0.214   4.329
 1904SOL    HW2 6612   0.705   0.346   4.345
 1905SOL     OW 6613   6.333   3.185   4.398
 1905SOL    HW1 6614   6.289   3.096   4.389
 1905SOL    HW2 6615   6.418   3.175   4.450
 1906SOL     OW 6616   2.414   6.640   5.637
 1906SOL    HW1 6617   2.327   6.619   5.681
 1906SOL    HW2 6618   2.469   6.697   5.698
 1907SOL     OW 6619   4.354   6.914   3.542
 1907SOL    HW1 6620   4.401   6.995   3.577
 1907SOL    HW2 6621   4.267   6.903   3.588
 1908SOL     OW 6622   5.086   5.919   1.025
 1908SOL    HW1 6623   5.113   5.997   0.969
 1908SOL    HW2 6624   5.165   5.860   1.040
 1909SOL     OW 6625   4.985   5.601   3.627
 1909SOL    HW1 6626   4.931   5.631   3.705
 1909SOL    HW2 6627   4.937   5.527   3.580
 1910SOL     OW 6628   4.764   2.933   4.557
 1910SOL    HW1 6629   4.858   2.903   4.576
 1910SOL    HW2 6630   4.736   2.897   4.468
 1911SOL     OW 6631   0.117   3.340   5.581
 1911SOL    HW1 6632   0.085   3.381   5.496
 1911SOL    HW2 6633   0.053   3.269   5.610
 1912SOL     OW 6634   3.088   5.835   3.303
 1912SOL    HW1 6635   3.066   5.925   3.341
 1912SOL    HW2 6636   3.132   5.847   3.214
 1913SOL     OW 6637   2.078   4.244   5.362
 1913SOL    HW1 6638   2.173   4.218   5.383
 1913SOL    HW2 6639   2.020   4.225   5.441
 1914SOL     OW 6640   4.448   1.351   4.795
 1914SOL    HW1 6641   4.506   1.333   4.716
 1914SOL    HW2 6642   4.362   1.300   4.787
 1915SOL     OW 6643   2.997   0.215   5.495
 1915SOL    HW1 6644   3.077   0.225   5.554
 1915SOL    HW2 6645   2.977   0.303   5.452
 1916SOL     OW 6646   3.749   6.275   2.730
 1916SOL    HW1 6647   3.674   6.299   2.792
 1916SOL    HW2 6648   3.773   6.355   2.675
 1917SOL     OW 6649   3.005   3.910   4.393
 1917SOL    HW1 6650   2.939   3.840   4.366
 1917SOL    HW2 6651   3.035   3.961   4.312
 1918SOL     OW 6652   6.821   6.517   5.612
 1918SOL    HW1 6653   6.828   6.563   5.523
 1918SOL    HW2 6654   6.897   6.453   5.623
 1919SOL     OW 6655   6.432   0.434   2.343
 1919SOL    HW1 6656   6.506   0.496   2.320
 1919SOL    HW2 6657   6.424   0.363   2.273
 1920SOL     OW 6658   6.556   5.701   4.705
 1920SOL    HW1 6659   6.460   5.728   4.705
 1920SOL    HW2 6660   6.563   5.602   4.703
 1921SOL     OW 6661   2.074   6.541   6.862
 1921SOL    HW1 6662   1.999   6.497   6.912
 1921SOL    HW2 6663   2.125   6.601   6.923
 1922SOL     OW 6664   3.873   4.424   0.738
 1922SOL    HW1 6665   3.897   4.517   0.711
 1922SOL    HW2 6666   3.868   4.418   0.837
 1923SOL     OW 6667   1.447   2.835   0.637
 1923SOL    HW1 6668   1.488   2.916   0.678
 1923SOL    HW2 6669   1.362   2.812   0.685
 1924SOL     OW 6670   0.904   4.152   1.038
 1924SOL    HW1 6671   0.806   4.141   1.026
 1924SOL    HW2 6672   0.924   4.176   1.133
 1925SOL     OW 6673   3.658   4.506   0.506
 1925SOL    HW1 6674   3.620   4.477   0.594
 1925SOL    HW2 6675   3.586   4.512   0.438
 1926SOL     OW 6676   0.368   0.506   3.718
 1926SOL    HW1 6677   0.431   0.473   3.787
 1926SOL    HW2 6678   0.318   0.585   3.753
 1927SOL     OW 6679   4.652   3.100   1.178
 1927SOL    HW1 6680   4.552   3.095   1.172
 1927SOL    HW2 6681   4.681   3.074   1.270
 1928SOL     OW 6682   0.331   5.857   4.686
 1928SOL    HW1 6683   0.277   5.932   4.648
 1928SOL    HW2 6684   0.271   5.794   4.735
 1929SOL     OW 6685   1.218   6.219   3.119
 1929SOL    HW1 6686   1.310   6.222   3.160
 1929SOL    HW2 6687   1.220   6.162   3.037
 1930SOL     OW 6688   6.593   4.953   6.496
 1930SOL    HW1 6689   6.616   4.967   6.592
 1930SOL    HW2 6690   6.514   5.010   6.472
 1931SOL     OW 6691   0.534   1.911   4.402
 1931SOL    HW1 6692   0.506   2.006   4.385
 1931SOL    HW2 6693   0.524   1.858   4.318
 1932SOL     OW 6694   5.876   3.326   2.985
 1932SOL    HW1 6695   5.908   3.237   2.952
 1932SOL    HW2 6696   5.904   3.397   2.921
 1933SOL     OW 6697   2.745   4.878   0.562
 1933SOL    HW1 6698   2.663   4.827   0.588
 1933SOL    HW2 6699   2.734   4.974   0.588
 1934SOL     OW 6700   7.004   6.491   3.313
 1934SOL    HW1 6701   6.953   6.575   3.330
 1934SOL    HW2 6702   6.998   6.467   3.216
 1935SOL     OW 6703   2.289   1.082   3.092
 1935SOL    HW1 6704   2.216   1.061   3.157
 1935SOL    HW2 6705   2.322   0.997   3.051
 1936SOL     OW 6706   6.433   6.077   5.231
 1936SOL    HW1 6707   6.368   6.154   5.232
 1936SOL    HW2 6708   6.518   6.105   5.275
 1937SOL     OW 6709   4.010   0.917   3.087
 1937SOL    HW1 6710   4.084   0.962   3.137
 1937SOL    HW2 6711   3.931   0.978   3.082
 1938SOL     OW 6712   5.686   0.955   4.603
 1938SOL    HW1 6713   5.743   0.969   4.522
 1938SOL    HW2 6714   5.640   1.040   4.627
 1939SOL     OW 6715   2.967   0.987   4.289
 1939SOL    HW1 6716   2.951   1.072   4.238
 1939SOL    HW2 6717   2.899   0.980   4.363
 1940SOL     OW 6718   6.256   5.447   6.204
 1940SOL    HW1 6719   6.314   5.498   6.141
 1940SOL    HW2 6720   6.295   5.356   6.220
 1941SOL     OW 6721   5.040   5.092   2.849
 1941SOL    HW1 6722   5.133   5.057   2.836
 1941SOL    HW2 6723   4.984   5.023   2.895
 1942SOL     OW 6724   6.801   4.305   3.360
 1942SOL    HW1 6725   6.754   4.377   3.309
 1942SOL    HW2 6726   6.864   4.346   3.426
 1943SOL     OW 6727   2.937   5.642   3.498
 1943SOL    HW1 6728   2.852   5.592   3.519
 1943SOL    HW2 6729   2.925   5.695   3.414
 1944SOL     OW 6730   6.955   6.658   2.237
 1944SOL    HW1 6731   6.915   6.576   2.278
 1944SOL    HW2 6732   0.004   6.691   2.294
 1945SOL     OW 6733   3.450   4.922   3.231
 1945SOL    HW1 6734   3.434   5.019   3.212
 1945SOL    HW2 6735   3.363   4.875   3.242
 1946SOL     OW 6736   1.502   6.679   6.727
 1946SOL    HW1 6737   1.482   6.715   6.817
 1946SOL    HW2 6738   1.440   6.720   6.660
 1947SOL     OW 6739   4.939   6.940   3.851
 1947SOL    HW1 6740   4.917   7.008   3.782
 1947SOL    HW2 6741   4.907   6.971   3.941
 1948SOL     OW 6742   6.419   3.878   5.088
 1948SOL    HW1 6743   6.358   3.908   5.161
 1948SOL    HW2 6744   6.505   3.845   5.127
 1949SOL     OW 6745   4.881   4.133   6.545
 1949SOL    HW1 6746   4.932   4.050   6.566
 1949SOL    HW2 6747   4.882   4.148   6.446
 1950SOL     OW 6748   3.136   5.336   1.268
 1950SOL    HW1 6749   3.198   5.400   1.223
 1950SOL    HW2 6750   3.115   5.260   1.207
 1951SOL     OW 6751   6.603   2.860   0.416
 1951SOL    HW1 6752   6.625   2.811   0.500
 1951SOL    HW2 6753   6.679   2.853   0.352
 1952SOL     OW 6754   3.633   2.991   4.948
 1952SOL    HW1 6755   3.593   3.080   4.927
 1952SOL    HW2 6756   3.577   2.919   4.908
 1953SOL     OW 6757   0.476   2.653   4.634
 1953SOL    HW1 6758   0.568   2.689   4.653
 1953SOL    HW2 6759   0.416   2.673   4.711
 1954SOL     OW 6760   2.985   1.570   3.916
 1954SOL    HW1 6761   2.998   1.509   3.994
 1954SOL    HW2 6762   3.072   1.581   3.867
 1955SOL     OW 6763   6.138   4.920   1.791
 1955SOL    HW1 6764   6.228   4.917   1.747
 1955SOL    HW2 6765   6.076   4.977   1.737
 1956SOL     OW 6766   5.459   6.129   2.518
 1956SOL    HW1 6767   5.533   6.120   2.584
 1956SOL    HW2 6768   5.384   6.067   2.542
 1957SOL     OW 6769   1.260   6.549   4.927
 1957SOL    HW1 6770   1.264   6.630   4.986
 1957SOL    HW2 6771   1.329   6.558   4.855
 1958SOL     OW 6772   4.310   3.248   5.889
 1958SOL    HW1 6773   4.407   3.259   5.910
 1958SOL    HW2 6774   4.285   3.151   5.894
 1959SOL     OW 6775   2.180   1.360   0.337
 1959SOL    HW1 6776   2.149   1.280   0.286
 1959SOL    HW2 6777   2.164   1.443   0.284
 1960SOL     OW 6778   5.949   6.002   2.246
 1960SOL    HW1 6779   5.972   5.954   2.161
 1960SOL    HW2 6780   5.850   5.999   2.260
 1961SOL     OW 6781   6.012   4.689   4.973
 1961SOL    HW1 6782   6.083   4.641   5.025
 1961SOL    HW2 6783   6.017   4.661   4.877
 1962SOL     OW 6784   6.862   6.999   3.774
 1962SOL    HW1 6785   6.841   6.984   3.871
 1962SOL    HW2 6786   6.778   7.019   3.724
 1963SOL     OW 6787   2.727   0.803   3.694
 1963SOL    HW1 6788   2.773   0.860   3.762
 1963SOL    HW2 6789   2.795   0.751   3.643
 1964SOL     OW 6790   5.968   3.761   2.012
 1964SOL    HW1 6791   5.910   3.786   2.090
 1964SOL    HW2 6792   6.055   3.726   2.045
 1965SOL     OW 6793   1.992   6.122   3.782
 1965SOL    HW1 6794   2.032   6.030   3.778
 1965SOL    HW2 6795   2.065   6.189   3.791
 1966SOL     OW 6796   6.372   6.531   6.896
 1966SOL    HW1 6797   6.340   6.576   6.980
 1966SOL    HW2 6798   6.355   6.592   6.818
 1967SOL     OW 6799   5.164   3.461   4.717
 1967SOL    HW1 6800   5.070   3.462   4.750
 1967SOL    HW2 6801   5.178   3.380   4.660
 1968SOL     OW 6802   3.755   5.484   4.911
 1968SOL    HW1 6803   3.789   5.500   5.004
 1968SOL    HW2 6804   3.721   5.391   4.904
 1969SOL     OW 6805   6.954   1.842   1.701
 1969SOL    HW1 6806   6.885   1.780   1.737
 1969SOL    HW2 6807   6.989   1.805   1.614
 1970SOL     OW 6808   1.504   0.509   3.798
 1970SOL    HW1 6809   1.482   0.434   3.735
 1970SOL    HW2 6810   1.558   0.475   3.874
 1971SOL     OW 6811   0.463   1.263   5.870
 1971SOL    HW1 6812   0.547   1.244   5.922
 1971SOL    HW2 6813   0.416   1.341   5.911
 1972SOL     OW 6814   1.825   6.718   3.572
 1972SOL    HW1 6815   1.785   6.706   3.481
 1972SOL    HW2 6816   1.900   6.784   3.567
 1973SOL     OW 6817   2.639   3.282   0.268
 1973SOL    HW1 6818   2.622   3.380   0.274
 1973SOL    HW2 6819   2.620   3.240   0.357
 1974SOL     OW 6820   5.917   0.063   4.634
 1974SOL    HW1 6821   5.878   0.146   4.674
 1974SOL    HW2 6822   6.003   0.041   4.680
 1975SOL     OW 6823   2.836   0.632   3.927
 1975SOL    HW1 6824   2.842   0.580   3.842
 1975SOL    HW2 6825   2.928   0.650   3.962
 1976SOL     OW 6826   6.723   4.392   6.733
 1976SOL    HW1 6827   6.685   4.475   6.692
 1976SOL    HW2 6828   6.768   4.338   6.662
 1977SOL     OW 6829   2.859   2.487   5.803
 1977SOL    HW1 6830   2.905   2.524   5.723
 1977SOL    HW2 6831   2.761   2.476   5.784
 1978SOL     OW 6832   6.592   2.178   5.709
 1978SOL    HW1 6833   6.551   2.095   5.746
 1978SOL    HW2 6834   6.691   2.174   5.718
 1979SOL     OW 6835   6.035   4.212   2.643
 1979SOL    HW1 6836   6.061   4.230   2.738
 1979SOL    HW2 6837   5.955   4.152   2.641
 1980SOL     OW 6838   3.013   1.167   1.741
 1980SOL    HW1 6839   2.983   1.136   1.831
 1980SOL    HW2 6840   3.099   1.218   1.749
 1981SOL     OW 6841   4.882   3.745   1.721
 1981SOL    HW1 6842   4.833   3.830   1.741
 1981SOL    HW2 6843   4.978   3.767   1.699
 1982SOL     OW 6844   6.738   6.598   5.360
 1982SOL    HW1 6845   6.785   6.561   5.280
 1982SOL    HW2 6846   6.648   6.632   5.334
 1983SOL     OW 6847   0.853   4.640   2.609
 1983SOL    HW1 6848   0.756   4.619   2.600
 1983SOL    HW2 6849   0.866   4.739   2.614
 1984SOL     OW 6850   4.652   0.652   5.129
 1984SOL    HW1 6851   4.687   0.727   5.072
 1984SOL    HW2 6852   4.729   0.606   5.173
 1985SOL     OW 6853   1.557   6.581   1.409
 1985SOL    HW1 6854   1.652   6.580   1.438
 1985SOL    HW2 6855   1.499   6.614   1.484
 1986SOL     OW 6856   0.211   1.946   0.178
 1986SOL    HW1 6857   0.115   1.922   0.195
 1986SOL    HW2 6858   0.270   1.871   0.207
 1987SOL     OW 6859   2.574   4.072   0.431
 1987SOL    HW1 6860   2.664   4.084   0.473
 1987SOL    HW2 6861   2.520   4.008   0.486
 1988SOL     OW 6862   4.758   3.709   0.100
 1988SOL    HW1 6863   4.715   3.795   0.127
 1988SOL    HW2 6864   4.695   3.657   0.043
 1989SOL     OW 6865   2.137   1.236   4.482
 1989SOL    HW1 6866   2.164   1.239   4.578
 1989SOL    HW2 6867   2.138   1.142   4.450
 1990SOL     OW 6868   1.978   0.905   2.646
 1990SOL    HW1 6869   2.046   0.978   2.652
 1990SOL    HW2 6870   1.965   0.879   2.551
 1991SOL     OW 6871   4.557   5.603   3.062
 1991SOL    HW1 6872   4.491   5.527   3.063
 1991SOL    HW2 6873   4.644   5.572   3.100
 1992SOL     OW 6874   2.520   6.293   4.948
 1992SOL    HW1 6875   2.436   6.263   4.902
 1992SOL    HW2 6876   2.516   6.267   5.045
 1993SOL     OW 6877   3.336   3.030   3.954
 1993SOL    HW1 6878   3.359   3.111   3.900
 1993SOL    HW2 6879   3.237   3.014   3.951
 1994SOL     OW 6880   5.997   2.799   1.872
 1994SOL    HW1 6881   5.947   2.719   1.836
 1994SOL    HW2 6882   6.076   2.768   1.924
 1995SOL     OW 6883   3.982   2.521   1.188
 1995SOL    HW1 6884   4.026   2.573   1.115
 1995SOL    HW2 6885   4.049   2.458   1.229
 1996SOL     OW 6886   3.038   4.036   5.364
 1996SOL    HW1 6887   3.079   4.084   5.287
 1996SOL    HW2 6888   2.960   3.981   5.332
 1997SOL     OW 6889   5.598   6.861   3.840
 1997SOL    HW1 6890   5.635   6.954   3.833
 1997SOL    HW2 6891   5.665   6.802   3.886
 1998SOL     OW 6892   3.270   5.185   4.990
 1998SOL    HW1 6893   3.336   5.110   4.979
 1998SOL    HW2 6894   3.221   5.199   4.904
 1999SOL     OW 6895   2.872   0.688   1.764
 1999SOL    HW1 6896   2.832   0.759   1.822
 1999SOL    HW2 6897   2.952   0.649   1.810
 2000SOL     OW 6898   3.768   1.671   4.649
 2000SOL    HW1 6899   3.787   1.592   4.591
 2000SOL    HW2 6900   3.854   1.719   4.668
 2001SOL     OW 6901   2.511   3.652   6.794
 2001SOL    HW1 6902   2.527   3.556   6.817
 2001SOL    HW2 6903   2.466   3.658   6.706
 2002SOL     OW 6904   1.043   5.418   5.248
 2002SOL    HW1 6905   1.011   5.486   5.314
 2002SOL    HW2 6906   0.982   5.417   5.169
 2003SOL     OW 6907   6.536   4.680   3.013
 2003SOL    HW1 6908   6.499   4.616   2.945
 2003SOL    HW2 6909   6.610   4.734   2.971
 2004SOL     OW 6910   3.217   6.980   6.645
 2004SOL    HW1 6911   3.195   0.038   6.596
 2004SOL    HW2 6912   3.308   6.989   6.687
 2005SOL     OW 6913   2.776   6.659   4.924
 2005SOL    HW1 6914   2.773   6.734   4.990
 2005SOL    HW2 6915   2.855   6.670   4.864
 2006SOL     OW 6916   5.036   6.528   3.127
 2006SOL    HW1 6917   4.994   6.618   3.113
 2006SOL    HW2 6918   5.010   6.492   3.216
 2007SOL     OW 6919   6.189   5.292   0.072
 2007SOL    HW1 6920   6.217   5.201   0.103
 2007SOL    HW2 6921   6.210   5.359   0.143
 2008SOL     OW 6922   6.607   6.255   4.457
 2008SOL    HW1 6923   6.567   6.347   4.464
 2008SOL    HW2 6924   6.534   6.188   4.442
 2009SOL     OW 6925   0.637   0.266   0.268
 2009SOL    HW1 6926   0.594   0.354   0.246
 2009SOL    HW2 6927   0.697   0.277   0.347
 2010SOL     OW 6928   1.348   0.157   0.954
 2010SOL    HW1 6929   1.248   0.159   0.947
 2010SOL    HW2 6930   1.374   0.143   1.050
 2011SOL     OW 6931   7.022   2.563   5.388
 2011SOL    HW1 6932   0.077   2.620   5.397
 2011SOL    HW2 6933   0.023   2.470   5.363
 2012SOL     OW 6934   0.074   3.280   0.865
 2012SOL    HW1 6935   0.155   3.339   0.865
 2012SOL    HW2 6936   7.026   3.325   0.913
 2013SOL     OW 6937   4.145   1.826   2.375
 2013SOL    HW1 6938   4.180   1.860   2.462
 2013SOL    HW2 6939   4.077   1.755   2.392
 2014SOL     OW 6940   2.998   5.749   3.731
 2014SOL    HW1 6941   3.082   5.803   3.723
 2014SOL    HW2 6942   2.987   5.693   3.649
 2015SOL     OW 6943   3.216   6.442   0.042
 2015SOL    HW1 6944   3.236   6.372   0.110
 2015SOL    HW2 6945   3.139   6.498   0.075
 2016SOL     OW 6946   6.108   5.470   3.697
 2016SOL    HW1 6947   6.087   5.536   3.770
 2016SOL    HW2 6948   6.023   5.437   3.657
 2017SOL     OW 6949   2.285   5.002   2.115
 2017SOL    HW1 6950   2.218   4.989   2.042
 2017SOL    HW2 6951   2.297   4.917   2.166
 2018SOL     OW 6952   0.320   4.200   6.520
 2018SOL    HW1 6953   0.331   4.279   6.581
 2018SOL    HW2 6954   0.279   4.230   6.434
 2019SOL     OW 6955   5.647   1.875   2.846
 2019SOL    HW1 6956   5.664   1.808   2.774
 2019SOL    HW2 6957   5.734   1.910   2.881
 2020SOL     OW 6958   1.524   5.695   3.712
 2020SOL    HW1 6959   1.443   5.678   3.768
 2020SOL    HW2 6960   1.554   5.789   3.724
 2021SOL     OW 6961   1.477   0.035   1.984
 2021SOL    HW1 6962   1.396   7.006   2.000
 2021SOL    HW2 6963   1.460   0.129   2.015
 2022SOL     OW 6964   3.027   5.109   1.099
 2022SOL    HW1 6965   3.007   5.035   1.163
 2022SOL    HW2 6966   2.976   5.094   1.014
 2023SOL     OW 6967   6.356   1.448   6.410
 2023SOL    HW1 6968   6.291   1.519   6.435
 2023SOL    HW2 6969   6.445   1.489   6.391
 2024SOL     OW 6970   5.971   0.476   2.612
 2024SOL    HW1 6971   6.027   0.438   2.539
 2024SOL    HW2 6972   6.014   0.558   2.649
 2025SOL     OW 6973   6.386   0.689   0.898
 2025SOL    HW1 6974   6.443   0.749   0.842
 2025SOL    HW2 6975   6.343   0.620   0.840
 2026SOL     OW 6976   1.435   2.024   5.051
 2026SOL    HW1 6977   1.392   1.990   4.968
 2026SOL    HW2 6978   1.424   2.123   5.057
 2027SOL     OW 6979   1.280   1.528   2.296
 2027SOL    HW1 6980   1.270   1.494   2.390
 2027SOL    HW2 6981   1.202   1.588   2.275
 2028SOL     OW 6982   3.747   4.128   5.763
 2028SOL    HW1 6983   3.787   4.037   5.780
 2028SOL    HW2 6984   3.738   4.142   5.664
 2029SOL     OW 6985   1.786   0.581   0.471
 2029SOL    HW1 6986   1.844   0.505   0.501
 2029SOL    HW2 6987   1.690   0.558   0.486
 2030SOL     OW 6988   1.812   2.289   3.013
 2030SOL    HW1 6989   1.794   2.375   2.966
 2030SOL    HW2 6990   1.725   2.240   3.027
 2031SOL     OW 6991   5.002   0.092   2.678
 2031SOL    HW1 6992   5.044   0.038   2.604
 2031SOL    HW2 6993   4.927   0.039   2.718
 2032SOL     OW 6994   5.731   6.421   1.765
 2032SOL    HW1 6995   5.693   6.513   1.766
 2032SOL    HW2 6996   5.685   6.365   1.834
 2033SOL     OW 6997   6.618   5.050   6.767
 2033SOL    HW1 6998   6.669   5.092   6.842
 2033SOL    HW2 6999   6.526   5.090   6.762
 2034SOL     OW 7000   2.322   6.941   3.440
 2034SOL    HW1 7001   2.346   6.919   3.534
 2034SOL    HW2 7002   2.229   6.978   3.438
 2035SOL     OW 7003   0.409   2.961   1.240
 2035SOL    HW1 7004   0.467   2.918   1.308
 2035SOL    HW2 7005   0.458   3.036   1.196
 2036SOL     OW 7006   0.975   4.305   0.506
 2036SOL    HW1 7007   0.991   4.308   0.407
 2036SOL    HW2 7008   0.891   4.254   0.525
 2037SOL     OW 7009   0.244   1.985   6.333
 2037SOL    HW1 7010   0.309   1.926   6.285
 2037SOL    HW2 7011   0.272   1.994   6.428
 2038SOL     OW 7012   0.968   6.987   5.466
 2038SOL    HW1 7013   1.053   0.010   5.449
 2038SOL    HW2 7014   0.922   0.002   5.545
 2039SOL     OW 7015   1.052   5.369   2.297
 2039SOL    HW1 7016   1.084   5.446   2.241
 2039SOL    HW2 7017   1.011   5.299   2.238
 2040SOL     OW 7018   3.214   3.705   4.494
 2040SOL    HW1 7019   3.147   3.777   4.479
 2040SOL    HW2 7020   3.267   3.725   4.576
 2041SOL     OW 7021   5.799   3.411   0.167
 2041SOL    HW1 7022   5.717   3.357   0.150
 2041SOL    HW2 7023   5.788   3.503   0.128
 2042SOL     OW 7024   3.457   5.927   0.684
 2042SOL    HW1 7025   3.509   5.862   0.629
 2042SOL    HW2 7026   3.520   5.989   0.731
 2043SOL     OW 7027   4.417   4.492   2.479
 2043SOL    HW1 7028   4.355   4.547   2.422
 2043SOL    HW2 7029   4.372   4.470   2.565
 2044SOL     OW 7030   6.402   0.903   2.023
 2044SOL    HW1 7031   6.425   0.849   1.943
 2044SOL    HW2 7032   6.455   0.988   2.022
 2045SOL     OW 7033   2.548   5.912   5.957
 2045SOL    HW1 7034   2.583   5.910   6.050
 2045SOL    HW2 7035   2.478   5.841   5.946
 2046SOL     OW 7036   6.320   6.809   5.080
 2046SOL    HW1 7037   6.229   6.848   5.066
 2046SOL    HW2 7038   6.380   6.877   5.122
 2047SOL     OW 7039   5.310   2.622   0.266
 2047SOL    HW1 7040   5.398   2.663   0.294
 2047SOL    HW2 7041   5.266   2.681   0.199
 2048SOL     OW 7042   4.649   6.809   5.203
 2048SOL    HW1 7043   4.666   6.720   5.245
 2048SOL    HW2 7044   4.733   6.863   5.203
 2049SOL     OW 7045   4.906   6.193   0.562
 2049SOL    HW1 7046   4.823   6.248   0.548
 2049SOL    HW2 7047   4.970   6.210   0.488
 2050SOL     OW 7048   5.423   0.739   4.180
 2050SOL    HW1 7049   5.512   0.694   4.176
 2050SOL    HW2 7050   5.402   0.779   4.090
 2051SOL     OW 7051   2.501   5.139   0.648
 2051SOL    HW1 7052   2.515   5.229   0.606
 2051SOL    HW2 7053   2.404   5.125   0.665
 2052SOL     OW 7054   1.183   2.619   0.994
 2052SOL    HW1 7055   1.112   2.566   1.041
 2052SOL    HW2 7056   1.270   2.608   1.041
 2053SOL     OW 7057   5.137   1.070   0.165
 2053SOL    HW1 7058   5.083   1.014   0.103
 2053SOL    HW2 7059   5.142   1.025   0.254
 2054SOL     OW 7060   6.974   3.666   1.525
 2054SOL    HW1 7061   0.029   3.716   1.494
 2054SOL    HW2 7062   6.987   3.638   1.620
 2055SOL     OW 7063   6.262   2.073   3.932
 2055SOL    HW1 7064   6.306   2.020   4.005
 2055SOL    HW2 7065   6.330   2.102   3.866
 2056SOL     OW 7066   0.620   0.089   2.294
 2056SOL    HW1 7067   0.528   0.070   2.258
 2056SOL    HW2 7068   0.665   0.003   2.316
 2057SOL     OW 7069   6.563   2.336   3.849
 2057SOL    HW1 7070   6.547   2.237   3.838
 2057SOL    HW2 7071   6.580   2.356   3.945
 2058SOL     OW 7072   0.368   1.279   1.839
 2058SOL    HW1 7073   0.301   1.208   1.815
 2058SOL    HW2 7074   0.381   1.281   1.938
 2059SOL     OW 7075   1.962   0.606   6.776
 2059SOL    HW1 7076   2.009   0.656   6.702
 2059SOL    HW2 7077   2.012   0.522   6.796
 2060SOL     OW 7078   0.426   5.312   2.036
 2060SOL    HW1 7079   0.360   5.325   1.962
 2060SOL    HW2 7080   0.419   5.388   2.100
 2061SOL     OW 7081   0.867   1.194   1.389
 2061SOL    HW1 7082   0.942   1.199   1.323
 2061SOL    HW2 7083   0.871   1.106   1.437
 2062SOL     OW 7084   4.180   0.447   3.411
 2062SOL    HW1 7085   4.100   0.501   3.436
 2062SOL    HW2 7086   4.192   0.448   3.312
 2063SOL     OW 7087   2.611   1.742   0.623
 2063SOL    HW1 7088   2.537   1.772   0.563
 2063SOL    HW2 7089   2.675   1.818   0.637
 2064SOL     OW 7090   0.925   2.092   6.933
 2064SOL    HW1 7091   0.982   2.040   6.870
 2064SOL    HW2 7092   0.829   2.064   6.924
 2065SOL     OW 7093   6.252   3.071   2.159
 2065SOL    HW1 7094   6.281   2.977   2.143
 2065SOL    HW2 7095   6.312   3.113   2.227
 2066SOL     OW 7096   1.796   6.825   3.015
 2066SOL    HW1 7097   1.715   6.772   3.042
 2066SOL    HW2 7098   1.790   6.847   2.918
 2067SOL     OW 7099   0.010   0.116   1.264
 2067SOL    HW1 7100   0.010   0.201   1.211
 2067SOL    HW2 7101   6.992   0.044   1.212
 2068SOL     OW 7102   1.612   1.203   5.174
 2068SOL    HW1 7103   1.569   1.271   5.114
 2068SOL    HW2 7104   1.705   1.185   5.143
 2069SOL     OW 7105   0.718   1.800   2.098
 2069SOL    HW1 7106   0.620   1.798   2.083
 2069SOL    HW2 7107   0.761   1.722   2.052
 2070SOL     OW 7108   1.306   1.194   2.910
 2070SOL    HW1 7109   1.383   1.221   2.852
 2070SOL    HW2 7110   1.341   1.168   3.000
 2071SOL     OW 7111   1.439   6.262   5.032
 2071SOL    HW1 7112   1.511   6.225   5.091
 2071SOL    HW2 7113   1.386   6.330   5.082
 2072SOL     OW 7114   4.860   4.458   2.220
 2072SOL    HW1 7115   4.910   4.544   2.210
 2072SOL    HW2 7116   4.818   4.454   2.310
 2073SOL     OW 7117   3.667   6.088   5.282
 2073SOL    HW1 7118   3.758   6.094   5.241
 2073SOL    HW2 7119   3.675   6.062   5.378
 2074SOL     OW 7120   6.421   2.344   2.207
 2074SOL    HW1 7121   6.355   2.309   2.273
 2074SOL    HW2 7122   6.508   2.296   2.218
 2075SOL     OW 7123   3.596   3.652   6.501
 2075SOL    HW1 7124   3.659   3.694   6.568
 2075SOL    HW2 7125   3.647   3.627   6.419
 2076SOL     OW 7126   4.480   0.563   0.886
 2076SOL    HW1 7127   4.477   0.662   0.903
 2076SOL    HW2 7128   4.573   0.537   0.861
 2077SOL     OW 7129   5.402   1.580   3.747
 2077SOL    HW1 7130   5.384   1.591   3.845
 2077SOL    HW2 7131   5.434   1.486   3.730
 2078SOL     OW 7132   4.427   5.660   4.693
 2078SOL    HW1 7133   4.372   5.720   4.751
 2078SOL    HW2 7134   4.495   5.612   4.749
 2079SOL     OW 7135   5.711   0.723   3.637
 2079SOL    HW1 7136   5.777   0.735   3.711
 2079SOL    HW2 7137   5.665   0.810   3.619
 2080SOL     OW 7138   3.183   2.184   4.427
 2080SOL    HW1 7139   3.237   2.180   4.342
 2080SOL    HW2 7140   3.236   2.142   4.501
 2081SOL     OW 7141   0.799   5.925   4.569
 2081SOL    HW1 7142   0.753   6.013   4.585
 2081SOL    HW2 7143   0.785   5.866   4.649
 2082SOL     OW 7144   4.841   0.886   2.282
 2082SOL    HW1 7145   4.851   0.920   2.188
 2082SOL    HW2 7146   4.761   0.826   2.287
 2083SOL     OW 7147   3.561   4.955   5.451
 2083SOL    HW1 7148   3.619   5.022   5.495
 2083SOL    HW2 7149   3.519   4.896   5.520
 2084SOL     OW 7150   0.108   2.994   2.564
 2084SOL    HW1 7151   0.124   2.920   2.630
 2084SOL    HW2 7152   0.060   2.958   2.484
 2085SOL     OW 7153   5.321   6.308   6.390
 2085SOL    HW1 7154   5.338   6.222   6.439
 2085SOL    HW2 7155   5.274   6.372   6.451
 2086SOL     OW 7156   3.516   4.943   0.382
 2086SOL    HW1 7157   3.477   4.899   0.462
 2086SOL    HW2 7158   3.463   5.025   0.360
 2087SOL     OW 7159   6.482   5.861   3.820
 2087SOL    HW1 7160   6.565   5.882   3.770
 2087SOL    HW2 7161   6.419   5.939   3.814
 2088SOL     OW 7162   2.299   0.168   1.049
 2088SOL    HW1 7163   2.338   0.107   0.979
 2088SOL    HW2 7164   2.238   0.116   1.108
 2089SOL     OW 7165   3.206   1.136   6.416
 2089SOL    HW1 7166   3.232   1.209   6.352
 2089SOL    HW2 7167   3.224   1.167   6.509
 2090SOL     OW 7168   3.689   2.990   3.460
 2090SOL    HW1 7169   3.708   2.983   3.558
 2090SOL    HW2 7170   3.610   2.934   3.437
 2091SOL     OW 7171   1.790   5.514   0.637
 2091SOL    HW1 7172   1.878   5.499   0.592
 2091SOL    HW2 7173   1.804   5.515   0.737
 2092SOL     OW 7174   0.160   6.526   1.238
 2092SOL    HW1 7175   0.232   6.472   1.282
 2092SOL    HW2 7176   0.083   6.538   1.302
 2093SOL     OW 7177   0.695   2.599   1.311
 2093SOL    HW1 7178   0.751   2.533   1.360
 2093SOL    HW2 7179   0.679   2.567   1.218
 2094SOL     OW 7180   6.074   0.433   2.079
 2094SOL    HW1 7181   5.977   0.416   2.100
 2094SOL    HW2 7182   6.091   0.532   2.080
 2095SOL     OW 7183   0.002   4.766   4.967
 2095SOL    HW1 7184   6.983   4.767   4.877
 2095SOL    HW2 7185   6.960   4.749   5.038
 2096SOL     OW 7186   4.903   3.658   3.462
 2096SOL    HW1 7187   4.927   3.568   3.499
 2096SOL    HW2 7188   4.981   3.720   3.471
 2097SOL     OW 7189   6.569   3.159   0.123
 2097SOL    HW1 7190   6.510   3.171   0.044
 2097SOL    HW2 7191   6.561   3.238   0.183
 2098SOL     OW 7192   4.788   0.318   4.109
 2098SOL    HW1 7193   4.708   0.369   4.140
 2098SOL    HW2 7194   4.871   0.363   4.143
 2099SOL     OW 7195   2.893   1.787   3.449
 2099SOL    HW1 7196   2.880   1.882   3.479
 2099SOL    HW2 7197   2.878   1.725   3.525
 2100SOL     OW 7198   3.630   4.357   6.637
 2100SOL    HW1 7199   3.655   4.412   6.557
 2100SOL    HW2 7200   3.551   4.300   6.614
 2101SOL     OW 7201   7.001   0.294   2.671
 2101SOL    HW1 7202   7.015   0.390   2.647
 2101SOL    HW2 7203   0.025   0.273   2.755
 2102SOL     OW 7204   0.840   4.979   1.769
 2102SOL    HW1 7205   0.825   5.070   1.808
 2102SOL    HW2 7206   0.851   4.913   1.843
 2103SOL     OW 7207   2.460   3.859   6.242
 2103SOL    HW1 7208   2.491   3.934   6.300
 2103SOL    HW2 7209   2.514   3.777   6.261
 2104SOL     OW 7210   1.703   3.696   5.373
 2104SOL    HW1 7211   1.783   3.637   5.354
 2104SOL    HW2 7212   1.674   3.683   5.468
 2105SOL     OW 7213   6.278   5.787   1.323
 2105SOL    HW1 7214   6.303   5.883   1.341
 2105SOL    HW2 7215   6.313   5.729   1.397
 2106SOL     OW 7216   5.169   5.744   6.483
 2106SOL    HW1 7217   5.245   5.779   6.537
 2106SOL    HW2 7218   5.150   5.650   6.510
 2107SOL     OW 7219   3.124   4.648   7.025
 2107SOL    HW1 7220   3.144   4.727   6.967
 2107SOL    HW2 7221   3.062   4.675   0.072
 2108SOL     OW 7222   5.418   5.081   5.634
 2108SOL    HW1 7223   5.458   5.135   5.560
 2108SOL    HW2 7224   5.323   5.109   5.648
 2109SOL     OW 7225   5.918   6.363   2.478
 2109SOL    HW1 7226   5.988   6.387   2.411
 2109SOL    HW2 7227   5.961   6.319   2.556
 2110SOL     OW 7228   2.176   4.943   5.122
 2110SOL    HW1 7229   2.099   4.880   5.129
 2110SOL    HW2 7230   2.162   5.005   5.045
 2111SOL     OW 7231   1.746   2.449   6.892
 2111SOL    HW1 7232   1.656   2.410   6.870
 2111SOL    HW2 7233   1.762   2.442   6.990
 2112SOL     OW 7234   5.076   3.642   0.546
 2112SOL    HW1 7235   5.021   3.605   0.472
 2112SOL    HW2 7236   5.091   3.571   0.615
 2113SOL     OW 7237   6.668   1.512   3.136
 2113SOL    HW1 7238   6.690   1.608   3.151
 2113SOL    HW2 7239   6.572   1.502   3.112
 2114SOL     OW 7240   1.836   3.699   0.141
 2114SOL    HW1 7241   1.754   3.664   0.096
 2114SOL    HW2 7242   1.865   3.633   0.211
 2115SOL     OW 7243   3.193   5.302   2.121
 2115SOL    HW1 7244   3.144   5.251   2.050
 2115SOL    HW2 7245   3.144   5.294   2.208
 2116SOL     OW 7246   0.118   4.013   3.173
 2116SOL    HW1 7247   0.152   4.006   3.079
 2116SOL    HW2 7248   0.025   4.051   3.173
 2117SOL     OW 7249   0.071   5.165   0.134
 2117SOL    HW1 7250   0.126   5.246   0.153
 2117SOL    HW2 7251   7.000   5.189   0.134
 2118SOL     OW 7252   6.362   3.987   2.281
 2118SOL    HW1 7253   6.355   3.887   2.284
 2118SOL    HW2 7254   6.366   4.017   2.186
 2119SOL     OW 7255   3.190   5.868   0.785
 2119SOL    HW1 7256   3.284   5.892   0.764
 2119SOL    HW2 7257   3.130   5.945   0.765
 2120SOL     OW 7258   6.902   5.014   2.432
 2120SOL    HW1 7259   6.937   5.013   2.338
 2120SOL    HW2 7260   6.931   5.098   2.477
 2121SOL     OW 7261   0.478   4.196   4.692
 2121SOL    HW1 7262   0.576   4.182   4.685
 2121SOL    HW2 7263   0.430   4.125   4.639
 2122SOL     OW 7264   4.677   4.554   5.369
 2122SOL    HW1 7265   4.630   4.494   5.304
 2122SOL    HW2 7266   4.747   4.502   5.417
 2123SOL     OW 7267   4.415   4.629   3.646
 2123SOL    HW1 7268   4.440   4.552   3.587
 2123SOL    HW2 7269   4.445   4.609   3.740
 2124SOL     OW 7270   3.225   1.317   1.774
 2124SOL    HW1 7271   3.312   1.268   1.773
 2124SOL    HW2 7272   3.238   1.409   1.736
 2125SOL     OW 7273   2.857   6.976   1.112
 2125SOL    HW1 7274   2.806   0.036   1.116
 2125SOL    HW2 7275   2.871   6.949   1.017
 2126SOL     OW 7276   2.552   0.550   2.113
 2126SOL    HW1 7277   2.584   0.544   2.018
 2126SOL    HW2 7278   2.627   0.527   2.175
 2127SOL     OW 7279   5.596   2.986   5.057
 2127SOL    HW1 7280   5.662   3.054   5.090
 2127SOL    HW2 7281   5.625   2.951   4.968
 2128SOL     OW 7282   0.803   4.406   4.271
 2128SOL    HW1 7283   0.832   4.470   4.200
 2128SOL    HW2 7284   0.710   4.429   4.300
 2129SOL     OW 7285   3.699   2.159   5.749
 2129SOL    HW1 7286   3.712   2.105   5.666
 2129SOL    HW2 7287   3.688   2.255   5.724
 2130SOL     OW 7288   4.509   6.928   3.123
 2130SOL    HW1 7289   4.456   6.885   3.050
 2130SOL    HW2 7290   4.447   6.976   3.186
 2131SOL     OW 7291   5.349   1.876   6.947
 2131SOL    HW1 7292   5.349   1.954   6.884
 2131SOL    HW2 7293   5.256   1.841   6.959
 2132SOL     OW 7294   2.318   3.519   0.807
 2132SOL    HW1 7295   2.386   3.536   0.879
 2132SOL    HW2 7296   2.257   3.445   0.836
 2133SOL     OW 7297   2.396   3.615   5.944
 2133SOL    HW1 7298   2.477   3.675   5.946
 2133SOL    HW2 7299   2.413   3.537   5.885
 2134SOL     OW 7300   0.557   0.181   0.953
 2134SOL    HW1 7301   0.506   0.141   1.030
 2134SOL    HW2 7302   0.581   0.109   0.888
 2135SOL     OW 7303   6.376   4.415   5.381
 2135SOL    HW1 7304   6.388   4.316   5.372
 2135SOL    HW2 7305   6.462   4.457   5.411
 2136SOL     OW 7306   0.901   5.101   1.116
 2136SOL    HW1 7307   0.876   5.119   1.212
 2136SOL    HW2 7308   0.818   5.090   1.062
 2137SOL     OW 7309   1.446   6.664   4.615
 2137SOL    HW1 7310   1.353   6.629   4.599
 2137SOL    HW2 7311   1.507   6.588   4.637
 2138SOL     OW 7312   5.271   1.276   1.630
 2138SOL    HW1 7313   5.338   1.286   1.704
 2138SOL    HW2 7314   5.189   1.230   1.665
 2139SOL     OW 7315   3.142   0.232   5.768
 2139SOL    HW1 7316   3.090   0.166   5.822
 2139SOL    HW2 7317   3.233   0.244   5.809
 2140SOL     OW 7318   2.613   1.459   4.622
 2140SOL    HW1 7319   2.583   1.407   4.702
 2140SOL    HW2 7320   2.554   1.538   4.610
 2141SOL     OW 7321   6.884   3.155   3.225
 2141SOL    HW1 7322   6.796   3.128   3.186
 2141SOL    HW2 7323   6.957   3.136   3.160
 2142SOL     OW 7324   1.489   2.339   2.707
 2142SOL    HW1 7325   1.516   2.264   2.646
 2142SOL    HW2 7326   1.409   2.386   2.668
 2143SOL     OW 7327   0.946   4.865   6.104
 2143SOL    HW1 7328   0.848   4.847   6.111
 2143SOL    HW2 7329   0.992   4.833   6.187
 2144SOL     OW 7330   6.605   4.730   3.379
 2144SOL    HW1 7331   6.522   4.749   3.325
 2144SOL    HW2 7332   6.654   4.815   3.396
 2145SOL     OW 7333   4.625   1.275   3.493
 2145SOL    HW1 7334   4.573   1.285   3.578
 2145SOL    HW2 7335   4.579   1.208   3.434
 2146SOL     OW 7336   2.171   3.034   0.513
 2146SOL    HW1 7337   2.264   3.070   0.524
 2146SOL    HW2 7338   2.136   3.007   0.603
 2147SOL     OW 7339   5.905   6.903   4.416
 2147SOL    HW1 7340   5.875   6.955   4.336
 2147SOL    HW2 7341   5.887   6.956   4.499
 2148SOL     OW 7342   0.539   3.430   5.983
 2148SOL    HW1 7343   0.463   3.487   6.015
 2148SOL    HW2 7344   0.516   3.334   5.996
 2149SOL     OW 7345   1.100   6.974   0.054
 2149SOL    HW1 7346   1.023   7.019   0.099
 2149SOL    HW2 7347   1.106   6.879   0.084
 2150SOL     OW 7348   1.759   3.024   1.375
 2150SOL    HW1 7349   1.689   3.002   1.307
 2150SOL    HW2 7350   1.779   2.944   1.430
 2151SOL     OW 7351   0.717   5.072   0.921
 2151SOL    HW1 7352   0.634   5.018   0.908
 2151SOL    HW2 7353   0.700   5.166   0.890
 2152SOL     OW 7354   5.466   5.956   3.919
 2152SOL    HW1 7355   5.553   5.962   3.967
 2152SOL    HW2 7356   5.478   5.900   3.836
 2153SOL     OW 7357   4.941   0.722   3.712
 2153SOL    HW1 7358   4.879   0.736   3.635
 2153SOL    HW2 7359   4.984   0.809   3.735
 2154SOL     OW 7360   3.074   0.508   2.935
 2154SOL    HW1 7361   3.083   0.462   2.847
 2154SOL    HW2 7362   3.162   0.549   2.960
 2155SOL     OW 7363   4.070   0.947   0.710
 2155SOL    HW1 7364   4.136   0.952   0.785
 2155SOL    HW2 7365   4.068   1.035   0.662
 2156SOL     OW 7366   5.451   1.815   5.283
 2156SOL    HW1 7367   5.503   1.796   5.366
 2156SOL    HW2 7368   5.440   1.730   5.231
 2157SOL     OW 7369   3.525   6.326   4.250
 2157SOL    HW1 7370   3.471   6.280   4.179
 2157SOL    HW2 7371   3.511   6.281   4.338
 2158SOL     OW 7372   2.924   6.795   0.587
 2158SOL    HW1 7373   2.963   6.887   0.593
 2158SOL    HW2 7374   2.886   6.781   0.495
 2159SOL     OW 7375   0.680   0.803   5.611
 2159SOL    HW1 7376   0.758   0.859   5.582
 2159SOL    HW2 7377   0.660   0.822   5.707
 2160SOL     OW 7378   5.771   0.292   0.173
 2160SOL    HW1 7379   5.780   0.365   0.240
 2160SOL    HW2 7380   5.779   0.204   0.218
 2161SOL     OW 7381   1.447   2.722   1.379
 2161SOL    HW1 7382   1.399   2.773   1.449
 2161SOL    HW2 7383   1.397   2.728   1.292
 2162SOL     OW 7384   1.361   6.811   1.500
 2162SOL    HW1 7385   1.302   6.888   1.524
 2162SOL    HW2 7386   1.407   6.777   1.583
 2163SOL     OW 7387   1.993   2.809   2.914
 2163SOL    HW1 7388   2.015   2.712   2.908
 2163SOL    HW2 7389   1.966   2.843   2.823
 2164SOL     OW 7390   2.182   3.043   2.458
 2164SOL    HW1 7391   2.086   3.072   2.460
 2164SOL    HW2 7392   2.236   3.101   2.518
 2165SOL     OW 7393   6.661   1.380   4.277
 2165SOL    HW1 7394   6.685   1.474   4.297
 2165SOL    HW2 7395   6.663   1.325   4.361
 2166SOL     OW 7396   0.011   3.701   2.614
 2166SOL    HW1 7397   0.023   3.792   2.575
 2166SOL    HW2 7398   0.030   3.632   2.545
 2167SOL     OW 7399   2.379   1.632   2.727
 2167SOL    HW1 7400   2.300   1.573   2.744
 2167SOL    HW2 7401   2.353   1.705   2.664
 2168SOL     OW 7402   1.779   1.584   3.381
 2168SOL    HW1 7403   1.773   1.564   3.283
 2168SOL    HW2 7404   1.688   1.582   3.420
 2169SOL     OW 7405   0.091   6.883   1.391
 2169SOL    HW1 7406   7.023   6.916   1.384
 2169SOL    HW2 7407   0.138   6.895   1.304
 2170SOL     OW 7408   1.359   4.207   6.096
 2170SOL    HW1 7409   1.419   4.265   6.040
 2170SOL    HW2 7410   1.269   4.200   6.052
 2171SOL     OW 7411   6.796   6.044   1.038
 2171SOL    HW1 7412   6.732   6.107   0.995
 2171SOL    HW2 7413   6.816   6.075   1.131
 2172SOL     OW 7414   1.906   1.372   5.169
 2172SOL    HW1 7415   1.858   1.371   5.257
 2172SOL    HW2 7416   1.986   1.432   5.176
 2173SOL     OW 7417   5.467   0.944   5.807
 2173SOL    HW1 7418   5.427   1.015   5.748
 2173SOL    HW2 7419   5.496   0.985   5.893
 2174SOL     OW 7420   5.637   0.613   6.093
 2174SOL    HW1 7421   5.651   0.515   6.076
 2174SOL    HW2 7422   5.639   0.662   6.006
 2175SOL     OW 7423   2.609   3.966   5.369
 2175SOL    HW1 7424   2.644   4.060   5.365
 2175SOL    HW2 7425   2.531   3.957   5.308
 2176SOL     OW 7426   5.320   2.326   2.344
 2176SOL    HW1 7427   5.365   2.363   2.426
 2176SOL    HW2 7428   5.248   2.263   2.372
 2177SOL     OW 7429   0.541   0.752   4.775
 2177SOL    HW1 7430   0.622   0.767   4.718
 2177SOL    HW2 7431   0.471   0.705   4.722
 2178SOL     OW 7432   1.396   1.936   2.656
 2178SOL    HW1 7433   1.325   1.866   2.650
 2178SOL    HW2 7434   1.461   1.910   2.728
 2179SOL     OW 7435   1.932   4.440   6.546
 2179SOL    HW1 7436   2.002   4.393   6.493
 2179SOL    HW2 7437   1.842   4.405   6.521
 2180SOL     OW 7438   0.655   5.948   2.962
 2180SOL    HW1 7439   0.627   6.041   2.941
 2180SOL    HW2 7440   0.742   5.949   3.010
 2181SOL     OW 7441   3.838   4.947   4.654
 2181SOL    HW1 7442   3.741   4.954   4.631
 2181SOL    HW2 7443   3.855   4.997   4.739
 2182SOL     OW 7444   0.066   6.285   2.403
 2182SOL    HW1 7445   0.122   6.319   2.329
 2182SOL    HW2 7446   0.041   6.361   2.464
 2183SOL     OW 7447   3.113   3.482   6.567
 2183SOL    HW1 7448   3.037   3.500   6.630
 2183SOL    HW2 7449   3.100   3.392   6.524
 2184SOL     OW 7450   6.475   1.290   0.368
 2184SOL    HW1 7451   6.537   1.352   0.416
 2184SOL    HW2 7452   6.396   1.341   0.334
 2185SOL     OW 7453   1.154   0.582   6.502
 2185SOL    HW1 7454   1.074   0.553   6.554
 2185SOL    HW2 7455   1.146   0.680   6.481
 2186SOL     OW 7456   6.670   5.564   5.570
 2186SOL    HW1 7457   6.692   5.648   5.522
 2186SOL    HW2 7458   6.670   5.487   5.506
 2187SOL     OW 7459   6.808   5.522   1.693
 2187SOL    HW1 7460   6.716   5.486   1.683
 2187SOL    HW2 7461   6.832   5.576   1.613
 2188SOL     OW 7462   2.625   0.834   0.617
 2188SOL    HW1 7463   2.563   0.807   0.690
 2188SOL    HW2 7464   2.607   0.778   0.536
 2189SOL     OW 7465   2.331   1.490   1.473
 2189SOL    HW1 7466   2.276   1.544   1.409
 2189SOL    HW2 7467   2.271   1.456   1.546
 2190SOL     OW 7468   6.508   3.930   1.538
 2190SOL    HW1 7469   6.465   3.930   1.447
 2190SOL    HW2 7470   6.523   3.836   1.568
 2191SOL     OW 7471   2.839   0.424   6.688
 2191SOL    HW1 7472   2.790   0.373   6.617
 2191SOL    HW2 7473   2.774   0.480   6.739
 2192SOL     OW 7474   5.292   1.912   2.008
 2192SOL    HW1 7475   5.198   1.941   1.995
 2192SOL    HW2 7476   5.340   1.978   2.065
 2193SOL     OW 7477   1.762   6.782   5.455
 2193SOL    HW1 7478   1.828   6.813   5.523
 2193SOL    HW2 7479   1.810   6.763   5.369
 2194SOL     OW 7480   0.779   4.215   6.170
 2194SOL    HW1 7481   0.724   4.148   6.221
 2194SOL    HW2 7482   0.854   4.167   6.123
 2195SOL     OW 7483   0.702   3.369   4.786
 2195SOL    HW1 7484   0.705   3.277   4.824
 2195SOL    HW2 7485   0.619   3.380   4.731
 2196SOL     OW 7486   3.047   0.579   6.729
 2196SOL    HW1 7487   3.068   0.509   6.797
 2196SOL    HW2 7488   2.963   0.554   6.680
 2197SOL     OW 7489   3.585   5.735   5.732
 2197SOL    HW1 7490   3.578   5.787   5.818
 2197SOL    HW2 7491   3.564   5.639   5.750
 2198SOL     OW 7492   0.995   0.842   0.083
 2198SOL    HW1 7493   0.956   0.776   0.019
 2198SOL    HW2 7494   1.058   0.902   0.033
 2199SOL     OW 7495   4.121   6.671   4.245
 2199SOL    HW1 7496   4.191   6.739   4.223
 2199SOL    HW2 7497   4.111   6.665   4.344
 2200SOL     OW 7498   2.870   1.966   3.869
 2200SOL    HW1 7499   2.965   1.993   3.852
 2200SOL    HW2 7500   2.847   1.890   3.809
 2201SOL     OW 7501   5.877   3.806   4.602
 2201SOL    HW1 7502   5.828   3.856   4.531
 2201SOL    HW2 7503   5.845   3.711   4.604
 2202SOL     OW 7504   3.367   6.671   2.376
 2202SOL    HW1 7505   3.436   6.738   2.348
 2202SOL    HW2 7506   3.413   6.596   2.424
 2203SOL     OW 7507   2.021   5.001   1.190
 2203SOL    HW1 7508   2.105   5.009   1.136
 2203SOL    HW2 7509   2.044   4.977   1.284
 2204SOL     OW 7510   5.912   2.947   0.713
 2204SOL    HW1 7511   5.910   3.024   0.649
 2204SOL    HW2 7512   5.827   2.895   0.705
 2205SOL     OW 7513   6.992   5.606   1.037
 2205SOL    HW1 7514   6.983   5.698   0.999
 2205SOL    HW2 7515   6.906   5.556   1.024
 2206SOL     OW 7516   4.094   2.425   6.017
 2206SOL    HW1 7517   4.044   2.456   5.936
 2206SOL    HW2 7518   4.031   2.381   6.081
 2207SOL     OW 7519   4.824   5.864   1.013
 2207SOL    HW1 7520   4.923   5.856   1.016
 2207SOL    HW2 7521   4.797   5.914   0.931
 2208SOL     OW 7522   6.799   6.727   3.463
 2208SOL    HW1 7523   6.863   6.772   3.525
 2208SOL    HW2 7524   6.790   6.631   3.489
 2209SOL     OW 7525   2.983   5.892   4.107
 2209SOL    HW1 7526   2.964   5.979   4.061
 2209SOL    HW2 7527   2.955   5.817   4.047
 2210SOL     OW 7528   4.623   0.211   1.548
 2210SOL    HW1 7529   4.579   0.208   1.458
 2210SOL    HW2 7530   4.721   0.223   1.536
 2211SOL     OW 7531   1.239   1.631   1.185
 2211SOL    HW1 7532   1.144   1.655   1.206
 2211SOL    HW2 7533   1.299   1.671   1.254
 2212SOL     OW 7534   3.135   5.677   6.625
 2212SOL    HW1 7535   3.143   5.584   6.590
 2212SOL    HW2 7536   3.088   5.734   6.558
 2213SOL     OW 7537   3.726   1.911   5.053
 2213SOL    HW1 7538   3.632   1.944   5.047
 2213SOL    HW2 7539   3.789   1.989   5.060
 2214SOL     OW 7540   4.386   4.262   6.748
 2214SOL    HW1 7541   4.382   4.163   6.764
 2214SOL    HW2 7542   4.381   4.310   6.835
 2215SOL     OW 7543   3.867   0.063   6.836
 2215SOL    HW1 7544   3.915   7.003   6.851
 2215SOL    HW2 7545   3.916   0.116   6.766
 2216SOL     OW 7546   0.605   6.889   6.390
 2216SOL    HW1 7547   0.616   6.907   6.487
 2216SOL    HW2 7548   0.556   6.802   6.377
 2217SOL     OW 7549   4.617   1.181   3.987
 2217SOL    HW1 7550   4.581   1.274   3.992
 2217SOL    HW2 7551   4.543   1.117   3.968
 2218SOL     OW 7552   0.491   5.523   5.451
 2218SOL    HW1 7553   0.580   5.493   5.487
 2218SOL    HW2 7554   0.495   5.620   5.431
 2219SOL     OW 7555   5.483   0.804   1.214
 2219SOL    HW1 7556   5.472   0.855   1.129
 2219SOL    HW2 7557   5.568   0.831   1.259
 2220SOL     OW 7558   0.192   6.062   4.570
 2220SOL    HW1 7559   0.098   6.096   4.568
 2220SOL    HW2 7560   0.255   6.139   4.574
 2221SOL     OW 7561   6.274   1.123   4.232
 2221SOL    HW1 7562   6.274   1.023   4.224
 2221SOL    HW2 7563   6.326   1.162   4.156
 2222SOL     OW 7564   4.827   0.562   2.508
 2222SOL    HW1 7565   4.785   0.643   2.467
 2222SOL    HW2 7566   4.925   0.579   2.524
 2223SOL     OW 7567   0.796   6.624   5.127
 2223SOL    HW1 7568   0.842   6.702   5.171
 2223SOL    HW2 7569   0.856   6.586   5.057
 2224SOL     OW 7570   5.683   3.729   0.298
 2224SOL    HW1 7571   5.766   3.776   0.329
 2224SOL    HW2 7572   5.692   3.705   0.202
 2225SOL     OW 7573   6.696   6.267   2.270
 2225SOL    HW1 7574   6.627   6.297   2.204
 2225SOL    HW2 7575   6.776   6.233   2.221
 2226SOL     OW 7576   2.605   4.802   0.086
 2226SOL    HW1 7577   2.671   4.862   0.131
 2226SOL    HW2 7578   2.640   4.777   7.022
 2227SOL     OW 7579   4.062   1.897   1.877
 2227SOL    HW1 7580   4.085   1.940   1.964
 2227SOL    HW2 7581   4.015   1.962   1.818
 2228SOL     OW 7582   5.442   5.469   7.016
 2228SOL    HW1 7583   5.361   5.470   0.049
 2228SOL    HW2 7584   5.520   5.507   0.039
 2229SOL     OW 7585   3.442   3.237   3.828
 2229SOL    HW1 7586   3.532   3.208   3.796
 2229SOL    HW2 7587   3.399   3.295   3.759
 2230SOL     OW 7588   5.935   0.485   6.625
 2230SOL    HW1 7589   5.981   0.427   6.692
 2230SOL    HW2 7590   5.909   0.429   6.546
 2231SOL     OW 7591   1.158   6.966   6.274
 2231SOL    HW1 7592   1.223   6.928   6.208
 2231SOL    HW2 7593   1.087   6.898   6.295
 2232SOL     OW 7594   1.493   0.637   5.445
 2232SOL    HW1 7595   1.531   0.658   5.355
 2232SOL    HW2 7596   1.396   0.663   5.447
 2233SOL     OW 7597   3.134   4.655   0.782
 2233SOL    HW1 7598   3.136   4.752   0.757
 2233SOL    HW2 7599   3.208   4.607   0.735
 2234SOL     OW 7600   5.024   1.990   1.913
 2234SOL    HW1 7601   4.971   2.023   1.991
 2234SOL    HW2 7602   4.969   1.998   1.830
 2235SOL     OW 7603   0.991   1.709   3.144
 2235SOL    HW1 7604   0.984   1.655   3.228
 2235SOL    HW2 7605   1.038   1.656   3.074
 2236SOL     OW 7606   2.708   4.996   5.282
 2236SOL    HW1 7607   2.807   5.001   5.296
 2236SOL    HW2 7608   2.688   4.922   5.218
 2237SOL     OW 7609   6.161   5.453   5.656
 2237SOL    HW1 7610   6.115   5.440   5.568
 2237SOL    HW2 7611   6.187   5.363   5.693
 2238SOL     OW 7612   5.950   3.540   1.834
 2238SOL    HW1 7613   6.026   3.476   1.840
 2238SOL    HW2 7614   5.962   3.613   1.901
 2239SOL     OW 7615   4.700   6.706   2.943
 2239SOL    HW1 7616   4.685   6.607   2.952
 2239SOL    HW2 7617   4.612   6.752   2.936
 2240SOL     OW 7618   4.711   5.027   2.493
 2240SOL    HW1 7619   4.644   4.966   2.536
 2240SOL    HW2 7620   4.731   4.994   2.401
 2241SOL     OW 7621   0.794   1.410   2.578
 2241SOL    HW1 7622   0.777   1.311   2.575
 2241SOL    HW2 7623   0.741   1.450   2.653
 2242SOL     OW 7624   5.285   2.388   3.708
 2242SOL    HW1 7625   5.363   2.341   3.666
 2242SOL    HW2 7626   5.298   2.392   3.807
 2243SOL     OW 7627   2.066   6.876   0.950
 2243SOL    HW1 7628   2.144   6.831   0.993
 2243SOL    HW2 7629   2.080   6.878   0.851
 2244SOL     OW 7630   2.175   1.205   0.643
 2244SOL    HW1 7631   2.256   1.217   0.585
 2244SOL    HW2 7632   2.100   1.260   0.606
 2245SOL     OW 7633   0.352   0.608   0.246
 2245SOL    HW1 7634   0.378   0.588   0.341
 2245SOL    HW2 7635   0.394   0.540   0.185
 2246SOL     OW 7636   3.394   1.843   5.242
 2246SOL    HW1 7637   3.351   1.927   5.274
 2246SOL    HW2 7638   3.387   1.839   5.142
 2247SOL     OW 7639   3.617   2.978   2.782
 2247SOL    HW1 7640   3.565   2.952   2.700
 2247SOL    HW2 7641   3.591   2.919   2.858
 2248SOL     OW 7642   4.745   4.103   5.205
 2248SOL    HW1 7643   4.777   4.146   5.290
 2248SOL    HW2 7644   4.789   4.014   5.195
 2249SOL     OW 7645   1.415   6.480   3.204
 2249SOL    HW1 7646   1.396   6.566   3.252
 2249SOL    HW2 7647   1.467   6.419   3.263
 2250SOL     OW 7648   4.586   5.642   6.192
 2250SOL    HW1 7649   4.668   5.620   6.245
 2250SOL    HW2 7650   4.580   5.741   6.180
 2251SOL     OW 7651   5.360   6.256   5.349
 2251SOL    HW1 7652   5.438   6.199   5.376
 2251SOL    HW2 7653   5.296   6.201   5.295
 2252SOL     OW 7654   4.394   1.907   2.084
 2252SOL    HW1 7655   4.300   1.936   2.102
 2252SOL    HW2 7656   4.454   1.942   2.156
 2253SOL     OW 7657   0.733   3.435   1.009
 2253SOL    HW1 7658   0.749   3.489   1.092
 2253SOL    HW2 7659   0.804   3.455   0.942
 2254SOL     OW 7660   3.755   4.093   2.567
 2254SOL    HW1 7661   3.809   4.048   2.639
 2254SOL    HW2 7662   3.727   4.183   2.600
 2255SOL     OW 7663   2.577   3.216   6.154
 2255SOL    HW1 7664   2.519   3.285   6.198
 2255SOL    HW2 7665   2.658   3.260   6.115
 2256SOL     OW 7666   5.251   0.065   1.426
 2256SOL    HW1 7667   5.286   0.149   1.467
 2256SOL    HW2 7668   5.151   0.066   1.429
 2257SOL     OW 7669   6.947   0.915   5.190
 2257SOL    HW1 7670   6.976   0.867   5.273
 2257SOL    HW2 7671   6.868   0.972   5.211
 2258SOL     OW 7672   2.893   5.448   4.058
 2258SOL    HW1 7673   2.881   5.460   4.157
 2258SOL    HW2 7674   2.809   5.413   4.018
 2259SOL     OW 7675   5.746   2.144   4.738
 2259SOL    HW1 7676   5.692   2.210   4.685
 2259SOL    HW2 7677   5.792   2.191   4.813
 2260SOL     OW 7678   0.546   3.893   1.428
 2260SOL    HW1 7679   0.541   3.935   1.338
 2260SOL    HW2 7680   0.622   3.935   1.480
 2261SOL     OW 7681   5.345   3.649   6.774
 2261SOL    HW1 7682   5.264   3.701   6.797
 2261SOL    HW2 7683   5.348   3.633   6.676
 2262SOL     OW 7684   6.409   7.012   4.677
 2262SOL    HW1 7685   6.459   0.010   4.594
 2262SOL    HW2 7686   6.400   6.912   4.682
 2263SOL     OW 7687   2.189   4.587   6.558
 2263SOL    HW1 7688   2.099   4.552   6.584
 2263SOL    HW2 7689   2.242   4.514   6.514
 2264SOL     OW 7690   3.149   6.999   5.931
 2264SOL    HW1 7691   3.212   7.026   6.003
 2264SOL    HW2 7692   3.199   6.987   5.845
 2265SOL     OW 7693   6.857   6.366   4.443
 2265SOL    HW1 7694   6.767   6.325   4.456
 2265SOL    HW2 7695   6.847   6.463   4.424
 2266SOL     OW 7696   4.289   3.115   6.631
 2266SOL    HW1 7697   4.227   3.088   6.704
 2266SOL    HW2 7698   4.238   3.158   6.556
 2267SOL     OW 7699   4.947   2.645   4.409
 2267SOL    HW1 7700   4.933   2.607   4.500
 2267SOL    HW2 7701   4.862   2.639   4.357
 2268SOL     OW 7702   1.121   5.690   4.661
 2268SOL    HW1 7703   1.178   5.768   4.687
 2268SOL    HW2 7704   1.122   5.623   4.735
 2269SOL     OW 7705   1.701   2.500   5.542
 2269SOL    HW1 7706   1.800   2.513   5.535
 2269SOL    HW2 7707   1.681   2.407   5.571
 2270SOL     OW 7708   4.607   1.600   5.919
 2270SOL    HW1 7709   4.561   1.513   5.938
 2270SOL    HW2 7710   4.602   1.659   5.999
 2271SOL     OW 7711   4.550   5.620   5.221
 2271SOL    HW1 7712   4.530   5.642   5.316
 2271SOL    HW2 7713   4.465   5.609   5.170
 2272SOL     OW 7714   5.312   1.388   6.233
 2272SOL    HW1 7715   5.364   1.444   6.298
 2272SOL    HW2 7716   5.359   1.301   6.218
 2273SOL     OW 7717   0.670   2.339   3.037
 2273SOL    HW1 7718   0.769   2.326   3.028
 2273SOL    HW2 7719   0.627   2.252   3.058
 2274SOL     OW 7720   0.374   1.737   7.020
 2274SOL    HW1 7721   0.439   1.796   0.041
 2274SOL    HW2 7722   0.356   1.655   0.048
 2275SOL     OW 7723   5.612   4.781   2.974
 2275SOL    HW1 7724   5.640   4.756   2.881
 2275SOL    HW2 7725   5.521   4.744   2.993
 2276SOL     OW 7726   1.910   1.865   1.112
 2276SOL    HW1 7727   1.904   1.963   1.094
 2276SOL    HW2 7728   2.006   1.837   1.113
 2277SOL     OW 7729   3.781   3.390   3.548
 2277SOL    HW1 7730   3.755   3.486   3.560
 2277SOL    HW2 7731   3.703   3.340   3.509
 2278SOL     OW 7732   0.614   2.687   3.589
 2278SOL    HW1 7733   0.579   2.603   3.547
 2278SOL    HW2 7734   0.673   2.663   3.665
 2279SOL     OW 7735   0.669   5.423   5.631
 2279SOL    HW1 7736   0.713   5.505   5.665
 2279SOL    HW2 7737   0.584   5.407   5.682
 2280SOL     OW 7738   4.761   1.884   5.681
 2280SOL    HW1 7739   4.673   1.931   5.694
 2280SOL    HW2 7740   4.830   1.929   5.737
 2281SOL     OW 7741   5.839   6.871   2.527
 2281SOL    HW1 7742   5.864   6.867   2.430
 2281SOL    HW2 7743   5.809   6.964   2.549
 2282SOL     OW 7744   4.016   6.856   5.527
 2282SOL    HW1 7745   4.071   6.938   5.545
 2282SOL    HW2 7746   4.056   6.806   5.450
 2283SOL     OW 7747   0.097   0.576   4.028
 2283SOL    HW1 7748   0.190   0.578   4.065
 2283SOL    HW2 7749   0.033   0.548   4.099
 2284SOL     OW 7750   1.096   2.611   6.914
 2284SOL    HW1 7751   1.196   2.613   6.904
 2284SOL    HW2 7752   1.073   2.583   7.007
 2285SOL     OW 7753   1.711   4.385   6.406
 2285SOL    HW1 7754   1.733   4.303   6.353
 2285SOL    HW2 7755   1.623   4.422   6.375
 2286SOL     OW 7756   4.909   5.207   3.603
 2286SOL    HW1 7757   4.848   5.275   3.562
 2286SOL    HW2 7758   4.887   5.116   3.566
 2287SOL     OW 7759   1.668   1.230   3.230
 2287SOL    HW1 7760   1.628   1.241   3.139
 2287SOL    HW2 7761   1.647   1.139   3.266
 2288SOL     OW 7762   0.144   5.560   2.528
 2288SOL    HW1 7763   0.211   5.571   2.454
 2288SOL    HW2 7764   0.059   5.608   2.504
 2289SOL     OW 7765   0.364   5.393   1.092
 2289SOL    HW1 7766   0.315   5.446   1.023
 2289SOL    HW2 7767   0.301   5.366   1.164
 2290SOL     OW 7768   0.628   5.854   0.194
 2290SOL    HW1 7769   0.672   5.917   0.130
 2290SOL    HW2 7770   0.681   5.769   0.198
 2291SOL     OW 7771   2.725   1.570   0.293
 2291SOL    HW1 7772   2.637   1.570   0.247
 2291SOL    HW2 7773   2.715   1.531   0.384
 2292SOL     OW 7774   1.325   1.495   5.075
 2292SOL    HW1 7775   1.295   1.501   4.979
 2292SOL    HW2 7776   1.272   1.559   5.130
 2293SOL     OW 7777   5.366   4.274   2.553
 2293SOL    HW1 7778   5.440   4.214   2.522
 2293SOL    HW2 7779   5.279   4.226   2.546
 2294SOL     OW 7780   3.391   5.857   6.602
 2294SOL    HW1 7781   3.359   5.948   6.629
 2294SOL    HW2 7782   3.327   5.788   6.635
 2295SOL     OW 7783   0.667   2.230   1.235
 2295SOL    HW1 7784   0.573   2.238   1.267
 2295SOL    HW2 7785   0.712   2.153   1.281
 2296SOL     OW 7786   2.854   6.429   0.467
 2296SOL    HW1 7787   2.890   6.456   0.556
 2296SOL    HW2 7788   2.803   6.343   0.476
 2297SOL     OW 7789   4.375   6.625   5.795
 2297SOL    HW1 7790   4.327   6.705   5.761
 2297SOL    HW2 7791   4.318   6.544   5.781
 2298SOL     OW 7792   4.121   3.158   6.421
 2298SOL    HW1 7793   4.094   3.065   6.399
 2298SOL    HW2 7794   4.166   3.200   6.343
 2299SOL     OW 7795   4.624   6.263   0.496
 2299SOL    HW1 7796   4.613   6.165   0.511
 2299SOL    HW2 7797   4.626   6.281   0.397
 2300SOL     OW 7798   1.488   4.548   1.729
 2300SOL    HW1 7799   1.456   4.619   1.791
 2300SOL    HW2 7800   1.585   4.528   1.748
 2301SOL     OW 7801   4.064   3.654   1.832
 2301SOL    HW1 7802   4.038   3.627   1.925
 2301SOL    HW2 7803   4.099   3.574   1.783
 2302SOL     OW 7804   2.610   5.789   3.109
 2302SOL    HW1 7805   2.547   5.772   3.185
 2302SOL    HW2 7806   2.702   5.763   3.136
 2303SOL     OW 7807   0.705   3.096   4.855
 2303SOL    HW1 7808   0.616   3.051   4.860
 2303SOL    HW2 7809   0.756   3.061   4.776
 2304SOL     OW 7810   2.625   1.055   4.131
 2304SOL    HW1 7811   2.601   1.017   4.042
 2304SOL    HW2 7812   2.578   1.142   4.144
 2305SOL     OW 7813   4.065   5.538   1.869
 2305SOL    HW1 7814   3.990   5.532   1.935
 2305SOL    HW2 7815   4.085   5.635   1.850
 2306SOL     OW 7816   1.056   3.676   0.745
 2306SOL    HW1 7817   1.021   3.767   0.723
 2306SOL    HW2 7818   1.125   3.651   0.676
 2307SOL     OW 7819   0.741   2.349   2.610
 2307SOL    HW1 7820   0.822   2.407   2.611
 2307SOL    HW2 7821   0.767   2.255   2.631
 2308SOL     OW 7822   0.208   0.126   0.056
 2308SOL    HW1 7823   0.158   0.211   0.074
 2308SOL    HW2 7824   0.169   0.080   7.002
 2309SOL     OW 7825   3.522   5.066   5.890
 2309SOL    HW1 7826   3.428   5.042   5.915
 2309SOL    HW2 7827   3.576   5.082   5.973
 2310SOL     OW 7828   5.498   1.537   2.398
 2310SOL    HW1 7829   5.432   1.465   2.377
 2310SOL    HW2 7830   5.468   1.623   2.356
 2311SOL     OW 7831   2.921   0.076   3.114
 2311SOL    HW1 7832   2.832   0.100   3.074
 2311SOL    HW2 7833   2.992   0.135   3.077
 2312SOL     OW 7834   2.721   0.806   2.758
 2312SOL    HW1 7835   2.793   0.758   2.708
 2312SOL    HW2 7836   2.762   0.881   2.810
 2313SOL     OW 7837   5.269   4.048   1.874
 2313SOL    HW1 7838   5.179   4.081   1.843
 2313SOL    HW2 7839   5.288   3.960   1.831
 2314SOL     OW 7840   6.185   0.213   2.760
 2314SOL    HW1 7841   6.115   0.274   2.799
 2314SOL    HW2 7842   6.153   0.119   2.763
 2315SOL     OW 7843   4.400   6.119   5.165
 2315SOL    HW1 7844   4.451   6.205   5.171
 2315SOL    HW2 7845   4.449   6.054   5.108
 2316SOL     OW 7846   2.814   2.029   5.991
 2316SOL    HW1 7847   2.843   2.081   6.071
 2316SOL    HW2 7848   2.883   2.036   5.919
 2317SOL     OW 7849   6.666   5.978   3.642
 2317SOL    HW1 7850   6.703   5.892   3.677
 2317SOL    HW2 7851   6.589   5.958   3.581
 2318SOL     OW 7852   1.472   4.963   5.333
 2318SOL    HW1 7853   1.401   4.904   5.296
 2318SOL    HW2 7854   1.557   4.951   5.281
 2319SOL     OW 7855   2.199   4.986   3.761
 2319SOL    HW1 7856   2.249   4.954   3.842
 2319SOL    HW2 7857   2.103   4.997   3.784
 2320SOL     OW 7858   1.592   2.424   5.245
 2320SOL    HW1 7859   1.657   2.436   5.170
 2320SOL    HW2 7860   1.630   2.463   5.329
 2321SOL     OW 7861   2.424   4.846   5.781
 2321SOL    HW1 7862   2.361   4.899   5.837
 2321SOL    HW2 7863   2.375   4.813   5.700
 2322SOL     OW 7864   0.807   3.886   1.718
 2322SOL    HW1 7865   0.721   3.867   1.765
 2322SOL    HW2 7866   0.883   3.846   1.770
 2323SOL     OW 7867   2.365   5.009   1.652
 2323SOL    HW1 7868   2.298   4.947   1.695
 2323SOL    HW2 7869   2.457   4.972   1.664
 2324SOL     OW 7870   6.947   5.391   2.345
 2324SOL    HW1 7871   6.964   5.486   2.370
 2324SOL    HW2 7872   6.999   5.368   2.262
 2325SOL     OW 7873   0.169   5.317   1.900
 2325SOL    HW1 7874   0.157   5.223   1.868
 2325SOL    HW2 7875   0.130   5.380   1.834
 2326SOL     OW 7876   1.454   0.670   6.453
 2326SOL    HW1 7877   1.402   0.706   6.376
 2326SOL    HW2 7878   1.396   0.665   6.534
 2327SOL     OW 7879   6.875   0.637   2.835
 2327SOL    HW1 7880   6.880   0.632   2.935
 2327SOL    HW2 7881   6.959   0.600   2.795
 2328SOL     OW 7882   2.282   2.520   2.537
 2328SOL    HW1 7883   2.184   2.500   2.536
 2328SOL    HW2 7884   2.297   2.614   2.565
 2329SOL     OW 7885   0.756   5.648   3.390
 2329SOL    HW1 7886   0.706   5.674   3.307
 2329SOL    HW2 7887   0.822   5.720   3.412
 2330SOL     OW 7888   6.678   2.557   0.392
 2330SOL    HW1 7889   6.624   2.554   0.477
 2330SOL    HW2 7890   6.724   2.645   0.384
 2331SOL     OW 7891   4.206   5.984   0.413
 2331SOL    HW1 7892   4.170   5.907   0.465
 2331SOL    HW2 7893   4.245   6.051   0.477
 2332SOL     OW 7894   5.261   6.668   6.329
 2332SOL    HW1 7895   5.237   6.761   6.359
 2332SOL    HW2 7896   5.179   6.613   6.319
 2333SOL     OW 7897   0.341   4.578   2.548
 2333SOL    HW1 7898   0.280   4.499   2.545
 2333SOL    HW2 7899   0.286   4.662   2.547
 2334SOL     OW 7900   3.218   1.075   5.652
 2334SOL    HW1 7901   3.313   1.098   5.672
 2334SOL    HW2 7902   3.185   1.009   5.720
 2335SOL     OW 7903   6.419   1.386   3.114
 2335SOL    HW1 7904   6.408   1.413   3.210
 2335SOL    HW2 7905   6.388   1.291   3.103
 2336SOL     OW 7906   2.071   1.756   2.766
 2336SOL    HW1 7907   2.084   1.687   2.695
 2336SOL    HW2 7908   2.059   1.846   2.724
 2337SOL     OW 7909   4.284   1.943   1.335
 2337SOL    HW1 7910   4.282   2.020   1.398
 2337SOL    HW2 7911   4.377   1.929   1.301
 2338SOL     OW 7912   0.068   4.334   4.298
 2338SOL    HW1 7913   0.037   4.243   4.323
 2338SOL    HW2 7914   0.012   4.369   4.223
 2339SOL     OW 7915   4.038   3.581   2.883
 2339SOL    HW1 7916   3.938   3.576   2.891
 2339SOL    HW2 7917   4.065   3.557   2.790
 2340SOL     OW 7918   1.649   5.534   6.293
 2340SOL    HW1 7919   1.575   5.497   6.238
 2340SOL    HW2 7920   1.711   5.587   6.235
 2341SOL     OW 7921   2.312   4.582   3.550
 2341SOL    HW1 7922   2.223   4.558   3.587
 2341SOL    HW2 7923   2.379   4.586   3.624
 2342SOL     OW 7924   2.932   0.280   3.983
 2342SOL    HW1 7925   2.865   0.354   3.993
 2342SOL    HW2 7926   2.899   0.213   3.916
 2343SOL     OW 7927   1.451   6.771   2.102
 2343SOL    HW1 7928   1.401   6.801   2.183
 2343SOL    HW2 7929   1.543   6.742   2.128
 2344SOL     OW 7930   5.495   4.248   0.902
 2344SOL    HW1 7931   5.446   4.335   0.896
 2344SOL    HW2 7932   5.532   4.238   0.994
 2345SOL     OW 7933   2.637   5.921   4.668
 2345SOL    HW1 7934   2.636   5.871   4.755
 2345SOL    HW2 7935   2.631   6.019   4.686
 2346SOL     OW 7936   3.988   4.488   6.378
 2346SOL    HW1 7937   3.994   4.536   6.290
 2346SOL    HW2 7938   3.946   4.399   6.365
 2347SOL     OW 7939   1.186   2.452   1.563
 2347SOL    HW1 7940   1.153   2.359   1.544
 2347SOL    HW2 7941   1.252   2.449   1.638
 2348SOL     OW 7942   0.521   4.907   2.915
 2348SOL    HW1 7943   0.489   4.991   2.958
 2348SOL    HW2 7944   0.455   4.878   2.846
 2349SOL     OW 7945   0.476   4.598   6.545
 2349SOL    HW1 7946   0.483   4.686   6.592
 2349SOL    HW2 7947   0.526   4.602   6.458
 2350SOL     OW 7948   6.463   3.956   6.406
 2350SOL    HW1 7949   6.410   3.958   6.491
 2350SOL    HW2 7950   6.475   3.861   6.376
 2351SOL     OW 7951   2.311   4.998   3.141
 2351SOL    HW1 7952   2.299   5.031   3.234
 2351SOL    HW2 7953   2.406   4.969   3.127
 2352SOL     OW 7954   0.287   3.261   3.730
 2352SOL    HW1 7955   0.385   3.250   3.710
 2352SOL    HW2 7956   0.244   3.172   3.741
 2353SOL     OW 7957   3.582   5.825   5.086
 2353SOL    HW1 7958   3.496   5.867   5.116
 2353SOL    HW2 7959   3.633   5.890   5.030
 2354SOL     OW 7960   2.352   1.762   3.586
 2354SOL    HW1 7961   2.288   1.805   3.650
 2354SOL    HW2 7962   2.444   1.797   3.603
 2355SOL     OW 7963   2.122   5.872   4.914
 2355SOL    HW1 7964   2.064   5.805   4.868
 2355SOL    HW2 7965   2.067   5.924   4.980
 2356SOL     OW 7966   0.102   3.077   0.279
 2356SOL    HW1 7967   0.006   3.095   0.303
 2356SOL    HW2 7968   0.161   3.136   0.335
 2357SOL     OW 7969   2.788   6.883   2.550
 2357SOL    HW1 7970   2.847   6.828   2.609
 2357SOL    HW2 7971   2.717   6.927   2.605
 2358SOL     OW 7972   3.796   4.709   6.427
 2358SOL    HW1 7973   3.721   4.648   6.401
 2358SOL    HW2 7974   3.882   4.658   6.423
 2359SOL     OW 7975   1.345   0.424   4.717
 2359SOL    HW1 7976   1.392   0.386   4.638
 2359SOL    HW2 7977   1.331   0.353   4.786
 2360SOL     OW 7978   6.616   3.122   0.488
 2360SOL    HW1 7979   6.561   3.147   0.568
 2360SOL    HW2 7980   6.601   3.026   0.466
 2361SOL     OW 7981   3.770   1.600   6.001
 2361SOL    HW1 7982   3.792   1.538   5.925
 2361SOL    HW2 7983   3.805   1.691   5.979
 2362SOL     OW 7984   3.420   5.537   3.373
 2362SOL    HW1 7985   3.414   5.614   3.437
 2362SOL    HW2 7986   3.474   5.464   3.414
 2363SOL     OW 7987   3.873   1.526   3.870
 2363SOL    HW1 7988   3.826   1.453   3.919
 2363SOL    HW2 7989   3.808   1.599   3.848
 2364SOL     OW 7990   1.012   2.455   1.141
 2364SOL    HW1 7991   1.022   2.355   1.133
 2364SOL    HW2 7992   0.921   2.482   1.109
 2365SOL     OW 7993   5.782   2.162   6.493
 2365SOL    HW1 7994   5.798   2.091   6.562
 2365SOL    HW2 7995   5.728   2.236   6.532
 2366SOL     OW 7996   3.808   5.110   1.173
 2366SOL    HW1 7997   3.718   5.119   1.215
 2366SOL    HW2 7998   3.799   5.071   1.082
 2367SOL     OW 7999   2.075   3.070   0.133
 2367SOL    HW1 8000   2.051   3.008   0.059
 2367SOL    HW2 8001   2.123   3.020   0.205
 2368SOL     OW 8002   6.417   6.377   3.626
 2368SOL    HW1 8003   6.426   6.301   3.691
 2368SOL    HW2 8004   6.326   6.374   3.584
 2369SOL     OW 8005   2.276   0.276   3.797
 2369SOL    HW1 8006   2.306   0.348   3.860
 2369SOL    HW2 8007   2.356   0.239   3.749
 2370SOL     OW 8008   5.421   2.356   6.780
 2370SOL    HW1 8009   5.474   2.371   6.864
 2370SOL    HW2 8010   5.352   2.428   6.771
 2371SOL     OW 8011   2.858   6.801   1.668
 2371SOL    HW1 8012   2.834   6.712   1.706
 2371SOL    HW2 8013   2.776   6.859   1.665
 2372SOL     OW 8014   6.417   3.193   2.392
 2372SOL    HW1 8015   6.393   3.167   2.486
 2372SOL    HW2 8016   6.491   3.259   2.393
 2373SOL     OW 8017   2.084   3.545   6.581
 2373SOL    HW1 8018   2.132   3.481   6.640
 2373SOL    HW2 8019   2.041   3.616   6.637
 2374SOL     OW 8020   6.072   2.512   4.654
 2374SOL    HW1 8021   6.014   2.434   4.629
 2374SOL    HW2 8022   6.168   2.491   4.632
 2375SOL     OW 8023   3.554   5.617   4.745
 2375SOL    HW1 8024   3.635   5.608   4.803
 2375SOL    HW2 8025   3.579   5.602   4.650
 2376SOL     OW 8026   6.289   2.927   4.518
 2376SOL    HW1 8027   6.359   2.916   4.589
 2376SOL    HW2 8028   6.214   2.983   4.554
 2377SOL     OW 8029   3.094   3.097   3.852
 2377SOL    HW1 8030   3.131   3.077   3.761
 2377SOL    HW2 8031   3.084   3.196   3.863
 2378SOL     OW 8032   5.335   2.931   6.379
 2378SOL    HW1 8033   5.378   2.847   6.412
 2378SOL    HW2 8034   5.243   2.911   6.347
 2379SOL     OW 8035   6.450   0.258   0.828
 2379SOL    HW1 8036   6.443   0.264   0.729
 2379SOL    HW2 8037   6.388   0.187   0.861
 2380SOL     OW 8038   6.400   2.302   1.357
 2380SOL    HW1 8039   6.474   2.238   1.380
 2380SOL    HW2 8040   6.337   2.258   1.293
 2381SOL     OW 8041   1.627   6.332   3.382
 2381SOL    HW1 8042   1.610   6.352   3.478
 2381SOL    HW2 8043   1.569   6.256   3.352
 2382SOL     OW 8044   2.113   3.038   5.060
 2382SOL    HW1 8045   2.104   3.136   5.079
 2382SOL    HW2 8046   2.206   3.019   5.030
 2383SOL     OW 8047   6.332   6.057   1.407
 2383SOL    HW1 8048   6.298   6.091   1.494
 2383SOL    HW2 8049   6.294   6.113   1.333
 2384SOL     OW 8050   4.659   2.003   1.611
 2384SOL    HW1 8051   4.630   2.098   1.622
 2384SOL    HW2 8052   4.584   1.942   1.638
 2385SOL     OW 8053   0.564   1.886   6.568
 2385SOL    HW1 8054   0.492   1.953   6.547
 2385SOL    HW2 8055   0.632   1.930   6.627
 2386SOL     OW 8056   5.054   5.651   3.951
 2386SOL    HW1 8057   5.097   5.720   3.892
 2386SOL    HW2 8058   5.106   5.566   3.946
 2387SOL     OW 8059   1.710   1.489   4.029
 2387SOL    HW1 8060   1.664   1.413   4.075
 2387SOL    HW2 8061   1.748   1.551   4.097
 2388SOL     OW 8062   6.555   2.370   4.127
 2388SOL    HW1 8063   6.545   2.281   4.172
 2388SOL    HW2 8064   6.478   2.429   4.153
 2389SOL     OW 8065   4.049   5.116   3.095
 2389SOL    HW1 8066   4.078   5.090   3.187
 2389SOL    HW2 8067   3.972   5.179   3.100
 2390SOL     OW 8068   3.381   3.965   1.828
 2390SOL    HW1 8069   3.317   3.889   1.813
 2390SOL    HW2 8070   3.374   3.996   1.923
 2391SOL     OW 8071   4.689   5.266   5.506
 2391SOL    HW1 8072   4.682   5.175   5.548
 2391SOL    HW2 8073   4.597   5.306   5.500
 2392SOL     OW 8074   3.467   0.637   0.060
 2392SOL    HW1 8075   3.401   0.690   0.006
 2392SOL    HW2 8076   3.530   0.700   0.105
 2393SOL     OW 8077   4.293   4.629   6.010
 2393SOL    HW1 8078   4.374   4.607   5.956
 2393SOL    HW2 8079   4.239   4.698   5.963
 2394SOL     OW 8080   0.798   4.015   5.054
 2394SOL    HW1 8081   0.742   3.960   4.992
 2394SOL    HW2 8082   0.760   4.108   5.060
 2395SOL     OW 8083   3.731   6.707   5.892
 2395SOL    HW1 8084   3.712   6.623   5.942
 2395SOL    HW2 8085   3.660   6.775   5.913
 2396SOL     OW 8086   4.213   4.812   0.264
 2396SOL    HW1 8087   4.257   4.897   0.235
 2396SOL    HW2 8088   4.182   4.820   0.359
 2397SOL     OW 8089   0.504   3.856   5.106
 2397SOL    HW1 8090   0.406   3.838   5.093
 2397SOL    HW2 8091   0.548   3.773   5.141
 2398SOL     OW 8092   4.496   4.540   5.583
 2398SOL    HW1 8093   4.555   4.559   5.505
 2398SOL    HW2 8094   4.507   4.444   5.610
 2399SOL     OW 8095   4.621   2.284   1.694
 2399SOL    HW1 8096   4.698   2.347   1.683
 2399SOL    HW2 8097   4.544   2.315   1.639
 2400SOL     OW 8098   2.643   5.107   1.015
 2400SOL    HW1 8099   2.629   5.206   1.017
 2400SOL    HW2 8100   2.562   5.063   0.977
 2401SOL     OW 8101   6.286   6.327   5.842
 2401SOL    HW1 8102   6.373   6.312   5.796
 2401SOL    HW2 8103   6.221   6.369   5.777
 2402SOL     OW 8104   6.994   6.933   4.412
 2402SOL    HW1 8105   0.007   7.025   4.418
 2402SOL    HW2 8106   0.016   6.880   4.343
 2403SOL     OW 8107   0.535   2.289   5.533
 2403SOL    HW1 8108   0.511   2.380   5.498
 2403SOL    HW2 8109   0.634   2.284   5.545
 2404SOL     OW 8110   1.489   0.508   0.752
 2404SOL    HW1 8111   1.488   0.408   0.740
 2404SOL    HW2 8112   1.440   0.551   0.676
 2405SOL     OW 8113   2.895   3.645   1.679
 2405SOL    HW1 8114   2.797   3.663   1.686
 2405SOL    HW2 8115   2.932   3.693   1.599
 2406SOL     OW 8116   4.785   1.648   0.616
 2406SOL    HW1 8117   4.689   1.635   0.590
 2406SOL    HW2 8118   4.815   1.739   0.586
 2407SOL     OW 8119   5.475   0.812   3.258
 2407SOL    HW1 8120   5.437   0.733   3.209
 2407SOL    HW2 8121   5.561   0.840   3.214
 2408SOL     OW 8122   4.671   4.225   2.255
 2408SOL    HW1 8123   4.755   4.182   2.223
 2408SOL    HW2 8124   4.619   4.259   2.177
 2409SOL     OW 8125   1.788   4.061   0.398
 2409SOL    HW1 8126   1.841   4.017   0.325
 2409SOL    HW2 8127   1.783   4.000   0.477
 2410SOL     OW 8128   3.990   3.261   2.663
 2410SOL    HW1 8129   4.021   3.257   2.758
 2410SOL    HW2 8130   3.890   3.269   2.660
 2411SOL     OW 8131   5.534   0.286   4.526
 2411SOL    HW1 8132   5.560   0.237   4.443
 2411SOL    HW2 8133   5.468   0.231   4.577
 2412SOL     OW 8134   4.862   3.593   1.136
 2412SOL    HW1 8135   4.932   3.523   1.123
 2412SOL    HW2 8136   4.772   3.550   1.137
 2413SOL     OW 8137   5.028   0.442   2.107
 2413SOL    HW1 8138   5.074   0.519   2.149
 2413SOL    HW2 8139   4.948   0.417   2.162
 2414SOL     OW 8140   5.472   3.083   4.090
 2414SOL    HW1 8141   5.510   3.105   4.001
 2414SOL    HW2 8142   5.377   3.054   4.080
 2415SOL     OW 8143   4.888   1.074   3.585
 2415SOL    HW1 8144   4.797   1.037   3.599
 2415SOL    HW2 8145   4.922   1.113   3.671
 2416SOL     OW 8146   4.878   1.692   5.892
 2416SOL    HW1 8147   4.821   1.657   5.966
 2416SOL    HW2 8148   4.821   1.737   5.824
 2417SOL     OW 8149   2.995   3.126   4.156
 2417SOL    HW1 8150   2.973   3.070   4.076
 2417SOL    HW2 8151   3.057   3.076   4.216
 2418SOL     OW 8152   4.121   3.408   3.071
 2418SOL    HW1 8153   4.206   3.372   3.034
 2418SOL    HW2 8154   4.086   3.479   3.009
 2419SOL     OW 8155   0.526   0.051   2.924
 2419SOL    HW1 8156   0.549   0.131   2.869
 2419SOL    HW2 8157   0.495   7.004   2.865
 2420SOL     OW 8158   2.436   0.135   1.747
 2420SOL    HW1 8159   2.445   0.224   1.701
 2420SOL    HW2 8160   2.405   0.150   1.841
 2421SOL     OW 8161   2.748   2.413   3.834
 2421SOL    HW1 8162   2.785   2.371   3.917
 2421SOL    HW2 8163   2.677   2.479   3.859
 2422SOL     OW 8164   4.679   1.797   0.949
 2422SOL    HW1 8165   4.672   1.726   1.020
 2422SOL    HW2 8166   4.745   1.866   0.978
 2423SOL     OW 8167   2.212   5.644   2.887
 2423SOL    HW1 8168   2.249   5.672   2.976
 2423SOL    HW2 8169   2.182   5.549   2.892
 2424SOL     OW 8170   5.486   0.416   1.127
 2424SOL    HW1 8171   5.514   0.330   1.170
 2424SOL    HW2 8172   5.567   0.475   1.116
 2425SOL     OW 8173   6.497   6.661   4.440
 2425SOL    HW1 8174   6.570   6.687   4.377
 2425SOL    HW2 8175   6.418   6.628   4.388
 2426SOL     OW 8176   2.606   5.029   3.976
 2426SOL    HW1 8177   2.690   4.977   3.960
 2426SOL    HW2 8178   2.621   5.094   4.050
 2427SOL     OW 8179   6.468   0.253   5.501
 2427SOL    HW1 8180   6.415   0.172   5.474
 2427SOL    HW2 8181   6.446   0.276   5.596
 2428SOL     OW 8182   6.721   0.664   0.704
 2428SOL    HW1 8183   6.714   0.609   0.787
 2428SOL    HW2 8184   6.816   0.661   0.671
 2429SOL     OW 8185   4.709   5.836   2.030
 2429SOL    HW1 8186   4.637   5.792   1.976
 2429SOL    HW2 8187   4.756   5.904   1.973
 2430SOL     OW 8188   5.604   1.025   2.407
 2430SOL    HW1 8189   5.675   0.995   2.470
 2430SOL    HW2 8190   5.605   1.125   2.401
 2431SOL     OW 8191   3.969   0.407   2.237
 2431SOL    HW1 8192   3.875   0.427   2.262
 2431SOL    HW2 8193   4.025   0.403   2.320
 2432SOL     OW 8194   2.230   6.353   2.378
 2432SOL    HW1 8195   2.133   6.335   2.362
 2432SOL    HW2 8196   2.280   6.349   2.292
 2433SOL     OW 8197   3.763   0.005   0.066
 2433SOL    HW1 8198   3.668   0.036   0.069
 2433SOL    HW2 8199   3.800   0.021   7.001
 2434SOL     OW 8200   4.068   3.275   6.049
 2434SOL    HW1 8201   4.009   3.253   5.971
 2434SOL    HW2 8202   4.162   3.248   6.027
 2435SOL     OW 8203   5.610   5.894   5.171
 2435SOL    HW1 8204   5.601   5.801   5.207
 2435SOL    HW2 8205   5.706   5.914   5.154
 2436SOL     OW 8206   2.878   5.709   0.345
 2436SOL    HW1 8207   2.921   5.759   0.421
 2436SOL    HW2 8208   2.885   5.611   0.362
 2437SOL     OW 8209   6.769   0.309   6.287
 2437SOL    HW1 8210   6.712   0.229   6.266
 2437SOL    HW2 8211   6.816   0.294   6.374
 2438SOL     OW 8212   2.754   2.709   0.967
 2438SOL    HW1 8213   2.796   2.756   0.889
 2438SOL    HW2 8214   2.742   2.773   1.043
 2439SOL     OW 8215   6.108   4.581   4.728
 2439SOL    HW1 8216   6.188   4.528   4.759
 2439SOL    HW2 8217   6.138   4.672   4.698
 2440SOL     OW 8218   6.026   5.082   6.104
 2440SOL    HW1 8219   6.070   5.012   6.160
 2440SOL    HW2 8220   6.093   5.122   6.041
 2441SOL     OW 8221   6.112   2.288   1.043
 2441SOL    HW1 8222   6.026   2.311   1.088
 2441SOL    HW2 8223   6.155   2.212   1.092
 2442SOL     OW 8224   6.858   3.622   5.039
 2442SOL    HW1 8225   6.913   3.706   5.048
 2442SOL    HW2 8226   6.918   3.543   5.048
 2443SOL     OW 8227   2.952   4.930   5.846
 2443SOL    HW1 8228   2.977   4.843   5.803
 2443SOL    HW2 8229   2.934   4.998   5.775
 2444SOL     OW 8230   3.161   3.291   5.422
 2444SOL    HW1 8231   3.080   3.303   5.479
 2444SOL    HW2 8232   3.200   3.381   5.400
 2445SOL     OW 8233   0.830   0.071   0.697
 2445SOL    HW1 8234   0.741   0.054   0.654
 2445SOL    HW2 8235   0.840   0.010   0.776
 2446SOL     OW 8236   5.379   3.759   6.207
 2446SOL    HW1 8237   5.409   3.665   6.189
 2446SOL    HW2 8238   5.326   3.792   6.129
 2447SOL     OW 8239   0.354   2.594   6.533
 2447SOL    HW1 8240   0.318   2.685   6.510
 2447SOL    HW2 8241   0.454   2.595   6.527
 2448SOL     OW 8242   0.486   0.611   4.382
 2448SOL    HW1 8243   0.397   0.619   4.427
 2448SOL    HW2 8244   0.547   0.556   4.440
 2449SOL     OW 8245   0.706   2.863   4.649
 2449SOL    HW1 8246   0.709   2.819   4.739
 2449SOL    HW2 8247   0.795   2.854   4.605
 2450SOL     OW 8248   1.226   3.347   1.976
 2450SOL    HW1 8249   1.251   3.395   1.891
 2450SOL    HW2 8250   1.132   3.315   1.969
 2451SOL     OW 8251   2.631   6.654   4.583
 2451SOL    HW1 8252   2.623   6.604   4.670
 2451SOL    HW2 8253   2.705   6.614   4.528
 2452SOL     OW 8254   2.038   2.328   4.290
 2452SOL    HW1 8255   2.137   2.334   4.296
 2452SOL    HW2 8256   1.997   2.399   4.348
 2453SOL     OW 8257   0.295   3.493   1.423
 2453SOL    HW1 8258   0.376   3.521   1.474
 2453SOL    HW2 8259   0.259   3.408   1.462
 2454SOL     OW 8260   2.268   6.970   1.764
 2454SOL    HW1 8261   2.337   0.014   1.746
 2454SOL    HW2 8262   2.183   7.013   1.795
 2455SOL     OW 8263   5.066   4.009   1.075
 2455SOL    HW1 8264   5.031   3.917   1.058
 2455SOL    HW2 8265   5.118   4.040   0.996
 2456SOL     OW 8266   2.899   6.720   1.187
 2456SOL    HW1 8267   2.910   6.811   1.148
 2456SOL    HW2 8268   2.804   6.706   1.214
 2457SOL     OW 8269   5.878   6.153   1.316
 2457SOL    HW1 8270   5.882   6.081   1.386
 2457SOL    HW2 8271   5.784   6.167   1.287
 2458SOL     OW 8272   0.424   5.733   2.744
 2458SOL    HW1 8273   0.411   5.807   2.678
 2458SOL    HW2 8274   0.439   5.771   2.835
 2459SOL     OW 8275   0.820   1.269   0.480
 2459SOL    HW1 8276   0.884   1.276   0.403
 2459SOL    HW2 8277   0.824   1.177   0.518
 2460SOL     OW 8278   3.567   5.167   1.317
 2460SOL    HW1 8279   3.544   5.116   1.400
 2460SOL    HW2 8280   3.610   5.254   1.342
 2461SOL     OW 8281   5.217   1.010   3.574
 2461SOL    HW1 8282   5.135   1.029   3.519
 2461SOL    HW2 8283   5.260   0.926   3.541
 2462SOL     OW 8284   2.795   4.405   6.228
 2462SOL    HW1 8285   2.820   4.498   6.254
 2462SOL    HW2 8286   2.864   4.369   6.165
 2463SOL     OW 8287   0.176   2.001   4.407
 2463SOL    HW1 8288   0.205   2.010   4.311
 2463SOL    HW2 8289   0.184   2.089   4.453
 2464SOL     OW 8290   1.436   3.653   1.289
 2464SOL    HW1 8291   1.482   3.617   1.370
 2464SOL    HW2 8292   1.499   3.652   1.212
 2465SOL     OW 8293   5.808   5.259   2.624
 2465SOL    HW1 8294   5.804   5.167   2.663
 2465SOL    HW2 8295   5.738   5.316   2.667
 2466SOL     OW 8296   3.453   1.543   1.724
 2466SOL    HW1 8297   3.422   1.637   1.735
 2466SOL    HW2 8298   3.461   1.498   1.813
 2467SOL     OW 8299   6.775   1.483   5.015
 2467SOL    HW1 8300   6.709   1.514   5.083
 2467SOL    HW2 8301   6.864   1.470   5.059
 2468SOL     OW 8302   6.720   3.883   0.396
 2468SOL    HW1 8303   6.712   3.972   0.350
 2468SOL    HW2 8304   6.771   3.820   0.337
 2469SOL     OW 8305   3.180   2.890   5.647
 2469SOL    HW1 8306   3.171   2.909   5.745
 2469SOL    HW2 8307   3.221   2.969   5.601
 2470SOL     OW 8308   5.667   2.802   0.670
 2470SOL    HW1 8309   5.613   2.718   0.666
 2470SOL    HW2 8310   5.617   2.876   0.624
 2471SOL     OW 8311   0.284   1.064   3.605
 2471SOL    HW1 8312   0.336   0.992   3.651
 2471SOL    HW2 8313   0.222   1.022   3.538
 2472SOL     OW 8314   5.679   1.498   3.808
 2472SOL    HW1 8315   5.681   1.597   3.789
 2472SOL    HW2 8316   5.643   1.450   3.728
 2473SOL     OW 8317   0.560   6.467   5.189
 2473SOL    HW1 8318   0.643   6.522   5.178
 2473SOL    HW2 8319   0.580   6.372   5.165
 2474SOL     OW 8320   6.088   6.055   4.432
 2474SOL    HW1 8321   5.996   6.072   4.465
 2474SOL    HW2 8322   6.146   6.135   4.452
 2475SOL     OW 8323   4.737   2.162   5.964
 2475SOL    HW1 8324   4.650   2.114   5.955
 2475SOL    HW2 8325   4.734   2.223   6.043
 2476SOL     OW 8326   0.385   1.796   3.541
 2476SOL    HW1 8327   0.474   1.759   3.569
 2476SOL    HW2 8328   0.326   1.806   3.621
 2477SOL     OW 8329   4.681   4.995   2.187
 2477SOL    HW1 8330   4.772   5.021   2.155
 2477SOL    HW2 8331   4.650   4.914   2.138
 2478SOL     OW 8332   6.923   0.005   3.324
 2478SOL    HW1 8333   6.898   0.076   3.390
 2478SOL    HW2 8334   6.986   0.042   3.257
 2479SOL     OW 8335   0.174   2.111   6.968
 2479SOL    HW1 8336   0.204   2.073   0.029
 2479SOL    HW2 8337   0.081   2.082   6.949
 2480SOL     OW 8338   0.466   5.161   2.255
 2480SOL    HW1 8339   0.478   5.213   2.170
 2480SOL    HW2 8340   0.532   5.086   2.258
 2481SOL     OW 8341   3.869   4.885   2.468
 2481SOL    HW1 8342   3.962   4.849   2.476
 2481SOL    HW2 8343   3.811   4.820   2.419
 2482SOL     OW 8344   4.594   2.562   3.973
 2482SOL    HW1 8345   4.580   2.661   3.965
 2482SOL    HW2 8346   4.630   2.541   4.064
 2483SOL     OW 8347   0.254   2.841   6.856
 2483SOL    HW1 8348   0.332   2.900   6.836
 2483SOL    HW2 8349   0.283   2.745   6.852
 2484SOL     OW 8350   3.888   3.443   6.506
 2484SOL    HW1 8351   3.973   3.410   6.464
 2484SOL    HW2 8352   3.892   3.543   6.515
 2485SOL     OW 8353   0.297   6.176   0.640
 2485SOL    HW1 8354   0.237   6.196   0.718
 2485SOL    HW2 8355   0.385   6.141   0.673
 2486SOL     OW 8356   0.621   5.060   3.799
 2486SOL    HW1 8357   0.559   4.982   3.791
 2486SOL    HW2 8358   0.684   5.045   3.875
 2487SOL     OW 8359   3.169   1.557   1.638
 2487SOL    HW1 8360   3.255   1.557   1.587
 2487SOL    HW2 8361   3.165   1.638   1.696
 2488SOL     OW 8362   2.777   6.193   6.309
 2488SOL    HW1 8363   2.736   6.283   6.326
 2488SOL    HW2 8364   2.867   6.205   6.266
 2489SOL     OW 8365   6.882   5.749   4.306
 2489SOL    HW1 8366   6.932   5.834   4.287
 2489SOL    HW2 8367   6.928   5.673   4.261
 2490SOL     OW 8368   5.241   3.151   1.702
 2490SOL    HW1 8369   5.189   3.236   1.706
 2490SOL    HW2 8370   5.336   3.169   1.729
 2491SOL     OW 8371   6.920   4.437   2.747
 2491SOL    HW1 8372   6.830   4.465   2.714
 2491SOL    HW2 8373   6.987   4.446   2.673
 2492SOL     OW 8374   4.074   1.405   6.004
 2492SOL    HW1 8375   4.166   1.420   5.969
 2492SOL    HW2 8376   4.007   1.437   5.937
 2493SOL     OW 8377   6.655   1.317   4.824
 2493SOL    HW1 8378   6.589   1.374   4.776
 2493SOL    HW2 8379   6.694   1.369   4.901
 2494SOL     OW 8380   4.342   4.535   0.842
 2494SOL    HW1 8381   4.351   4.439   0.870
 2494SOL    HW2 8382   4.431   4.579   0.848
 2495SOL     OW 8383   6.672   0.884   2.922
 2495SOL    HW1 8384   6.700   0.936   3.003
 2495SOL    HW2 8385   6.690   0.787   2.938
 2496SOL     OW 8386   1.549   5.464   6.961
 2496SOL    HW1 8387   1.552   5.398   6.886
 2496SOL    HW2 8388   1.549   5.557   6.925
 2497SOL     OW 8389   5.602   0.333   6.975
 2497SOL    HW1 8390   5.673   0.325   0.019
 2497SOL    HW2 8391   5.625   0.408   6.913
 2498SOL     OW 8392   0.681   2.720   4.889
 2498SOL    HW1 8393   0.592   2.749   4.925
 2498SOL    HW2 8394   0.704   2.630   4.926
 2499SOL     OW 8395   5.028   0.587   0.076
 2499SOL    HW1 8396   4.967   0.620   0.147
 2499SOL    HW2 8397   4.997   0.621   7.013
 2500SOL     OW 8398   3.955   4.137   6.534
 2500SOL    HW1 8399   4.047   4.140   6.495
 2500SOL    HW2 8400   3.892   4.097   6.468
 2501SOL     OW 8401   6.303   4.608   1.030
 2501SOL    HW1 8402   6.355   4.626   0.946
 2501SOL    HW2 8403   6.357   4.634   1.109
 2502SOL     OW 8404   0.612   6.853   3.114
 2502SOL    HW1 8405   0.608   6.795   3.033
 2502SOL    HW2 8406   0.524   6.900   3.126
 2503SOL     OW 8407   5.567   0.112   4.306
 2503SOL    HW1 8408   5.530   0.131   4.214
 2503SOL    HW2 8409   5.510   0.044   4.351
 2504SOL     OW 8410   2.164   4.025   3.055
 2504SOL    HW1 8411   2.097   4.095   3.077
 2504SOL    HW2 8412   2.129   3.967   2.982
 2505SOL     OW 8413   5.200   4.029   4.599
 2505SOL    HW1 8414   5.232   3.969   4.525
 2505SOL    HW2 8415   5.279   4.072   4.642
 2506SOL     OW 8416   1.028   1.247   0.864
 2506SOL    HW1 8417   1.042   1.333   0.912
 2506SOL    HW2 8418   0.941   1.249   0.815
 2507SOL     OW 8419   6.657   6.521   6.990
 2507SOL    HW1 8420   6.565   6.531   6.953
 2507SOL    HW2 8421   6.709   6.456   6.935
 2508SOL     OW 8422   2.299   2.360   1.864
 2508SOL    HW1 8423   2.337   2.440   1.815
 2508SOL    HW2 8424   2.362   2.283   1.855
 2509SOL     OW 8425   5.797   1.252   3.285
 2509SOL    HW1 8426   5.856   1.189   3.336
 2509SOL    HW2 8427   5.710   1.264   3.334
 2510SOL     OW 8428   4.082   5.614   2.348
 2510SOL    HW1 8429   4.074   5.515   2.336
 2510SOL    HW2 8430   4.177   5.638   2.366
 2511SOL     OW 8431   1.136   6.977   3.163
 2511SOL    HW1 8432   1.067   6.914   3.126
 2511SOL    HW2 8433   1.090   0.031   3.202
 2512SOL     OW 8434   5.821   3.061   4.049
 2512SOL    HW1 8435   5.746   3.085   3.988
 2512SOL    HW2 8436   5.804   3.101   4.140
 2513SOL     OW 8437   0.478   4.446   1.370
 2513SOL    HW1 8438   0.571   4.443   1.334
 2513SOL    HW2 8439   0.413   4.449   1.294
 2514SOL     OW 8440   0.224   2.572   3.520
 2514SOL    HW1 8441   0.192   2.666   3.503
 2514SOL    HW2 8442   0.201   2.546   3.613
 2515SOL     OW 8443   1.065   4.571   0.036
 2515SOL    HW1 8444   1.035   4.666   0.042
 2515SOL    HW2 8445   1.139   4.556   0.101
 2516SOL     OW 8446   5.172   6.755   3.997
 2516SOL    HW1 8447   5.217   6.840   3.969
 2516SOL    HW2 8448   5.129   6.712   3.918
 2517SOL     OW 8449   2.296   5.485   0.915
 2517SOL    HW1 8450   2.285   5.468   0.817
 2517SOL    HW2 8451   2.225   5.436   0.965
 2518SOL     OW 8452   2.032   2.880   6.983
 2518SOL    HW1 8453   2.047   2.783   6.964
 2518SOL    HW2 8454   2.023   2.930   6.896
 2519SOL     OW 8455   6.069   4.146   5.323
 2519SOL    HW1 8456   6.053   4.240   5.293
 2519SOL    HW2 8457   6.053   4.084   5.246
 2520SOL     OW 8458   3.600   5.575   2.002
 2520SOL    HW1 8459   3.598   5.674   1.988
 2520SOL    HW2 8460   3.514   5.536   1.971
 2521SOL     OW 8461   5.478   6.900   6.034
 2521SOL    HW1 8462   5.565   6.868   6.073
 2521SOL    HW2 8463   5.418   6.930   6.107
 2522SOL     OW 8464   2.759   4.689   4.430
 2522SOL    HW1 8465   2.782   4.641   4.515
 2522SOL    HW2 8466   2.670   4.658   4.396
 2523SOL     OW 8467   0.795   2.208   5.650
 2523SOL    HW1 8468   0.885   2.240   5.680
 2523SOL    HW2 8469   0.734   2.200   5.729
 2524SOL     OW 8470   1.690   7.012   4.632
 2524SOL    HW1 8471   1.652   6.952   4.703
 2524SOL    HW2 8472   1.716   0.073   4.673
 2525SOL     OW 8473   2.501   4.810   2.759
 2525SOL    HW1 8474   2.513   4.899   2.804
 2525SOL    HW2 8475   2.517   4.820   2.661
 2526SOL     OW 8476   1.945   2.296   4.685
 2526SOL    HW1 8477   1.880   2.348   4.631
 2526SOL    HW2 8478   2.037   2.336   4.674
 2527SOL     OW 8479   6.755   0.089   4.081
 2527SOL    HW1 8480   6.759   7.017   4.067
 2527SOL    HW2 8481   6.661   0.116   4.103
 2528SOL     OW 8482   5.970   5.071   0.150
 2528SOL    HW1 8483   5.952   5.168   0.168
 2528SOL    HW2 8484   6.068   5.054   0.155
 2529SOL     OW 8485   5.089   4.034   5.339
 2529SOL    HW1 8486   5.135   4.084   5.266
 2529SOL    HW2 8487   5.077   3.938   5.312
 2530SOL     OW 8488   1.230   6.372   3.432
 2530SOL    HW1 8489   1.207   6.404   3.340
 2530SOL    HW2 8490   1.170   6.297   3.458
 2531SOL     OW 8491   5.114   1.240   6.966
 2531SOL    HW1 8492   5.164   1.324   6.947
 2531SOL    HW2 8493   5.159   1.190   0.014
 2532SOL     OW 8494   0.620   4.847   5.752
 2532SOL    HW1 8495   0.638   4.792   5.834
 2532SOL    HW2 8496   0.613   4.787   5.672
 2533SOL     OW 8497   5.628   0.133   5.391
 2533SOL    HW1 8498   5.634   0.036   5.369
 2533SOL    HW2 8499   5.721   0.172   5.395
 2534SOL     OW 8500   0.068   1.946   3.044
 2534SOL    HW1 8501   7.000   1.971   3.023
 2534SOL    HW2 8502   0.100   1.998   3.123
 2535SOL     OW 8503   2.624   1.276   2.986
 2535SOL    HW1 8504   2.529   1.300   2.970
 2535SOL    HW2 8505   2.682   1.356   2.973
 2536SOL     OW 8506   0.464   0.895   4.294
 2536SOL    HW1 8507   0.431   0.965   4.357
 2536SOL    HW2 8508   0.446   0.804   4.332
 2537SOL     OW 8509   3.961   6.318   2.040
 2537SOL    HW1 8510   3.991   6.226   2.014
 2537SOL    HW2 8511   4.036   6.367   2.084
 2538SOL     OW 8512   0.707   4.471   4.990
 2538SOL    HW1 8513   0.783   4.415   5.022
 2538SOL    HW2 8514   0.741   4.542   4.929
 2539SOL     OW 8515   2.207   0.612   5.435
 2539SOL    HW1 8516   2.221   0.538   5.369
 2539SOL    HW2 8517   2.111   0.618   5.460
 2540SOL     OW 8518   5.189   1.995   2.302
 2540SOL    HW1 8519   5.122   2.062   2.333
 2540SOL    HW2 8520   5.151   1.903   2.312
 2541SOL     OW 8521   0.923   1.605   5.898
 2541SOL    HW1 8522   0.876   1.694   5.900
 2541SOL    HW2 8523   1.008   1.614   5.847
 2542SOL     OW 8524   4.016   2.245   3.669
 2542SOL    HW1 8525   4.014   2.156   3.714
 2542SOL    HW2 8526   4.081   2.304   3.717
 2543SOL     OW 8527   6.826   1.733   4.869
 2543SOL    HW1 8528   6.912   1.743   4.921
 2543SOL    HW2 8529   6.786   1.644   4.889
 2544SOL     OW 8530   0.055   6.190   1.925
 2544SOL    HW1 8531   0.047   6.288   1.906
 2544SOL    HW2 8532   6.992   6.154   1.952
 2545SOL     OW 8533   6.717   1.643   0.303
 2545SOL    HW1 8534   6.712   1.741   0.283
 2545SOL    HW2 8535   6.691   1.627   0.398
 2546SOL     OW 8536   6.148   3.338   2.449
 2546SOL    HW1 8537   6.223   3.337   2.384
 2546SOL    HW2 8538   6.062   3.356   2.401
 2547SOL     OW 8539   5.643   4.218   1.157
 2547SOL    HW1 8540   5.611   4.287   1.222
 2547SOL    HW2 8541   5.671   4.136   1.208
 2548SOL     OW 8542   6.285   0.921   5.776
 2548SOL    HW1 8543   6.235   1.004   5.750
 2548SOL    HW2 8544   6.379   0.927   5.742
 2549SOL     OW 8545   2.860   4.982   0.911
 2549SOL    HW1 8546   2.856   4.883   0.922
 2549SOL    HW2 8547   2.771   5.022   0.935
 2550SOL     OW 8548   3.983   6.446   0.797
 2550SOL    HW1 8549   3.922   6.443   0.718
 2550SOL    HW2 8550   3.979   6.537   0.838
 2551SOL     OW 8551   3.593   4.790   1.189
 2551SOL    HW1 8552   3.634   4.796   1.280
 2551SOL    HW2 8553   3.511   4.848   1.186
 2552SOL     OW 8554   2.277   4.260   1.955
 2552SOL    HW1 8555   2.260   4.264   2.053
 2552SOL    HW2 8556   2.306   4.168   1.929
 2553SOL     OW 8557   4.831   1.206   0.137
 2553SOL    HW1 8558   4.792   1.161   0.217
 2553SOL    HW2 8559   4.893   1.143   0.090
 2554SOL     OW 8560   1.132   5.358   1.100
 2554SOL    HW1 8561   1.160   5.298   1.175
 2554SOL    HW2 8562   1.185   5.337   1.018
 2555SOL     OW 8563   0.307   6.502   5.089
 2555SOL    HW1 8564   0.401   6.503   5.123
 2555SOL    HW2 8565   0.246   6.470   5.161
 2556SOL     OW 8566   4.478   0.175   0.878
 2556SOL    HW1 8567   4.400   0.238   0.879
 2556SOL    HW2 8568   4.451   0.088   0.918
 2557SOL     OW 8569   3.101   1.151   6.900
 2557SOL    HW1 8570   3.007   1.138   6.868
 2557SOL    HW2 8571   3.160   1.169   6.822
 2558SOL     OW 8572   5.396   1.798   1.528
 2558SOL    HW1 8573   5.413   1.719   1.588
 2558SOL    HW2 8574   5.340   1.768   1.451
 2559SOL     OW 8575   6.962   5.464   2.788
 2559SOL    HW1 8576   6.968   5.564   2.789
 2559SOL    HW2 8577   0.019   5.424   2.825
 2560SOL     OW 8578   4.645   2.611   2.012
 2560SOL    HW1 8579   4.566   2.552   1.993
 2560SOL    HW2 8580   4.651   2.626   2.110
 2561SOL     OW 8581   2.913   0.084   4.178
 2561SOL    HW1 8582   2.816   0.062   4.162
 2561SOL    HW2 8583   2.933   0.174   4.139
 2562SOL     OW 8584   1.628   6.467   5.252
 2562SOL    HW1 8585   1.689   6.393   5.280
 2562SOL    HW2 8586   1.533   6.435   5.259
 2563SOL     OW 8587   3.734   3.029   6.588
 2563SOL    HW1 8588   3.765   2.972   6.511
 2563SOL    HW2 8589   3.779   3.118   6.583
 2564SOL     OW 8590   1.661   1.999   0.157
 2564SOL    HW1 8591   1.717   2.081   0.165
 2564SOL    HW2 8592   1.720   1.918   0.159
 2565SOL     OW 8593   0.665   0.844   0.862
 2565SOL    HW1 8594   0.724   0.785   0.807
 2565SOL    HW2 8595   0.612   0.903   0.802
 2566SOL     OW 8596   2.919   0.762   0.664
 2566SOL    HW1 8597   2.974   0.841   0.638
 2566SOL    HW2 8598   2.822   0.782   0.648
 2567SOL     OW 8599   2.044   0.515   6.471
 2567SOL    HW1 8600   2.068   0.565   6.388
 2567SOL    HW2 8601   1.949   0.534   6.495
 2568SOL     OW 8602   2.204   5.361   1.364
 2568SOL    HW1 8603   2.281   5.297   1.367
 2568SOL    HW2 8604   2.180   5.389   1.457
 2569SOL     OW 8605   1.845   6.456   6.992
 2569SOL    HW1 8606   1.795   6.405   6.922
 2569SOL    HW2 8607   1.791   6.458   0.050
 2570SOL     OW 8608   0.768   6.218   3.938
 2570SOL    HW1 8609   0.844   6.186   3.883
 2570SOL    HW2 8610   0.780   6.190   4.033
 2571SOL     OW 8611   3.239   4.108   2.926
 2571SOL    HW1 8612   3.214   4.072   3.016
 2571SOL    HW2 8613   3.187   4.192   2.908
 2572SOL     OW 8614   2.777   5.108   2.702
 2572SOL    HW1 8615   2.839   5.030   2.707
 2572SOL    HW2 8616   2.695   5.089   2.755
 2573SOL     OW 8617   6.561   1.067   3.301
 2573SOL    HW1 8618   6.525   1.069   3.394
 2573SOL    HW2 8619   6.602   1.155   3.279
 2574SOL     OW 8620   0.490   3.496   2.010
 2574SOL    HW1 8621   0.583   3.469   2.035
 2574SOL    HW2 8622   0.486   3.517   1.913
 2575SOL     OW 8623   4.699   3.421   5.737
 2575SOL    HW1 8624   4.628   3.442   5.670
 2575SOL    HW2 8625   4.772   3.369   5.692
 2576SOL     OW 8626   0.640   0.333   3.640
 2576SOL    HW1 8627   0.633   0.287   3.551
 2576SOL    HW2 8628   0.575   0.292   3.704
 2577SOL     OW 8629   1.765   4.850   1.822
 2577SOL    HW1 8630   1.732   4.915   1.891
 2577SOL    HW2 8631   1.711   4.860   1.739
 2578SOL     OW 8632   4.535   2.175   5.010
 2578SOL    HW1 8633   4.533   2.251   4.945
 2578SOL    HW2 8634   4.465   2.108   4.984
 2579SOL     OW 8635   0.255   1.097   6.268
 2579SOL    HW1 8636   0.195   1.177   6.259
 2579SOL    HW2 8637   0.344   1.126   6.304
 2580SOL     OW 8638   1.719   1.464   5.898
 2580SOL    HW1 8639   1.657   1.520   5.952
 2580SOL    HW2 8640   1.715   1.492   5.802
 2581SOL     OW 8641   6.194   6.317   4.451
 2581SOL    HW1 8642   6.204   6.381   4.375
 2581SOL    HW2 8643   6.153   6.364   4.529
 2582SOL     OW 8644   0.145   4.767   2.499
 2582SOL    HW1 8645   0.126   4.840   2.565
 2582SOL    HW2 8646   0.138   4.803   2.406
 2583SOL     OW 8647   2.583   0.955   6.499
 2583SOL    HW1 8648   2.664   1.011   6.480
 2583SOL    HW2 8649   2.505   0.990   6.447
 2584SOL     OW 8650   4.443   0.447   2.948
 2584SOL    HW1 8651   4.418   0.461   3.044
 2584SOL    HW2 8652   4.497   0.363   2.939
 2585SOL     OW 8653   4.122   1.329   1.949
 2585SOL    HW1 8654   4.097   1.406   2.008
 2585SOL    HW2 8655   4.086   1.343   1.858
 2586SOL     OW 8656   0.146   1.410   4.477
 2586SOL    HW1 8657   0.058   1.392   4.520
 2586SOL    HW2 8658   0.220   1.387   4.541
 2587SOL     OW 8659   6.533   5.395   2.402
 2587SOL    HW1 8660   6.440   5.413   2.434
 2587SOL    HW2 8661   6.576   5.327   2.462
 2588SOL     OW 8662   4.404   0.320   2.345
 2588SOL    HW1 8663   4.345   0.378   2.291
 2588SOL    HW2 8664   4.377   0.325   2.442
 2589SOL     OW 8665   4.820   6.381   1.301
 2589SOL    HW1 8666   4.848   6.377   1.397
 2589SOL    HW2 8667   4.825   6.290   1.261
 2590SOL     OW 8668   3.217   6.232   3.569
 2590SOL    HW1 8669   3.197   6.244   3.667
 2590SOL    HW2 8670   3.251   6.318   3.532
 2591SOL     OW 8671   6.340   0.261   1.193
 2591SOL    HW1 8672   6.270   0.317   1.236
 2591SOL    HW2 8673   6.422   0.316   1.176
 2592SOL     OW 8674   3.092   4.736   1.913
 2592SOL    HW1 8675   3.004   4.692   1.897
 2592SOL    HW2 8676   3.124   4.714   2.005
 2593SOL     OW 8677   3.590   6.774   3.059
 2593SOL    HW1 8678   3.669   6.720   3.028
 2593SOL    HW2 8679   3.554   6.826   2.982
 2594SOL     OW 8680   1.247   5.908   6.766
 2594SOL    HW1 8681   1.326   5.923   6.707
 2594SOL    HW2 8682   1.229   5.810   6.773
 2595SOL     OW 8683   7.011   2.504   4.240
 2595SOL    HW1 8684   0.055   2.450   4.194
 2595SOL    HW2 8685   6.930   2.509   4.182
 2596SOL     OW 8686   3.788   2.032   1.098
 2596SOL    HW1 8687   3.735   2.093   1.039
 2596SOL    HW2 8688   3.881   2.023   1.061
 2597SOL     OW 8689   2.213   2.695   6.789
 2597SOL    HW1 8690   2.193   2.781   6.742
 2597SOL    HW2 8691   2.127   2.650   6.814
 2598SOL     OW 8692   6.623   0.998   2.682
 2598SOL    HW1 8693   6.635   0.943   2.764
 2598SOL    HW2 8694   6.542   0.968   2.633
 2599SOL     OW 8695   4.871   5.791   6.522
 2599SOL    HW1 8696   4.825   5.810   6.436
 2599SOL    HW2 8697   4.969   5.776   6.505
 2600SOL     OW 8698   0.181   2.392   4.098
 2600SOL    HW1 8699   0.165   2.383   4.000
 2600SOL    HW2 8700   0.260   2.338   4.125
 2601SOL     OW 8701   3.712   4.151   4.817
 2601SOL    HW1 8702   3.717   4.130   4.719
 2601SOL    HW2 8703   3.790   4.109   4.864
 2602SOL     OW 8704   6.243   6.057   5.846
 2602SOL    HW1 8705   6.255   6.156   5.850
 2602SOL    HW2 8706   6.289   6.014   5.923
 2603SOL     OW 8707   1.477   2.128   6.605
 2603SOL    HW1 8708   1.441   2.168   6.521
 2603SOL    HW2 8709   1.420   2.155   6.682
 2604SOL     OW 8710   5.921   1.389   0.857
 2604SOL    HW1 8711   5.839   1.423   0.812
 2604SOL    HW2 8712   5.896   1.338   0.939
 2605SOL     OW 8713   6.096   3.294   4.348
 2605SOL    HW1 8714   6.193   3.287   4.368
 2605SOL    HW2 8715   6.067   3.216   4.293
 2606SOL     OW 8716   6.837   4.285   1.018
 2606SOL    HW1 8717   6.837   4.238   1.106
 2606SOL    HW2 8718   6.854   4.219   0.945
 2607SOL     OW 8719   1.014   1.611   4.170
 2607SOL    HW1 8720   1.096   1.651   4.130
 2607SOL    HW2 8721   0.937   1.621   4.107
 2608SOL     OW 8722   4.911   0.138   0.707
 2608SOL    HW1 8723   5.000   0.172   0.676
 2608SOL    HW2 8724   4.917   0.110   0.803
 2609SOL     OW 8725   0.446   3.241   3.380
 2609SOL    HW1 8726   0.473   3.165   3.320
 2609SOL    HW2 8727   0.512   3.316   3.371
 2610SOL     OW 8728   5.545   5.630   4.350
 2610SOL    HW1 8729   5.622   5.579   4.312
 2610SOL    HW2 8730   5.542   5.722   4.310
 2611SOL     OW 8731   2.906   5.523   2.208
 2611SOL    HW1 8732   2.937   5.452   2.144
 2611SOL    HW2 8733   2.978   5.542   2.274
 2612SOL     OW 8734   0.274   6.865   5.209
 2612SOL    HW1 8735   0.367   6.830   5.197
 2612SOL    HW2 8736   0.224   6.856   5.123
 2613SOL     OW 8737   3.673   0.837   0.748
 2613SOL    HW1 8738   3.587   0.844   0.698
 2613SOL    HW2 8739   3.660   0.786   0.832
 2614SOL     OW 8740   6.602   6.288   6.661
 2614SOL    HW1 8741   6.602   6.192   6.634
 2614SOL    HW2 8742   6.512   6.312   6.697
 2615SOL     OW 8743   5.639   4.434   1.804
 2615SOL    HW1 8744   5.615   4.343   1.836
 2615SOL    HW2 8745   5.557   4.480   1.769
 2616SOL     OW 8746   4.132   3.478   2.061
 2616SOL    HW1 8747   4.108   3.381   2.059
 2616SOL    HW2 8748   4.119   3.514   2.154
 2617SOL     OW 8749   2.821   0.233   1.032
 2617SOL    HW1 8750   2.725   0.241   1.006
 2617SOL    HW2 8751   2.855   0.322   1.063
 2618SOL     OW 8752   1.046   0.042   0.449
 2618SOL    HW1 8753   1.113   0.115   0.434
 2618SOL    HW2 8754   1.080   6.983   0.409
 2619SOL     OW 8755   6.053   1.751   1.555
 2619SOL    HW1 8756   6.110   1.683   1.508
 2619SOL    HW2 8757   5.961   1.750   1.517
 2620SOL     OW 8758   1.401   5.429   4.239
 2620SOL    HW1 8759   1.384   5.490   4.317
 2620SOL    HW2 8760   1.318   5.423   4.184
 2621SOL     OW 8761   0.240   5.239   4.049
 2621SOL    HW1 8762   0.187   5.310   4.003
 2621SOL    HW2 8763   0.180   5.185   4.107
 2622SOL     OW 8764   2.544   2.531   5.750
 2622SOL    HW1 8765   2.607   2.597   5.709
 2622SOL    HW2 8766   2.568   2.439   5.721
 2623SOL     OW 8767   3.225   0.225   6.500
 2623SOL    HW1 8768   3.246   0.266   6.589
 2623SOL    HW2 8769   3.126   0.224   6.487
 2624SOL     OW 8770   6.436   1.913   4.076
 2624SOL    HW1 8771   6.482   1.929   3.989
 2624SOL    HW2 8772   6.482   1.838   4.124
 2625SOL     OW 8773   3.928   6.950   6.209
 2625SOL    HW1 8774   4.014   6.927   6.163
 2625SOL    HW2 8775   3.860   6.977   6.141
 2626SOL     OW 8776   2.319   0.015   2.611
 2626SOL    HW1 8777   2.231   0.056   2.587
 2626SOL    HW2 8778   2.331   0.019   2.710
 2627SOL     OW 8779   0.441   1.257   4.860
 2627SOL    HW1 8780   0.351   1.221   4.884
 2627SOL    HW2 8781   0.502   1.182   4.836
 2628SOL     OW 8782   3.738   6.102   6.560
 2628SOL    HW1 8783   3.727   6.202   6.553
 2628SOL    HW2 8784   3.781   6.080   6.647
 2629SOL     OW 8785   2.978   3.806   1.334
 2629SOL    HW1 8786   2.980   3.892   1.385
 2629SOL    HW2 8787   3.038   3.739   1.377
 2630SOL     OW 8788   2.580   2.398   2.494
 2630SOL    HW1 8789   2.661   2.343   2.513
 2630SOL    HW2 8790   2.504   2.366   2.550
 2631SOL     OW 8791   4.094   6.173   4.704
 2631SOL    HW1 8792   4.034   6.120   4.765
 2631SOL    HW2 8793   4.090   6.134   4.612
 2632SOL     OW 8794   4.885   0.927   1.020
 2632SOL    HW1 8795   4.817   0.994   1.051
 2632SOL    HW2 8796   4.880   0.919   0.920
 2633SOL     OW 8797   6.535   2.948   6.787
 2633SOL    HW1 8798   6.507   2.867   6.736
 2633SOL    HW2 8799   6.466   2.969   6.856
 2634SOL     OW 8800   3.304   5.235   1.504
 2634SOL    HW1 8801   3.361   5.154   1.489
 2634SOL    HW2 8802   3.294   5.285   1.418
 2635SOL     OW 8803   6.198   4.834   3.453
 2635SOL    HW1 8804   6.252   4.822   3.370
 2635SOL    HW2 8805   6.172   4.745   3.490
 2636SOL     OW 8806   5.927   6.408   4.899
 2636SOL    HW1 8807   5.951   6.493   4.946
 2636SOL    HW2 8808   5.828   6.394   4.903
 2637SOL     OW 8809   5.403   6.688   2.355
 2637SOL    HW1 8810   5.397   6.612   2.419
 2637SOL    HW2 8811   5.497   6.696   2.322
 2638SOL     OW 8812   5.270   5.656   0.714
 2638SOL    HW1 8813   5.176   5.640   0.684
 2638SOL    HW2 8814   5.283   5.754   0.732
 2639SOL     OW 8815   6.991   6.379   6.359
 2639SOL    HW1 8816   6.956   6.333   6.278
 2639SOL    HW2 8817   6.918   6.431   6.403
 2640SOL     OW 8818   6.310   6.675   6.671
 2640SOL    HW1 8819   6.383   6.739   6.648
 2640SOL    HW2 8820   6.319   6.593   6.615
 2641SOL     OW 8821   6.230   5.462   0.277
 2641SOL    HW1 8822   6.199   5.480   0.371
 2641SOL    HW2 8823   6.327   5.488   0.269
 2642SOL     OW 8824   6.581   0.894   4.212
 2642SOL    HW1 8825   6.489   0.885   4.173
 2642SOL    HW2 8826   6.599   0.817   4.273
 2643SOL     OW 8827   2.419   0.293   1.981
 2643SOL    HW1 8828   2.337   0.348   1.995
 2643SOL    HW2 8829   2.483   0.344   1.923
 2644SOL     OW 8830   0.037   5.768   5.454
 2644SOL    HW1 8831   0.109   5.702   5.430
 2644SOL    HW2 8832   6.975   5.722   5.454
 2645SOL     OW 8833   6.196   5.789   6.153
 2645SOL    HW1 8834   6.166   5.696   6.172
 2645SOL    HW2 8835   6.257   5.820   6.226
 2646SOL     OW 8836   6.061   6.189   6.903
 2646SOL    HW1 8837   6.097   6.105   6.864
 2646SOL    HW2 8838   5.961   6.190   6.896
 2647SOL     OW 8839   3.290   3.359   0.593
 2647SOL    HW1 8840   3.308   3.447   0.549
 2647SOL    HW2 8841   3.333   3.285   0.541
 2648SOL     OW 8842   4.253   1.228   3.478
 2648SOL    HW1 8843   4.226   1.320   3.506
 2648SOL    HW2 8844   4.324   1.234   3.408
 2649SOL     OW 8845   3.430   2.992   5.143
 2649SOL    HW1 8846   3.505   3.008   5.078
 2649SOL    HW2 8847   3.343   2.993   5.094
 2650SOL     OW 8848   6.545   6.781   2.557
 2650SOL    HW1 8849   6.540   6.834   2.642
 2650SOL    HW2 8850   6.576   6.839   2.483
 2651SOL     OW 8851   0.136   0.151   3.495
 2651SOL    HW1 8852   0.044   0.186   3.478
 2651SOL    HW2 8853   0.203   0.222   3.473
 2652SOL     OW 8854   3.264   2.929   2.863
 2652SOL    HW1 8855   3.203   3.001   2.896
 2652SOL    HW2 8856   3.346   2.926   2.920
 2653SOL     OW 8857   6.762   5.367   0.598
 2653SOL    HW1 8858   6.669   5.398   0.616
 2653SOL    HW2 8859   6.792   5.307   0.673
 2654SOL     OW 8860   6.228   1.425   5.962
 2654SOL    HW1 8861   6.221   1.495   5.891
 2654SOL    HW2 8862   6.221   1.467   6.052
 2655SOL     OW 8863   4.761   5.722   4.824
 2655SOL    HW1 8864   4.727   5.646   4.768
 2655SOL    HW2 8865   4.858   5.737   4.806
 2656SOL     OW 8866   5.530   3.388   4.426
 2656SOL    HW1 8867   5.449   3.446   4.420
 2656SOL    HW2 8868   5.511   3.309   4.483
 2657SOL     OW 8869   3.335   2.436   6.059
 2657SOL    HW1 8870   3.239   2.410   6.061
 2657SOL    HW2 8871   3.390   2.364   6.102
 2658SOL     OW 8872   6.101   4.124   5.595
 2658SOL    HW1 8873   6.126   4.122   5.498
 2658SOL    HW2 8874   6.020   4.068   5.610
 2659SOL     OW 8875   6.558   1.838   3.262
 2659SOL    HW1 8876   6.574   1.830   3.163
 2659SOL    HW2 8877   6.495   1.914   3.279
 2660SOL     OW 8878   6.828   2.354   2.711
 2660SOL    HW1 8879   6.788   2.265   2.736
 2660SOL    HW2 8880   6.902   2.340   2.646
 2661SOL     OW 8881   3.659   6.744   2.292
 2661SOL    HW1 8882   3.725   6.674   2.266
 2661SOL    HW2 8883   3.704   6.834   2.293
 2662SOL     OW 8884   3.680   0.625   3.561
 2662SOL    HW1 8885   3.688   0.593   3.467
 2662SOL    HW2 8886   3.613   0.700   3.564
 2663SOL     OW 8887   0.736   4.098   2.797
 2663SOL    HW1 8888   0.715   4.184   2.844
 2663SOL    HW2 8889   0.716   4.021   2.856
 2664SOL     OW 8890   4.189   4.108   1.739
 2664SOL    HW1 8891   4.137   4.192   1.724
 2664SOL    HW2 8892   4.277   4.131   1.781
 2665SOL     OW 8893   4.840   0.609   4.818
 2665SOL    HW1 8894   4.855   0.664   4.736
 2665SOL    HW2 8895   4.924   0.563   4.844
 2666SOL     OW 8896   4.777   6.249   1.893
 2666SOL    HW1 8897   4.874   6.249   1.871
 2666SOL    HW2 8898   4.724   6.283   1.815
 2667SOL     OW 8899   1.641   5.302   3.478
 2667SOL    HW1 8900   1.546   5.275   3.489
 2667SOL    HW2 8901   1.645   5.390   3.430
 2668SOL     OW 8902   6.497   2.438   5.752
 2668SOL    HW1 8903   6.560   2.502   5.709
 2668SOL    HW2 8904   6.542   2.349   5.765
 2669SOL     OW 8905   4.244   5.482   5.385
 2669SOL    HW1 8906   4.147   5.503   5.385
 2669SOL    HW2 8907   4.297   5.567   5.382
 2670SOL     OW 8908   2.239   7.025   5.373
 2670SOL    HW1 8909   2.267   6.986   5.461
 2670SOL    HW2 8910   2.210   0.093   5.387
 2671SOL     OW 8911   3.300   4.594   6.249
 2671SOL    HW1 8912   3.264   4.503   6.228
 2671SOL    HW2 8913   3.360   4.625   6.175
 2672SOL     OW 8914   1.406   4.135   0.194
 2672SOL    HW1 8915   1.483   4.198   0.187
 2672SOL    HW2 8916   1.344   4.149   0.116
 2673SOL     OW 8917   4.245   2.364   3.831
 2673SOL    HW1 8918   4.319   2.416   3.875
 2673SOL    HW2 8919   4.278   2.328   3.744
 2674SOL     OW 8920   6.021   5.363   5.437
 2674SOL    HW1 8921   5.932   5.333   5.470
 2674SOL    HW2 8922   6.051   5.305   5.361
 2675SOL     OW 8923   0.639   4.216   5.205
 2675SOL    HW1 8924   0.586   4.257   5.131
 2675SOL    HW2 8925   0.585   4.143   5.247
 2676SOL     OW 8926   4.709   0.573   2.057
 2676SOL    HW1 8927   4.738   0.610   2.145
 2676SOL    HW2 8928   4.609   0.579   2.050
 2677SOL     OW 8929   2.584   4.678   2.465
 2677SOL    HW1 8930   2.681   4.697   2.472
 2677SOL    HW2 8931   2.559   4.666   2.369
 2678SOL     OW 8932   0.107   6.750   6.192
 2678SOL    HW1 8933   0.052   6.833   6.195
 2678SOL    HW2 8934   0.078   6.688   6.265
 2679SOL     OW 8935   3.020   4.938   1.295
 2679SOL    HW1 8936   3.080   4.858   1.293
 2679SOL    HW2 8937   3.021   4.979   1.386
 2680SOL     OW 8938   1.553   2.194   1.495
 2680SOL    HW1 8939   1.584   2.129   1.564
 2680SOL    HW2 8940   1.630   2.219   1.435
 2681SOL     OW 8941   1.761   1.717   2.678
 2681SOL    HW1 8942   1.678   1.766   2.707
 2681SOL    HW2 8943   1.842   1.768   2.707
 2682SOL     OW 8944   6.018   2.131   4.008
 2682SOL    HW1 8945   6.107   2.085   4.004
 2682SOL    HW2 8946   5.952   2.080   3.953
 2683SOL     OW 8947   1.519   0.458   1.249
 2683SOL    HW1 8948   1.424   0.426   1.250
 2683SOL    HW2 8949   1.572   0.401   1.186
 2684SOL     OW 8950   2.487   5.672   3.425
 2684SOL    HW1 8951   2.543   5.600   3.466
 2684SOL    HW2 8952   2.393   5.664   3.457
 2685SOL     OW 8953   5.551   6.100   5.430
 2685SOL    HW1 8954   5.527   6.032   5.500
 2685SOL    HW2 8955   5.650   6.101   5.416
 2686SOL     OW 8956   1.009   2.918   4.665
 2686SOL    HW1 8957   1.100   2.877   4.653
 2686SOL    HW2 8958   0.980   2.905   4.760
 2687SOL     OW 8959   4.719   4.794   3.001
 2687SOL    HW1 8960   4.758   4.770   3.090
 2687SOL    HW2 8961   4.790   4.785   2.931
 2688SOL     OW 8962   4.329   5.127   5.680
 2688SOL    HW1 8963   4.243   5.116   5.629
 2688SOL    HW2 8964   4.379   5.206   5.644
 2689SOL     OW 8965   0.276   3.099   4.021
 2689SOL    HW1 8966   0.311   3.175   3.967
 2689SOL    HW2 8967   0.345   3.070   4.088
 2690SOL     OW 8968   3.455   2.946   3.076
 2690SOL    HW1 8969   3.465   3.030   3.130
 2690SOL    HW2 8970   3.466   2.867   3.136
 2691SOL     OW 8971   1.172   5.663   1.728
 2691SOL    HW1 8972   1.130   5.731   1.669
 2691SOL    HW2 8973   1.196   5.582   1.674
 2692SOL     OW 8974   0.140   5.228   3.004
 2692SOL    HW1 8975   0.199   5.160   2.960
 2692SOL    HW2 8976   0.186   5.317   3.004
 2693SOL     OW 8977   1.870   3.310   2.856
 2693SOL    HW1 8978   1.855   3.353   2.767
 2693SOL    HW2 8979   1.960   3.266   2.855
 2694SOL     OW 8980   2.577   0.926   3.174
 2694SOL    HW1 8981   2.577   0.991   3.099
 2694SOL    HW2 8982   2.638   0.850   3.153
 2695SOL     OW 8983   3.754   2.092   2.748
 2695SOL    HW1 8984   3.702   2.085   2.834
 2695SOL    HW2 8985   3.708   2.039   2.677
 2696SOL     OW 8986   3.914   4.038   4.990
 2696SOL    HW1 8987   3.984   4.102   5.022
 2696SOL    HW2 8988   3.954   3.974   4.924
 2697SOL     OW 8989   2.892   1.858   4.128
 2697SOL    HW1 8990   2.911   1.923   4.055
 2697SOL    HW2 8991   2.958   1.782   4.123
 2698SOL     OW 8992   2.190   3.321   6.681
 2698SOL    HW1 8993   2.226   3.255   6.747
 2698SOL    HW2 8994   2.229   3.302   6.591
 2699SOL     OW 8995   2.612   5.722   2.820
 2699SOL    HW1 8996   2.628   5.623   2.828
 2699SOL    HW2 8997   2.627   5.765   2.909
 2700SOL     OW 8998   1.570   4.375   3.206
 2700SOL    HW1 8999   1.500   4.443   3.182
 2700SOL    HW2 9000   1.541   4.285   3.171
 2701SOL     OW 9001   3.458   0.123   5.606
 2701SOL    HW1 9002   3.549   0.080   5.604
 2701SOL    HW2 9003   3.447   0.170   5.694
 2702SOL     OW 9004   0.168   6.516   3.051
 2702SOL    HW1 9005   0.152   6.604   3.096
 2702SOL    HW2 9006   0.191   6.531   2.955
 2703SOL     OW 9007   1.510   1.619   3.502
 2703SOL    HW1 9008   1.451   1.686   3.456
 2703SOL    HW2 9009   1.523   1.647   3.597
 2704SOL     OW 9010   1.048   6.534   6.915
 2704SOL    HW1 9011   1.023   6.455   6.858
 2704SOL    HW2 9012   0.971   6.558   6.974
 2705SOL     OW 9013   0.175   4.385   2.640
 2705SOL    HW1 9014   0.166   4.337   2.727
 2705SOL    HW2 9015   0.185   4.318   2.566
 2706SOL     OW 9016   6.811   2.409   2.060
 2706SOL    HW1 9017   6.827   2.343   1.987
 2706SOL    HW2 9018   6.718   2.398   2.096
 2707SOL     OW 9019   2.465   1.422   6.160
 2707SOL    HW1 9020   2.489   1.362   6.236
 2707SOL    HW2 9021   2.365   1.430   6.155
 2708SOL     OW 9022   2.002   4.089   0.909
 2708SOL    HW1 9023   2.064   4.161   0.879
 2708SOL    HW2 9024   1.939   4.065   0.834
 2709SOL     OW 9025   3.916   6.855   1.474
 2709SOL    HW1 9026   3.825   6.895   1.461
 2709SOL    HW2 9027   3.942   6.806   1.391
 2710SOL     OW 9028   6.247   4.445   2.663
 2710SOL    HW1 9029   6.169   4.467   2.721
 2710SOL    HW2 9030   6.228   4.473   2.569
 2711SOL     OW 9031   1.068   6.524   1.848
 2711SOL    HW1 9032   1.147   6.564   1.802
 2711SOL    HW2 9033   0.985   6.544   1.795
 2712SOL     OW 9034   3.331   5.233   2.643
 2712SOL    HW1 9035   3.297   5.147   2.682
 2712SOL    HW2 9036   3.428   5.243   2.662
 2713SOL     OW 9037   2.193   2.420   5.109
 2713SOL    HW1 9038   2.152   2.360   5.041
 2713SOL    HW2 9039   2.289   2.435   5.088
 2714SOL     OW 9040   5.686   0.236   5.830
 2714SOL    HW1 9041   5.656   0.270   5.919
 2714SOL    HW2 9042   5.646   0.147   5.812
 2715SOL     OW 9043   6.335   6.998   0.722
 2715SOL    HW1 9044   6.267   0.030   0.766
 2715SOL    HW2 9045   6.299   6.966   0.635
 2716SOL     OW 9046   0.059   6.705   2.726
 2716SOL    HW1 9047   7.003   6.751   2.694
 2716SOL    HW2 9048   0.115   6.768   2.780
 2717SOL     OW 9049   1.109   0.434   2.993
 2717SOL    HW1 9050   1.015   0.412   2.966
 2717SOL    HW2 9051   1.173   0.393   2.928
 2718SOL     OW 9052   0.757   4.608   3.288
 2718SOL    HW1 9053   0.758   4.623   3.189
 2718SOL    HW2 9054   0.771   4.511   3.307
 2719SOL     OW 9055   4.330   4.649   3.190
 2719SOL    HW1 9056   4.387   4.577   3.152
 2719SOL    HW2 9057   4.290   4.703   3.116
 2720SOL     OW 9058   0.494   6.268   3.732
 2720SOL    HW1 9059   0.592   6.256   3.749
 2720SOL    HW2 9060   0.443   6.200   3.785
 2721SOL     OW 9061   5.094   6.470   4.583
 2721SOL    HW1 9062   5.086   6.569   4.578
 2721SOL    HW2 9063   5.114   6.434   4.492
 2722SOL     OW 9064   1.044   5.990   1.307
 2722SOL    HW1 9065   1.004   5.922   1.245
 2722SOL    HW2 9066   1.141   6.000   1.287
 2723SOL     OW 9067   2.089   1.373   4.845
 2723SOL    HW1 9068   2.040   1.446   4.894
 2723SOL    HW2 9069   2.144   1.320   4.910
 2724SOL     OW 9070   3.624   5.859   6.471
 2724SOL    HW1 9071   3.658   5.944   6.511
 2724SOL    HW2 9072   3.532   5.840   6.505
 2725SOL     OW 9073   2.665   4.660   3.534
 2725SOL    HW1 9074   2.590   4.599   3.559
 2725SOL    HW2 9075   2.751   4.624   3.572
 2726SOL     OW 9076   4.863   6.651   2.229
 2726SOL    HW1 9077   4.858   6.571   2.170
 2726SOL    HW2 9078   4.959   6.674   2.245
 2727SOL     OW 9079   1.971   5.651   3.326
 2727SOL    HW1 9080   1.911   5.629   3.248
 2727SOL    HW2 9081   1.918   5.698   3.396
 2728SOL     OW 9082   3.781   6.449   4.978
 2728SOL    HW1 9083   3.736   6.364   5.006
 2728SOL    HW2 9084   3.795   6.507   5.059
 2729SOL     OW 9085   6.719   4.937   2.178
 2729SOL    HW1 9086   6.626   4.899   2.180
 2729SOL    HW2 9087   6.729   5.002   2.254
 2730SOL     OW 9088   1.220   4.499   1.637
 2730SOL    HW1 9089   1.316   4.516   1.658
 2730SOL    HW2 9090   1.173   4.585   1.622
 2731SOL     OW 9091   2.826   3.835   1.123
 2731SOL    HW1 9092   2.874   3.871   1.043
 2731SOL    HW2 9093   2.891   3.825   1.199
 2732SOL     OW 9094   5.227   3.031   4.276
 2732SOL    HW1 9095   5.166   2.953   4.261
 2732SOL    HW2 9096   5.305   3.003   4.332
 2733SOL     OW 9097   2.205   0.597   5.810
 2733SOL    HW1 9098   2.275   0.525   5.804
 2733SOL    HW2 9099   2.246   0.679   5.849
 2734SOL     OW 9100   2.374   6.884   3.706
 2734SOL    HW1 9101   2.410   6.977   3.711
 2734SOL    HW2 9102   2.313   6.868   3.783
 2735SOL     OW 9103   1.857   4.836   1.070
 2735SOL    HW1 9104   1.762   4.837   1.100
 2735SOL    HW2 9105   1.912   4.894   1.130
 2736SOL     OW 9106   3.653   6.606   6.567
 2736SOL    HW1 9107   3.580   6.674   6.565
 2736SOL    HW2 9108   3.738   6.649   6.599
 2737SOL     OW 9109   4.358   3.307   5.498
 2737SOL    HW1 9110   4.410   3.240   5.551
 2737SOL    HW2 9111   4.389   3.399   5.521
 2738SOL     OW 9112   5.790   4.280   4.067
 2738SOL    HW1 9113   5.831   4.366   4.038
 2738SOL    HW2 9114   5.856   4.206   4.058
 2739SOL     OW 9115   5.405   3.690   0.606
 2739SOL    HW1 9116   5.433   3.776   0.648
 2739SOL    HW2 9117   5.332   3.707   0.540
 2740SOL     OW 9118   6.217   2.393   2.965
 2740SOL    HW1 9119   6.277   2.413   3.043
 2740SOL    HW2 9120   6.156   2.471   2.949
 2741SOL     OW 9121   1.371   2.667   4.913
 2741SOL    HW1 9122   1.444   2.603   4.892
 2741SOL    HW2 9123   1.396   2.758   4.880
 2742SOL     OW 9124   2.691   6.290   5.230
 2742SOL    HW1 9125   2.672   6.201   5.270
 2742SOL    HW2 9126   2.788   6.297   5.208
 2743SOL     OW 9127   6.260   4.641   0.661
 2743SOL    HW1 9128   6.212   4.563   0.622
 2743SOL    HW2 9129   6.194   4.705   0.700
 2744SOL     OW 9130   4.289   0.422   0.294
 2744SOL    HW1 9131   4.329   0.364   0.223
 2744SOL    HW2 9132   4.305   0.380   0.383
 2745SOL     OW 9133   2.172   5.604   1.239
 2745SOL    HW1 9134   2.168   5.523   1.299
 2745SOL    HW2 9135   2.249   5.662   1.266
 2746SOL     OW 9136   1.099   2.327   6.609
 2746SOL    HW1 9137   1.125   2.411   6.655
 2746SOL    HW2 9138   1.001   2.330   6.586
 2747SOL     OW 9139   5.201   5.830   3.770
 2747SOL    HW1 9140   5.205   5.924   3.738
 2747SOL    HW2 9141   5.235   5.769   3.698
 2748SOL     OW 9142   4.340   0.875   4.548
 2748SOL    HW1 9143   4.304   0.937   4.478
 2748SOL    HW2 9144   4.439   0.888   4.557
 2749SOL     OW 9145   5.001   4.035   3.803
 2749SOL    HW1 9146   4.908   4.064   3.826
 2749SOL    HW2 9147   5.060   4.116   3.794
 2750SOL     OW 9148   0.387   6.501   0.746
 2750SOL    HW1 9149   0.390   6.601   0.750
 2750SOL    HW2 9150   0.326   6.466   0.818
 2751SOL     OW 9151   1.818   0.171   0.223
 2751SOL    HW1 9152   1.907   0.217   0.235
 2751SOL    HW2 9153   1.784   0.142   0.312
 2752SOL     OW 9154   6.614   6.353   5.632
 2752SOL    HW1 9155   6.627   6.292   5.553
 2752SOL    HW2 9156   6.687   6.421   5.634
 2753SOL     OW 9157   3.255   5.079   5.352
 2753SOL    HW1 9158   3.306   5.016   5.294
 2753SOL    HW2 9159   3.300   5.168   5.353
 2754SOL     OW 9160   0.774   6.188   4.192
 2754SOL    HW1 9161   0.863   6.193   4.237
 2754SOL    HW2 9162   0.708   6.144   4.252
 2755SOL     OW 9163   3.834   6.029   2.233
 2755SOL    HW1 9164   3.867   6.100   2.294
 2755SOL    HW2 9165   3.912   5.984   2.188
 2756SOL     OW 9166   6.955   3.142   5.610
 2756SOL    HW1 9167   6.871   3.165   5.561
 2756SOL    HW2 9168   6.995   3.059   5.570
 2757SOL     OW 9169   4.547   3.793   6.712
 2757SOL    HW1 9170   4.631   3.846   6.698
 2757SOL    HW2 9171   4.559   3.733   6.791
 2758SOL     OW 9172   0.349   6.700   2.140
 2758SOL    HW1 9173   0.257   6.733   2.159
 2758SOL    HW2 9174   0.387   6.658   2.223
 2759SOL     OW 9175   3.362   3.506   5.363
 2759SOL    HW1 9176   3.410   3.543   5.283
 2759SOL    HW2 9177   3.426   3.494   5.438
 2760SOL     OW 9178   5.911   5.698   2.352
 2760SOL    HW1 9179   5.915   5.794   2.325
 2760SOL    HW2 9180   5.980   5.647   2.302
 2761SOL     OW 9181   1.584   2.984   3.032
 2761SOL    HW1 9182   1.543   3.069   3.066
 2761SOL    HW2 9183   1.682   2.997   3.017
 2762SOL     OW 9184   3.322   1.684   0.871
 2762SOL    HW1 9185   3.308   1.607   0.933
 2762SOL    HW2 9186   3.390   1.746   0.910
 2763SOL     OW 9187   5.927   1.348   3.823
 2763SOL    HW1 9188   5.946   1.334   3.920
 2763SOL    HW2 9189   5.845   1.403   3.813
 2764SOL     OW 9190   0.512   2.774   3.047
 2764SOL    HW1 9191   0.599   2.802   3.088
 2764SOL    HW2 9192   0.475   2.849   2.992
 2765SOL     OW 9193   5.787   6.339   5.963
 2765SOL    HW1 9194   5.718   6.273   5.934
 2765SOL    HW2 9195   5.856   6.349   5.891
 2766SOL     OW 9196   4.588   0.226   0.073
 2766SOL    HW1 9197   4.510   0.287   0.058
 2766SOL    HW2 9198   4.557   0.131   0.067
 2767SOL     OW 9199   0.979   4.872   6.584
 2767SOL    HW1 9200   1.041   4.943   6.552
 2767SOL    HW2 9201   1.022   4.820   6.658
 2768SOL     OW 9202   3.742   6.510   1.198
 2768SOL    HW1 9203   3.834   6.479   1.174
 2768SOL    HW2 9204   3.740   6.533   1.296
 2769SOL     OW 9205   1.159   4.703   5.701
 2769SOL    HW1 9206   1.131   4.792   5.666
 2769SOL    HW2 9207   1.095   4.673   5.772
 2770SOL     OW 9208   2.132   6.966   1.223
 2770SOL    HW1 9209   2.169   6.884   1.266
 2770SOL    HW2 9210   2.079   6.940   1.142
 2771SOL     OW 9211   4.605   0.033   5.323
 2771SOL    HW1 9212   4.642   6.975   5.283
 2771SOL    HW2 9213   4.582   0.097   5.250
 2772SOL     OW 9214   4.823   1.457   3.607
 2772SOL    HW1 9215   4.821   1.437   3.705
 2772SOL    HW2 9216   4.757   1.397   3.560
 2773SOL     OW 9217   6.217   2.586   5.309
 2773SOL    HW1 9218   6.126   2.610   5.277
 2773SOL    HW2 9219   6.214   2.569   5.408
 2774SOL     OW 9220   6.147   0.795   3.900
 2774SOL    HW1 9221   6.135   0.726   3.828
 2774SOL    HW2 9222   6.172   0.882   3.858
 2775SOL     OW 9223   0.028   3.242   4.541
 2775SOL    HW1 9224   0.038   3.277   4.634
 2775SOL    HW2 9225   0.060   3.147   4.538
 2776SOL     OW 9226   4.759   4.552   6.076
 2776SOL    HW1 9227   4.800   4.613   6.144
 2776SOL    HW2 9228   4.780   4.457   6.100
 2777SOL     OW 9229   1.869   2.303   6.701
 2777SOL    HW1 9230   1.812   2.291   6.620
 2777SOL    HW2 9231   1.828   2.371   6.762
 2778SOL     OW 9232   2.752   0.648   6.302
 2778SOL    HW1 9233   2.800   0.563   6.321
 2778SOL    HW2 9234   2.808   0.725   6.332
 2779SOL     OW 9235   5.075   1.146   1.772
 2779SOL    HW1 9236   5.094   1.060   1.726
 2779SOL    HW2 9237   4.976   1.162   1.775
 2780SOL     OW 9238   6.666   1.019   4.802
 2780SOL    HW1 9239   6.607   1.011   4.722
 2780SOL    HW2 9240   6.678   1.116   4.825
 2781SOL     OW 9241   6.303   0.612   3.144
 2781SOL    HW1 9242   6.368   0.683   3.169
 2781SOL    HW2 9243   6.218   0.654   3.112
 2782SOL     OW 9244   5.612   1.068   5.997
 2782SOL    HW1 9245   5.673   1.098   5.924
 2782SOL    HW2 9246   5.660   1.005   6.058
 2783SOL     OW 9247   5.875   3.001   1.523
 2783SOL    HW1 9248   5.924   3.034   1.604
 2783SOL    HW2 9249   5.846   2.907   1.538
 2784SOL     OW 9250   0.273   3.298   1.192
 2784SOL    HW1 9251   0.363   3.260   1.211
 2784SOL    HW2 9252   0.271   3.395   1.217
 2785SOL     OW 9253   5.487   3.676   2.750
 2785SOL    HW1 9254   5.468   3.624   2.666
 2785SOL    HW2 9255   5.409   3.735   2.771
 2786SOL     OW 9256   0.931   6.370   0.543
 2786SOL    HW1 9257   0.888   6.350   0.455
 2786SOL    HW2 9258   1.010   6.310   0.555
 2787SOL     OW 9259   0.547   5.818   6.645
 2787SOL    HW1 9260   0.482   5.758   6.598
 2787SOL    HW2 9261   0.636   5.812   6.600
 2788SOL     OW 9262   2.509   0.012   0.173
 2788SOL    HW1 9263   2.490   6.959   0.232
 2788SOL    HW2 9264   2.500   0.096   0.227
 2789SOL     OW 9265   1.742   2.064   4.539
 2789SOL    HW1 9266   1.812   2.011   4.587
 2789SOL    HW2 9267   1.677   2.100   4.605
 2790SOL     OW 9268   0.413   5.780   1.657
 2790SOL    HW1 9269   0.367   5.793   1.569
 2790SOL    HW2 9270   0.443   5.869   1.692
 2791SOL     OW 9271   0.939   3.102   4.474
 2791SOL    HW1 9272   0.973   3.022   4.524
 2791SOL    HW2 9273   0.981   3.184   4.511
 2792SOL     OW 9274   3.153   1.559   6.064
 2792SOL    HW1 9275   3.134   1.550   5.966
 2792SOL    HW2 9276   3.205   1.643   6.080
 2793SOL     OW 9277   3.693   3.649   0.092
 2793SOL    HW1 9278   3.618   3.713   0.108
 2793SOL    HW2 9279   3.661   3.572   0.037
 2794SOL     OW 9280   1.832   2.071   6.868
 2794SOL    HW1 9281   1.867   2.103   6.956
 2794SOL    HW2 9282   1.835   2.147   6.802
 2795SOL     OW 9283   1.267   6.529   1.041
 2795SOL    HW1 9284   1.311   6.516   1.131
 2795SOL    HW2 9285   1.330   6.579   0.981
 2796SOL     OW 9286   1.997   6.210   6.741
 2796SOL    HW1 9287   1.944   6.127   6.727
 2796SOL    HW2 9288   2.011   6.256   6.653
 2797SOL     OW 9289   4.712   4.220   4.100
 2797SOL    HW1 9290   4.650   4.298   4.106
 2797SOL    HW2 9291   4.807   4.252   4.100
 2798SOL     OW 9292   5.437   1.428   1.886
 2798SOL    HW1 9293   5.488   1.507   1.920
 2798SOL    HW2 9294   5.497   1.348   1.886
 2799SOL     OW 9295   3.386   6.543   4.841
 2799SOL    HW1 9296   3.463   6.540   4.777
 2799SOL    HW2 9297   3.407   6.605   4.916
 2800SOL     OW 9298   4.530   0.672   6.094
 2800SOL    HW1 9299   4.583   0.739   6.145
 2800SOL    HW2 9300   4.434   0.677   6.122
 2801SOL     OW 9301   0.236   4.616   3.646
 2801SOL    HW1 9302   0.236   4.623   3.547
 2801SOL    HW2 9303   0.297   4.542   3.675
 2802SOL     OW 9304   1.234   5.316   4.975
 2802SOL    HW1 9305   1.261   5.247   4.908
 2802SOL    HW2 9306   1.211   5.271   5.062
 2803SOL     OW 9307   3.398   2.514   6.842
 2803SOL    HW1 9308   3.400   2.611   6.817
 2803SOL    HW2 9309   3.322   2.469   6.795
 2804SOL     OW 9310   6.318   2.448   3.382
 2804SOL    HW1 9311   6.240   2.504   3.355
 2804SOL    HW2 9312   6.296   2.352   3.368
 2805SOL     OW 9313   4.096   4.862   0.514
 2805SOL    HW1 9314   4.026   4.931   0.492
 2805SOL    HW2 9315   4.056   4.793   0.575
 2806SOL     OW 9316   0.257   3.333   5.221
 2806SOL    HW1 9317   0.266   3.236   5.242
 2806SOL    HW2 9318   0.309   3.386   5.287
 2807SOL     OW 9319   4.447   1.014   3.889
 2807SOL    HW1 9320   4.415   1.030   3.796
 2807SOL    HW2 9321   4.370   0.991   3.948
 2808SOL     OW 9322   1.128   5.839   6.007
 2808SOL    HW1 9323   1.091   5.811   6.096
 2808SOL    HW2 9324   1.212   5.892   6.022
 2809SOL     OW 9325   0.700   5.966   1.465
 2809SOL    HW1 9326   0.782   6.023   1.459
 2809SOL    HW2 9327   0.628   6.005   1.407
 2810SOL     OW 9328   0.980   6.158   2.915
 2810SOL    HW1 9329   1.073   6.126   2.897
 2810SOL    HW2 9330   0.968   6.249   2.874
 2811SOL     OW 9331   1.171   1.219   0.534
 2811SOL    HW1 9332   1.114   1.296   0.563
 2811SOL    HW2 9333   1.113   1.150   0.491
 2812SOL     OW 9334   1.476   1.724   0.746
 2812SOL    HW1 9335   1.394   1.669   0.724
 2812SOL    HW2 9336   1.558   1.672   0.721
 2813SOL     OW 9337   0.672   3.167   0.989
 2813SOL    HW1 9338   0.711   3.259   0.980
 2813SOL    HW2 9339   0.589   3.161   0.933
 2814SOL     OW 9340   2.640   4.436   0.206
 2814SOL    HW1 9341   2.575   4.404   0.276
 2814SOL    HW2 9342   2.725   4.464   0.251
 2815SOL     OW 9343   0.179   5.360   4.568
 2815SOL    HW1 9344   0.228   5.329   4.487
 2815SOL    HW2 9345   0.179   5.287   4.637
 2816SOL     OW 9346   1.041   5.138   4.790
 2816SOL    HW1 9347   1.139   5.143   4.812
 2816SOL    HW2 9348   0.988   5.135   4.874
 2817SOL     OW 9349   2.978   0.782   2.638
 2817SOL    HW1 9350   3.075   0.768   2.655
 2817SOL    HW2 9351   2.951   0.873   2.668
 2818SOL     OW 9352   1.304   0.440   0.110
 2818SOL    HW1 9353   1.354   0.521   0.141
 2818SOL    HW2 9354   1.206   0.453   0.126
 2819SOL     OW 9355   0.926   0.555   6.627
 2819SOL    HW1 9356   0.873   0.472   6.643
 2819SOL    HW2 9357   0.869   0.622   6.578
 2820SOL     OW 9358   1.761   1.832   6.749
 2820SOL    HW1 9359   1.747   1.757   6.813
 2820SOL    HW2 9360   1.758   1.919   6.799
 2821SOL     OW 9361   3.406   2.780   6.088
 2821SOL    HW1 9362   3.425   2.785   6.186
 2821SOL    HW2 9363   3.414   2.685   6.058
 2822SOL     OW 9364   4.380   3.003   0.557
 2822SOL    HW1 9365   4.442   3.081   0.558
 2822SOL    HW2 9366   4.293   3.031   0.515
 2823SOL     OW 9367   5.146   3.847   1.618
 2823SOL    HW1 9368   5.122   3.816   1.526
 2823SOL    HW2 9369   5.218   3.789   1.656
 2824SOL     OW 9370   0.736   4.605   5.326
 2824SOL    HW1 9371   0.673   4.573   5.255
 2824SOL    HW2 9372   0.685   4.623   5.410
 2825SOL     OW 9373   5.125   1.775   5.963
 2825SOL    HW1 9374   5.195   1.705   5.949
 2825SOL    HW2 9375   5.044   1.753   5.909
 2826SOL     OW 9376   3.095   3.399   0.260
 2826SOL    HW1 9377   3.121   3.447   0.344
 2826SOL    HW2 9378   3.123   3.304   0.267
 2827SOL     OW 9379   5.871   1.968   6.694
 2827SOL    HW1 9380   5.935   2.006   6.760
 2827SOL    HW2 9381   5.809   1.905   6.739
 2828SOL     OW 9382   1.534   4.084   0.913
 2828SOL    HW1 9383   1.624   4.067   0.955
 2828SOL    HW2 9384   1.542   4.157   0.846
 2829SOL     OW 9385   3.594   3.524   1.821
 2829SOL    HW1 9386   3.639   3.583   1.888
 2829SOL    HW2 9387   3.662   3.469   1.773
 2830SOL     OW 9388   3.337   5.650   4.525
 2830SOL    HW1 9389   3.380   5.738   4.508
 2830SOL    HW2 9390   3.328   5.635   4.624
 2831SOL     OW 9391   6.920   1.797   2.132
 2831SOL    HW1 9392   6.989   1.801   2.060
 2831SOL    HW2 9393   6.943   1.722   2.195
 2832SOL     OW 9394   0.855   3.240   2.485
 2832SOL    HW1 9395   0.889   3.275   2.398
 2832SOL    HW2 9396   0.794   3.307   2.528
 2833SOL     OW 9397   6.950   2.726   2.456
 2833SOL    HW1 9398   0.006   2.673   2.434
 2833SOL    HW2 9399   6.945   2.739   2.555
 2834SOL     OW 9400   3.765   0.257   4.317
 2834SOL    HW1 9401   3.767   0.315   4.236
 2834SOL    HW2 9402   3.784   0.311   4.399
 2835SOL     OW 9403   6.904   1.086   6.930
 2835SOL    HW1 9404   6.991   1.051   6.896
 2835SOL    HW2 9405   6.871   1.159   6.870
 2836SOL     OW 9406   3.027   5.189   2.869
 2836SOL    HW1 9407   2.941   5.190   2.818
 2836SOL    HW2 9408   3.050   5.282   2.898
 2837SOL     OW 9409   5.131   4.465   2.076
 2837SOL    HW1 9410   5.100   4.534   2.142
 2837SOL    HW2 9411   5.074   4.383   2.084
 2838SOL     OW 9412   6.746   3.762   6.203
 2838SOL    HW1 9413   6.799   3.694   6.254
 2838SOL    HW2 9414   6.800   3.793   6.124
 2839SOL     OW 9415   5.686   2.468   5.685
 2839SOL    HW1 9416   5.648   2.553   5.722
 2839SOL    HW2 9417   5.786   2.472   5.688
 2840SOL     OW 9418   5.690   6.132   4.254
 2840SOL    HW1 9419   5.717   6.110   4.347
 2840SOL    HW2 9420   5.743   6.211   4.221
 2841SOL     OW 9421   5.317   3.905   2.195
 2841SOL    HW1 9422   5.355   3.994   2.221
 2841SOL    HW2 9423   5.387   3.852   2.147
 2842SOL     OW 9424   0.698   6.899   3.377
 2842SOL    HW1 9425   0.743   6.817   3.413
 2842SOL    HW2 9426   0.684   6.887   3.278
 2843SOL     OW 9427   2.390   2.656   3.827
 2843SOL    HW1 9428   2.463   2.617   3.883
 2843SOL    HW2 9429   2.423   2.740   3.785
 2844SOL     OW 9430   5.285   3.711   0.963
 2844SOL    HW1 9431   5.253   3.677   1.051
 2844SOL    HW2 9432   5.329   3.800   0.975
 2845SOL     OW 9433   3.057   2.128   1.758
 2845SOL    HW1 9434   3.152   2.156   1.744
 2845SOL    HW2 9435   2.996   2.202   1.729
 2846SOL     OW 9436   6.002   0.100   6.632
 2846SOL    HW1 9437   5.989   0.006   6.601
 2846SOL    HW2 9438   6.028   0.101   6.728
 2847SOL     OW 9439   4.917   5.022   0.857
 2847SOL    HW1 9440   4.898   4.967   0.938
 2847SOL    HW2 9441   4.848   5.093   0.847
 2848SOL     OW 9442   0.417   4.408   6.210
 2848SOL    HW1 9443   0.429   4.505   6.232
 2848SOL    HW2 9444   0.505   4.370   6.180
 2849SOL     OW 9445   5.160   0.931   1.623
 2849SOL    HW1 9446   5.156   0.844   1.670
 2849SOL    HW2 9447   5.133   0.918   1.527
 2850SOL     OW 9448   0.851   0.508   2.049
 2850SOL    HW1 9449   0.787   0.474   1.979
 2850SOL    HW2 9450   0.872   0.604   2.030
 2851SOL     OW 9451   3.182   2.854   1.608
 2851SOL    HW1 9452   3.133   2.819   1.529
 2851SOL    HW2 9453   3.209   2.948   1.592
 2852SOL     OW 9454   0.275   5.480   5.277
 2852SOL    HW1 9455   0.227   5.399   5.311
 2852SOL    HW2 9456   0.329   5.521   5.350
 2853SOL     OW 9457   0.281   4.326   5.439
 2853SOL    HW1 9458   0.273   4.385   5.359
 2853SOL    HW2 9459   0.204   4.263   5.442
 2854SOL     OW 9460   2.666   0.480   5.947
 2854SOL    HW1 9461   2.702   0.573   5.952
 2854SOL    HW2 9462   2.741   0.416   5.929
 2855SOL     OW 9463   2.110   0.952   4.468
 2855SOL    HW1 9464   2.090   0.918   4.376
 2855SOL    HW2 9465   2.206   0.935   4.489
 2856SOL     OW 9466   0.542   5.387   4.479
 2856SOL    HW1 9467   0.571   5.461   4.540
 2856SOL    HW2 9468   0.613   5.371   4.411
 2857SOL     OW 9469   6.647   4.102   1.210
 2857SOL    HW1 9470   6.675   4.008   1.193
 2857SOL    HW2 9471   6.690   4.135   1.294
 2858SOL     OW 9472   5.632   4.391   2.977
 2858SOL    HW1 9473   5.575   4.367   2.899
 2858SOL    HW2 9474   5.632   4.490   2.989
 2859SOL     OW 9475   5.929   5.098   1.658
 2859SOL    HW1 9476   5.889   5.013   1.694
 2859SOL    HW2 9477   5.980   5.078   1.575
 2860SOL     OW 9478   1.418   0.063   3.031
 2860SOL    HW1 9479   1.323   0.042   3.007
 2860SOL    HW2 9480   1.420   0.118   3.115
 2861SOL     OW 9481   5.032   4.391   6.060
 2861SOL    HW1 9482   4.981   4.477   6.058
 2861SOL    HW2 9483   5.126   4.408   6.092
 2862SOL     OW 9484   4.632   1.058   0.787
 2862SOL    HW1 9485   4.727   1.048   0.756
 2862SOL    HW2 9486   4.571   1.059   0.708
 2863SOL     OW 9487   5.841   2.415   5.364
 2863SOL    HW1 9488   5.883   2.387   5.278
 2863SOL    HW2 9489   5.911   2.441   5.430
 2864SOL     OW 9490   4.130   4.274   1.011
 2864SOL    HW1 9491   4.088   4.207   0.950
 2864SOL    HW2 9492   4.066   4.295   1.086
 2865SOL     OW 9493   5.782   5.420   5.562
 2865SOL    HW1 9494   5.811   5.412   5.658
 2865SOL    HW2 9495   5.748   5.513   5.545
 2866SOL     OW 9496   3.725   4.784   0.803
 2866SOL    HW1 9497   3.753   4.751   0.894
 2866SOL    HW2 9498   3.655   4.723   0.766
 2867SOL     OW 9499   6.496   6.400   3.025
 2867SOL    HW1 9500   6.520   6.429   3.118
 2867SOL    HW2 9501   6.548   6.453   2.958
 2868SOL     OW 9502   0.141   0.016   5.394
 2868SOL    HW1 9503   0.202   6.990   5.333
 2868SOL    HW2 9504   0.085   0.078   5.339
 2869SOL     OW 9505   6.043   4.848   4.459
 2869SOL    HW1 9506   6.124   4.871   4.513
 2869SOL    HW2 9507   6.044   4.750   4.438
 2870SOL     OW 9508   0.913   0.727   1.732
 2870SOL    HW1 9509   0.988   0.758   1.790
 2870SOL    HW2 9510   0.844   0.682   1.789
 2871SOL     OW 9511   4.752   1.392   3.284
 2871SOL    HW1 9512   4.712   1.338   3.358
 2871SOL    HW2 9513   4.851   1.382   3.286
 2872SOL     OW 9514   2.750   1.990   2.527
 2872SOL    HW1 9515   2.803   1.908   2.546
 2872SOL    HW2 9516   2.676   1.968   2.463
 2873SOL     OW 9517   1.457   0.609   2.126
 2873SOL    HW1 9518   1.428   0.564   2.041
 2873SOL    HW2 9519   1.398   0.580   2.201
 2874SOL     OW 9520   2.173   0.979   3.600
 2874SOL    HW1 9521   2.175   0.895   3.547
 2874SOL    HW2 9522   2.128   1.051   3.548
 2875SOL     OW 9523   2.532   0.309   3.247
 2875SOL    HW1 9524   2.598   0.283   3.318
 2875SOL    HW2 9525   2.440   0.310   3.285
 2876SOL     OW 9526   1.190   6.201   0.986
 2876SOL    HW1 9527   1.101   6.178   0.947
 2876SOL    HW2 9528   1.198   6.301   0.993
 2877SOL     OW 9529   1.875   2.680   4.924
 2877SOL    HW1 9530   1.848   2.755   4.863
 2877SOL    HW2 9531   1.974   2.682   4.936
 2878SOL     OW 9532   3.833   2.957   4.685
 2878SOL    HW1 9533   3.838   2.885   4.755
 2878SOL    HW2 9534   3.861   3.044   4.725
 2879SOL     OW 9535   5.292   5.128   6.918
 2879SOL    HW1 9536   5.273   5.033   6.941
 2879SOL    HW2 9537   5.316   5.179   7.001
 2880SOL     OW 9538   1.848   1.733   3.793
 2880SOL    HW1 9539   1.912   1.776   3.856
 2880SOL    HW2 9540   1.898   1.684   3.722
 2881SOL     OW 9541   5.178   5.254   0.975
 2881SOL    HW1 9542   5.239   5.175   0.981
 2881SOL    HW2 9543   5.099   5.239   1.036
 2882SOL     OW 9544   4.593   6.326   0.217
 2882SOL    HW1 9545   4.658   6.296   0.146
 2882SOL    HW2 9546   4.511   6.269   0.213
 2883SOL     OW 9547   5.621   6.332   3.872
 2883SOL    HW1 9548   5.631   6.431   3.861
 2883SOL    HW2 9549   5.564   6.313   3.953
 2884SOL     OW 9550   6.368   5.497   3.620
 2884SOL    HW1 9551   6.409   5.549   3.695
 2884SOL    HW2 9552   6.270   5.489   3.635
 2885SOL     OW 9553   0.758   2.950   3.835
 2885SOL    HW1 9554   0.660   2.945   3.814
 2885SOL    HW2 9555   0.811   2.935   3.751
 2886SOL     OW 9556   2.378   4.780   5.010
 2886SOL    HW1 9557   2.453   4.763   5.074
 2886SOL    HW2 9558   2.303   4.827   5.057
 2887SOL     OW 9559   6.570   5.717   2.666
 2887SOL    HW1 9560   6.583   5.656   2.744
 2887SOL    HW2 9561   6.606   5.672   2.583
 2888SOL     OW 9562   5.409   6.925   6.841
 2888SOL    HW1 9563   5.407   6.832   6.876
 2888SOL    HW2 9564   5.448   6.986   6.910
 2889SOL     OW 9565   4.496   6.547   4.503
 2889SOL    HW1 9566   4.566   6.609   4.539
 2889SOL    HW2 9567   4.457   6.494   4.578
 2890SOL     OW 9568   1.179   2.628   0.556
 2890SOL    HW1 9569   1.090   2.616   0.512
 2890SOL    HW2 9570   1.239   2.553   0.530
 2891SOL     OW 9571   0.807   1.607   5.493
 2891SOL    HW1 9572   0.726   1.571   5.447
 2891SOL    HW2 9573   0.881   1.540   5.487
 2892SOL     OW 9574   5.364   4.663   1.983
 2892SOL    HW1 9575   5.283   4.605   1.996
 2892SOL    HW2 9576   5.412   4.635   1.901
 2893SOL     OW 9577   6.817   5.443   4.881
 2893SOL    HW1 9578   6.773   5.398   4.803
 2893SOL    HW2 9579   6.753   5.446   4.958
 2894SOL     OW 9580   1.839   5.517   0.997
 2894SOL    HW1 9581   1.887   5.434   0.970
 2894SOL    HW2 9582   1.905   5.583   1.034
 2895SOL     OW 9583   4.684   6.868   6.252
 2895SOL    HW1 9584   4.770   6.901   6.292
 2895SOL    HW2 9585   4.636   6.810   6.319
 2896SOL     OW 9586   6.270   0.497   5.241
 2896SOL    HW1 9587   6.262   0.557   5.320
 2896SOL    HW2 9588   6.348   0.434   5.254
 2897SOL     OW 9589   3.152   5.128   3.228
 2897SOL    HW1 9590   3.222   5.123   3.299
 2897SOL    HW2 9591   3.132   5.036   3.195
 2898SOL     OW 9592   5.188   2.316   3.435
 2898SOL    HW1 9593   5.248   2.344   3.360
 2898SOL    HW2 9594   5.117   2.385   3.450
 2899SOL     OW 9595   6.446   3.190   0.715
 2899SOL    HW1 9596   6.356   3.148   0.726
 2899SOL    HW2 9597   6.436   3.290   0.712
 2900SOL     OW 9598   2.579   2.438   6.195
 2900SOL    HW1 9599   2.618   2.519   6.151
 2900SOL    HW2 9600   2.562   2.368   6.126
 2901SOL     OW 9601   1.100   3.881   2.334
 2901SOL    HW1 9602   1.159   3.800   2.336
 2901SOL    HW2 9603   1.026   3.870   2.400
 2902SOL     OW 9604   5.699   5.371   3.538
 2902SOL    HW1 9605   5.772   5.349   3.603
 2902SOL    HW2 9606   5.698   5.301   3.466
 2903SOL     OW 9607   6.503   4.630   0.252
 2903SOL    HW1 9608   6.405   4.636   0.236
 2903SOL    HW2 9609   6.544   4.721   0.249
 2904SOL     OW 9610   2.969   4.848   4.617
 2904SOL    HW1 9611   3.032   4.885   4.686
 2904SOL    HW2 9612   3.020   4.792   4.552
 2905SOL     OW 9613   1.561   5.276   1.181
 2905SOL    HW1 9614   1.493   5.236   1.242
 2905SOL    HW2 9615   1.653   5.254   1.214
 2906SOL     OW 9616   6.448   6.096   5.609
 2906SOL    HW1 9617   6.476   6.016   5.661
 2906SOL    HW2 9618   6.495   6.097   5.521
 2907SOL     OW 9619   0.212   1.034   5.398
 2907SOL    HW1 9620   0.201   0.983   5.313
 2907SOL    HW2 9621   0.307   1.025   5.430
 2908SOL     OW 9622   4.100   0.151   3.661
 2908SOL    HW1 9623   4.117   0.167   3.564
 2908SOL    HW2 9624   4.115   0.054   3.682
 2909SOL     OW 9625   6.883   6.916   1.784
 2909SOL    HW1 9626   6.983   6.915   1.774
 2909SOL    HW2 9627   6.857   6.981   1.855
 2910SOL     OW 9628   1.150   0.919   4.431
 2910SOL    HW1 9629   1.197   0.846   4.381
 2910SOL    HW2 9630   1.205   1.002   4.430
 2911SOL     OW 9631   0.334   3.992   5.790
 2911SOL    HW1 9632   0.376   3.996   5.699
 2911SOL    HW2 9633   0.405   4.004   5.859
 2912SOL     OW 9634   0.935   1.589   2.233
 2912SOL    HW1 9635   0.933   1.531   2.151
 2912SOL    HW2 9636   0.841   1.608   2.262
 2913SOL     OW 9637   1.201   7.025   2.782
 2913SOL    HW1 9638   1.188   6.937   2.827
 2913SOL    HW2 9639   1.115   0.029   2.741
 2914SOL     OW 9640   3.764   4.487   1.313
 2914SOL    HW1 9641   3.809   4.571   1.284
 2914SOL    HW2 9642   3.671   4.485   1.278
 2915SOL     OW 9643   2.647   0.758   4.088
 2915SOL    HW1 9644   2.714   0.716   4.028
 2915SOL    HW2 9645   2.613   0.843   4.046
 2916SOL     OW 9646   0.909   5.435   0.135
 2916SOL    HW1 9647   0.826   5.392   0.171
 2916SOL    HW2 9648   0.885   5.516   0.083
 2917SOL     OW 9649   2.613   0.365   3.000
 2917SOL    HW1 9650   2.600   0.330   3.093
 2917SOL    HW2 9651   2.526   0.402   2.966
 2918SOL     OW 9652   5.141   2.438   1.387
 2918SOL    HW1 9653   5.114   2.426   1.483
 2918SOL    HW2 9654   5.165   2.533   1.371
 2919SOL     OW 9655   0.289   6.105   5.040
 2919SOL    HW1 9656   0.206   6.113   4.986
 2919SOL    HW2 9657   0.336   6.020   5.017
 2920SOL     OW 9658   2.859   2.295   1.663
 2920SOL    HW1 9659   2.870   2.353   1.744
 2920SOL    HW2 9660   2.775   2.319   1.616
 2921SOL     OW 9661   1.442   6.553   3.480
 2921SOL    HW1 9662   1.494   6.542   3.566
 2921SOL    HW2 9663   1.361   6.496   3.484
 2922SOL     OW 9664   4.116   4.826   3.975
 2922SOL    HW1 9665   4.057   4.824   3.894
 2922SOL    HW2 9666   4.068   4.873   4.049
 2923SOL     OW 9667   0.870   5.433   4.304
 2923SOL    HW1 9668   0.869   5.526   4.340
 2923SOL    HW2 9669   0.865   5.368   4.380
 2924SOL     OW 9670   5.331   1.883   6.492
 2924SOL    HW1 9671   5.300   1.852   6.402
 2924SOL    HW2 9672   5.316   1.811   6.559
 2925SOL     OW 9673   5.474   6.782   4.627
 2925SOL    HW1 9674   5.519   6.856   4.676
 2925SOL    HW2 9675   5.449   6.710   4.692
 2926SOL     OW 9676   6.894   2.344   4.838
 2926SOL    HW1 9677   6.920   2.338   4.742
 2926SOL    HW2 9678   6.912   2.436   4.872
 2927SOL     OW 9679   1.470   1.752   2.383
 2927SOL    HW1 9680   1.412   1.671   2.377
 2927SOL    HW2 9681   1.436   1.814   2.454
 2928SOL     OW 9682   5.658   2.785   0.096
 2928SOL    HW1 9683   5.701   2.711   0.147
 2928SOL    HW2 9684   5.725   2.829   0.037
 2929SOL     OW 9685   2.604   1.839   3.578
 2929SOL    HW1 9686   2.671   1.796   3.638
 2929SOL    HW2 9687   2.651   1.902   3.515
 2930SOL     OW 9688   0.217   3.613   4.136
 2930SOL    HW1 9689   0.290   3.676   4.161
 2930SOL    HW2 9690   0.211   3.541   4.205
 2931SOL     OW 9691   5.565   4.898   5.485
 2931SOL    HW1 9692   5.528   4.956   5.557
 2931SOL    HW2 9693   5.505   4.819   5.470
 2932SOL     OW 9694   6.277   4.975   1.311
 2932SOL    HW1 9695   6.376   4.994   1.315
 2932SOL    HW2 9696   6.246   4.981   1.217
 2933SOL     OW 9697   1.400   6.847   0.219
 2933SOL    HW1 9698   1.404   6.854   0.120
 2933SOL    HW2 9699   1.381   6.937   0.258
 2934SOL     OW 9700   4.811   5.033   1.861
 2934SOL    HW1 9701   4.759   5.117   1.846
 2934SOL    HW2 9702   4.888   5.051   1.922
 2935SOL     OW 9703   0.875   2.807   5.909
 2935SOL    HW1 9704   0.949   2.864   5.873
 2935SOL    HW2 9705   0.792   2.821   5.855
 2936SOL     OW 9706   4.629   0.196   2.283
 2936SOL    HW1 9707   4.550   0.254   2.303
 2936SOL    HW2 9708   4.599   0.108   2.248
 2937SOL     OW 9709   5.949   3.482   3.211
 2937SOL    HW1 9710   5.930   3.422   3.134
 2937SOL    HW2 9711   5.957   3.577   3.179
 2938SOL     OW 9712   0.392   4.831   0.151
 2938SOL    HW1 9713   0.407   4.732   0.152
 2938SOL    HW2 9714   0.365   4.861   0.243
 2939SOL     OW 9715   6.933   6.027   1.533
 2939SOL    HW1 9716   6.870   5.968   1.584
 2939SOL    HW2 9717   6.956   5.983   1.446
 2940SOL     OW 9718   4.537   6.384   3.845
 2940SOL    HW1 9719   4.467   6.418   3.908
 2940SOL    HW2 9720   4.505   6.300   3.802
 2941SOL     OW 9721   2.508   5.043   2.867
 2941SOL    HW1 9722   2.475   5.137   2.856
 2941SOL    HW2 9723   2.534   5.027   2.962
 2942SOL     OW 9724   3.623   2.169   1.658
 2942SOL    HW1 9725   3.641   2.239   1.727
 2942SOL    HW2 9726   3.670   2.193   1.573
 2943SOL     OW 9727   5.985   3.213   3.613
 2943SOL    HW1 9728   6.059   3.153   3.642
 2943SOL    HW2 9729   5.899   3.183   3.655
 2944SOL     OW 9730   1.508   5.904   2.733
 2944SOL    HW1 9731   1.442   5.857   2.793
 2944SOL    HW2 9732   1.478   5.998   2.718
 2945SOL     OW 9733   5.783   3.760   1.594
 2945SOL    HW1 9734   5.827   3.821   1.660
 2945SOL    HW2 9735   5.688   3.790   1.579
 2946SOL     OW 9736   3.486   2.879   4.334
 2946SOL    HW1 9737   3.525   2.872   4.426
 2946SOL    HW2 9738   3.546   2.834   4.269
 2947SOL     OW 9739   6.547   4.908   0.833
 2947SOL    HW1 9740   6.595   4.930   0.918
 2947SOL    HW2 9741   6.526   4.811   0.830
 2948SOL     OW 9742   6.927   3.820   1.799
 2948SOL    HW1 9743   6.869   3.781   1.870
 2948SOL    HW2 9744   6.913   3.918   1.793
 2949SOL     OW 9745   1.505   6.490   0.434
 2949SOL    HW1 9746   1.436   6.439   0.383
 2949SOL    HW2 9747   1.467   6.578   0.463
 2950SOL     OW 9748   6.164   5.997   2.561
 2950SOL    HW1 9749   6.258   5.974   2.535
 2950SOL    HW2 9750   6.124   6.056   2.491
 2951SOL     OW 9751   0.867   2.342   1.385
 2951SOL    HW1 9752   0.804   2.288   1.329
 2951SOL    HW2 9753   0.941   2.283   1.418
 2952SOL     OW 9754   0.123   2.048   4.806
 2952SOL    HW1 9755   0.214   2.011   4.785
 2952SOL    HW2 9756   0.068   2.049   4.722
 2953SOL     OW 9757   1.797   5.639   3.115
 2953SOL    HW1 9758   1.732   5.623   3.041
 2953SOL    HW2 9759   1.849   5.723   3.096
 2954SOL     OW 9760   0.637   4.646   6.349
 2954SOL    HW1 9761   0.658   4.733   6.394
 2954SOL    HW2 9762   0.717   4.587   6.349
 2955SOL     OW 9763   1.516   4.548   6.291
 2955SOL    HW1 9764   1.566   4.561   6.206
 2955SOL    HW2 9765   1.443   4.615   6.298
 2956SOL     OW 9766   5.558   4.342   4.179
 2956SOL    HW1 9767   5.496   4.274   4.218
 2956SOL    HW2 9768   5.637   4.296   4.140
 2957SOL     OW 9769   2.313   5.233   1.797
 2957SOL    HW1 9770   2.309   5.147   1.745
 2957SOL    HW2 9771   2.359   5.217   1.884
 2958SOL     OW 9772   1.600   4.131   2.048
 2958SOL    HW1 9773   1.517   4.133   1.991
 2958SOL    HW2 9774   1.607   4.216   2.099
 2959SOL     OW 9775   0.290   3.855   3.934
 2959SOL    HW1 9776   0.217   3.813   3.989
 2959SOL    HW2 9777   0.285   3.821   3.840
 2960SOL     OW 9778   4.882   6.241   0.993
 2960SOL    HW1 9779   4.808   6.303   0.967
 2960SOL    HW2 9780   4.854   6.188   1.073
 2961SOL     OW 9781   5.572   2.492   1.289
 2961SOL    HW1 9782   5.489   2.475   1.236
 2961SOL    HW2 9783   5.568   2.441   1.375
 2962SOL     OW 9784   0.236   0.290   3.797
 2962SOL    HW1 9785   0.298   0.213   3.783
 2962SOL    HW2 9786   0.281   0.375   3.768
 2963SOL     OW 9787   1.355   0.241   4.932
 2963SOL    HW1 9788   1.306   0.174   4.987
 2963SOL    HW2 9789   1.395   0.310   4.992
 2964SOL     OW 9790   1.613   0.448   6.485
 2964SOL    HW1 9791   1.587   0.434   6.581
 2964SOL    HW2 9792   1.558   0.522   6.446
 2965SOL     OW 9793   6.239   0.292   6.089
 2965SOL    HW1 9794   6.249   0.391   6.099
 2965SOL    HW2 9795   6.144   0.266   6.103
 2966SOL     OW 9796   3.303   4.916   2.652
 2966SOL    HW1 9797   3.360   4.869   2.584
 2966SOL    HW2 9798   3.353   4.923   2.738
 2967SOL     OW 9799   5.974   6.642   5.003
 2967SOL    HW1 9800   5.885   6.667   5.041
 2967SOL    HW2 9801   6.040   6.713   5.024
 2968SOL     OW 9802   1.152   4.064   1.244
 2968SOL    HW1 9803   1.197   4.025   1.324
 2968SOL    HW2 9804   1.145   3.994   1.172
 2969SOL     OW 9805   4.548   2.264   4.682
 2969SOL    HW1 9806   4.559   2.165   4.672
 2969SOL    HW2 9807   4.457   2.285   4.716
 2970SOL     OW 9808   2.612   2.707   6.138
 2970SOL    HW1 9809   2.650   2.795   6.110
 2970SOL    HW2 9810   2.514   2.704   6.116
 2971SOL     OW 9811   4.919   3.641   6.920
 2971SOL    HW1 9812   4.863   3.691   6.987
 2971SOL    HW2 9813   4.862   3.572   6.875
 2972SOL     OW 9814   0.142   5.482   6.758
 2972SOL    HW1 9815   0.042   5.484   6.768
 2972SOL    HW2 9816   0.171   5.558   6.701
 2973SOL     OW 9817   5.753   0.874   4.318
 2973SOL    HW1 9818   5.853   0.867   4.320
 2973SOL    HW2 9819   5.713   0.786   4.343
 2974SOL     OW 9820   5.229   6.368   2.208
 2974SOL    HW1 9821   5.259   6.447   2.263
 2974SOL    HW2 9822   5.195   6.296   2.269
 2975SOL     OW 9823   6.639   3.679   4.842
 2975SOL    HW1 9824   6.614   3.774   4.823
 2975SOL    HW2 9825   6.734   3.675   4.871
 2976SOL     OW 9826   3.525   0.546   1.340
 2976SOL    HW1 9827   3.534   0.597   1.426
 2976SOL    HW2 9828   3.523   0.610   1.263
 2977SOL     OW 9829   1.214   1.089   1.808
 2977SOL    HW1 9830   1.241   1.001   1.770
 2977SOL    HW2 9831   1.266   1.162   1.763
 2978SOL     OW 9832   3.086   5.340   0.127
 2978SOL    HW1 9833   3.184   5.352   0.115
 2978SOL    HW2 9834   3.056   5.259   0.076
 2979SOL     OW 9835   2.992   1.026   5.234
 2979SOL    HW1 9836   2.985   1.032   5.135
 2979SOL    HW2 9837   2.911   0.979   5.270
 2980SOL     OW 9838   3.537   3.163   4.129
 2980SOL    HW1 9839   3.493   3.095   4.071
 2980SOL    HW2 9840   3.492   3.252   4.116
 2981SOL     OW 9841   2.846   1.600   1.655
 2981SOL    HW1 9842   2.772   1.591   1.589
 2981SOL    HW2 9843   2.886   1.692   1.649
 2982SOL     OW 9844   1.805   0.802   0.970
 2982SOL    HW1 9845   1.848   0.818   1.059
 2982SOL    HW2 9846   1.845   0.864   0.902
 2983SOL     OW 9847   6.718   3.217   5.928
 2983SOL    HW1 9848   6.654   3.183   5.859
 2983SOL    HW2 9849   6.699   3.313   5.947
 2984SOL     OW 9850   0.211   6.386   1.733
 2984SOL    HW1 9851   0.280   6.314   1.729
 2984SOL    HW2 9852   0.141   6.369   1.664
 2985SOL     OW 9853   6.443   0.391   6.515
 2985SOL    HW1 9854   6.387   0.474   6.519
 2985SOL    HW2 9855   6.489   0.377   6.602
 2986SOL     OW 9856   3.559   3.280   2.005
 2986SOL    HW1 9857   3.600   3.362   1.966
 2986SOL    HW2 9858   3.506   3.305   2.086
 2987SOL     OW 9859   1.932   5.509   4.562
 2987SOL    HW1 9860   2.012   5.560   4.529
 2987SOL    HW2 9861   1.867   5.497   4.486
 2988SOL     OW 9862   6.636   2.193   6.289
 2988SOL    HW1 9863   6.696   2.216   6.366
 2988SOL    HW2 9864   6.645   2.096   6.268
 2989SOL     OW 9865   5.734   3.625   4.988
 2989SOL    HW1 9866   5.708   3.531   5.011
 2989SOL    HW2 9867   5.828   3.626   4.953
 2990SOL     OW 9868   5.676   1.827   5.765
 2990SOL    HW1 9869   5.639   1.760   5.830
 2990SOL    HW2 9870   5.692   1.914   5.812
 2991SOL     OW 9871   6.848   3.360   0.250
 2991SOL    HW1 9872   6.883   3.289   0.311
 2991SOL    HW2 9873   6.751   3.343   0.232
 2992SOL     OW 9874   0.885   3.843   5.226
 2992SOL    HW1 9875   0.863   3.917   5.162
 2992SOL    HW2 9876   0.942   3.775   5.180
 2993SOL     OW 9877   3.261   5.182   1.003
 2993SOL    HW1 9878   3.247   5.226   0.915
 2993SOL    HW2 9879   3.175   5.138   1.032
 2994SOL     OW 9880   3.314   5.226   4.462
 2994SOL    HW1 9881   3.322   5.317   4.503
 2994SOL    HW2 9882   3.223   5.217   4.421
 2995SOL     OW 9883   4.608   0.947   1.818
 2995SOL    HW1 9884   4.683   1.011   1.804
 2995SOL    HW2 9885   4.529   0.976   1.764
 2996SOL     OW 9886   6.448   1.340   4.058
 2996SOL    HW1 9887   6.517   1.360   4.127
 2996SOL    HW2 9888   6.413   1.425   4.020
 2997SOL     OW 9889   4.843   6.146   4.076
 2997SOL    HW1 9890   4.918   6.095   4.033
 2997SOL    HW2 9891   4.827   6.231   4.026
 2998SOL     OW 9892   2.497   0.833   1.695
 2998SOL    HW1 9893   2.494   0.761   1.625
 2998SOL    HW2 9894   2.472   0.920   1.654
 2999SOL     OW 9895   2.116   4.466   0.589
 2999SOL    HW1 9896   2.078   4.383   0.548
 2999SOL    HW2 9897   2.212   4.449   0.614
 3000SOL     OW 9898   2.103   4.014   5.172
 3000SOL    HW1 9899   2.083   4.096   5.225
 3000SOL    HW2 9900   2.189   4.027   5.121
 3001SOL     OW 9901   4.246   0.728   6.196
 3001SOL    HW1 9902   4.200   0.722   6.108
 3001SOL    HW2 9903   4.253   0.823   6.224
 3002SOL     OW 9904   1.402   2.213   2.066
 3002SOL    HW1 9905   1.360   2.303   2.052
 3002SOL    HW2 9906   1.467   2.218   2.141
 3003SOL     OW 9907   1.319   5.996   1.168
 3003SOL    HW1 9908   1.263   6.041   1.098
 3003SOL    HW2 9909   1.415   6.003   1.143
 3004SOL     OW 9910   3.112   6.630   3.833
 3004SOL    HW1 9911   3.104   6.722   3.792
 3004SOL    HW2 9912   3.168   6.573   3.773
 3005SOL     OW 9913   2.752   1.998   0.729
 3005SOL    HW1 9914   2.760   2.001   0.829
 3005SOL    HW2 9915   2.686   2.067   0.699
 3006SOL     OW 9916   5.606   1.584   5.896
 3006SOL    HW1 9917   5.509   1.577   5.875
 3006SOL    HW2 9918   5.627   1.528   5.977
 3007SOL     OW 9919   5.983   5.520   5.972
 3007SOL    HW1 9920   6.015   5.590   5.908
 3007SOL    HW2 9921   6.007   5.547   6.065
 3008SOL     OW 9922   4.869   4.164   5.468
 3008SOL    HW1 9923   4.894   4.260   5.475
 3008SOL    HW2 9924   4.950   4.110   5.443
 3009SOL     OW 9925   5.496   3.233   1.756
 3009SOL    HW1 9926   5.579   3.269   1.798
 3009SOL    HW2 9927   5.520   3.176   1.677
 3010SOL     OW 9928   4.711   5.020   1.437
 3010SOL    HW1 9929   4.614   5.037   1.417
 3010SOL    HW2 9930   4.768   5.073   1.375
 3011SOL     OW 9931   5.816   6.945   0.727
 3011SOL    HW1 9932   5.820   6.937   0.628
 3011SOL    HW2 9933   5.879   7.016   0.758
 3012SOL     OW 9934   2.319   1.561   4.678
 3012SOL    HW1 9935   2.236   1.616   4.690
 3012SOL    HW2 9936   2.310   1.476   4.730
 3013SOL     OW 9937   0.689   5.102   5.760
 3013SOL    HW1 9938   0.654   5.012   5.785
 3013SOL    HW2 9939   0.672   5.167   5.834
 3014SOL     OW 9940   4.290   0.004   6.646
 3014SOL    HW1 9941   4.307   0.100   6.667
 3014SOL    HW2 9942   4.305   7.014   6.549
 3015SOL     OW 9943   2.446   0.421   6.087
 3015SOL    HW1 9944   2.529   0.446   6.037
 3015SOL    HW2 9945   2.426   0.324   6.071
 3016SOL     OW 9946   2.741   0.727   4.342
 3016SOL    HW1 9947   2.726   0.823   4.367
 3016SOL    HW2 9948   2.724   0.715   4.245
 3017SOL     OW 9949   1.260   5.953   0.472
 3017SOL    HW1 9950   1.231   5.958   0.376
 3017SOL    HW2 9951   1.337   6.016   0.486
 3018SOL     OW 9952   3.267   1.914   2.041
 3018SOL    HW1 9953   3.352   1.949   2.002
 3018SOL    HW2 9954   3.203   1.990   2.052
 3019SOL     OW 9955   1.473   6.935   5.901
 3019SOL    HW1 9956   1.411   6.928   5.822
 3019SOL    HW2 9957   1.511   0.001   5.905
 3020SOL     OW 9958   4.833   4.545   6.883
 3020SOL    HW1 9959   4.919   4.531   6.932
 3020SOL    HW2 9960   4.804   4.460   6.839
 3021SOL     OW 9961   5.333   0.122   4.619
 3021SOL    HW1 9962   5.347   0.063   4.540
 3021SOL    HW2 9963   5.299   0.068   4.696
 3022SOL     OW 9964   4.516   6.792   4.302
 3022SOL    HW1 9965   4.558   6.782   4.212
 3022SOL    HW2 9966   4.455   6.715   4.320
 3023SOL     OW 9967   5.732   4.424   4.807
 3023SOL    HW1 9968   5.637   4.404   4.830
 3023SOL    HW2 9969   5.736   4.503   4.746
 3024SOL     OW 9970   0.168   0.885   0.462
 3024SOL    HW1 9971   0.115   0.896   0.378
 3024SOL    HW2 9972   0.264   0.904   0.444
 3025SOL     OW 9973   3.883   5.360   0.849
 3025SOL    HW1 9974   3.928   5.375   0.937
 3025SOL    HW2 9975   3.784   5.357   0.861
 3026SOL     OW 9976   0.231   0.580   2.281
 3026SOL    HW1 9977   0.314   0.530   2.305
 3026SOL    HW2 9978   0.250   0.646   2.209
 3027SOL     OW 9979   4.194   6.643   0.559
 3027SOL    HW1 9980   4.150   6.611   0.476
 3027SOL    HW2 9981   4.245   6.727   0.540
 3028SOL     OW 9982   3.626   3.357   4.613
 3028SOL    HW1 9983   3.528   3.351   4.593
 3028SOL    HW2 9984   3.676   3.293   4.554
 3029SOL     OW 9985   6.886   3.140   4.884
 3029SOL    HW1 9986   6.832   3.057   4.902
 3029SOL    HW2 9987   6.826   3.211   4.847
 3030SOL     OW 9988   1.372   2.566   6.428
 3030SOL    HW1 9989   1.339   2.658   6.450
 3030SOL    HW2 9990   1.415   2.526   6.509
 3031SOL     OW 9991   0.375   5.647   0.494
 3031SOL    HW1 9992   0.421   5.719   0.546
 3031SOL    HW2 9993   0.409   5.646   0.400
 3032SOL     OW 9994   2.646   6.929   3.481
 3032SOL    HW1 9995   2.571   6.873   3.444
 3032SOL    HW2 9996   2.730   6.909   3.431
 3033SOL     OW 9997   1.651   1.328   6.472
 3033SOL    HW1 9998   1.617   1.411   6.514
 3033SOL    HW2 9999   1.726   1.350   6.410
 3034SOL     OW10000   5.469   3.236   3.577
 3034SOL    HW110001   5.465   3.270   3.671
 3034SOL    HW210002   5.427   3.303   3.516
 3035SOL     OW10003   0.206   3.413   0.117
 3035SOL    HW110004   0.212   3.424   0.216
 3035SOL    HW210005   0.129   3.466   0.081
 3036SOL     OW10006   3.576   2.763   5.746
 3036SOL    HW110007   3.485   2.753   5.707
 3036SOL    HW210008   3.577   2.838   5.812
 3037SOL     OW10009   0.787   5.037   6.745
 3037SOL    HW110010   0.705   5.000   6.788
 3037SOL    HW210011   0.825   4.969   6.682
 3038SOL     OW10012   5.786   5.096   5.721
 3038SOL    HW110013   5.804   5.032   5.796
 3038SOL    HW210014   5.842   5.177   5.732
 3039SOL     OW10015   5.539   3.691   5.670
 3039SOL    HW110016   5.490   3.648   5.746
 3039SOL    HW210017   5.557   3.787   5.692
 3040SOL     OW10018   4.058   6.300   5.841
 3040SOL    HW110019   4.149   6.277   5.806
 3040SOL    HW210020   4.037   6.244   5.921
 3041SOL     OW10021   1.461   5.426   6.136
 3041SOL    HW110022   1.386   5.470   6.087
 3041SOL    HW210023   1.431   5.336   6.168
 3042SOL     OW10024   0.212   4.591   4.355
 3042SOL    HW110025   0.176   4.498   4.347
 3042SOL    HW210026   0.160   4.652   4.295
 3043SOL     OW10027   3.122   4.344   1.704
 3043SOL    HW110028   3.044   4.371   1.760
 3043SOL    HW210029   3.136   4.411   1.631
 3044SOL     OW10030   3.799   3.575   4.639
 3044SOL    HW110031   3.843   3.531   4.718
 3044SOL    HW210032   3.715   3.526   4.616
 3045SOL     OW10033   5.712   1.522   2.236
 3045SOL    HW110034   5.741   1.604   2.187
 3045SOL    HW210035   5.627   1.540   2.285
 3046SOL     OW10036   5.849   5.829   1.635
 3046SOL    HW110037   5.807   5.746   1.673
 3046SOL    HW210038   5.924   5.803   1.574
 3047SOL     OW10039   6.328   1.548   4.391
 3047SOL    HW110040   6.325   1.624   4.456
 3047SOL    HW210041   6.234   1.516   4.374
 3048SOL     OW10042   4.277   4.916   1.592
 3048SOL    HW110043   4.322   4.996   1.629
 3048SOL    HW210044   4.283   4.917   1.492
 3049SOL     OW10045   0.737   2.025   2.272
 3049SOL    HW110046   0.708   1.950   2.212
 3049SOL    HW210047   0.670   2.098   2.270
 3050SOL     OW10048   3.235   2.360   6.702
 3050SOL    HW110049   3.267   2.288   6.641
 3050SOL    HW210050   3.140   2.343   6.727
 3051SOL     OW10051   2.214   5.035   5.892
 3051SOL    HW110052   2.124   4.994   5.906
 3051SOL    HW210053   2.207   5.111   5.827
 3052SOL     OW10054   6.797   6.454   3.837
 3052SOL    HW110055   6.743   6.511   3.899
 3052SOL    HW210056   6.771   6.358   3.849
 3053SOL     OW10057   0.670   4.311   0.014
 3053SOL    HW110058   0.573   4.329   7.022
 3053SOL    HW210059   0.704   4.244   6.974
 3054SOL     OW10060   5.517   0.198   2.799
 3054SOL    HW110061   5.451   0.189   2.724
 3054SOL    HW210062   5.468   0.213   2.885
 3055SOL     OW10063   5.394   6.532   0.374
 3055SOL    HW110064   5.393   6.438   0.342
 3055SOL    HW210065   5.346   6.590   0.309
 3056SOL     OW10066   4.539   1.896   0.235
 3056SOL    HW110067   4.632   1.934   0.237
 3056SOL    HW210068   4.501   1.905   0.143
 3057SOL     OW10069   6.216   3.730   3.416
 3057SOL    HW110070   6.270   3.681   3.348
 3057SOL    HW210071   6.277   3.777   3.480
 3058SOL     OW10072   0.265   5.065   6.217
 3058SOL    HW110073   0.256   5.035   6.312
 3058SOL    HW210074   0.201   5.014   6.159
 3059SOL     OW10075   1.184   2.090   1.968
 3059SOL    HW110076   1.273   2.128   1.992
 3059SOL    HW210077   1.119   2.108   2.042
 3060SOL     OW10078   5.557   3.607   3.602
 3060SOL    HW110079   5.568   3.563   3.691
 3060SOL    HW210080   5.573   3.540   3.530
 3061SOL     OW10081   5.657   6.733   3.253
 3061SOL    HW110082   5.558   6.728   3.268
 3061SOL    HW210083   5.693   6.816   3.294
 3062SOL     OW10084   4.080   5.183   1.223
 3062SOL    HW110085   3.985   5.169   1.196
 3062SOL    HW210086   4.085   5.200   1.321
 3063SOL     OW10087   6.878   4.514   1.166
 3063SOL    HW110088   6.875   4.434   1.106
 3063SOL    HW210089   6.805   4.578   1.142
 3064SOL     OW10090   4.736   1.967   6.258
 3064SOL    HW110091   4.734   2.067   6.262
 3064SOL    HW210092   4.748   1.930   6.350
 3065SOL     OW10093   5.762   1.442   6.495
 3065SOL    HW110094   5.831   1.401   6.435
 3065SOL    HW210095   5.765   1.399   6.585
 3066SOL     OW10096   5.020   0.153   5.743
 3066SOL    HW110097   5.062   0.186   5.827
 3066SOL    HW210098   4.996   0.231   5.685
 3067SOL     OW10099   1.271   1.712   4.713
 3067SOL    HW110100   1.323   1.652   4.654
 3067SOL    HW210101   1.332   1.754   4.781
 3068SOL     OW10102   5.998   0.145   0.861
 3068SOL    HW110103   5.912   0.176   0.903
 3068SOL    HW210104   6.071   0.147   0.930
 3069SOL     OW10105   5.497   6.282   4.118
 3069SOL    HW110106   5.548   6.219   4.177
 3069SOL    HW210107   5.434   6.336   4.174
 3070SOL     OW10108   2.619   1.515   1.200
 3070SOL    HW110109   2.551   1.442   1.210
 3070SOL    HW210110   2.679   1.515   1.280
 3071SOL     OW10111   5.820   4.370   5.075
 3071SOL    HW110112   5.787   4.418   4.994
 3071SOL    HW210113   5.883   4.298   5.046
 3072SOL     OW10114   1.555   6.536   5.884
 3072SOL    HW110115   1.593   6.602   5.949
 3072SOL    HW210116   1.590   6.557   5.792
 3073SOL     OW10117   6.942   5.684   2.431
 3073SOL    HW110118   6.992   5.752   2.378
 3073SOL    HW210119   6.854   5.665   2.387
 3074SOL     OW10120   3.353   2.692   1.788
 3074SOL    HW110121   3.304   2.749   1.722
 3074SOL    HW210122   3.424   2.746   1.833
 3075SOL     OW10123   4.017   5.042   1.711
 3075SOL    HW110124   4.017   5.135   1.749
 3075SOL    HW210125   3.933   4.995   1.739
 3076SOL     OW10126   1.565   1.241   4.065
 3076SOL    HW110127   1.480   1.267   4.018
 3076SOL    HW210128   1.638   1.231   3.997
 3077SOL     OW10129   0.150   3.604   1.716
 3077SOL    HW110130   0.129   3.590   1.813
 3077SOL    HW210131   0.227   3.667   1.707
 3078SOL     OW10132   6.875   3.692   2.284
 3078SOL    HW110133   6.794   3.740   2.316
 3078SOL    HW210134   6.944   3.758   2.254
 3079SOL     OW10135   1.565   4.320   4.556
 3079SOL    HW110136   1.530   4.411   4.576
 3079SOL    HW210137   1.519   4.253   4.615
 3080SOL     OW10138   3.990   4.663   1.625
 3080SOL    HW110139   3.897   4.638   1.654
 3080SOL    HW210140   4.002   4.642   1.528
 3081SOL     OW10141   2.287   3.278   6.012
 3081SOL    HW110142   2.361   3.293   5.946
 3081SOL    HW210143   2.200   3.273   5.964
 3082SOL     OW10144   5.392   4.062   4.841
 3082SOL    HW110145   5.467   4.001   4.817
 3082SOL    HW210146   5.351   4.032   4.927
 3083SOL     OW10147   4.120   5.976   1.376
 3083SOL    HW110148   4.170   5.904   1.424
 3083SOL    HW210149   4.021   5.958   1.382
 3084SOL     OW10150   6.952   5.150   3.896
 3084SOL    HW110151   6.961   5.235   3.845
 3084SOL    HW210152   6.999   5.077   3.848
 3085SOL     OW10153   5.912   5.426   6.945
 3085SOL    HW110154   5.911   5.333   6.906
 3085SOL    HW210155   5.943   5.491   6.876
 3086SOL     OW10156   6.185   6.279   6.132
 3086SOL    HW110157   6.245   6.273   6.053
 3086SOL    HW210158   6.142   6.369   6.135
 3087SOL     OW10159   3.402   0.040   2.703
 3087SOL    HW110160   3.375   0.102   2.628
 3087SOL    HW210161   3.446   0.093   2.775
 3088SOL     OW10162   2.279   3.789   5.291
 3088SOL    HW110163   2.202   3.853   5.301
 3088SOL    HW210164   2.361   3.839   5.264
 3089SOL     OW10165   4.233   5.919   5.958
 3089SOL    HW110166   4.178   5.946   5.878
 3089SOL    HW210167   4.262   6.001   6.007
 3090SOL     OW10168   0.219   2.818   2.198
 3090SOL    HW110169   0.252   2.912   2.204
 3090SOL    HW210170   0.132   2.816   2.148
 3091SOL     OW10171   1.127   2.499   0.172
 3091SOL    HW110172   1.220   2.517   0.139
 3091SOL    HW210173   1.109   2.556   0.252
 3092SOL     OW10174   6.159   1.526   2.134
 3092SOL    HW110175   6.256   1.551   2.126
 3092SOL    HW210176   6.126   1.550   2.225
 3093SOL     OW10177   5.922   5.313   6.543
 3093SOL    HW110178   5.912   5.410   6.521
 3093SOL    HW210179   5.832   5.270   6.548
 3094SOL     OW10180   2.179   1.412   6.107
 3094SOL    HW110181   2.115   1.463   6.049
 3094SOL    HW210182   2.160   1.314   6.101
 3095SOL     OW10183   1.587   3.757   4.680
 3095SOL    HW110184   1.498   3.711   4.673
 3095SOL    HW210185   1.626   3.767   4.589
 3096SOL     OW10186   1.868   3.428   4.593
 3096SOL    HW110187   1.870   3.528   4.587
 3096SOL    HW210188   1.830   3.391   4.508
 3097SOL     OW10189   5.334   3.222   5.386
 3097SOL    HW110190   5.314   3.207   5.483
 3097SOL    HW210191   5.433   3.212   5.371
 3098SOL     OW10192   1.622   3.162   2.145
 3098SOL    HW110193   1.565   3.130   2.070
 3098SOL    HW210194   1.564   3.187   2.223
 3099SOL     OW10195   0.542   6.813   5.202
 3099SOL    HW110196   0.593   6.727   5.195
 3099SOL    HW210197   0.548   6.847   5.296
 3100SOL     OW10198   5.608   4.875   2.264
 3100SOL    HW110199   5.606   4.801   2.197
 3100SOL    HW210200   5.514   4.901   2.289
 3101SOL     OW10201   5.297   6.928   4.970
 3101SOL    HW110202   5.361   7.003   4.958
 3101SOL    HW210203   5.206   6.964   4.994
 3102SOL     OW10204   5.785   4.889   1.742
 3102SOL    HW110205   5.812   4.825   1.815
 3102SOL    HW210206   5.724   4.958   1.780
 3103SOL     OW10207   1.853   2.142   1.682
 3103SOL    HW110208   1.889   2.089   1.760
 3103SOL    HW210209   1.863   2.240   1.702
 3104SOL     OW10210   5.334   2.565   5.446
 3104SOL    HW110211   5.309   2.470   5.463
 3104SOL    HW210212   5.431   2.570   5.421
 3105SOL     OW10213   5.679   4.146   0.429
 3105SOL    HW110214   5.627   4.061   0.431
 3105SOL    HW210215   5.695   4.178   0.523
 3106SOL     OW10216   5.264   1.811   5.605
 3106SOL    HW110217   5.252   1.888   5.668
 3106SOL    HW210218   5.185   1.807   5.543
 3107SOL     OW10219   3.893   2.150   5.120
 3107SOL    HW110220   3.839   2.198   5.189
 3107SOL    HW210221   3.986   2.187   5.119
 3108SOL     OW10222   1.957   3.998   3.562
 3108SOL    HW110223   2.033   3.956   3.612
 3108SOL    HW210224   1.946   4.093   3.592
 3109SOL     OW10225   6.694   6.194   3.415
 3109SOL    HW110226   6.713   6.100   3.442
 3109SOL    HW210227   6.730   6.210   3.323
 3110SOL     OW10228   1.063   5.447   3.810
 3110SOL    HW110229   0.965   5.457   3.790
 3110SOL    HW210230   1.085   5.350   3.816
 3111SOL     OW10231   6.494   4.079   3.719
 3111SOL    HW110232   6.507   4.139   3.641
 3111SOL    HW210233   6.431   4.122   3.784
 3112SOL     OW10234   3.855   1.160   0.348
 3112SOL    HW110235   3.761   1.145   0.380
 3112SOL    HW210236   3.855   1.230   0.277
 3113SOL     OW10237   1.614   0.048   3.424
 3113SOL    HW110238   1.624   0.143   3.396
 3113SOL    HW210239   1.702   0.012   3.453
 3114SOL     OW10240   4.680   6.369   6.105
 3114SOL    HW110241   4.727   6.418   6.032
 3114SOL    HW210242   4.742   6.302   6.146
 3115SOL     OW10243   4.897   5.175   4.661
 3115SOL    HW110244   4.949   5.213   4.585
 3115SOL    HW210245   4.960   5.133   4.726
 3116SOL     OW10246   0.732   1.792   5.930
 3116SOL    HW110247   0.804   1.858   5.910
 3116SOL    HW210248   0.643   1.831   5.905
 3117SOL     OW10249   3.919   7.024   1.185
 3117SOL    HW110250   3.912   0.075   1.248
 3117SOL    HW210251   3.836   7.018   1.129
 3118SOL     OW10252   1.178   2.019   3.437
 3118SOL    HW110253   1.255   2.061   3.486
 3118SOL    HW210254   1.194   2.025   3.339
 3119SOL     OW10255   5.068   5.800   4.185
 3119SOL    HW110256   5.073   5.725   4.119
 3119SOL    HW210257   4.972   5.825   4.199
 3120SOL     OW10258   2.213   5.554   6.798
 3120SOL    HW110259   2.272   5.587   6.725
 3120SOL    HW210260   2.183   5.631   6.854
 3121SOL     OW10261   4.136   2.254   4.086
 3121SOL    HW110262   4.075   2.179   4.060
 3121SOL    HW210263   4.174   2.296   4.003
 3122SOL     OW10264   5.239   5.170   6.104
 3122SOL    HW110265   5.287   5.256   6.087
 3122SOL    HW210266   5.206   5.132   6.018
 3123SOL     OW10267   1.851   2.017   2.902
 3123SOL    HW110268   1.836   1.989   2.997
 3123SOL    HW210269   1.876   2.113   2.898
 3124SOL     OW10270   5.240   6.873   5.406
 3124SOL    HW110271   5.309   6.938   5.436
 3124SOL    HW210272   5.161   6.923   5.371
 3125SOL     OW10273   1.711   1.140   5.860
 3125SOL    HW110274   1.695   1.107   5.767
 3125SOL    HW210275   1.706   1.240   5.862
 3126SOL     OW10276   4.987   4.736   5.552
 3126SOL    HW110277   5.020   4.763   5.642
 3126SOL    HW210278   5.057   4.754   5.483
 3127SOL     OW10279   6.632   1.567   5.205
 3127SOL    HW110280   6.551   1.519   5.238
 3127SOL    HW210281   6.607   1.659   5.177
 3128SOL     OW10282   3.782   0.389   0.463
 3128SOL    HW110283   3.879   0.371   0.449
 3128SOL    HW210284   3.755   0.357   0.554
 3129SOL     OW10285   4.428   4.353   7.021
 3129SOL    HW110286   4.462   4.446   7.009
 3129SOL    HW210287   4.359   4.352   0.067
 3130SOL     OW10288   0.498   6.004   1.955
 3130SOL    HW110289   0.553   5.920   1.952
 3130SOL    HW210290   0.470   6.030   1.863
 3131SOL     OW10291   6.791   3.811   2.813
 3131SOL    HW110292   6.790   3.815   2.913
 3131SOL    HW210293   6.809   3.717   2.784
 3132SOL     OW10294   5.350   3.974   6.970
 3132SOL    HW110295   5.411   3.964   6.892
 3132SOL    HW210296   5.400   4.012   0.021
 3133SOL     OW10297   5.505   6.889   4.101
 3133SOL    HW110298   5.482   6.806   4.151
 3133SOL    HW210299   5.530   6.865   4.007
 3134SOL     OW10300   5.606   4.855   2.626
 3134SOL    HW110301   5.636   4.769   2.668
 3134SOL    HW210302   5.653   4.867   2.538
 3135SOL     OW10303   3.564   6.181   6.806
 3135SOL    HW110304   3.563   6.115   6.731
 3135SOL    HW210305   3.513   6.263   6.779
 3136SOL     OW10306   6.446   0.580   2.899
 3136SOL    HW110307   6.533   0.532   2.899
 3136SOL    HW210308   6.409   0.583   2.992
 3137SOL     OW10309   4.099   5.596   0.085
 3137SOL    HW110310   4.049   5.643   0.158
 3137SOL    HW210311   4.186   5.562   0.121
 3138SOL     OW10312   6.764   6.235   5.162
 3138SOL    HW110313   6.856   6.242   5.125
 3138SOL    HW210314   6.701   6.288   5.106
 3139SOL     OW10315   1.826   5.084   1.565
 3139SOL    HW110316   1.807   5.102   1.469
 3139SOL    HW210317   1.768   5.141   1.623
 3140SOL     OW10318   6.245   5.901   0.009
 3140SOL    HW110319   6.236   5.804   0.031
 3140SOL    HW210320   6.220   5.915   6.940
 3141SOL     OW10321   5.867   1.678   6.816
 3141SOL    HW110322   5.774   1.689   6.781
 3141SOL    HW210323   5.874   1.723   6.905
 3142SOL     OW10324   4.376   0.981   3.626
 3142SOL    HW110325   4.334   0.896   3.658
 3142SOL    HW210326   4.316   1.023   3.557
 3143SOL     OW10327   0.021   1.379   1.307
 3143SOL    HW110328   0.104   1.324   1.303
 3143SOL    HW210329   0.007   1.412   1.400
 3144SOL     OW10330   3.485   4.580   6.904
 3144SOL    HW110331   3.435   4.497   6.929
 3144SOL    HW210332   3.580   4.556   6.883
 3145SOL     OW10333   0.469   5.529   0.096
 3145SOL    HW110334   0.500   5.579   0.177
 3145SOL    HW210335   0.485   5.585   0.014
 3146SOL     OW10336   6.430   2.391   5.010
 3146SOL    HW110337   6.341   2.385   4.964
 3146SOL    HW210338   6.494   2.327   4.967
 3147SOL     OW10339   4.239   7.006   6.936
 3147SOL    HW110340   4.251   7.008   6.837
 3147SOL    HW210341   4.174   0.050   6.963
 3148SOL     OW10342   6.790   4.579   1.479
 3148SOL    HW110343   6.759   4.673   1.488
 3148SOL    HW210344   6.882   4.578   1.440
 3149SOL     OW10345   3.693   3.235   0.409
 3149SOL    HW110346   3.672   3.328   0.439
 3149SOL    HW210347   3.692   3.231   0.309
 3150SOL     OW10348   0.296   6.951   5.606
 3150SOL    HW110349   0.268   6.904   5.689
 3150SOL    HW210350   0.215   6.991   5.562
 3151SOL     OW10351   6.934   0.932   5.677
 3151SOL    HW110352   6.925   1.031   5.683
 3151SOL    HW210353   0.000   0.905   5.705
 3152SOL     OW10354   2.091   2.218   5.911
 3152SOL    HW110355   2.110   2.164   5.992
 3152SOL    HW210356   2.156   2.293   5.904
 3153SOL     OW10357   5.552   5.827   2.187
 3153SOL    HW110358   5.506   5.910   2.220
 3153SOL    HW210359   5.493   5.748   2.203
 3154SOL     OW10360   3.982   1.818   0.850
 3154SOL    HW110361   4.026   1.856   0.931
 3154SOL    HW210362   4.044   1.826   0.772
 3155SOL     OW10363   0.960   4.905   6.977
 3155SOL    HW110364   0.895   4.974   7.009
 3155SOL    HW210365   1.018   4.877   0.027
 3156SOL     OW10366   4.083   4.614   0.893
 3156SOL    HW110367   4.172   4.581   0.863
 3156SOL    HW210368   4.026   4.537   0.922
 3157SOL     OW10369   1.139   0.849   4.701
 3157SOL    HW110370   1.208   0.786   4.736
 3157SOL    HW210371   1.171   0.888   4.614
 3158SOL     OW10372   2.690   0.643   5.706
 3158SOL    HW110373   2.709   0.714   5.774
 3158SOL    HW210374   2.668   0.557   5.753
 3159SOL     OW10375   4.966   0.070   1.482
 3159SOL    HW110376   4.922   0.043   1.396
 3159SOL    HW210377   4.952   0.168   1.497
 3160SOL     OW10378   2.087   0.918   5.544
 3160SOL    HW110379   2.180   0.892   5.518
 3160SOL    HW210380   2.035   0.945   5.462
 3161SOL     OW10381   1.482   2.894   2.154
 3161SOL    HW110382   1.450   2.926   2.064
 3161SOL    HW210383   1.419   2.825   2.189
 3162SOL     OW10384   1.095   5.877   1.558
 3162SOL    HW110385   1.015   5.873   1.617
 3162SOL    HW210386   1.066   5.892   1.463
 3163SOL     OW10387   4.725   4.357   0.272
 3163SOL    HW110388   4.757   4.445   0.237
 3163SOL    HW210389   4.776   4.334   0.355
 3164SOL     OW10390   2.366   0.189   4.500
 3164SOL    HW110391   2.307   0.110   4.518
 3164SOL    HW210392   2.460   0.159   4.487
 3165SOL     OW10393   0.806   6.237   6.006
 3165SOL    HW110394   0.876   6.290   6.053
 3165SOL    HW210395   0.830   6.228   5.910
 3166SOL     OW10396   4.661   1.320   4.584
 3166SOL    HW110397   4.712   1.297   4.501
 3166SOL    HW210398   4.723   1.329   4.661
 3167SOL     OW10399   5.622   3.050   1.290
 3167SOL    HW110400   5.652   3.068   1.384
 3167SOL    HW210401   5.677   3.104   1.227
 3168SOL     OW10402   4.940   1.147   0.442
 3168SOL    HW110403   5.000   1.178   0.515
 3168SOL    HW210404   4.876   1.079   0.478
 3169SOL     OW10405   1.269   4.070   2.489
 3169SOL    HW110406   1.210   3.997   2.454
 3169SOL    HW210407   1.266   4.148   2.426
 3170SOL     OW10408   1.791   3.752   3.505
 3170SOL    HW110409   1.810   3.720   3.412
 3170SOL    HW210410   1.838   3.839   3.521
 3171SOL     OW10411   5.282   1.395   4.316
 3171SOL    HW110412   5.256   1.447   4.397
 3171SOL    HW210413   5.382   1.392   4.308
 3172SOL     OW10414   5.694   4.690   1.272
 3172SOL    HW110415   5.709   4.788   1.288
 3172SOL    HW210416   5.619   4.678   1.207
 3173SOL     OW10417   4.975   2.474   0.499
 3173SOL    HW110418   4.926   2.561   0.492
 3173SOL    HW210419   4.921   2.402   0.456
 3174SOL     OW10420   3.697   2.606   6.758
 3174SOL    HW110421   3.797   2.604   6.752
 3174SOL    HW210422   3.666   2.700   6.773
 3175SOL     OW10423   5.561   6.905   5.299
 3175SOL    HW110424   5.558   6.831   5.366
 3175SOL    HW210425   5.578   6.867   5.208
 3176SOL     OW10426   0.016   4.885   3.730
 3176SOL    HW110427   6.958   4.831   3.729
 3176SOL    HW210428   0.090   4.831   3.770
 3177SOL     OW10429   5.397   2.984   3.730
 3177SOL    HW110430   5.333   3.043   3.780
 3177SOL    HW210431   5.362   2.969   3.637
 3178SOL     OW10432   0.571   0.693   2.670
 3178SOL    HW110433   0.516   0.724   2.593
 3178SOL    HW210434   0.535   0.731   2.755
 3179SOL     OW10435   0.852   2.637   2.217
 3179SOL    HW110436   0.897   2.634   2.128
 3179SOL    HW210437   0.846   2.544   2.255
 3180SOL     OW10438   0.143   6.557   6.425
 3180SOL    HW110439   0.209   6.507   6.482
 3180SOL    HW210440   0.080   6.491   6.383
 3181SOL     OW10441   0.666   5.887   5.490
 3181SOL    HW110442   0.699   5.811   5.546
 3181SOL    HW210443   0.576   5.864   5.453
 3182SOL     OW10444   1.924   0.251   1.335
 3182SOL    HW110445   1.856   0.194   1.289
 3182SOL    HW210446   1.985   0.193   1.389
 3183SOL     OW10447   3.946   3.551   0.971
 3183SOL    HW110448   3.871   3.499   1.013
 3183SOL    HW210449   3.944   3.537   0.872
 3184SOL     OW10450   6.503   1.611   4.148
 3184SOL    HW110451   6.441   1.580   4.219
 3184SOL    HW210452   6.587   1.647   4.189
 3185SOL     OW10453   0.677   6.511   6.675
 3185SOL    HW110454   0.767   6.540   6.642
 3185SOL    HW210455   0.634   6.585   6.726
 3186SOL     OW10456   0.047   2.746   6.442
 3186SOL    HW110457   7.020   2.729   6.525
 3186SOL    HW210458   0.121   2.810   6.464
 3187SOL     OW10459   5.123   6.930   2.516
 3187SOL    HW110460   5.095   6.857   2.579
 3187SOL    HW210461   5.223   6.935   2.514
 3188SOL     OW10462   1.668   6.467   0.696
 3188SOL    HW110463   1.751   6.522   0.692
 3188SOL    HW210464   1.636   6.447   0.603
 3189SOL     OW10465   2.757   1.780   6.118
 3189SOL    HW110466   2.777   1.860   6.061
 3189SOL    HW210467   2.842   1.743   6.155
 3190SOL     OW10468   6.333   6.080   3.883
 3190SOL    HW110469   6.340   6.066   3.982
 3190SOL    HW210470   6.238   6.101   3.860
 3191SOL     OW10471   3.892   5.666   1.624
 3191SOL    HW110472   3.923   5.573   1.603
 3191SOL    HW210473   3.802   5.662   1.667
 3192SOL     OW10474   5.356   1.000   2.720
 3192SOL    HW110475   5.370   0.905   2.748
 3192SOL    HW210476   5.306   1.049   2.792
 3193SOL     OW10477   3.500   5.877   4.639
 3193SOL    HW110478   3.498   5.789   4.685
 3193SOL    HW210479   3.571   5.935   4.680
 3194SOL     OW10480   1.860   6.689   6.302
 3194SOL    HW110481   1.819   6.685   6.211
 3194SOL    HW210482   1.863   6.784   6.333
 3195SOL     OW10483   1.160   0.365   1.092
 3195SOL    HW110484   1.177   0.280   1.141
 3195SOL    HW210485   1.070   0.400   1.116
 3196SOL     OW10486   5.831   0.149   2.566
 3196SOL    HW110487   5.878   0.121   2.650
 3196SOL    HW210488   5.900   0.174   2.498
 3197SOL     OW10489   2.753   1.005   6.153
 3197SOL    HW110490   2.812   1.085   6.141
 3197SOL    HW210491   2.799   0.937   6.210
 3198SOL     OW10492   5.752   2.340   3.745
 3198SOL    HW110493   5.702   2.426   3.736
 3198SOL    HW210494   5.825   2.351   3.814
 3199SOL     OW10495   4.837   3.677   3.194
 3199SOL    HW110496   4.850   3.774   3.173
 3199SOL    HW210497   4.842   3.664   3.293
 3200SOL     OW10498   5.514   3.172   4.611
 3200SOL    HW110499   5.494   3.077   4.632
 3200SOL    HW210500   5.534   3.222   4.695
 3201SOL     OW10501   6.206   4.131   1.897
 3201SOL    HW110502   6.119   4.169   1.867
 3201SOL    HW210503   6.215   4.038   1.861
 3202SOL     OW10504   2.604   3.278   6.527
 3202SOL    HW110505   2.597   3.337   6.608
 3202SOL    HW210506   2.512   3.263   6.489
 3203SOL     OW10507   3.137   6.661   1.856
 3203SOL    HW110508   3.170   6.635   1.765
 3203SOL    HW210509   3.213   6.688   1.914
 3204SOL     OW10510   3.972   0.806   3.867
 3204SOL    HW110511   4.058   0.757   3.876
 3204SOL    HW210512   3.899   0.742   3.843
 3205SOL     OW10513   4.912   3.228   5.651
 3205SOL    HW110514   4.898   3.165   5.727
 3205SOL    HW210515   4.911   3.177   5.565
 3206SOL     OW10516   2.750   4.210   1.155
 3206SOL    HW110517   2.797   4.127   1.184
 3206SOL    HW210518   2.756   4.279   1.227
 3207SOL     OW10519   2.202   5.343   4.239
 3207SOL    HW110520   2.135   5.407   4.203
 3207SOL    HW210521   2.292   5.363   4.201
 3208SOL     OW10522   6.460   4.802   6.184
 3208SOL    HW110523   6.542   4.808   6.127
 3208SOL    HW210524   6.388   4.756   6.133
 3209SOL     OW10525   5.470   6.613   6.505
 3209SOL    HW110526   5.521   6.554   6.441
 3209SOL    HW210527   5.394   6.656   6.456
 3210SOL     OW10528   5.067   5.876   1.713
 3210SOL    HW110529   5.158   5.874   1.755
 3210SOL    HW210530   5.027   5.784   1.717
 3211SOL     OW10531   2.032   6.268   6.457
 3211SOL    HW110532   1.934   6.252   6.448
 3211SOL    HW210533   2.053   6.363   6.435
 3212SOL     OW10534   3.009   6.630   3.232
 3212SOL    HW110535   2.925   6.605   3.279
 3212SOL    HW210536   3.040   6.554   3.176
 3213SOL     OW10537   1.307   6.795   6.072
 3213SOL    HW110538   1.368   6.849   6.014
 3213SOL    HW210539   1.361   6.752   6.144
 3214SOL     OW10540   4.107   0.447   2.487
 3214SOL    HW110541   4.123   0.545   2.478
 3214SOL    HW210542   4.186   0.403   2.529
 3215SOL     OW10543   2.234   2.804   1.694
 3215SOL    HW110544   2.163   2.831   1.759
 3215SOL    HW210545   2.237   2.704   1.687
 3216SOL     OW10546   6.046   5.257   1.021
 3216SOL    HW110547   5.970   5.312   1.056
 3216SOL    HW210548   6.133   5.296   1.052
 3217SOL     OW10549   6.630   5.131   3.175
 3217SOL    HW110550   6.674   5.053   3.220
 3217SOL    HW210551   6.701   5.190   3.135
 3218SOL     OW10552   5.540   1.558   2.812
 3218SOL    HW110553   5.522   1.624   2.884
 3218SOL    HW210554   5.477   1.481   2.821
 3219SOL     OW10555   5.836   1.872   4.901
 3219SOL    HW110556   5.739   1.868   4.927
 3219SOL    HW210557   5.844   1.883   4.802
 3220SOL     OW10558   0.127   3.899   6.029
 3220SOL    HW110559   0.091   3.991   6.041
 3220SOL    HW210560   0.193   3.898   5.954
 3221SOL     OW10561   3.692   1.676   1.938
 3221SOL    HW110562   3.790   1.693   1.929
 3221SOL    HW210563   3.656   1.638   1.853
 3222SOL     OW10564   3.437   0.959   3.244
 3222SOL    HW110565   3.408   0.991   3.155
 3222SOL    HW210566   3.533   0.930   3.240
 3223SOL     OW10567   1.284   5.486   0.653
 3223SOL    HW110568   1.313   5.553   0.722
 3223SOL    HW210569   1.346   5.407   0.656
 3224SOL     OW10570   4.735   1.986   4.456
 3224SOL    HW110571   4.671   2.003   4.530
 3224SOL    HW210572   4.725   1.891   4.424
 3225SOL     OW10573   4.850   1.112   4.659
 3225SOL    HW110574   4.871   1.175   4.733
 3225SOL    HW210575   4.897   1.025   4.676
 3226SOL     OW10576   6.063   0.903   0.603
 3226SOL    HW110577   5.989   0.934   0.663
 3226SOL    HW210578   6.142   0.963   0.614
 3227SOL     OW10579   5.548   4.287   5.373
 3227SOL    HW110580   5.612   4.211   5.373
 3227SOL    HW210581   5.592   4.369   5.336
 3228SOL     OW10582   2.667   4.542   0.550
 3228SOL    HW110583   2.578   4.546   0.504
 3228SOL    HW210584   2.655   4.569   0.646
 3229SOL     OW10585   1.680   2.126   0.556
 3229SOL    HW110586   1.753   2.155   0.494
 3229SOL    HW210587   1.715   2.122   0.649
 3230SOL     OW10588   3.207   6.137   5.375
 3230SOL    HW110589   3.243   6.209   5.316
 3230SOL    HW210590   3.268   6.124   5.453
 3231SOL     OW10591   1.969   2.441   2.748
 3231SOL    HW110592   2.030   2.467   2.823
 3231SOL    HW210593   1.878   2.422   2.784
 3232SOL     OW10594   3.426   4.961   3.696
 3232SOL    HW110595   3.336   4.997   3.669
 3232SOL    HW210596   3.484   4.951   3.615
 3233SOL     OW10597   2.001   6.775   0.157
 3233SOL    HW110598   1.911   6.740   0.131
 3233SOL    HW210599   2.009   6.773   0.257
 3234SOL     OW10600   3.300   3.893   0.766
 3234SOL    HW110601   3.293   3.806   0.815
 3234SOL    HW210602   3.287   3.968   0.830
 3235SOL     OW10603   0.721   1.124   3.473
 3235SOL    HW110604   0.819   1.135   3.488
 3235SOL    HW210605   0.692   1.034   3.505
 3236SOL     OW10606   4.674   0.771   0.629
 3236SOL    HW110607   4.701   0.685   0.586
 3236SOL    HW210608   4.654   0.756   0.725
 3237SOL     OW10609   5.909   1.522   5.876
 3237SOL    HW110610   5.939   1.428   5.893
 3237SOL    HW210611   5.820   1.521   5.831
 3238SOL     OW10612   6.272   4.674   1.609
 3238SOL    HW110613   6.178   4.689   1.639
 3238SOL    HW210614   6.274   4.597   1.545
 3239SOL     OW10615   6.875   0.304   4.930
 3239SOL    HW110616   6.797   0.338   4.877
 3239SOL    HW210617   6.949   0.278   4.867
 3240SOL     OW10618   7.022   0.868   0.216
 3240SOL    HW110619   6.934   0.914   0.228
 3240SOL    HW210620   0.026   0.881   0.122
 3241SOL     OW10621   6.576   3.504   5.108
 3241SOL    HW110622   6.535   3.564   5.040
 3241SOL    HW210623   6.674   3.522   5.115
 3242SOL     OW10624   6.776   3.957   4.566
 3242SOL    HW110625   6.765   3.939   4.468
 3242SOL    HW210626   6.845   3.895   4.604
 3243SOL     OW10627   5.925   4.568   3.984
 3243SOL    HW110628   5.966   4.660   3.980
 3243SOL    HW210629   5.878   4.557   4.071
 3244SOL     OW10630   4.885   6.756   0.402
 3244SOL    HW110631   4.953   6.684   0.389
 3244SOL    HW210632   4.926   6.844   0.380
 3245SOL     OW10633   3.516   6.915   4.612
 3245SOL    HW110634   3.483   6.964   4.693
 3245SOL    HW210635   3.592   6.855   4.638
 3246SOL     OW10636   6.771   6.864   2.951
 3246SOL    HW110637   6.695   6.902   2.898
 3246SOL    HW210638   6.858   6.903   2.918
 3247SOL     OW10639   1.663   4.242   3.709
 3247SOL    HW110640   1.618   4.331   3.711
 3247SOL    HW210641   1.617   4.184   3.642
 3248SOL     OW10642   5.433   2.312   3.246
 3248SOL    HW110643   5.486   2.265   3.317
 3248SOL    HW210644   5.467   2.406   3.236
 3249SOL     OW10645   3.187   3.004   3.330
 3249SOL    HW110646   3.149   2.934   3.270
 3249SOL    HW210647   3.123   3.081   3.336
 3250SOL     OW10648   4.414   5.586   2.702
 3250SOL    HW110649   4.491   5.627   2.750
 3250SOL    HW210650   4.369   5.520   2.762
 3251SOL     OW10651   2.806   2.248   2.582
 3251SOL    HW110652   2.788   2.150   2.586
 3251SOL    HW210653   2.772   2.291   2.666
 3252SOL     OW10654   2.066   1.415   3.354
 3252SOL    HW110655   2.022   1.498   3.319
 3252SOL    HW210656   2.165   1.424   3.346
 3253SOL     OW10657   6.809   3.058   0.085
 3253SOL    HW110658   6.879   3.130   0.090
 3253SOL    HW210659   6.719   3.099   0.103
 3254SOL     OW10660   6.377   6.579   1.579
 3254SOL    HW110661   6.410   6.487   1.598
 3254SOL    HW210662   6.450   6.645   1.597
 3255SOL     OW10663   4.270   6.263   1.841
 3255SOL    HW110664   4.341   6.195   1.821
 3255SOL    HW210665   4.181   6.225   1.817
 3256SOL     OW10666   5.036   2.411   1.135
 3256SOL    HW110667   5.056   2.431   1.231
 3256SOL    HW210668   4.937   2.413   1.121
 3257SOL     OW10669   3.025   1.326   2.668
 3257SOL    HW110670   3.078   1.409   2.649
 3257SOL    HW210671   2.932   1.351   2.695
 3258SOL     OW10672   1.514   5.628   4.649
 3258SOL    HW110673   1.584   5.692   4.614
 3258SOL    HW210674   1.427   5.645   4.602
 3259SOL     OW10675   5.340   4.162   4.307
 3259SOL    HW110676   5.362   4.086   4.368
 3259SOL    HW210677   5.318   4.243   4.362
 3260SOL     OW10678   1.856   5.135   3.534
 3260SOL    HW110679   1.776   5.196   3.534
 3260SOL    HW210680   1.829   5.045   3.501
 3261SOL     OW10681   5.689   0.392   4.169
 3261SOL    HW110682   5.738   0.354   4.248
 3261SOL    HW210683   5.620   0.327   4.138
 3262SOL     OW10684   3.188   1.442   3.526
 3262SOL    HW110685   3.175   1.477   3.619
 3262SOL    HW210686   3.131   1.361   3.513
 3263SOL     OW10687   0.230   0.770   1.866
 3263SOL    HW110688   0.152   0.709   1.879
 3263SOL    HW210689   0.285   0.737   1.789
 3264SOL     OW10690   1.489   4.707   0.058
 3264SOL    HW110691   1.521   4.705   0.153
 3264SOL    HW210692   1.567   4.711   7.023
 3265SOL     OW10693   0.387   5.329   6.773
 3265SOL    HW110694   0.303   5.381   6.786
 3265SOL    HW210695   0.379   5.276   6.688
 3266SOL     OW10696   4.046   5.063   6.027
 3266SOL    HW110697   4.000   5.147   5.997
 3266SOL    HW210698   4.107   5.084   6.103
 3267SOL     OW10699   3.397   6.633   0.734
 3267SOL    HW110700   3.485   6.671   0.765
 3267SOL    HW210701   3.370   6.560   0.796
 3268SOL     OW10702   5.916   5.119   2.205
 3268SOL    HW110703   5.993   5.158   2.155
 3268SOL    HW210704   5.937   5.026   2.233
 3269SOL     OW10705   1.453   5.043   1.881
 3269SOL    HW110706   1.545   5.070   1.912
 3269SOL    HW210707   1.398   5.125   1.866
 3270SOL     OW10708   1.101   2.806   5.611
 3270SOL    HW110709   1.186   2.802   5.560
 3270SOL    HW210710   1.032   2.750   5.566
 3271SOL     OW10711   0.758   4.025   1.496
 3271SOL    HW110712   0.825   4.089   1.458
 3271SOL    HW210713   0.801   3.974   1.570
 3272SOL     OW10714   4.789   5.896   0.593
 3272SOL    HW110715   4.751   5.809   0.560
 3272SOL    HW210716   4.874   5.916   0.544
 3273SOL     OW10717   3.773   3.996   6.412
 3273SOL    HW110718   3.676   4.019   6.402
 3273SOL    HW210719   3.806   3.951   6.329
 3274SOL     OW10720   4.989   0.158   2.109
 3274SOL    HW110721   4.994   0.258   2.112
 3274SOL    HW210722   4.946   0.124   2.192
 3275SOL     OW10723   4.894   0.549   1.663
 3275SOL    HW110724   4.818   0.603   1.698
 3275SOL    HW210725   4.893   0.458   1.705
 3276SOL     OW10726   5.972   6.075   6.617
 3276SOL    HW110727   5.877   6.106   6.619
 3276SOL    HW210728   6.031   6.152   6.591
 3277SOL     OW10729   3.215   2.141   2.393
 3277SOL    HW110730   3.229   2.237   2.415
 3277SOL    HW210731   3.124   2.129   2.354
 3278SOL     OW10732   5.299   0.955   6.623
 3278SOL    HW110733   5.237   0.878   6.610
 3278SOL    HW210734   5.369   0.954   6.551
 3279SOL     OW10735   3.865   0.073   1.717
 3279SOL    HW110736   3.839   0.135   1.791
 3279SOL    HW210737   3.788   0.063   1.653
 3280SOL     OW10738   7.016   3.160   3.959
 3280SOL    HW110739   0.075   3.125   3.997
 3280SOL    HW210740   7.018   3.260   3.959
 3281SOL     OW10741   6.433   2.306   1.911
 3281SOL    HW110742   6.359   2.244   1.885
 3281SOL    HW210743   6.431   2.319   2.010
 3282SOL     OW10744   0.031   4.976   5.162
 3282SOL    HW110745   0.085   4.906   5.115
 3282SOL    HW210746   6.983   4.932   5.212
 3283SOL     OW10747   3.520   1.822   0.013
 3283SOL    HW110748   3.483   1.910   0.043
 3283SOL    HW210749   3.585   1.836   6.965
 3284SOL     OW10750   2.321   6.240   4.754
 3284SOL    HW110751   2.362   6.187   4.680
 3284SOL    HW210752   2.352   6.335   4.746
 3285SOL     OW10753   3.875   2.099   4.433
 3285SOL    HW110754   3.958   2.154   4.439
 3285SOL    HW210755   3.826   2.120   4.348
 3286SOL     OW10756   1.550   2.802   2.611
 3286SOL    HW110757   1.632   2.746   2.597
 3286SOL    HW210758   1.481   2.777   2.544
 3287SOL     OW10759   2.564   0.721   0.871
 3287SOL    HW110760   2.656   0.735   0.906
 3287SOL    HW210761   2.501   0.784   0.917
 3288SOL     OW10762   2.683   5.558   1.881
 3288SOL    HW110763   2.634   5.565   1.968
 3288SOL    HW210764   2.619   5.529   1.809
 3289SOL     OW10765   4.082   0.662   6.818
 3289SOL    HW110766   4.143   0.740   6.811
 3289SOL    HW210767   4.008   0.670   6.751
 3290SOL     OW10768   0.384   5.959   0.272
 3290SOL    HW110769   0.470   5.915   0.245
 3290SOL    HW210770   0.402   6.053   0.299
 3291SOL     OW10771   5.162   6.896   4.664
 3291SOL    HW110772   5.258   6.890   4.638
 3291SOL    HW210773   5.115   6.811   4.640
 3292SOL     OW10774   0.249   2.182   0.304
 3292SOL    HW110775   0.204   2.196   0.392
 3292SOL    HW210776   0.228   2.090   0.270
 3293SOL     OW10777   6.688   4.858   2.895
 3293SOL    HW110778   6.764   4.828   2.838
 3293SOL    HW210779   6.651   4.943   2.859
 3294SOL     OW10780   5.031   2.866   5.307
 3294SOL    HW110781   5.031   2.766   5.298
 3294SOL    HW210782   5.120   2.896   5.340
 3295SOL     OW10783   0.939   2.254   3.037
 3295SOL    HW110784   0.976   2.253   2.944
 3295SOL    HW210785   0.972   2.173   3.086
 3296SOL     OW10786   2.303   0.829   5.892
 3296SOL    HW110787   2.355   0.845   5.976
 3296SOL    HW210788   2.308   0.909   5.833
 3297SOL     OW10789   4.277   1.174   5.042
 3297SOL    HW110790   4.195   1.175   5.099
 3297SOL    HW210791   4.335   1.252   5.066
 3298SOL     OW10792   3.819   3.862   5.734
 3298SOL    HW110793   3.897   3.838   5.677
 3298SOL    HW210794   3.735   3.826   5.693
 3299SOL     OW10795   2.561   5.779   3.974
 3299SOL    HW110796   2.649   5.732   3.971
 3299SOL    HW210797   2.547   5.830   3.890
 3300SOL     OW10798   2.232   0.690   4.116
 3300SOL    HW110799   2.322   0.668   4.154
 3300SOL    HW210800   2.179   0.741   4.183
 3301SOL     OW10801   1.329   1.097   3.189
 3301SOL    HW110802   1.359   1.037   3.263
 3301SOL    HW210803   1.294   1.182   3.227
 3302SOL     OW10804   1.364   5.371   5.342
 3302SOL    HW110805   1.311   5.289   5.320
 3302SOL    HW210806   1.336   5.446   5.282
 3303SOL     OW10807   3.403   3.522   6.650
 3303SOL    HW110808   3.328   3.490   6.593
 3303SOL    HW210809   3.480   3.551   6.592
 3304SOL     OW10810   1.906   3.946   0.178
 3304SOL    HW110811   1.873   3.859   0.142
 3304SOL    HW210812   2.001   3.960   0.149
 3305SOL     OW10813   3.120   2.957   0.492
 3305SOL    HW110814   3.218   2.936   0.501
 3305SOL    HW210815   3.077   2.890   0.432
 3306SOL     OW10816   2.317   0.277   0.065
 3306SOL    HW110817   2.395   0.301   0.123
 3306SOL    HW210818   2.345   0.277   6.995
 3307SOL     OW10819   1.727   5.974   4.731
 3307SOL    HW110820   1.809   5.920   4.711
 3307SOL    HW210821   1.693   6.015   4.646
 3308SOL     OW10822   4.345   4.506   1.290
 3308SOL    HW110823   4.292   4.569   1.233
 3308SOL    HW210824   4.365   4.423   1.238
 3309SOL     OW10825   5.298   3.636   3.238
 3309SOL    HW110826   5.269   3.607   3.147
 3309SOL    HW210827   5.265   3.729   3.256
 3310SOL     OW10828   6.253   4.642   6.100
 3310SOL    HW110829   6.162   4.665   6.066
 3310SOL    HW210830   6.271   4.545   6.086
 3311SOL     OW10831   2.376   3.688   0.381
 3311SOL    HW110832   2.326   3.726   0.303
 3311SOL    HW210833   2.319   3.619   0.426
 3312SOL     OW10834   4.839   2.714   6.671
 3312SOL    HW110835   4.914   2.768   6.633
 3312SOL    HW210836   4.806   2.649   6.603
 3313SOL     OW10837   6.948   0.474   4.208
 3313SOL    HW110838   6.983   0.393   4.163
 3313SOL    HW210839   6.871   0.449   4.267
 3314SOL     OW10840   3.884   5.864   1.892
 3314SOL    HW110841   3.861   5.859   1.989
 3314SOL    HW210842   3.804   5.836   1.838
 3315SOL     OW10843   0.600   5.548   4.145
 3315SOL    HW110844   0.605   5.606   4.065
 3315SOL    HW210845   0.615   5.602   4.228
 3316SOL     OW10846   4.115   2.798   6.997
 3316SOL    HW110847   4.023   2.823   6.966
 3316SOL    HW210848   4.135   2.704   6.969
 3317SOL     OW10849   5.087   2.747   1.813
 3317SOL    HW110850   5.039   2.680   1.871
 3317SOL    HW210851   5.119   2.701   1.730
 3318SOL     OW10852   3.349   3.041   0.781
 3318SOL    HW110853   3.373   2.961   0.727
 3318SOL    HW210854   3.309   3.013   0.868
 3319SOL     OW10855   6.784   5.753   4.028
 3319SOL    HW110856   6.816   5.731   4.120
 3319SOL    HW210857   6.721   5.830   4.032
 3320SOL     OW10858   6.297   6.701   1.847
 3320SOL    HW110859   6.242   6.621   1.823
 3320SOL    HW210860   6.278   6.775   1.783
 3321SOL     OW10861   4.838   2.107   6.916
 3321SOL    HW110862   4.923   2.109   6.969
 3321SOL    HW210863   4.765   2.151   6.969
 3322SOL     OW10864   6.164   3.135   0.750
 3322SOL    HW110865   6.111   3.095   0.675
 3322SOL    HW210866   6.145   3.085   0.835
 3323SOL     OW10867   1.769   1.407   1.502
 3323SOL    HW110868   1.702   1.359   1.559
 3323SOL    HW210869   1.739   1.408   1.407
 3324SOL     OW10870   5.096   5.582   5.351
 3324SOL    HW110871   5.092   5.658   5.415
 3324SOL    HW210872   5.012   5.579   5.297
 3325SOL     OW10873   2.453   4.959   4.831
 3325SOL    HW110874   2.531   4.934   4.775
 3325SOL    HW210875   2.432   4.885   4.895
 3326SOL     OW10876   3.559   2.102   2.268
 3326SOL    HW110877   3.603   2.129   2.183
 3326SOL    HW210878   3.461   2.090   2.253
 3327SOL     OW10879   0.538   5.497   6.233
 3327SOL    HW110880   0.622   5.547   6.215
 3327SOL    HW210881   0.561   5.408   6.274
 3328SOL     OW10882   4.798   2.625   5.407
 3328SOL    HW110883   4.819   2.611   5.310
 3328SOL    HW210884   4.771   2.720   5.422
 3329SOL     OW10885   6.516   5.846   5.470
 3329SOL    HW110886   6.610   5.819   5.449
 3329SOL    HW210887   6.455   5.769   5.453
 3330SOL     OW10888   6.635   3.765   3.084
 3330SOL    HW110889   6.732   3.741   3.076
 3330SOL    HW210890   6.625   3.841   3.149
 3331SOL     OW10891   1.952   3.470   0.529
 3331SOL    HW110892   1.936   3.531   0.606
 3331SOL    HW210893   1.954   3.376   0.561
 3332SOL     OW10894   6.762   4.048   1.876
 3332SOL    HW110895   6.803   4.129   1.917
 3332SOL    HW210896   6.712   4.075   1.793
 3333SOL     OW10897   3.149   5.381   6.570
 3333SOL    HW110898   3.095   5.370   6.653
 3333SOL    HW210899   3.246   5.384   6.593
 3334SOL     OW10900   1.712   3.310   1.724
 3334SOL    HW110901   1.759   3.393   1.692
 3334SOL    HW210902   1.736   3.292   1.819
 3335SOL     OW10903   5.765   3.986   4.417
 3335SOL    HW110904   5.844   3.953   4.365
 3335SOL    HW210905   5.700   4.028   4.355
 3336SOL     OW10906   3.006   5.784   5.964
 3336SOL    HW110907   3.036   5.693   5.991
 3336SOL    HW210908   2.966   5.781   5.872
 3337SOL     OW10909   3.316   1.872   0.626
 3337SOL    HW110910   3.247   1.838   0.562
 3337SOL    HW210911   3.349   1.797   0.683
 3338SOL     OW10912   6.967   4.574   0.423
 3338SOL    HW110913   7.017   4.561   0.338
 3338SOL    HW210914   6.998   4.657   0.469
 3339SOL     OW10915   0.800   5.772   6.512
 3339SOL    HW110916   0.832   5.680   6.534
 3339SOL    HW210917   0.873   5.838   6.531
 3340SOL     OW10918   4.244   0.174   1.731
 3340SOL    HW110919   4.189   0.102   1.690
 3340SOL    HW210920   4.283   0.142   1.817
 3341SOL     OW10921   0.358   7.026   1.441
 3341SOL    HW110922   0.450   0.038   1.437
 3341SOL    HW210923   0.363   6.927   1.427
 3342SOL     OW10924   2.765   0.536   5.228
 3342SOL    HW110925   2.838   0.566   5.166
 3342SOL    HW210926   2.796   0.546   5.323
 3343SOL     OW10927   6.946   2.546   1.168
 3343SOL    HW110928   6.967   2.589   1.080
 3343SOL    HW210929   7.004   2.586   1.239
 3344SOL     OW10930   0.074   2.845   5.954
 3344SOL    HW110931   0.054   2.939   5.926
 3344SOL    HW210932   0.046   2.832   6.050
 3345SOL     OW10933   2.213   3.498   5.622
 3345SOL    HW110934   2.217   3.400   5.605
 3345SOL    HW210935   2.182   3.514   5.716
 3346SOL     OW10936   1.768   5.734   2.479
 3346SOL    HW110937   1.707   5.812   2.461
 3346SOL    HW210938   1.855   5.749   2.433
 3347SOL     OW10939   5.904   4.009   4.083
 3347SOL    HW110940   5.947   3.963   4.161
 3347SOL    HW210941   5.960   3.993   4.001
 3348SOL     OW10942   3.592   3.974   3.049
 3348SOL    HW110943   3.540   4.025   2.981
 3348SOL    HW210944   3.687   4.006   3.050
 3349SOL     OW10945   6.019   3.862   5.930
 3349SOL    HW110946   5.948   3.841   5.864
 3349SOL    HW210947   6.109   3.853   5.886
 3350SOL     OW10948   1.463   2.075   1.065
 3350SOL    HW110949   1.400   2.014   1.016
 3350SOL    HW210950   1.490   2.032   1.151
 3351SOL     OW10951   5.175   2.180   0.457
 3351SOL    HW110952   5.082   2.217   0.463
 3351SOL    HW210953   5.226   2.229   0.387
 3352SOL     OW10954   0.746   3.440   0.424
 3352SOL    HW110955   0.677   3.486   0.479
 3352SOL    HW210956   0.701   3.396   0.345
 3353SOL     OW10957   1.945   6.513   6.090
 3353SOL    HW110958   2.037   6.537   6.122
 3353SOL    HW210959   1.933   6.546   5.996
 3354SOL     OW10960   1.289   0.874   2.066
 3354SOL    HW110961   1.363   0.898   2.004
 3354SOL    HW210962   1.252   0.958   2.107
 3355SOL     OW10963   6.872   1.432   2.940
 3355SOL    HW110964   6.786   1.449   2.989
 3355SOL    HW210965   6.891   1.334   2.940
 3356SOL     OW10966   1.902   3.392   5.655
 3356SOL    HW110967   1.877   3.480   5.694
 3356SOL    HW210968   1.847   3.320   5.696
 3357SOL     OW10969   2.170   5.432   2.245
 3357SOL    HW110970   2.168   5.492   2.165
 3357SOL    HW210971   2.265   5.421   2.275
 3358SOL     OW10972   0.048   4.230   3.583
 3358SOL    HW110973   0.021   4.318   3.543
 3358SOL    HW210974   0.133   4.240   3.634
 3359SOL     OW10975   1.521   1.349   1.879
 3359SOL    HW110976   1.580   1.423   1.909
 3359SOL    HW210977   1.425   1.373   1.897
 3360SOL     OW10978   2.095   0.399   6.045
 3360SOL    HW110979   2.184   0.442   6.032
 3360SOL    HW210980   2.084   0.373   6.141
 3361SOL     OW10981   4.173   0.721   3.187
 3361SOL    HW110982   4.099   0.788   3.195
 3361SOL    HW210983   4.246   0.744   3.251
 3362SOL     OW10984   2.557   1.350   5.224
 3362SOL    HW110985   2.549   1.258   5.262
 3362SOL    HW210986   2.647   1.361   5.181
 3363SOL     OW10987   0.458   1.299   6.146
 3363SOL    HW110988   0.530   1.366   6.128
 3363SOL    HW210989   0.381   1.344   6.191
 3364SOL     OW10990   2.101   4.852   6.185
 3364SOL    HW110991   2.195   4.885   6.177
 3364SOL    HW210992   2.058   4.897   6.264
 3365SOL     OW10993   5.638   1.986   5.496
 3365SOL    HW110994   5.734   1.993   5.468
 3365SOL    HW210995   5.620   1.894   5.530
 3366SOL     OW10996   5.189   0.969   6.347
 3366SOL    HW110997   5.174   1.053   6.400
 3366SOL    HW210998   5.282   0.935   6.365
 3367SOL     OW10999   1.787   0.204   1.957
 3367SOL    HW111000   1.837   0.288   1.935
 3367SOL    HW211001   1.730   0.218   2.038
 3368SOL     OW11002   6.467   1.257   5.897
 3368SOL    HW111003   6.478   1.174   5.842
 3368SOL    HW211004   6.375   1.294   5.883
 3369SOL     OW11005   3.563   6.440   5.906
 3369SOL    HW111006   3.624   6.381   5.853
 3369SOL    HW211007   3.606   6.462   5.993
 3370SOL     OW11008   5.274   0.219   5.410
 3370SOL    HW111009   5.327   0.152   5.462
 3370SOL    HW211010   5.336   0.279   5.360
 3371SOL     OW11011   6.764   4.847   1.489
 3371SOL    HW111012   6.851   4.882   1.453
 3371SOL    HW211013   6.747   4.886   1.579
 3372SOL     OW11014   0.596   2.041   2.833
 3372SOL    HW111015   0.668   2.091   2.785
 3372SOL    HW211016   0.611   2.048   2.932
 3373SOL     OW11017   0.548   2.139   6.286
 3373SOL    HW111018   0.469   2.200   6.277
 3373SOL    HW211019   0.591   2.154   6.376
 3374SOL     OW11020   3.732   5.617   5.297
 3374SOL    HW111021   3.673   5.658   5.367
 3374SOL    HW211022   3.736   5.678   5.218
 3375SOL     OW11023   3.577   4.221   5.065
 3375SOL    HW111024   3.539   4.314   5.068
 3375SOL    HW211025   3.613   4.203   4.974
 3376SOL     OW11026   2.839   3.113   1.873
 3376SOL    HW111027   2.928   3.091   1.913
 3376SOL    HW211028   2.813   3.206   1.898
 3377SOL     OW11029   2.912   5.719   5.713
 3377SOL    HW111030   2.902   5.621   5.726
 3377SOL    HW211031   2.827   5.765   5.737
 3378SOL     OW11032   0.702   1.248   0.732
 3378SOL    HW111033   0.747   1.247   0.643
 3378SOL    HW211034   0.643   1.168   0.741
 3379SOL     OW11035   0.175   4.716   6.290
 3379SOL    HW111036   0.152   4.619   6.280
 3379SOL    HW211037   0.256   4.725   6.347
 3380SOL     OW11038   1.058   3.809   5.928
 3380SOL    HW111039   0.979   3.748   5.941
 3380SOL    HW211040   1.101   3.788   5.840
 3381SOL     OW11041   3.073   3.027   1.225
 3381SOL    HW111042   3.020   3.017   1.309
 3381SOL    HW211043   3.011   3.034   1.147
 3382SOL     OW11044   6.748   6.985   6.870
 3382SOL    HW111045   6.804   7.006   6.790
 3382SOL    HW211046   6.768   6.891   6.900
 3383SOL     OW11047   0.294   4.073   2.925
 3383SOL    HW111048   0.235   4.007   2.879
 3383SOL    HW211049   0.384   4.032   2.940
 3384SOL     OW11050   3.153   3.041   4.470
 3384SOL    HW111051   3.142   3.139   4.460
 3384SOL    HW211052   3.166   2.999   4.380
 3385SOL     OW11053   6.540   3.818   3.428
 3385SOL    HW111054   6.487   3.821   3.513
 3385SOL    HW211055   6.596   3.736   3.426
 3386SOL     OW11056   6.138   3.836   4.681
 3386SOL    HW111057   6.046   3.809   4.653
 3386SOL    HW211058   6.134   3.924   4.729
 3387SOL     OW11059   2.998   2.182   3.076
 3387SOL    HW111060   3.077   2.176   3.137
 3387SOL    HW211061   3.025   2.161   2.982
 3388SOL     OW11062   5.142   3.091   1.977
 3388SOL    HW111063   5.152   3.190   1.985
 3388SOL    HW211064   5.088   3.069   1.895
 3389SOL     OW11065   4.965   4.473   3.055
 3389SOL    HW111066   4.892   4.406   3.072
 3389SOL    HW211067   4.979   4.529   3.137
 3390SOL     OW11068   4.984   2.456   6.094
 3390SOL    HW111069   4.917   2.517   6.139
 3390SOL    HW211070   5.067   2.507   6.075
 3391SOL     OW11071   4.033   1.928   4.260
 3391SOL    HW111072   3.997   1.933   4.354
 3391SOL    HW211073   4.131   1.947   4.262
 3392SOL     OW11074   4.950   5.839   3.417
 3392SOL    HW111075   4.941   5.741   3.399
 3392SOL    HW211076   5.025   5.854   3.480
 3393SOL     OW11077   6.643   0.684   0.108
 3393SOL    HW111078   6.638   0.656   0.204
 3393SOL    HW211079   6.661   0.782   0.103
 3394SOL     OW11080   5.678   1.515   1.498
 3394SOL    HW111081   5.618   1.442   1.466
 3394SOL    HW211082   5.705   1.497   1.593
 3395SOL     OW11083   1.847   3.499   5.227
 3395SOL    HW111084   1.807   3.436   5.159
 3395SOL    HW211085   1.907   3.447   5.288
 3396SOL     OW11086   7.008   4.104   4.347
 3396SOL    HW111087   0.045   4.075   4.419
 3396SOL    HW211088   6.935   4.037   4.337
 3397SOL     OW11089   2.804   6.387   5.531
 3397SOL    HW111090   2.813   6.445   5.450
 3397SOL    HW211091   2.894   6.377   5.575
 3398SOL     OW11092   0.419   0.130   4.327
 3398SOL    HW111093   0.324   0.149   4.351
 3398SOL    HW211094   0.424   0.099   4.232
 3399SOL     OW11095   4.504   5.208   4.434
 3399SOL    HW111096   4.417   5.191   4.480
 3399SOL    HW211097   4.507   5.156   4.349
 3400SOL     OW11098   4.694   2.579   6.475
 3400SOL    HW111099   4.724   2.484   6.486
 3400SOL    HW211100   4.595   2.583   6.468
 3401SOL     OW11101   6.347   4.777   6.525
 3401SOL    HW111102   6.433   4.809   6.486
 3401SOL    HW211103   6.364   4.699   6.585
 3402SOL     OW11104   4.974   5.214   2.366
 3402SOL    HW111105   4.890   5.245   2.321
 3402SOL    HW211106   4.955   5.133   2.421
 3403SOL     OW11107   3.237   2.075   5.222
 3403SOL    HW111108   3.217   2.165   5.182
 3403SOL    HW211109   3.225   2.079   5.322
 3404SOL     OW11110   4.192   0.710   1.151
 3404SOL    HW111111   4.153   0.755   1.071
 3404SOL    HW211112   4.118   0.672   1.207
 3405SOL     OW11113   5.859   3.802   0.938
 3405SOL    HW111114   5.826   3.759   0.853
 3405SOL    HW211115   5.958   3.791   0.943
 3406SOL     OW11116   1.221   4.629   1.976
 3406SOL    HW111117   1.202   4.620   2.074
 3406SOL    HW211118   1.135   4.623   1.925
 3407SOL     OW11119   1.425   5.340   2.624
 3407SOL    HW111120   1.508   5.285   2.623
 3407SOL    HW211121   1.363   5.308   2.553
 3408SOL     OW11122   5.422   4.117   2.847
 3408SOL    HW111123   5.366   4.044   2.808
 3408SOL    HW211124   5.363   4.193   2.875
 3409SOL     OW11125   2.959   0.831   6.008
 3409SOL    HW111126   2.986   0.740   5.979
 3409SOL    HW211127   2.931   0.885   5.928
 3410SOL     OW11128   0.041   0.477   6.806
 3410SOL    HW111129   0.005   0.385   6.822
 3410SOL    HW211130   6.999   0.545   6.832
 3411SOL     OW11131   4.910   2.630   1.984
 3411SOL    HW111132   4.950   2.698   2.047
 3411SOL    HW211133   4.811   2.626   1.997
 3412SOL     OW11134   4.250   5.009   6.726
 3412SOL    HW111135   4.153   5.016   6.705
 3412SOL    HW211136   4.302   5.062   6.659
 3413SOL     OW11137   4.120   1.993   2.168
 3413SOL    HW111138   4.132   1.919   2.233
 3413SOL    HW211139   4.031   2.036   2.181
 3414SOL     OW11140   3.712   1.774   5.692
 3414SOL    HW111141   3.793   1.774   5.750
 3414SOL    HW211142   3.712   1.692   5.634
 3415SOL     OW11143   0.357   5.251   4.339
 3415SOL    HW111144   0.343   5.267   4.241
 3415SOL    HW211145   0.437   5.304   4.369
 3416SOL     OW11146   2.042   5.098   5.567
 3416SOL    HW111147   1.991   5.104   5.653
 3416SOL    HW211148   2.140   5.098   5.587
 3417SOL     OW11149   5.924   0.373   1.647
 3417SOL    HW111150   5.877   0.341   1.729
 3417SOL    HW211151   5.868   0.444   1.603
 3418SOL     OW11152   3.272   1.347   6.191
 3418SOL    HW111153   3.299   1.290   6.114
 3418SOL    HW211154   3.200   1.410   6.163
 3419SOL     OW11155   4.501   4.094   0.308
 3419SOL    HW111156   4.509   4.184   0.265
 3419SOL    HW211157   4.407   4.062   0.301
 3420SOL     OW11158   3.948   2.050   4.028
 3420SOL    HW111159   3.870   2.105   4.058
 3420SOL    HW211160   3.980   1.993   4.104
 3421SOL     OW11161   0.718   6.465   3.879
 3421SOL    HW111162   0.732   6.370   3.908
 3421SOL    HW211163   0.731   6.471   3.780
 3422SOL     OW11164   3.284   1.655   2.111
 3422SOL    HW111165   3.289   1.747   2.070
 3422SOL    HW211166   3.285   1.586   2.038
 3423SOL     OW11167   2.866   1.012   1.957
 3423SOL    HW111168   2.811   1.071   2.016
 3423SOL    HW211169   2.809   0.937   1.923
 3424SOL     OW11170   4.225   1.537   2.291
 3424SOL    HW111171   4.246   1.617   2.347
 3424SOL    HW211172   4.285   1.536   2.212
 3425SOL     OW11173   4.652   4.396   1.714
 3425SOL    HW111174   4.589   4.331   1.757
 3425SOL    HW211175   4.681   4.362   1.625
 3426SOL     OW11176   4.248   3.896   0.564
 3426SOL    HW111177   4.150   3.917   0.563
 3426SOL    HW211178   4.286   3.922   0.653
 3427SOL     OW11179   0.920   1.629   0.071
 3427SOL    HW111180   0.843   1.597   0.126
 3427SOL    HW211181   0.966   1.705   0.118
 3428SOL     OW11182   4.580   4.765   3.306
 3428SOL    HW111183   4.552   4.861   3.301
 3428SOL    HW211184   4.501   4.706   3.291
 3429SOL     OW11185   0.499   3.052   6.586
 3429SOL    HW111186   0.480   3.128   6.525
 3429SOL    HW211187   0.476   3.078   6.680
 3430SOL     OW11188   0.963   6.336   6.679
 3430SOL    HW111189   0.940   6.428   6.647
 3430SOL    HW211190   0.883   6.295   6.723
 3431SOL     OW11191   0.612   6.149   0.231
 3431SOL    HW111192   0.533   6.181   0.285
 3431SOL    HW211193   0.583   6.134   0.137
 3432SOL     OW11194   3.158   2.097   6.580
 3432SOL    HW111195   3.068   2.105   6.623
 3432SOL    HW211196   3.154   2.133   6.487
 3433SOL     OW11197   4.118   0.631   4.998
 3433SOL    HW111198   4.210   0.619   4.963
 3433SOL    HW211199   4.078   0.541   5.018
 3434SOL     OW11200   4.461   2.033   2.789
 3434SOL    HW111201   4.381   2.083   2.755
 3434SOL    HW211202   4.490   2.072   2.877
 3435SOL     OW11203   0.500   1.204   6.980
 3435SOL    HW111204   0.535   1.137   0.019
 3435SOL    HW211205   0.571   1.272   6.961
 3436SOL     OW11206   4.313   0.010   3.293
 3436SOL    HW111207   4.331   6.980   3.373
 3436SOL    HW211208   4.250   0.084   3.317
 3437SOL     OW11209   3.998   0.582   6.443
 3437SOL    HW111210   4.064   0.555   6.372
 3437SOL    HW211211   3.920   0.521   6.441
 3438SOL     OW11212   1.741   4.164   6.609
 3438SOL    HW111213   1.781   4.164   6.701
 3438SOL    HW211214   1.644   4.189   6.615
 3439SOL     OW11215   2.674   6.338   3.328
 3439SOL    HW111216   2.587   6.386   3.344
 3439SOL    HW211217   2.655   6.242   3.307
 3440SOL     OW11218   4.444   2.129   0.919
 3440SOL    HW111219   4.531   2.166   0.885
 3440SOL    HW211220   4.439   2.031   0.900
 3441SOL     OW11221   3.493   0.470   4.397
 3441SOL    HW111222   3.430   0.432   4.329
 3441SOL    HW211223   3.501   0.406   4.474
 3442SOL     OW11224   1.698   4.943   3.201
 3442SOL    HW111225   1.751   4.941   3.286
 3442SOL    HW211226   1.756   4.914   3.125
 3443SOL     OW11227   5.847   0.757   3.885
 3443SOL    HW111228   5.823   0.833   3.946
 3443SOL    HW211229   5.902   0.690   3.936
 3444SOL     OW11230   4.476   5.112   0.535
 3444SOL    HW111231   4.454   5.069   0.623
 3444SOL    HW211232   4.575   5.113   0.522
 3445SOL     OW11233   6.237   4.816   4.662
 3445SOL    HW111234   6.219   4.907   4.699
 3445SOL    HW211235   6.335   4.804   4.649
 3446SOL     OW11236   3.256   6.436   2.985
 3446SOL    HW111237   3.284   6.448   2.890
 3446SOL    HW211238   3.334   6.453   3.045
 3447SOL     OW11239   5.853   4.926   5.934
 3447SOL    HW111240   5.907   4.969   6.006
 3447SOL    HW211241   5.766   4.895   5.972
 3448SOL     OW11242   3.590   2.135   0.905
 3448SOL    HW111243   3.496   2.147   0.872
 3448SOL    HW211244   3.651   2.116   0.828
 3449SOL     OW11245   6.162   6.491   3.582
 3449SOL    HW111246   6.063   6.482   3.597
 3449SOL    HW211247   6.183   6.584   3.552
 3450SOL     OW11248   0.803   2.037   1.332
 3450SOL    HW111249   0.832   2.032   1.427
 3450SOL    HW211250   0.784   1.945   1.297
 3451SOL     OW11251   1.231   5.408   4.025
 3451SOL    HW111252   1.192   5.431   3.936
 3451SOL    HW211253   1.239   5.308   4.033
 3452SOL     OW11254   6.308   2.415   0.339
 3452SOL    HW111255   6.360   2.498   0.320
 3452SOL    HW211256   6.304   2.400   0.438
 3453SOL     OW11257   6.228   5.879   5.649
 3453SOL    HW111258   6.251   5.970   5.683
 3453SOL    HW211259   6.230   5.879   5.549
 3454SOL     OW11260   0.405   0.966   0.346
 3454SOL    HW111261   0.453   0.881   0.366
 3454SOL    HW211262   0.471   1.038   0.326
 3455SOL     OW11263   2.231   2.278   4.678
 3455SOL    HW111264   2.287   2.219   4.619
 3455SOL    HW211265   2.277   2.366   4.690
 3456SOL     OW11266   6.392   0.381   1.616
 3456SOL    HW111267   6.390   0.322   1.697
 3456SOL    HW211268   6.474   0.360   1.562
 3457SOL     OW11269   2.275   5.562   3.791
 3457SOL    HW111270   2.259   5.631   3.861
 3457SOL    HW211271   2.197   5.499   3.787
 3458SOL     OW11272   5.313   5.529   1.183
 3458SOL    HW111273   5.291   5.441   1.224
 3458SOL    HW211274   5.341   5.515   1.088
 3459SOL     OW11275   6.431   6.586   3.429
 3459SOL    HW111276   6.433   6.513   3.497
 3459SOL    HW211277   6.501   6.567   3.359
 3460SOL     OW11278   4.258   3.821   6.050
 3460SOL    HW111279   4.264   3.723   6.032
 3460SOL    HW211280   4.294   3.841   6.141
 3461SOL     OW11281   3.140   5.562   2.382
 3461SOL    HW111282   3.214   5.598   2.326
 3461SOL    HW211283   3.169   5.475   2.423
 3462SOL     OW11284   4.865   3.132   3.426
 3462SOL    HW111285   4.886   3.035   3.442
 3462SOL    HW211286   4.856   3.147   3.327
 3463SOL     OW11287   2.050   2.945   1.052
 3463SOL    HW111288   1.969   2.887   1.044
 3463SOL    HW211289   2.132   2.893   1.028
 3464SOL     OW11290   4.349   2.536   6.715
 3464SOL    HW111291   4.418   2.608   6.710
 3464SOL    HW211292   4.395   2.447   6.725
 3465SOL     OW11293   1.516   3.503   1.765
 3465SOL    HW111294   1.570   3.420   1.746
 3465SOL    HW211295   1.479   3.497   1.858
 3466SOL     OW11296   6.129   4.464   3.789
 3466SOL    HW111297   6.059   4.473   3.860
 3466SOL    HW211298   6.100   4.397   3.722
 3467SOL     OW11299   2.574   2.408   1.502
 3467SOL    HW111300   2.639   2.474   1.464
 3467SOL    HW211301   2.515   2.453   1.568
 3468SOL     OW11302   3.732   1.712   0.890
 3468SOL    HW111303   3.672   1.772   0.942
 3468SOL    HW211304   3.825   1.749   0.890
 3469SOL     OW11305   3.894   5.790   5.850
 3469SOL    HW111306   3.823   5.735   5.893
 3469SOL    HW211307   3.976   5.735   5.837
 3470SOL     OW11308   1.017   3.174   1.350
 3470SOL    HW111309   1.091   3.241   1.361
 3470SOL    HW211310   0.982   3.179   1.257
 3471SOL     OW11311   5.237   3.283   4.486
 3471SOL    HW111312   5.168   3.257   4.419
 3471SOL    HW211313   5.253   3.208   4.549
 3472SOL     OW11314   4.292   1.677   2.813
 3472SOL    HW111315   4.252   1.756   2.858
 3472SOL    HW211316   4.315   1.608   2.881
 3473SOL     OW11317   6.838   4.296   1.938
 3473SOL    HW111318   6.937   4.294   1.953
 3473SOL    HW211319   6.800   4.379   1.978
 3474SOL     OW11320   5.403   4.838   3.770
 3474SOL    HW111321   5.342   4.806   3.843
 3474SOL    HW211322   5.353   4.843   3.684
 3475SOL     OW11323   6.904   4.432   4.085
 3475SOL    HW111324   6.977   4.469   4.028
 3475SOL    HW211325   6.857   4.358   4.037
 3476SOL     OW11326   1.725   0.982   3.695
 3476SOL    HW111327   1.670   0.917   3.747
 3476SOL    HW211328   1.774   1.042   3.758
 3477SOL     OW11329   0.554   3.927   2.182
 3477SOL    HW111330   0.527   3.831   2.176
 3477SOL    HW211331   0.489   3.976   2.240
 3478SOL     OW11332   2.368   1.040   1.365
 3478SOL    HW111333   2.319   1.077   1.444
 3478SOL    HW211334   2.304   1.023   1.291
 3479SOL     OW11335   1.221   4.318   4.857
 3479SOL    HW111336   1.317   4.312   4.882
 3479SOL    HW211337   1.211   4.376   4.776
 3480SOL     OW11338   1.316   4.838   6.884
 3480SOL    HW111339   1.235   4.786   6.857
 3480SOL    HW211340   1.364   4.789   6.957
 3481SOL     OW11341   6.342   0.789   5.452
 3481SOL    HW111342   6.336   0.698   5.493
 3481SOL    HW211343   6.425   0.795   5.396
 3482SOL     OW11344   5.846   3.795   5.273
 3482SOL    HW111345   5.759   3.844   5.271
 3482SOL    HW211346   5.832   3.700   5.243
 3483SOL     OW11347   5.342   2.679   4.924
 3483SOL    HW111348   5.342   2.611   4.998
 3483SOL    HW211349   5.346   2.771   4.963
 3484SOL     OW11350   1.993   3.354   5.410
 3484SOL    HW111351   1.964   3.374   5.503
 3484SOL    HW211352   2.084   3.394   5.394
 3485SOL     OW11353   6.718   2.701   6.431
 3485SOL    HW111354   6.756   2.674   6.519
 3485SOL    HW211355   6.770   2.779   6.395
 3486SOL     OW11356   2.056   6.137   4.749
 3486SOL    HW111357   2.149   6.167   4.732
 3486SOL    HW211358   2.055   6.071   4.825
 3487SOL     OW11359   4.813   1.336   6.488
 3487SOL    HW111360   4.775   1.421   6.453
 3487SOL    HW211361   4.845   1.351   6.582
 3488SOL     OW11362   5.670   0.491   5.075
 3488SOL    HW111363   5.610   0.481   4.996
 3488SOL    HW211364   5.656   0.414   5.138
 3489SOL     OW11365   3.133   6.314   0.791
 3489SOL    HW111366   3.080   6.384   0.743
 3489SOL    HW211367   3.208   6.358   0.841
 3490SOL     OW11368   3.314   6.252   0.196
 3490SOL    HW111369   3.408   6.232   0.170
 3490SOL    HW211370   3.263   6.166   0.206
 3491SOL     OW11371   4.610   4.820   6.154
 3491SOL    HW111372   4.632   4.875   6.073
 3491SOL    HW211373   4.695   4.794   6.200
 3492SOL     OW11374   5.700   4.383   2.250
 3492SOL    HW111375   5.746   4.377   2.339
 3492SOL    HW211376   5.675   4.478   2.231
 3493SOL     OW11377   6.434   3.056   5.512
 3493SOL    HW111378   6.377   3.138   5.508
 3493SOL    HW211379   6.376   2.975   5.503
 3494SOL     OW11380   4.533   1.861   1.856
 3494SOL    HW111381   4.479   1.895   1.933
 3494SOL    HW211382   4.477   1.861   1.774
 3495SOL     OW11383   0.852   2.379   2.353
 3495SOL    HW111384   0.816   2.343   2.439
 3495SOL    HW211385   0.922   2.317   2.318
 3496SOL     OW11386   5.812   5.390   1.115
 3496SOL    HW111387   5.737   5.324   1.124
 3496SOL    HW211388   5.870   5.385   1.196
 3497SOL     OW11389   3.426   6.358   2.692
 3497SOL    HW111390   3.400   6.270   2.732
 3497SOL    HW211391   3.385   6.367   2.601
 3498SOL     OW11392   2.021   2.637   1.408
 3498SOL    HW111393   1.925   2.657   1.390
 3498SOL    HW211394   2.071   2.723   1.418
 3499SOL     OW11395   6.353   5.504   5.191
 3499SOL    HW111396   6.361   5.528   5.288
 3499SOL    HW211397   6.257   5.490   5.168
 3500SOL     OW11398   1.658   1.757   4.579
 3500SOL    HW111399   1.664   1.811   4.495
 3500SOL    HW211400   1.676   1.661   4.558
 3501SOL     OW11401   1.492   0.384   5.386
 3501SOL    HW111402   1.438   0.309   5.425
 3501SOL    HW211403   1.470   0.469   5.432
 3502SOL     OW11404   4.820   2.879   2.203
 3502SOL    HW111405   4.790   2.916   2.114
 3502SOL    HW211406   4.913   2.843   2.194
 3503SOL     OW11407   6.465   6.017   6.720
 3503SOL    HW111408   6.523   6.013   6.801
 3503SOL    HW211409   6.395   6.088   6.732
 3504SOL     OW11410   0.913   1.018   0.548
 3504SOL    HW111411   0.902   0.973   0.459
 3504SOL    HW211412   0.943   0.950   0.616
 3505SOL     OW11413   5.002   4.678   6.525
 3505SOL    HW111414   4.927   4.695   6.589
 3505SOL    HW211415   5.029   4.582   6.528
 3506SOL     OW11416   5.082   4.726   4.754
 3506SOL    HW111417   5.069   4.787   4.832
 3506SOL    HW211418   5.173   4.684   4.760
 3507SOL     OW11419   3.450   0.174   0.615
 3507SOL    HW111420   3.535   0.211   0.651
 3507SOL    HW211421   3.373   0.230   0.647
 3508SOL     OW11422   2.782   2.269   5.505
 3508SOL    HW111423   2.856   2.315   5.457
 3508SOL    HW211424   2.747   2.194   5.448
 3509SOL     OW11425   3.709   5.327   6.611
 3509SOL    HW111426   3.688   5.255   6.545
 3509SOL    HW211427   3.698   5.416   6.568
 3510SOL     OW11428   2.720   1.514   0.772
 3510SOL    HW111429   2.728   1.549   0.866
 3510SOL    HW211430   2.679   1.584   0.714
 3511SOL     OW11431   2.863   4.176   1.684
 3511SOL    HW111432   2.870   4.270   1.717
 3511SOL    HW211433   2.768   4.145   1.691
 3512SOL     OW11434   0.180   5.351   6.490
 3512SOL    HW111435   0.267   5.305   6.508
 3512SOL    HW211436   0.140   5.383   6.576
 3513SOL     OW11437   5.736   2.010   0.400
 3513SOL    HW111438   5.714   1.941   0.331
 3513SOL    HW211439   5.816   2.062   0.370
 3514SOL     OW11440   3.995   1.536   2.093
 3514SOL    HW111441   4.069   1.570   2.152
 3514SOL    HW211442   3.912   1.589   2.110
 3515SOL     OW11443   6.916   5.508   4.188
 3515SOL    HW111444   6.957   5.513   4.097
 3515SOL    HW211445   6.987   5.485   4.255
 3516SOL     OW11446   4.337   0.398   1.238
 3516SOL    HW111447   4.401   0.474   1.226
 3516SOL    HW211448   4.271   0.400   1.163
 3517SOL     OW11449   6.103   0.398   1.232
 3517SOL    HW111450   6.035   0.332   1.263
 3517SOL    HW211451   6.064   0.454   1.159
 3518SOL     OW11452   5.285   1.028   5.342
 3518SOL    HW111453   5.229   0.971   5.402
 3518SOL    HW211454   5.272   1.125   5.366
 3519SOL     OW11455   3.488   0.625   1.042
 3519SOL    HW111456   3.456   0.564   0.969
 3519SOL    HW211457   3.588   0.629   1.040
 3520SOL     OW11458   2.686   6.197   4.548
 3520SOL    HW111459   2.698   6.293   4.522
 3520SOL    HW211460   2.729   6.139   4.479
 3521SOL     OW11461   2.250   3.309   0.969
 3521SOL    HW111462   2.161   3.350   0.989
 3521SOL    HW211463   2.301   3.295   1.054
 3522SOL     OW11464   0.201   5.699   6.560
 3522SOL    HW111465   0.293   5.677   6.529
 3522SOL    HW211466   0.205   5.769   6.631
 3523SOL     OW11467   1.769   5.438   6.736
 3523SOL    HW111468   1.746   5.505   6.666
 3523SOL    HW211469   1.709   5.358   6.727
 3524SOL     OW11470   5.447   1.091   3.303
 3524SOL    HW111471   5.502   1.110   3.385
 3524SOL    HW211472   5.467   0.999   3.271
 3525SOL     OW11473   6.357   3.918   3.063
 3525SOL    HW111474   6.399   3.989   3.006
 3525SOL    HW211475   6.418   3.838   3.067
 3526SOL     OW11476   0.761   6.607   3.363
 3526SOL    HW111477   0.691   6.598   3.434
 3526SOL    HW211478   0.739   6.546   3.287
 3527SOL     OW11479   0.406   2.748   5.709
 3527SOL    HW111480   0.379   2.652   5.713
 3527SOL    HW211481   0.326   2.806   5.724
 3528SOL     OW11482   2.254   5.849   4.678
 3528SOL    HW111483   2.228   5.867   4.773
 3528SOL    HW211484   2.338   5.898   4.657
 3529SOL     OW11485   4.532   5.282   1.026
 3529SOL    HW111486   4.469   5.338   0.973
 3529SOL    HW211487   4.592   5.341   1.080
 3530SOL     OW11488   6.986   6.961   2.101
 3530SOL    HW111489   0.007   6.905   2.032
 3530SOL    HW211490   6.903   6.915   2.131
 3531SOL     OW11491   5.355   2.016   0.193
 3531SOL    HW111492   5.317   2.107   0.205
 3531SOL    HW211493   5.426   2.018   0.123
 3532SOL     OW11494   2.137   1.452   1.678
 3532SOL    HW111495   2.060   1.505   1.711
 3532SOL    HW211496   2.189   1.416   1.756
 3533SOL     OW11497   1.102   1.502   2.962
 3533SOL    HW111498   1.044   1.421   2.967
 3533SOL    HW211499   1.196   1.477   2.982
 3534SOL     OW11500   0.389   1.417   1.095
 3534SOL    HW111501   0.407   1.326   1.056
 3534SOL    HW211502   0.290   1.432   1.097
 3535SOL     OW11503   2.945   5.868   4.601
 3535SOL    HW111504   2.851   5.853   4.569
 3535SOL    HW211505   2.956   5.962   4.631
 3536SOL     OW11506   3.301   2.076   2.740
 3536SOL    HW111507   3.233   2.149   2.731
 3536SOL    HW211508   3.387   2.114   2.773
 3537SOL     OW11509   1.888   5.859   2.985
 3537SOL    HW111510   1.878   5.839   2.887
 3537SOL    HW211511   1.969   5.915   2.999
 3538SOL     OW11512   3.497   5.304   3.770
 3538SOL    HW111513   3.533   5.350   3.851
 3538SOL    HW211514   3.473   5.210   3.793
 3539SOL     OW11515   3.313   3.553   4.292
 3539SOL    HW111516   3.412   3.547   4.276
 3539SOL    HW211517   3.297   3.593   4.382
 3540SOL     OW11518   1.820   1.892   3.492
 3540SOL    HW111519   1.753   1.821   3.511
 3540SOL    HW211520   1.910   1.851   3.476
 3541SOL     OW11521   3.162   4.142   5.114
 3541SOL    HW111522   3.096   4.085   5.065
 3541SOL    HW211523   3.252   4.099   5.111
 3542SOL     OW11524   0.638   5.482   1.568
 3542SOL    HW111525   0.673   5.575   1.557
 3542SOL    HW211526   0.649   5.432   1.483
 3543SOL     OW11527   6.436   2.791   5.045
 3543SOL    HW111528   6.386   2.842   5.115
 3543SOL    HW211529   6.372   2.735   4.992
 3544SOL     OW11530   2.025   5.757   6.655
 3544SOL    HW111531   1.979   5.669   6.646
 3544SOL    HW211532   2.059   5.768   6.748
 3545SOL     OW11533   3.362   5.347   0.112
 3545SOL    HW111534   3.435   5.416   0.109
 3545SOL    HW211535   3.363   5.294   0.027
 3546SOL     OW11536   6.071   4.575   2.805
 3546SOL    HW111537   6.144   4.638   2.829
 3546SOL    HW211538   6.017   4.613   2.730
 3547SOL     OW11539   4.950   4.663   3.680
 3547SOL    HW111540   4.957   4.734   3.750
 3547SOL    HW211541   4.874   4.602   3.702
 3548SOL     OW11542   4.540   3.080   5.547
 3548SOL    HW111543   4.546   3.006   5.480
 3548SOL    HW211544   4.568   3.166   5.504
 3549SOL     OW11545   6.146   3.883   2.715
 3549SOL    HW111546   6.132   3.968   2.664
 3549SOL    HW211547   6.077   3.876   2.787
 3550SOL     OW11548   5.674   2.341   2.342
 3550SOL    HW111549   5.597   2.306   2.289
 3550SOL    HW211550   5.752   2.279   2.333
 3551SOL     OW11551   2.264   6.827   2.974
 3551SOL    HW111552   2.330   6.784   2.913
 3551SOL    HW211553   2.303   6.835   3.066
 3552SOL     OW11554   6.962   4.408   3.053
 3552SOL    HW111555   7.004   4.497   3.070
 3552SOL    HW211556   6.931   4.404   2.958
 3553SOL     OW11557   5.958   2.193   3.135
 3553SOL    HW111558   5.985   2.289   3.144
 3553SOL    HW211559   5.941   2.172   3.039
 3554SOL     OW11560   4.054   5.460   6.702
 3554SOL    HW111561   3.988   5.493   6.769
 3554SOL    HW211562   4.039   5.363   6.684
 3555SOL     OW11563   1.014   2.931   3.663
 3555SOL    HW111564   0.990   2.855   3.603
 3555SOL    HW211565   1.110   2.923   3.691
 3556SOL     OW11566   3.883   0.740   6.621
 3556SOL    HW111567   3.819   0.814   6.606
 3556SOL    HW211568   3.913   0.703   6.533
 3557SOL     OW11569   0.899   0.978   4.827
 3557SOL    HW111570   0.931   0.896   4.779
 3557SOL    HW211571   0.945   0.985   4.915
 3558SOL     OW11572   6.772   5.557   1.276
 3558SOL    HW111573   6.799   5.474   1.228
 3558SOL    HW211574   6.719   5.615   1.215
 3559SOL     OW11575   0.846   1.219   5.664
 3559SOL    HW111576   0.879   1.313   5.661
 3559SOL    HW211577   0.754   1.215   5.625
 3560SOL     OW11578   6.735   6.216   1.748
 3560SOL    HW111579   6.686   6.160   1.681
 3560SOL    HW211580   6.779   6.156   1.815
 3561SOL     OW11581   4.306   4.674   4.388
 3561SOL    HW111582   4.406   4.679   4.390
 3561SOL    HW211583   4.271   4.662   4.481
 3562SOL     OW11584   4.585   2.500   2.659
 3562SOL    HW111585   4.535   2.420   2.625
 3562SOL    HW211586   4.538   2.537   2.739
 3563SOL     OW11587   4.557   0.590   1.298
 3563SOL    HW111588   4.534   0.606   1.394
 3563SOL    HW211589   4.568   0.678   1.252
 3564SOL     OW11590   0.224   4.318   2.987
 3564SOL    HW111591   0.257   4.228   2.960
 3564SOL    HW211592   0.124   4.318   2.987
 3565SOL     OW11593   1.962   0.053   4.998
 3565SOL    HW111594   1.864   0.037   4.991
 3565SOL    HW211595   1.990   0.119   4.928
 3566SOL     OW11596   0.543   4.052   5.579
 3566SOL    HW111597   0.520   4.017   5.489
 3566SOL    HW211598   0.609   3.991   5.623
 3567SOL     OW11599   0.234   2.845   0.778
 3567SOL    HW111600   0.261   2.834   0.873
 3567SOL    HW211601   0.139   2.817   0.767
 3568SOL     OW11602   5.193   3.751   3.540
 3568SOL    HW111603   5.288   3.731   3.516
 3568SOL    HW211604   5.175   3.722   3.634
 3569SOL     OW11605   3.746   3.245   3.774
 3569SOL    HW111606   3.744   3.145   3.766
 3569SOL    HW211607   3.774   3.285   3.688
 3570SOL     OW11608   0.270   2.503   5.743
 3570SOL    HW111609   0.274   2.414   5.788
 3570SOL    HW211610   0.245   2.491   5.647
 3571SOL     OW11611   2.331   6.649   4.780
 3571SOL    HW111612   2.378   6.737   4.777
 3571SOL    HW211613   2.398   6.576   4.789
 3572SOL     OW11614   4.913   4.782   1.912
 3572SOL    HW111615   5.007   4.789   1.945
 3572SOL    HW211616   4.883   4.870   1.877
 3573SOL     OW11617   0.565   3.828   3.167
 3573SOL    HW111618   0.522   3.793   3.250
 3573SOL    HW211619   0.561   3.928   3.167
 3574SOL     OW11620   1.763   1.506   5.630
 3574SOL    HW111621   1.816   1.462   5.558
 3574SOL    HW211622   1.809   1.590   5.659
 3575SOL     OW11623   5.537   0.079   7.022
 3575SOL    HW111624   5.541   0.072   0.095
 3575SOL    HW211625   5.559   0.173   6.995
 3576SOL     OW11626   1.107   2.391   0.826
 3576SOL    HW111627   1.148   2.472   0.867
 3576SOL    HW211628   1.079   2.327   0.898
 3577SOL     OW11629   2.029   2.458   5.472
 3577SOL    HW111630   2.103   2.521   5.449
 3577SOL    HW211631   2.058   2.397   5.546
 3578SOL     OW11632   3.373   2.775   6.399
 3578SOL    HW111633   3.278   2.755   6.376
 3578SOL    HW211634   3.408   2.704   6.459
 3579SOL     OW11635   0.516   3.485   1.739
 3579SOL    HW111636   0.511   3.389   1.711
 3579SOL    HW211637   0.528   3.543   1.658
 3580SOL     OW11638   0.808   4.519   2.142
 3580SOL    HW111639   0.760   4.455   2.082
 3580SOL    HW211640   0.741   4.572   2.194
 3581SOL     OW11641   1.252   0.318   2.564
 3581SOL    HW111642   1.259   0.314   2.664
 3581SOL    HW211643   1.158   0.337   2.537
 3582SOL     OW11644   4.364   5.204   6.558
 3582SOL    HW111645   4.279   5.251   6.582
 3582SOL    HW211646   4.382   5.216   6.461
 3583SOL     OW11647   1.265   4.750   0.963
 3583SOL    HW111648   1.177   4.735   0.918
 3583SOL    HW211649   1.255   4.740   1.062
 3584SOL     OW11650   6.489   5.096   4.957
 3584SOL    HW111651   6.458   5.189   4.975
 3584SOL    HW211652   6.568   5.075   5.014
 3585SOL     OW11653   3.419   1.451   3.388
 3585SOL    HW111654   3.419   1.504   3.303
 3585SOL    HW211655   3.325   1.442   3.422
 3586SOL     OW11656   0.133   2.374   5.203
 3586SOL    HW111657   0.189   2.413   5.129
 3586SOL    HW211658   0.175   2.288   5.234
 3587SOL     OW11659   2.963   0.174   6.555
 3587SOL    HW111660   2.953   0.111   6.632
 3587SOL    HW211661   2.883   0.166   6.496
 3588SOL     OW11662   6.249   5.071   4.780
 3588SOL    HW111663   6.332   5.081   4.834
 3588SOL    HW211664   6.259   5.120   4.693
 3589SOL     OW11665   0.150   0.415   5.675
 3589SOL    HW111666   0.130   0.320   5.650
 3589SOL    HW211667   0.237   0.419   5.725
 3590SOL     OW11668   6.898   5.458   6.716
 3590SOL    HW111669   6.852   5.544   6.736
 3590SOL    HW211670   6.842   5.405   6.651
 3591SOL     OW11671   6.146   1.248   6.666
 3591SOL    HW111672   6.167   1.187   6.742
 3591SOL    HW211673   6.117   1.337   6.702
 3592SOL     OW11674   1.443   6.183   1.440
 3592SOL    HW111675   1.440   6.089   1.472
 3592SOL    HW211676   1.417   6.245   1.514
 3593SOL     OW11677   3.964   3.124   5.328
 3593SOL    HW111678   3.944   3.039   5.376
 3593SOL    HW211679   3.958   3.108   5.229
 3594SOL     OW11680   4.381   4.822   4.996
 3594SOL    HW111681   4.367   4.724   5.004
 3594SOL    HW211682   4.469   4.847   5.038
 3595SOL     OW11683   5.306   6.333   4.318
 3595SOL    HW111684   5.220   6.315   4.270
 3595SOL    HW211685   5.306   6.284   4.405
 3596SOL     OW11686   4.238   1.714   3.383
 3596SOL    HW111687   4.148   1.704   3.341
 3596SOL    HW211688   4.309   1.694   3.316
 3597SOL     OW11689   2.951   3.336   5.576
 3597SOL    HW111690   2.898   3.418   5.596
 3597SOL    HW211691   2.890   3.260   5.556
 3598SOL     OW11692   0.777   5.761   4.809
 3598SOL    HW111693   0.756   5.830   4.878
 3598SOL    HW211694   0.812   5.678   4.853
 3599SOL     OW11695   3.244   1.250   5.214
 3599SOL    HW111696   3.145   1.245   5.225
 3599SOL    HW211697   3.270   1.211   5.126
 3600SOL     OW11698   3.247   3.411   6.968
 3600SOL    HW111699   3.279   3.440   0.032
 3600SOL    HW211700   3.180   3.476   6.933
 3601SOL     OW11701   4.718   0.845   4.945
 3601SOL    HW111702   4.729   0.765   4.885
 3601SOL    HW211703   4.748   0.927   4.896
 3602SOL     OW11704   2.146   1.542   1.235
 3602SOL    HW111705   2.112   1.460   1.188
 3602SOL    HW211706   2.081   1.569   1.306
 3603SOL     OW11707   2.534   0.128   5.441
 3603SOL    HW111708   2.618   0.110   5.491
 3603SOL    HW211709   2.464   0.162   5.504
 3604SOL     OW11710   6.947   0.587   3.556
 3604SOL    HW111711   6.965   0.538   3.641
 3604SOL    HW211712   6.896   0.670   3.576
 3605SOL     OW11713   1.125   6.783   4.135
 3605SOL    HW111714   1.140   6.684   4.132
 3605SOL    HW211715   1.149   6.818   4.225
 3606SOL     OW11716   2.521   0.107   2.327
 3606SOL    HW111717   2.478   0.144   2.409
 3606SOL    HW211718   2.481   0.017   2.306
 3607SOL     OW11719   5.940   1.815   3.083
 3607SOL    HW111720   5.950   1.737   3.022
 3607SOL    HW211721   5.844   1.822   3.112
 3608SOL     OW11722   2.989   1.926   5.544
 3608SOL    HW111723   3.020   1.902   5.452
 3608SOL    HW211724   2.911   1.989   5.538
 3609SOL     OW11725   3.743   0.637   5.253
 3609SOL    HW111726   3.652   0.599   5.239
 3609SOL    HW211727   3.762   0.707   5.184
 3610SOL     OW11728   1.650   0.770   5.654
 3610SOL    HW111729   1.609   0.744   5.566
 3610SOL    HW211730   1.679   0.688   5.703
 3611SOL     OW11731   5.373   4.622   2.980
 3611SOL    HW111732   5.288   4.648   3.027
 3611SOL    HW211733   5.386   4.523   2.989
 3612SOL     OW11734   5.684   1.147   0.166
 3612SOL    HW111735   5.717   1.108   0.253
 3612SOL    HW211736   5.759   1.196   0.122
 3613SOL     OW11737   4.406   6.555   2.345
 3613SOL    HW111738   4.408   6.552   2.245
 3613SOL    HW211739   4.405   6.650   2.376
 3614SOL     OW11740   3.828   5.469   6.850
 3614SOL    HW111741   3.829   5.397   6.920
 3614SOL    HW211742   3.838   5.558   6.895
 3615SOL     OW11743   5.662   2.133   5.963
 3615SOL    HW111744   5.627   2.226   5.947
 3615SOL    HW211745   5.749   2.122   5.915
 3616SOL     OW11746   1.216   2.294   0.552
 3616SOL    HW111747   1.154   2.258   0.482
 3616SOL    HW211748   1.164   2.319   0.634
 3617SOL     OW11749   3.733   5.966   5.574
 3617SOL    HW111750   3.760   6.000   5.664
 3617SOL    HW211751   3.686   5.878   5.584
 3618SOL     OW11752   0.997   5.141   4.163
 3618SOL    HW111753   0.944   5.202   4.103
 3618SOL    HW211754   1.051   5.196   4.226
 3619SOL     OW11755   6.026   3.199   2.033
 3619SOL    HW111756   6.109   3.187   2.087
 3619SOL    HW211757   5.955   3.136   2.065
 3620SOL     OW11758   5.875   5.711   4.459
 3620SOL    HW111759   5.778   5.732   4.464
 3620SOL    HW211760   5.920   5.773   4.395
 3621SOL     OW11761   4.025   3.323   3.494
 3621SOL    HW111762   4.013   3.241   3.439
 3621SOL    HW211763   3.936   3.361   3.518
 3622SOL     OW11764   1.581   6.284   5.971
 3622SOL    HW111765   1.588   6.381   5.950
 3622SOL    HW211766   1.624   6.265   6.059
 3623SOL     OW11767   1.123   5.772   6.268
 3623SOL    HW111768   1.117   5.869   6.292
 3623SOL    HW211769   1.141   5.719   6.350
 3624SOL     OW11770   2.469   2.117   1.836
 3624SOL    HW111771   2.444   2.043   1.774
 3624SOL    HW211772   2.567   2.135   1.829
 3625SOL     OW11773   6.706   2.480   1.043
 3625SOL    HW111774   6.768   2.503   1.118
 3625SOL    HW211775   6.694   2.381   1.039
 3626SOL     OW11776   1.852   3.126   5.374
 3626SOL    HW111777   1.896   3.215   5.389
 3626SOL    HW211778   1.872   3.095   5.281
 3627SOL     OW11779   3.526   2.014   1.933
 3627SOL    HW111780   3.562   2.105   1.955
 3627SOL    HW211781   3.592   1.966   1.875
 3628SOL     OW11782   6.593   1.869   1.861
 3628SOL    HW111783   6.607   1.959   1.819
 3628SOL    HW211784   6.504   1.833   1.833
 3629SOL     OW11785   1.622   1.395   4.724
 3629SOL    HW111786   1.714   1.368   4.694
 3629SOL    HW211787   1.626   1.423   4.820
 3630SOL     OW11788   6.872   2.046   1.553
 3630SOL    HW111789   6.874   1.961   1.606
 3630SOL    HW211790   6.954   2.099   1.573
 3631SOL     OW11791   2.214   6.733   1.919
 3631SOL    HW111792   2.226   6.831   1.904
 3631SOL    HW211793   2.130   6.702   1.874
 3632SOL     OW11794   4.502   3.850   1.711
 3632SOL    HW111795   4.551   3.768   1.681
 3632SOL    HW211796   4.407   3.826   1.731
 3633SOL     OW11797   3.971   4.255   6.921
 3633SOL    HW111798   4.055   4.205   6.942
 3633SOL    HW211799   3.985   4.312   6.841
 3634SOL     OW11800   2.837   5.482   6.636
 3634SOL    HW111801   2.765   5.550   6.622
 3634SOL    HW211802   2.870   5.449   6.548
 3635SOL     OW11803   1.118   6.175   2.134
 3635SOL    HW111804   1.047   6.113   2.100
 3635SOL    HW211805   1.087   6.218   2.219
 3636SOL     OW11806   0.496   5.198   6.268
 3636SOL    HW111807   0.552   5.213   6.187
 3636SOL    HW211808   0.417   5.142   6.244
 3637SOL     OW11809   5.808   2.985   7.004
 3637SOL    HW111810   5.743   3.056   6.978
 3637SOL    HW211811   5.821   2.987   0.077
 3638SOL     OW11812   6.997   3.147   3.586
 3638SOL    HW111813   7.009   3.109   3.678
 3638SOL    HW211814   6.905   3.126   3.554
 3639SOL     OW11815   4.145   3.364   3.976
 3639SOL    HW111816   4.110   3.304   3.904
 3639SOL    HW211817   4.238   3.338   4.001
 3640SOL     OW11818   4.294   2.111   1.548
 3640SOL    HW111819   4.195   2.112   1.558
 3640SOL    HW211820   4.326   2.202   1.521
 3641SOL     OW11821   5.931   4.141   2.253
 3641SOL    HW111822   6.026   4.156   2.277
 3641SOL    HW211823   5.885   4.229   2.241
 3642SOL     OW11824   5.054   3.432   6.180
 3642SOL    HW111825   5.147   3.408   6.210
 3642SOL    HW211826   4.989   3.367   6.220
 3643SOL     OW11827   4.245   5.814   4.854
 3643SOL    HW111828   4.230   5.881   4.927
 3643SOL    HW211829   4.164   5.755   4.846
 3644SOL     OW11830   2.963   0.417   1.688
 3644SOL    HW111831   3.006   0.465   1.764
 3644SOL    HW211832   2.922   0.483   1.625
 3645SOL     OW11833   1.369   3.710   3.686
 3645SOL    HW111834   1.436   3.635   3.686
 3645SOL    HW211835   1.408   3.788   3.735
 3646SOL     OW11836   1.684   5.012   5.968
 3646SOL    HW111837   1.588   4.987   5.951
 3646SOL    HW211838   1.724   4.946   6.031
 3647SOL     OW11839   2.443   6.704   6.794
 3647SOL    HW111840   2.441   6.777   6.863
 3647SOL    HW211841   2.501   6.629   6.825
 3648SOL     OW11842   4.765   5.427   3.487
 3648SOL    HW111843   4.689   5.448   3.548
 3648SOL    HW211844   4.735   5.437   3.392
 3649SOL     OW11845   5.573   2.223   0.377
 3649SOL    HW111846   5.592   2.126   0.386
 3649SOL    HW211847   5.561   2.263   0.468
 3650SOL     OW11848   5.286   6.364   6.042
 3650SOL    HW111849   5.332   6.337   6.126
 3650SOL    HW211850   5.284   6.288   5.978
 3651SOL     OW11851   0.949   1.972   5.938
 3651SOL    HW111852   0.942   2.069   5.964
 3651SOL    HW211853   1.035   1.958   5.889
 3652SOL     OW11854   4.409   1.871   1.587
 3652SOL    HW111855   4.365   1.797   1.537
 3652SOL    HW211856   4.362   1.957   1.568
 3653SOL     OW11857   1.783   1.765   0.810
 3653SOL    HW111858   1.708   1.767   0.877
 3653SOL    HW211859   1.837   1.682   0.823
 3654SOL     OW11860   4.458   6.705   1.777
 3654SOL    HW111861   4.533   6.737   1.835
 3654SOL    HW211862   4.470   6.742   1.685
 3655SOL     OW11863   0.888   0.818   4.002
 3655SOL    HW111864   0.987   0.808   4.007
 3655SOL    HW211865   0.846   0.727   3.990
 3656SOL     OW11866   0.342   0.456   1.363
 3656SOL    HW111867   0.381   0.439   1.454
 3656SOL    HW211868   0.315   0.552   1.356
 3657SOL     OW11869   5.608   5.507   6.376
 3657SOL    HW111870   5.616   5.459   6.463
 3657SOL    HW211871   5.581   5.443   6.305
 3658SOL     OW11872   2.013   4.802   5.503
 3658SOL    HW111873   1.917   4.804   5.532
 3658SOL    HW211874   2.047   4.896   5.499
 3659SOL     OW11875   0.322   2.860   6.480
 3659SOL    HW111876   0.365   2.917   6.550
 3659SOL    HW211877   0.348   2.894   6.389
 3660SOL     OW11878   4.421   5.730   5.447
 3660SOL    HW111879   4.456   5.810   5.400
 3660SOL    HW211880   4.409   5.750   5.544
 3661SOL     OW11881   0.366   1.455   4.664
 3661SOL    HW111882   0.419   1.410   4.736
 3661SOL    HW211883   0.427   1.486   4.592
 3662SOL     OW11884   3.090   1.943   5.878
 3662SOL    HW111885   3.069   2.035   5.845
 3662SOL    HW211886   3.156   1.900   5.816
 3663SOL     OW11887   2.531   2.585   6.698
 3663SOL    HW111888   2.509   2.563   6.603
 3663SOL    HW211889   2.450   2.624   6.742
 3664SOL     OW11890   3.104   1.976   1.074
 3664SOL    HW111891   3.082   2.000   0.980
 3664SOL    HW211892   3.180   2.032   1.106
 3665SOL     OW11893   0.426   5.404   5.932
 3665SOL    HW111894   0.379   5.346   5.866
 3665SOL    HW211895   0.360   5.447   5.993
 3666SOL     OW11896   2.138   3.203   4.094
 3666SOL    HW111897   2.177   3.214   4.003
 3666SOL    HW211898   2.069   3.130   4.091
 3667SOL     OW11899   1.793   6.845   1.012
 3667SOL    HW111900   1.893   6.845   1.017
 3667SOL    HW211901   1.758   6.760   1.052
 3668SOL     OW11902   6.209   1.117   0.976
 3668SOL    HW111903   6.215   1.192   1.042
 3668SOL    HW211904   6.253   1.143   0.890
 3669SOL     OW11905   0.617   0.752   3.172
 3669SOL    HW111906   0.669   0.669   3.192
 3669SOL    HW211907   0.619   0.770   3.073
 3670SOL     OW11908   2.586   0.483   1.844
 3670SOL    HW111909   2.526   0.496   1.765
 3670SOL    HW211910   2.678   0.517   1.822
 3671SOL     OW11911   0.129   1.063   4.618
 3671SOL    HW111912   0.163   1.126   4.688
 3671SOL    HW211913   0.077   0.990   4.663
 3672SOL     OW11914   3.757   6.963   3.520
 3672SOL    HW111915   3.805   0.023   3.508
 3672SOL    HW211916   3.735   6.924   3.430
 3673SOL     OW11917   3.262   0.303   1.405
 3673SOL    HW111918   3.172   0.259   1.393
 3673SOL    HW211919   3.272   0.377   1.339
 3674SOL     OW11920   0.352   4.560   6.890
 3674SOL    HW111921   0.269   4.615   6.904
 3674SOL    HW211922   0.336   4.494   6.817
 3675SOL     OW11923   0.380   1.016   4.022
 3675SOL    HW111924   0.387   0.979   4.114
 3675SOL    HW211925   0.284   1.021   3.994
 3676SOL     OW11926   3.465   1.129   5.454
 3676SOL    HW111927   3.523   1.057   5.493
 3676SOL    HW211928   3.411   1.090   5.380
 3677SOL     OW11929   1.442   1.160   4.655
 3677SOL    HW111930   1.502   1.240   4.644
 3677SOL    HW211931   1.392   1.143   4.570
 3678SOL     OW11932   1.921   0.865   3.552
 3678SOL    HW111933   1.843   0.923   3.577
 3678SOL    HW211934   1.986   0.862   3.628
 3679SOL     OW11935   3.624   0.195   2.536
 3679SOL    HW111936   3.602   0.104   2.501
 3679SOL    HW211937   3.718   0.196   2.571
 3680SOL     OW11938   3.328   2.176   4.700
 3680SOL    HW111939   3.337   2.275   4.687
 3680SOL    HW211940   3.247   2.157   4.756
 3681SOL     OW11941   0.938   6.540   4.034
 3681SOL    HW111942   0.937   6.553   4.133
 3681SOL    HW211943   0.844   6.543   3.999
 3682SOL     OW11944   5.074   2.068   0.738
 3682SOL    HW111945   5.066   2.116   0.825
 3682SOL    HW211946   5.139   2.115   0.679
 3683SOL     OW11947   6.711   1.263   0.739
 3683SOL    HW111948   6.797   1.287   0.784
 3683SOL    HW211949   6.641   1.248   0.809
 3684SOL     OW11950   2.594   6.003   5.244
 3684SOL    HW111951   2.511   6.011   5.187
 3684SOL    HW211952   2.631   5.910   5.236
 3685SOL     OW11953   1.988   6.138   4.404
 3685SOL    HW111954   1.925   6.066   4.377
 3685SOL    HW211955   1.945   6.197   4.472
 3686SOL     OW11956   0.035   3.874   0.663
 3686SOL    HW111957   0.057   3.816   0.584
 3686SOL    HW211958   6.985   3.835   0.713
 3687SOL     OW11959   5.784   4.599   4.226
 3687SOL    HW111960   5.872   4.593   4.272
 3687SOL    HW211961   5.745   4.690   4.242
 3688SOL     OW11962   6.781   2.863   1.657
 3688SOL    HW111963   6.736   2.823   1.577
 3688SOL    HW211964   6.820   2.952   1.633
 3689SOL     OW11965   0.866   0.975   6.226
 3689SOL    HW111966   0.888   0.944   6.319
 3689SOL    HW211967   0.901   0.908   6.161
 3690SOL     OW11968   5.676   5.142   1.804
 3690SOL    HW111969   5.689   5.155   1.902
 3690SOL    HW211970   5.743   5.196   1.754
 3691SOL     OW11971   1.599   2.672   0.458
 3691SOL    HW111972   1.614   2.577   0.487
 3691SOL    HW211973   1.551   2.722   0.530
 3692SOL     OW11974   1.215   3.164   5.264
 3692SOL    HW111975   1.131   3.132   5.220
 3692SOL    HW211976   1.204   3.160   5.363
 3693SOL     OW11977   0.369   1.520   2.738
 3693SOL    HW111978   0.358   1.611   2.777
 3693SOL    HW211979   0.290   1.463   2.764
 3694SOL     OW11980   6.420   0.004   2.994
 3694SOL    HW111981   6.438   0.080   3.057
 3694SOL    HW211982   6.422   0.037   2.900
 3695SOL     OW11983   6.060   3.561   3.541
 3695SOL    HW111984   6.120   3.611   3.479
 3695SOL    HW211985   6.095   3.567   3.635
 3696SOL     OW11986   4.190   0.684   4.208
 3696SOL    HW111987   4.171   0.653   4.301
 3696SOL    HW211988   4.277   0.733   4.206
 3697SOL     OW11989   6.596   6.124   2.959
 3697SOL    HW111990   6.564   6.219   2.955
 3697SOL    HW211991   6.570   6.084   3.047
 3698SOL     OW11992   1.900   0.346   3.625
 3698SOL    HW111993   1.973   0.411   3.648
 3698SOL    HW211994   1.854   0.316   3.708
 3699SOL     OW11995   2.410   2.379   3.654
 3699SOL    HW111996   2.419   2.464   3.705
 3699SOL    HW211997   2.387   2.304   3.716
 3700SOL     OW11998   1.149   4.576   5.043
 3700SOL    HW111999   1.139   4.489   4.996
 3700SOL    HW212000   1.099   4.572   5.130
 3701SOL     OW12001   0.380   1.255   2.634
 3701SOL    HW112002   0.312   1.250   2.707
 3701SOL    HW212003   0.422   1.346   2.634
 3702SOL     OW12004   6.360   3.826   3.649
 3702SOL    HW112005   6.407   3.911   3.676
 3702SOL    HW212006   6.265   3.830   3.679
 3703SOL     OW12007   1.493   1.341   3.431
 3703SOL    HW112008   1.526   1.435   3.441
 3703SOL    HW212009   1.542   1.296   3.357
 3704SOL     OW12010   6.005   0.555   1.010
 3704SOL    HW112011   5.915   0.551   1.053
 3704SOL    HW212012   6.006   0.628   0.941
 3705SOL     OW12013   5.737   4.054   3.706
 3705SOL    HW112014   5.798   4.118   3.752
 3705SOL    HW212015   5.644   4.067   3.740
 3706SOL     OW12016   1.215   5.015   6.601
 3706SOL    HW112017   1.206   5.068   6.686
 3706SOL    HW212018   1.285   5.057   6.544
 3707SOL     OW12019   1.350   4.422   3.657
 3707SOL    HW112020   1.338   4.509   3.609
 3707SOL    HW212021   1.310   4.428   3.748
 3708SOL     OW12022   1.961   6.466   0.936
 3708SOL    HW112023   1.896   6.460   1.011
 3708SOL    HW212024   1.933   6.539   0.873
 3709SOL     OW12025   0.930   1.475   1.923
 3709SOL    HW112026   0.911   1.560   1.873
 3709SOL    HW212027   0.864   1.405   1.897
 3710SOL     OW12028   1.566   3.856   5.196
 3710SOL    HW112029   1.617   3.781   5.239
 3710SOL    HW212030   1.569   3.845   5.097
 3711SOL     OW12031   1.675   5.570   4.869
 3711SOL    HW112032   1.637   5.572   4.776
 3711SOL    HW212033   1.601   5.570   4.935
 3712SOL     OW12034   2.808   5.360   4.612
 3712SOL    HW112035   2.739   5.421   4.653
 3712SOL    HW212036   2.896   5.407   4.610
 3713SOL     OW12037   5.953   0.654   5.033
 3713SOL    HW112038   5.889   0.579   5.045
 3713SOL    HW212039   5.907   0.732   4.991
 3714SOL     OW12040   0.378   4.126   0.352
 3714SOL    HW112041   0.471   4.154   0.332
 3714SOL    HW212042   0.355   4.154   0.446
 3715SOL     OW12043   6.160   4.589   3.523
 3715SOL    HW112044   6.167   4.562   3.619
 3715SOL    HW212045   6.174   4.508   3.465
 3716SOL     OW12046   5.338   5.893   5.193
 3716SOL    HW112047   5.435   5.921   5.199
 3716SOL    HW212048   5.321   5.852   5.103
 3717SOL     OW12049   4.381   0.879   0.504
 3717SOL    HW112050   4.330   0.820   0.567
 3717SOL    HW212051   4.363   0.975   0.526
 3718SOL     OW12052   6.128   6.579   6.243
 3718SOL    HW112053   6.176   6.602   6.158
 3718SOL    HW212054   6.051   6.642   6.256
 3719SOL     OW12055   3.052   4.369   0.406
 3719SOL    HW112056   3.048   4.340   0.310
 3719SOL    HW212057   3.131   4.326   0.450
 3720SOL     OW12058   0.224   2.847   1.055
 3720SOL    HW112059   0.139   2.899   1.062
 3720SOL    HW212060   0.290   2.882   1.121
 3721SOL     OW12061   6.341   0.508   5.507
 3721SOL    HW112062   6.383   0.422   5.482
 3721SOL    HW212063   6.318   0.507   5.605
 3722SOL     OW12064   5.575   6.328   1.977
 3722SOL    HW112065   5.544   6.415   2.015
 3722SOL    HW212066   5.661   6.301   2.021
 3723SOL     OW12067   4.618   3.831   6.317
 3723SOL    HW112068   4.598   3.914   6.368
 3723SOL    HW212069   4.715   3.828   6.295
 3724SOL     OW12070   0.575   3.847   4.354
 3724SOL    HW112071   0.533   3.869   4.266
 3724SOL    HW212072   0.672   3.872   4.351
 3725SOL     OW12073   1.321   6.091   0.051
 3725SOL    HW112074   1.236   6.123   0.093
 3725SOL    HW212075   1.321   6.116   6.981
 3726SOL     OW12076   6.210   3.872   5.767
 3726SOL    HW112077   6.301   3.846   5.735
 3726SOL    HW212078   6.204   3.971   5.773
 3727SOL     OW12079   6.775   2.534   4.096
 3727SOL    HW112080   6.699   2.470   4.102
 3727SOL    HW212081   6.760   2.610   4.159
 3728SOL     OW12082   2.374   4.705   0.822
 3728SOL    HW112083   2.325   4.666   0.901
 3728SOL    HW212084   2.460   4.656   0.809
 3729SOL     OW12085   0.028   0.014   5.899
 3729SOL    HW112086   0.037   0.074   5.820
 3729SOL    HW212087   0.101   6.972   5.898
 3730SOL     OW12088   4.751   4.982   4.526
 3730SOL    HW112089   4.674   4.967   4.588
 3730SOL    HW212090   4.800   5.065   4.552
 3731SOL     OW12091   0.312   2.170   0.979
 3731SOL    HW112092   0.373   2.178   0.901
 3731SOL    HW212093   0.253   2.251   0.985
 3732SOL     OW12094   3.680   3.275   6.895
 3732SOL    HW112095   3.740   3.213   6.844
 3732SOL    HW212096   3.586   3.243   6.889
 3733SOL     OW12097   1.133   0.569   3.623
 3733SOL    HW112098   1.213   0.597   3.569
 3733SOL    HW212099   1.107   0.643   3.685
 3734SOL     OW12100   3.470   0.077   1.330
 3734SOL    HW112101   3.456   7.007   1.353
 3734SOL    HW212102   3.391   0.130   1.360
 3735SOL     OW12103   4.628   0.240   2.873
 3735SOL    HW112104   4.603   0.150   2.839
 3735SOL    HW212105   4.692   0.283   2.810
 3736SOL     OW12106   6.898   1.294   0.190
 3736SOL    HW112107   6.979   1.241   0.215
 3736SOL    HW212108   6.925   1.389   0.173
 3737SOL     OW12109   5.919   1.846   2.672
 3737SOL    HW112110   5.876   1.845   2.582
 3737SOL    HW212111   6.015   1.818   2.664
 3738SOL     OW12112   0.636   0.644   1.193
 3738SOL    HW112113   0.689   0.729   1.197
 3738SOL    HW212114   0.671   0.578   1.259
 3739SOL     OW12115   3.067   4.360   6.629
 3739SOL    HW112116   3.040   4.342   6.724
 3739SOL    HW212117   3.167   4.357   6.622
 3740SOL     OW12118   5.246   6.088   6.550
 3740SOL    HW112119   5.284   6.017   6.609
 3740SOL    HW212120   5.152   6.109   6.578
 3741SOL     OW12121   5.263   3.773   0.330
 3741SOL    HW112122   5.167   3.749   0.343
 3741SOL    HW212123   5.312   3.694   0.292
 3742SOL     OW12124   4.608   5.694   1.030
 3742SOL    HW112125   4.525   5.724   1.078
 3742SOL    HW212126   4.684   5.754   1.054
 3743SOL     OW12127   3.414   4.127   0.635
 3743SOL    HW112128   3.504   4.164   0.660
 3743SOL    HW212129   3.400   4.041   0.684
 3744SOL     OW12130   6.582   6.546   2.720
 3744SOL    HW112131   6.530   6.630   2.705
 3744SOL    HW212132   6.604   6.504   2.632
 3745SOL     OW12133   4.775   2.728   2.712
 3745SOL    HW112134   4.728   2.641   2.699
 3745SOL    HW212135   4.792   2.770   2.622
 3746SOL     OW12136   6.275   0.313   4.478
 3746SOL    HW112137   6.188   0.352   4.509
 3746SOL    HW212138   6.344   0.323   4.550
 3747SOL     OW12139   3.304   5.905   5.216
 3747SOL    HW112140   3.234   5.945   5.276
 3747SOL    HW212141   3.371   5.857   5.273
 3748SOL     OW12142   5.049   2.347   4.194
 3748SOL    HW112143   4.990   2.317   4.119
 3748SOL    HW212144   4.996   2.345   4.280
 3749SOL     OW12145   6.553   6.390   2.464
 3749SOL    HW112146   6.583   6.329   2.390
 3749SOL    HW212147   6.480   6.346   2.516
 3750SOL     OW12148   5.450   3.949   1.281
 3750SOL    HW112149   5.406   3.922   1.367
 3750SOL    HW212150   5.431   4.046   1.263
 3751SOL     OW12151   0.888   4.388   1.692
 3751SOL    HW112152   0.788   4.381   1.698
 3751SOL    HW212153   0.929   4.303   1.725
 3752SOL     OW12154   0.476   6.506   5.850
 3752SOL    HW112155   0.535   6.550   5.782
 3752SOL    HW212156   0.446   6.575   5.916
 3753SOL     OW12157   6.818   0.852   4.933
 3753SOL    HW112158   6.744   0.903   4.888
 3753SOL    HW212159   6.822   0.879   5.029
 3754SOL     OW12160   6.586   5.954   1.299
 3754SOL    HW112161   6.578   5.856   1.320
 3754SOL    HW212162   6.498   5.998   1.311
 3755SOL     OW12163   4.782   2.834   2.460
 3755SOL    HW112164   4.815   2.856   2.369
 3755SOL    HW212165   4.759   2.918   2.509
 3756SOL     OW12166   3.245   0.365   6.772
 3756SOL    HW112167   3.334   0.406   6.788
 3756SOL    HW212168   3.215   0.316   6.854
 3757SOL     OW12169   4.011   4.759   6.650
 3757SOL    HW112170   4.045   4.797   6.736
 3757SOL    HW212171   4.056   4.805   6.573
 3758SOL     OW12172   0.144   0.241   2.866
 3758SOL    HW112173   0.149   0.256   2.965
 3758SOL    HW212174   0.216   0.177   2.839
 3759SOL     OW12175   5.135   5.347   0.709
 3759SOL    HW112176   5.099   5.438   0.729
 3759SOL    HW212177   5.140   5.293   0.793
 3760SOL     OW12178   2.059   1.954   5.839
 3760SOL    HW112179   2.045   2.051   5.815
 3760SOL    HW212180   2.015   1.935   5.927
 3761SOL     OW12181   0.371   6.759   4.434
 3761SOL    HW112182   0.378   6.660   4.447
 3761SOL    HW212183   0.372   6.780   4.336
 3762SOL     OW12184   0.312   3.748   6.611
 3762SOL    HW112185   0.357   3.833   6.585
 3762SOL    HW212186   0.370   3.671   6.584
 3763SOL     OW12187   6.523   3.764   5.950
 3763SOL    HW112188   6.590   3.808   6.010
 3763SOL    HW212189   6.507   3.821   5.870
 3764SOL     OW12190   2.739   6.771   4.231
 3764SOL    HW112191   2.656   6.827   4.230
 3764SOL    HW212192   2.804   6.810   4.296
 3765SOL     OW12193   6.098   1.536   3.633
 3765SOL    HW112194   6.057   1.473   3.700
 3765SOL    HW212195   6.026   1.572   3.574
 3766SOL     OW12196   1.608   0.166   4.843
 3766SOL    HW112197   1.520   0.212   4.854
 3766SOL    HW212198   1.628   0.113   4.925
 3767SOL     OW12199   1.104   4.760   0.419
 3767SOL    HW112200   1.191   4.799   0.448
 3767SOL    HW212201   1.100   4.664   0.447
 3768SOL     OW12202   4.294   6.595   1.161
 3768SOL    HW112203   4.264   6.663   1.094
 3768SOL    HW212204   4.379   6.554   1.131
 3769SOL     OW12205   4.536   6.570   4.851
 3769SOL    HW112206   4.611   6.597   4.792
 3769SOL    HW212207   4.451   6.613   4.821
 3770SOL     OW12208   2.156   1.908   0.122
 3770SOL    HW112209   2.199   1.931   0.034
 3770SOL    HW212210   2.194   1.966   0.194
 3771SOL     OW12211   4.456   1.406   5.054
 3771SOL    HW112212   4.463   1.408   4.954
 3771SOL    HW212213   4.518   1.337   5.091
 3772SOL     OW12214   4.583   0.760   2.546
 3772SOL    HW112215   4.616   0.716   2.629
 3772SOL    HW212216   4.535   0.845   2.570
 3773SOL     OW12217   6.816   2.173   0.638
 3773SOL    HW112218   6.830   2.246   0.571
 3773SOL    HW212219   6.720   2.173   0.667
 3774SOL     OW12220   0.969   2.146   2.131
 3774SOL    HW112221   0.955   2.192   2.044
 3774SOL    HW212222   0.886   2.095   2.156
 3775SOL     OW12223   5.701   2.791   3.545
 3775SOL    HW112224   5.791   2.818   3.511
 3775SOL    HW212225   5.637   2.866   3.532
 3776SOL     OW12226   2.793   3.256   6.843
 3776SOL    HW112227   2.752   3.252   6.934
 3776SOL    HW212228   2.889   3.231   6.849
 3777SOL     OW12229   1.785   3.585   3.263
 3777SOL    HW112230   1.759   3.511   3.200
 3777SOL    HW212231   1.863   3.635   3.225
 3778SOL     OW12232   2.394   6.331   2.182
 3778SOL    HW112233   2.486   6.368   2.193
 3778SOL    HW212234   2.361   6.351   2.090
 3779SOL     OW12235   2.411   4.868   6.825
 3779SOL    HW112236   2.361   4.783   6.845
 3779SOL    HW212237   2.509   4.848   6.820
 3780SOL     OW12238   2.521   6.934   4.187
 3780SOL    HW112239   2.582   7.001   4.144
 3780SOL    HW212240   2.432   6.977   4.205
 3781SOL     OW12241   2.306   5.516   4.684
 3781SOL    HW112242   2.226   5.550   4.634
 3781SOL    HW212243   2.343   5.436   4.638
 3782SOL     OW12244   2.194   1.313   3.011
 3782SOL    HW112245   2.261   1.248   3.045
 3782SOL    HW212246   2.103   1.289   3.045
 3783SOL     OW12247   4.939   6.073   5.605
 3783SOL    HW112248   4.954   5.984   5.648
 3783SOL    HW212249   5.025   6.106   5.567
 3784SOL     OW12250   5.109   2.015   3.916
 3784SOL    HW112251   5.108   1.940   3.982
 3784SOL    HW212252   5.190   2.071   3.930
 3785SOL     OW12253   1.451   1.806   1.842
 3785SOL    HW112254   1.506   1.873   1.793
 3785SOL    HW212255   1.478   1.805   1.939
 3786SOL     OW12256   3.293   5.902   2.513
 3786SOL    HW112257   3.312   5.936   2.420
 3786SOL    HW212258   3.206   5.854   2.513
 3787SOL     OW12259   4.402   1.242   4.232
 3787SOL    HW112260   4.420   1.240   4.330
 3787SOL    HW212261   4.359   1.156   4.204
 3788SOL     OW12262   6.238   3.706   2.026
 3788SOL    HW112263   6.259   3.648   2.104
 3788SOL    HW212264   6.314   3.770   2.011
 3789SOL     OW12265   1.397   5.569   2.755
 3789SOL    HW112266   1.317   5.611   2.712
 3789SOL    HW212267   1.429   5.493   2.698
 3790SOL     OW12268   2.144   2.730   3.274
 3790SOL    HW112269   2.076   2.657   3.268
 3790SOL    HW212270   2.230   2.692   3.307
 3791SOL     OW12271   6.144   0.385   2.366
 3791SOL    HW112272   6.113   0.422   2.278
 3791SOL    HW212273   6.243   0.396   2.374
 3792SOL     OW12274   0.025   7.008   6.170
 3792SOL    HW112275   0.069   0.050   6.228
 3792SOL    HW212276   0.038   0.007   6.074
 3793SOL     OW12277   1.338   6.441   2.931
 3793SOL    HW112278   1.391   6.453   3.015
 3793SOL    HW212279   1.339   6.344   2.906
 3794SOL     OW12280   3.997   6.108   2.805
 3794SOL    HW112281   3.985   6.042   2.731
 3794SOL    HW212282   3.918   6.170   2.806
 3795SOL     OW12283   4.918   0.467   1.046
 3795SOL    HW112284   4.962   0.432   1.128
 3795SOL    HW212285   4.966   0.435   0.965
 3796SOL     OW12286   1.246   3.096   0.767
 3796SOL    HW112287   1.226   2.999   0.774
 3796SOL    HW212288   1.309   3.112   0.691
 3797SOL     OW12289   0.164   5.673   2.133
 3797SOL    HW112290   0.116   5.586   2.123
 3797SOL    HW212291   0.214   5.694   2.049
 3798SOL     OW12292   0.946   4.202   1.309
 3798SOL    HW112293   1.033   4.154   1.295
 3798SOL    HW212294   0.965   4.297   1.335
 3799SOL     OW12295   1.299   0.432   5.624
 3799SOL    HW112296   1.286   0.517   5.573
 3799SOL    HW212297   1.221   0.372   5.609
 3800SOL     OW12298   5.317   2.438   5.060
 3800SOL    HW112299   5.325   2.370   4.987
 3800SOL    HW212300   5.255   2.404   5.131
 3801SOL     OW12301   0.333   0.238   6.788
 3801SOL    HW112302   0.244   0.196   6.809
 3801SOL    HW212303   0.319   0.329   6.749
 3802SOL     OW12304   1.079   2.229   5.693
 3802SOL    HW112305   1.170   2.269   5.702
 3802SOL    HW212306   1.086   2.139   5.650
 3803SOL     OW12307   3.590   1.010   1.066
 3803SOL    HW112308   3.656   1.073   1.024
 3803SOL    HW212309   3.639   0.943   1.122
 3804SOL     OW12310   4.703   2.892   5.370
 3804SOL    HW112311   4.673   2.872   5.277
 3804SOL    HW212312   4.748   2.981   5.372
 3805SOL     OW12313   2.051   3.779   1.811
 3805SOL    HW112314   2.146   3.767   1.781
 3805SOL    HW212315   2.027   3.707   1.876
 3806SOL     OW12316   3.400   1.259   0.772
 3806SOL    HW112317   3.453   1.249   0.688
 3806SOL    HW212318   3.315   1.308   0.752
 3807SOL     OW12319   1.734   6.896   2.758
 3807SOL    HW112320   1.787   6.948   2.691
 3807SOL    HW212321   1.637   6.922   2.751
 3808SOL     OW12322   3.326   0.543   0.607
 3808SOL    HW112323   3.393   0.555   0.533
 3808SOL    HW212324   3.290   0.633   0.634
 3809SOL     OW12325   4.355   0.261   6.611
 3809SOL    HW112326   4.318   0.350   6.639
 3809SOL    HW212327   4.390   0.268   6.518
 3810SOL     OW12328   2.381   3.032   6.112
 3810SOL    HW112329   2.465   3.080   6.137
 3810SOL    HW212330   2.314   3.098   6.078
 3811SOL     OW12331   0.896   0.727   6.087
 3811SOL    HW112332   0.927   0.749   5.994
 3811SOL    HW212333   0.914   0.631   6.106
 3812SOL     OW12334   5.236   1.526   5.684
 3812SOL    HW112335   5.288   1.611   5.675
 3812SOL    HW212336   5.180   1.513   5.602
 3813SOL     OW12337   3.929   4.787   1.944
 3813SOL    HW112338   3.844   4.734   1.937
 3813SOL    HW212339   3.930   4.836   2.031
 3814SOL     OW12340   1.676   6.748   2.212
 3814SOL    HW112341   1.692   6.823   2.148
 3814SOL    HW212342   1.695   6.779   2.305
 3815SOL     OW12343   5.378   2.206   1.399
 3815SOL    HW112344   5.378   2.143   1.477
 3815SOL    HW212345   5.307   2.275   1.413
 3816SOL     OW12346   0.186   6.660   1.009
 3816SOL    HW112347   0.144   6.636   0.921
 3816SOL    HW212348   0.159   6.593   1.078
 3817SOL     OW12349   4.650   1.356   5.706
 3817SOL    HW112350   4.649   1.455   5.720
 3817SOL    HW212351   4.568   1.328   5.656
 3818SOL     OW12352   4.603   5.745   2.804
 3818SOL    HW112353   4.698   5.778   2.798
 3818SOL    HW212354   4.584   5.717   2.898
 3819SOL     OW12355   5.660   4.530   6.121
 3819SOL    HW112356   5.703   4.531   6.211
 3819SOL    HW212357   5.624   4.439   6.103
 3820SOL     OW12358   5.012   6.404   4.014
 3820SOL    HW112359   4.960   6.386   3.931
 3820SOL    HW212360   5.109   6.413   3.992
 3821SOL     OW12361   0.723   4.447   1.252
 3821SOL    HW112362   0.785   4.441   1.173
 3821SOL    HW212363   0.776   4.470   1.334
 3822SOL     OW12364   1.192   4.910   1.721
 3822SOL    HW112365   1.169   4.991   1.775
 3822SOL    HW212366   1.278   4.871   1.754
 3823SOL     OW12367   2.361   2.923   5.751
 3823SOL    HW112368   2.437   2.965   5.801
 3823SOL    HW212369   2.291   2.992   5.732
 3824SOL     OW12370   6.610   2.131   6.676
 3824SOL    HW112371   6.529   2.174   6.638
 3824SOL    HW212372   6.599   2.031   6.674
 3825SOL     OW12373   6.515   6.549   6.015
 3825SOL    HW112374   6.447   6.537   5.943
 3825SOL    HW212375   6.493   6.631   6.067
 3826SOL     OW12376   6.926   2.127   0.902
 3826SOL    HW112377   6.868   2.130   0.821
 3826SOL    HW212378   6.963   2.035   0.913
 3827SOL     OW12379   5.447   2.571   0.957
 3827SOL    HW112380   5.536   2.612   0.976
 3827SOL    HW212381   5.432   2.494   1.019
 3828SOL     OW12382   4.312   1.081   1.305
 3828SOL    HW112383   4.375   1.111   1.233
 3828SOL    HW212384   4.233   1.142   1.307
 3829SOL     OW12385   0.715   5.192   3.587
 3829SOL    HW112386   0.814   5.184   3.571
 3829SOL    HW212387   0.690   5.136   3.667
 3830SOL     OW12388   3.047   0.483   5.714
 3830SOL    HW112389   3.060   0.385   5.730
 3830SOL    HW212390   3.070   0.505   5.619
 3831SOL     OW12391   4.578   1.957   2.283
 3831SOL    HW112392   4.592   2.056   2.279
 3831SOL    HW212393   4.536   1.932   2.370
 3832SOL     OW12394   5.114   0.354   2.425
 3832SOL    HW112395   5.021   0.320   2.407
 3832SOL    HW212396   5.181   0.287   2.394
 3833SOL     OW12397   1.965   6.032   1.309
 3833SOL    HW112398   2.055   5.994   1.289
 3833SOL    HW212399   1.903   5.957   1.334
 3834SOL     OW12400   2.556   2.613   0.779
 3834SOL    HW112401   2.515   2.536   0.827
 3834SOL    HW212402   2.633   2.648   0.833
 3835SOL     OW12403   3.512   5.719   3.766
 3835SOL    HW112404   3.435   5.669   3.727
 3835SOL    HW212405   3.594   5.700   3.713
 3836SOL     OW12406   1.797   2.781   5.223
 3836SOL    HW112407   1.793   2.876   5.193
 3836SOL    HW212408   1.817   2.722   5.144
 3837SOL     OW12409   3.085   3.631   6.907
 3837SOL    HW112410   3.112   3.686   6.827
 3837SOL    HW212411   3.052   3.692   6.979
 3838SOL     OW12412   5.804   3.134   5.167
 3838SOL    HW112413   5.830   3.205   5.102
 3838SOL    HW212414   5.873   3.061   5.166
 3839SOL     OW12415   6.888   5.862   6.116
 3839SOL    HW112416   6.945   5.814   6.183
 3839SOL    HW212417   6.794   5.864   6.150
 3840SOL     OW12418   2.450   0.805   3.683
 3840SOL    HW112419   2.547   0.786   3.669
 3840SOL    HW212420   2.404   0.721   3.715
 3841SOL     OW12421   1.151   3.790   4.813
 3841SOL    HW112422   1.217   3.735   4.762
 3841SOL    HW212423   1.167   3.887   4.795
 3842SOL     OW12424   1.753   5.122   6.884
 3842SOL    HW112425   1.765   5.025   6.864
 3842SOL    HW212426   1.829   5.174   6.844
 3843SOL     OW12427   5.933   4.016   0.272
 3843SOL    HW112428   5.865   4.053   0.336
 3843SOL    HW212429   5.962   4.089   0.209
 3844SOL     OW12430   2.599   3.927   5.646
 3844SOL    HW112431   2.538   3.997   5.684
 3844SOL    HW212432   2.613   3.945   5.549
 3845SOL     OW12433   3.272   3.360   3.581
 3845SOL    HW112434   3.306   3.444   3.538
 3845SOL    HW212435   3.172   3.364   3.586
 3846SOL     OW12436   6.863   4.194   3.942
 3846SOL    HW112437   6.846   4.097   3.957
 3846SOL    HW212438   6.794   4.232   3.880
 3847SOL     OW12439   0.705   6.730   0.789
 3847SOL    HW112440   0.717   6.761   0.695
 3847SOL    HW212441   0.607   6.722   0.810
 3848SOL     OW12442   2.800   5.228   1.249
 3848SOL    HW112443   2.736   5.164   1.207
 3848SOL    HW212444   2.893   5.194   1.240
 3849SOL     OW12445   2.575   1.663   6.315
 3849SOL    HW112446   2.665   1.682   6.276
 3849SOL    HW212447   2.534   1.584   6.269
 3850SOL     OW12448   2.045   3.958   1.333
 3850SOL    HW112449   2.009   4.032   1.390
 3850SOL    HW212450   2.122   3.992   1.278
 3851SOL     OW12451   2.309   2.831   1.043
 3851SOL    HW112452   2.347   2.746   1.079
 3851SOL    HW212453   2.371   2.867   0.973
 3852SOL     OW12454   4.840   0.884   5.284
 3852SOL    HW112455   4.821   0.868   5.187
 3852SOL    HW212456   4.873   0.800   5.327
 3853SOL     OW12457   1.189   2.921   2.005
 3853SOL    HW112458   1.163   2.895   2.098
 3853SOL    HW212459   1.191   2.840   1.946
 3854SOL     OW12460   1.829   3.026   5.075
 3854SOL    HW112461   1.770   3.107   5.066
 3854SOL    HW212462   1.922   3.051   5.048
 3855SOL     OW12463   6.749   2.030   5.238
 3855SOL    HW112464   6.796   2.102   5.186
 3855SOL    HW212465   6.678   2.070   5.295
 3856SOL     OW12466   0.914   6.616   5.476
 3856SOL    HW112467   0.852   6.690   5.449
 3856SOL    HW212468   0.910   6.603   5.575
 3857SOL     OW12469   1.065   0.132   6.703
 3857SOL    HW112470   1.003   0.156   6.778
 3857SOL    HW212471   1.089   0.215   6.652
 3858SOL     OW12472   2.320   5.099   6.916
 3858SOL    HW112473   2.334   5.012   6.869
 3858SOL    HW212474   2.331   5.086   7.014
 3859SOL     OW12475   6.468   2.660   1.604
 3859SOL    HW112476   6.416   2.593   1.552
 3859SOL    HW212477   6.543   2.695   1.547
 3860SOL     OW12478   2.282   6.089   5.193
 3860SOL    HW112479   2.184   6.067   5.185
 3860SOL    HW212480   2.333   6.033   5.128
 3861SOL     OW12481   4.207   4.723   0.002
 3861SOL    HW112482   4.107   4.730   0.003
 3861SOL    HW212483   4.242   4.735   0.095
 3862SOL     OW12484   0.856   5.619   5.615
 3862SOL    HW112485   0.916   5.539   5.618
 3862SOL    HW212486   0.883   5.685   5.685
 3863SOL     OW12487   3.058   3.661   0.396
 3863SOL    HW112488   3.097   3.737   0.447
 3863SOL    HW212489   2.964   3.645   0.426
 3864SOL     OW12490   3.016   1.024   0.501
 3864SOL    HW112491   3.093   1.061   0.449
 3864SOL    HW212492   2.938   1.010   0.440
 3865SOL     OW12493   4.091   0.747   2.486
 3865SOL    HW112494   4.093   0.833   2.538
 3865SOL    HW212495   4.145   0.757   2.403
 3866SOL     OW12496   3.165   6.735   6.197
 3866SOL    HW112497   3.163   6.638   6.174
 3866SOL    HW212498   3.081   6.779   6.163
 3867SOL     OW12499   2.025   4.217   3.209
 3867SOL    HW112500   1.982   4.254   3.291
 3867SOL    HW212501   2.080   4.288   3.165
 3868SOL     OW12502   2.697   5.428   2.856
 3868SOL    HW112503   2.742   5.409   2.943
 3868SOL    HW212504   2.765   5.426   2.782
 3869SOL     OW12505   0.480   1.374   3.805
 3869SOL    HW112506   0.408   1.365   3.736
 3869SOL    HW212507   0.550   1.304   3.790
 3870SOL     OW12508   3.975   4.177   0.686
 3870SOL    HW112509   3.990   4.130   0.599
 3870SOL    HW212510   3.924   4.262   0.670
 3871SOL     OW12511   3.289   1.177   4.941
 3871SOL    HW112512   3.292   1.247   4.870
 3871SOL    HW212513   3.378   1.131   4.947
 3872SOL     OW12514   4.473   4.312   0.586
 3872SOL    HW112515   4.388   4.287   0.633
 3872SOL    HW212516   4.521   4.228   0.559
 3873SOL     OW12517   5.169   4.857   1.993
 3873SOL    HW112518   5.142   4.938   2.045
 3873SOL    HW212519   5.246   4.812   2.039
 3874SOL     OW12520   4.650   5.920   5.763
 3874SOL    HW112521   4.586   5.844   5.750
 3874SOL    HW212522   4.627   5.993   5.699
 3875SOL     OW12523   1.987   4.259   0.445
 3875SOL    HW112524   1.893   4.231   0.425
 3875SOL    HW212525   2.046   4.178   0.445
 3876SOL     OW12526   5.571   3.816   2.153
 3876SOL    HW112527   5.658   3.827   2.202
 3876SOL    HW212528   5.578   3.739   2.090
 3877SOL     OW12529   4.770   1.769   1.930
 3877SOL    HW112530   4.683   1.816   1.914
 3877SOL    HW212531   4.844   1.837   1.932
 3878SOL     OW12532   4.684   6.183   4.456
 3878SOL    HW112533   4.756   6.152   4.518
 3878SOL    HW212534   4.598   6.192   4.506
 3879SOL     OW12535   2.568   5.804   0.898
 3879SOL    HW112536   2.664   5.828   0.880
 3879SOL    HW212537   2.509   5.858   0.837
 3880SOL     OW12538   5.812   1.609   4.101
 3880SOL    HW112539   5.839   1.517   4.075
 3880SOL    HW212540   5.737   1.639   4.043
 3881SOL     OW12541   0.523   5.824   0.605
 3881SOL    HW112542   0.582   5.890   0.559
 3881SOL    HW212543   0.503   5.856   0.698
 3882SOL     OW12544   0.161   6.213   6.733
 3882SOL    HW112545   0.215   6.214   6.648
 3882SOL    HW212546   0.105   6.296   6.737
 3883SOL     OW12547   3.403   2.105   6.986
 3883SOL    HW112548   3.462   2.099   6.905
 3883SOL    HW212549   3.312   2.136   6.959
 3884SOL     OW12550   1.852   5.141   5.364
 3884SOL    HW112551   1.943   5.126   5.402
 3884SOL    HW212552   1.789   5.169   5.437
 3885SOL     OW12553   6.898   1.309   4.612
 3885SOL    HW112554   6.967   1.356   4.667
 3885SOL    HW212555   6.810   1.315   4.658
 3886SOL     OW12556   0.262   5.938   5.452
 3886SOL    HW112557   0.173   5.906   5.484
 3886SOL    HW212558   0.291   6.015   5.508
 3887SOL     OW12559   5.637   2.851   4.819
 3887SOL    HW112560   5.668   2.760   4.793
 3887SOL    HW212561   5.577   2.887   4.747
 3888SOL     OW12562   5.718   2.111   2.085
 3888SOL    HW112563   5.740   2.014   2.088
 3888SOL    HW212564   5.801   2.164   2.073
 3889SOL     OW12565   6.624   5.855   6.549
 3889SOL    HW112566   6.533   5.885   6.575
 3889SOL    HW212567   6.655   5.908   6.470
 3890SOL     OW12568   6.783   3.343   2.903
 3890SOL    HW112569   6.817   3.267   2.959
 3890SOL    HW212570   6.690   3.323   2.873
 3891SOL     OW12571   5.019   5.585   5.765
 3891SOL    HW112572   4.930   5.589   5.720
 3891SOL    HW212573   5.021   5.510   5.830
 3892SOL     OW12574   5.716   5.769   4.063
 3892SOL    HW112575   5.664   5.783   4.147
 3892SOL    HW212576   5.772   5.687   4.072
 3893SOL     OW12577   2.809   6.514   4.402
 3893SOL    HW112578   2.858   6.463   4.473
 3893SOL    HW212579   2.872   6.577   4.357
 3894SOL     OW12580   5.384   5.572   6.767
 3894SOL    HW112581   5.359   5.669   6.773
 3894SOL    HW212582   5.386   5.532   6.859
 3895SOL     OW12583   1.901   1.738   5.684
 3895SOL    HW112584   1.930   1.802   5.756
 3895SOL    HW212585   1.943   1.763   5.597
 3896SOL     OW12586   6.105   3.496   6.996
 3896SOL    HW112587   6.042   3.423   6.969
 3896SOL    HW212588   6.175   3.458   0.030
 3897SOL     OW12589   3.374   6.449   3.536
 3897SOL    HW112590   3.415   6.530   3.495
 3897SOL    HW212591   3.403   6.367   3.486
 3898SOL     OW12592   2.883   3.394   4.201
 3898SOL    HW112593   2.878   3.301   4.165
 3898SOL    HW212594   2.890   3.459   4.125
 3899SOL     OW12595   4.275   2.045   6.372
 3899SOL    HW112596   4.327   2.092   6.301
 3899SOL    HW212597   4.298   1.948   6.371
 3900SOL     OW12598   0.593   2.834   4.035
 3900SOL    HW112599   0.657   2.884   3.977
 3900SOL    HW212600   0.536   2.899   4.087
 3901SOL     OW12601   2.972   5.558   5.437
 3901SOL    HW112602   3.048   5.606   5.393
 3901SOL    HW212603   2.999   5.531   5.529
 3902SOL     OW12604   4.367   4.990   3.208
 3902SOL    HW112605   4.302   4.985   3.284
 3902SOL    HW212606   4.434   5.062   3.228
 3903SOL     OW12607   3.787   3.830   6.184
 3903SOL    HW112608   3.832   3.827   6.095
 3903SOL    HW212609   3.745   3.742   6.204
 3904SOL     OW12610   2.165   0.005   0.331
 3904SOL    HW112611   2.104   6.955   0.352
 3904SOL    HW212612   2.111   0.087   0.313
 3905SOL     OW12613   5.022   0.250   6.232
 3905SOL    HW112614   5.044   0.324   6.296
 3905SOL    HW212615   4.982   0.174   6.282
 3906SOL     OW12616   6.748   5.876   4.817
 3906SOL    HW112617   6.656   5.850   4.849
 3906SOL    HW212618   6.740   5.931   4.734
 3907SOL     OW12619   0.331   1.894   4.662
 3907SOL    HW112620   0.410   1.919   4.607
 3907SOL    HW212621   0.255   1.868   4.601
 3908SOL     OW12622   2.118   0.777   4.885
 3908SOL    HW112623   2.074   0.866   4.874
 3908SOL    HW212624   2.217   0.789   4.890
 3909SOL     OW12625   5.322   3.716   1.784
 3909SOL    HW112626   5.298   3.693   1.878
 3909SOL    HW212627   5.357   3.635   1.737
 3910SOL     OW12628   2.747   2.868   1.217
 3910SOL    HW112629   2.653   2.857   1.247
 3910SOL    HW212630   2.754   2.947   1.156
 3911SOL     OW12631   0.237   1.132   1.125
 3911SOL    HW112632   0.150   1.087   1.150
 3911SOL    HW212633   0.253   1.121   1.027
 3912SOL     OW12634   4.662   4.223   0.027
 3912SOL    HW112635   4.691   4.281   0.103
 3912SOL    HW212636   4.578   4.261   7.014
 3913SOL     OW12637   4.153   5.204   1.494
 3913SOL    HW112638   4.114   5.286   1.535
 3913SOL    HW212639   4.113   5.123   1.537
 3914SOL     OW12640   6.975   1.546   0.546
 3914SOL    HW112641   0.033   1.550   0.494
 3914SOL    HW212642   6.970   1.624   0.608
 3915SOL     OW12643   5.930   0.519   5.355
 3915SOL    HW112644   6.001   0.494   5.288
 3915SOL    HW212645   5.863   0.580   5.311
 3916SOL     OW12646   1.540   2.283   2.320
 3916SOL    HW112647   1.622   2.308   2.267
 3916SOL    HW212648   1.564   2.213   2.387
 3917SOL     OW12649   4.438   5.069   2.315
 3917SOL    HW112650   4.438   5.016   2.400
 3917SOL    HW212651   4.519   5.045   2.261
 3918SOL     OW12652   4.655   7.008   0.572
 3918SOL    HW112653   4.743   6.990   0.526
 3918SOL    HW212654   4.607   0.054   0.523
 3919SOL     OW12655   5.050   5.494   3.300
 3919SOL    HW112656   5.084   5.406   3.332
 3919SOL    HW212657   5.128   5.554   3.278
 3920SOL     OW12658   3.627   1.938   5.385
 3920SOL    HW112659   3.545   1.881   5.382
 3920SOL    HW212660   3.610   2.025   5.340
 3921SOL     OW12661   1.410   3.317   5.971
 3921SOL    HW112662   1.365   3.324   6.059
 3921SOL    HW212663   1.346   3.340   5.898
 3922SOL     OW12664   5.159   2.727   4.254
 3922SOL    HW112665   5.237   2.666   4.254
 3922SOL    HW212666   5.085   2.687   4.309
 3923SOL     OW12667   5.620   1.127   1.525
 3923SOL    HW112668   5.567   1.098   1.605
 3923SOL    HW212669   5.561   1.178   1.463
 3924SOL     OW12670   5.279   4.685   4.376
 3924SOL    HW112671   5.329   4.652   4.297
 3924SOL    HW212672   5.284   4.785   4.380
 3925SOL     OW12673   4.208   5.783   1.579
 3925SOL    HW112674   4.213   5.792   1.679
 3925SOL    HW212675   4.296   5.807   1.539
 3926SOL     OW12676   0.814   6.037   5.011
 3926SOL    HW112677   0.794   5.952   5.060
 3926SOL    HW212678   0.910   6.039   4.985
 3927SOL     OW12679   5.933   0.247   5.361
 3927SOL    HW112680   5.922   0.346   5.365
 3927SOL    HW212681   5.963   0.212   5.450
 3928SOL     OW12682   4.632   6.004   2.586
 3928SOL    HW112683   4.541   5.963   2.594
 3928SOL    HW212684   4.657   6.045   2.673
 3929SOL     OW12685   1.200   0.975   5.481
 3929SOL    HW112686   1.242   0.992   5.392
 3929SOL    HW212687   1.271   0.964   5.550
 3930SOL     OW12688   1.761   6.027   4.290
 3930SOL    HW112689   1.781   6.075   4.204
 3930SOL    HW212690   1.766   5.928   4.275
 3931SOL     OW12691   0.733   2.288   0.173
 3931SOL    HW112692   0.716   2.189   0.174
 3931SOL    HW212693   0.707   2.327   0.262
 3932SOL     OW12694   2.275   4.139   2.518
 3932SOL    HW112695   2.324   4.073   2.462
 3932SOL    HW212696   2.281   4.230   2.476
 3933SOL     OW12697   2.147   6.168   1.489
 3933SOL    HW112698   2.075   6.100   1.476
 3933SOL    HW212699   2.220   6.153   1.422
 3934SOL     OW12700   2.127   6.434   1.610
 3934SOL    HW112701   2.145   6.357   1.549
 3934SOL    HW212702   2.194   6.505   1.595
 3935SOL     OW12703   0.458   2.409   4.771
 3935SOL    HW112704   0.487   2.487   4.715
 3935SOL    HW212705   0.539   2.357   4.799
 3936SOL     OW12706   0.286   4.225   4.157
 3936SOL    HW112707   0.228   4.235   4.239
 3936SOL    HW212708   0.229   4.234   4.075
 3937SOL     OW12709   0.884   6.390   0.226
 3937SOL    HW112710   0.875   6.295   0.256
 3937SOL    HW212711   0.881   6.394   0.126
 3938SOL     OW12712   0.646   3.854   0.123
 3938SOL    HW112713   0.737   3.891   0.104
 3938SOL    HW212714   0.590   3.860   0.040
 3939SOL     OW12715   1.828   6.667   3.834
 3939SOL    HW112716   1.851   6.678   3.737
 3939SOL    HW212717   1.737   6.625   3.842
 3940SOL     OW12718   2.436   5.906   6.402
 3940SOL    HW112719   2.423   5.941   6.495
 3940SOL    HW212720   2.364   5.840   6.381
 3941SOL     OW12721   5.464   5.630   2.468
 3941SOL    HW112722   5.420   5.597   2.384
 3941SOL    HW212723   5.563   5.619   2.460
 3942SOL     OW12724   6.607   6.558   6.382
 3942SOL    HW112725   6.520   6.510   6.379
 3942SOL    HW212726   6.602   6.640   6.324
 3943SOL     OW12727   1.555   3.748   0.010
 3943SOL    HW112728   1.535   3.786   0.100
 3943SOL    HW212729   1.512   3.659   0.001
 3944SOL     OW12730   4.672   3.550   6.401
 3944SOL    HW112731   4.655   3.645   6.374
 3944SOL    HW212732   4.759   3.544   6.449
 3945SOL     OW12733   6.515   0.794   3.182
 3945SOL    HW112734   6.580   0.724   3.211
 3945SOL    HW212735   6.544   0.883   3.216
 3946SOL     OW12736   6.130   2.676   0.893
 3946SOL    HW112737   6.104   2.759   0.944
 3946SOL    HW212738   6.053   2.647   0.836
 3947SOL     OW12739   5.883   6.611   2.310
 3947SOL    HW112740   5.969   6.560   2.317
 3947SOL    HW212741   5.810   6.559   2.356
 3948SOL     OW12742   2.190   1.017   5.170
 3948SOL    HW112743   2.147   0.966   5.095
 3948SOL    HW212744   2.258   0.959   5.215
 3949SOL     OW12745   5.822   0.138   2.243
 3949SOL    HW112746   5.827   0.231   2.206
 3949SOL    HW212747   5.899   0.122   2.304
 3950SOL     OW12748   3.002   4.570   1.581
 3950SOL    HW112749   2.966   4.539   1.669
 3950SOL    HW212750   2.928   4.610   1.527
 3951SOL     OW12751   6.879   2.652   3.438
 3951SOL    HW112752   6.903   2.749   3.440
 3951SOL    HW212753   6.876   2.618   3.532
 3952SOL     OW12754   5.691   4.499   6.729
 3952SOL    HW112755   5.784   4.517   6.694
 3952SOL    HW212756   5.692   4.502   6.829
 3953SOL     OW12757   3.512   3.830   5.671
 3953SOL    HW112758   3.542   3.925   5.673
 3953SOL    HW212759   3.412   3.826   5.673
 3954SOL     OW12760   1.327   3.509   5.343
 3954SOL    HW112761   1.350   3.458   5.260
 3954SOL    HW212762   1.382   3.474   5.419
 3955SOL     OW12763   5.985   3.297   0.324
 3955SOL    HW112764   5.943   3.258   0.406
 3955SOL    HW212765   5.917   3.350   0.274
 3956SOL     OW12766   6.879   2.760   5.453
 3956SOL    HW112767   6.919   2.677   5.412
 3956SOL    HW212768   6.790   2.778   5.410
 3957SOL     OW12769   0.788   1.996   1.836
 3957SOL    HW112770   0.732   2.057   1.891
 3957SOL    HW212771   0.804   1.911   1.885
 3958SOL     OW12772   5.585   6.082   1.305
 3958SOL    HW112773   5.543   6.169   1.332
 3958SOL    HW212774   5.597   6.025   1.385
 3959SOL     OW12775   2.510   4.901   1.910
 3959SOL    HW112776   2.524   4.935   2.003
 3959SOL    HW212777   2.525   4.802   1.908
 3960SOL     OW12778   5.649   3.132   0.459
 3960SOL    HW112779   5.603   3.197   0.398
 3960SOL    HW212780   5.583   3.062   0.488
 3961SOL     OW12781   6.992   1.109   1.196
 3961SOL    HW112782   6.912   1.074   1.147
 3961SOL    HW212783   6.972   1.201   1.231
 3962SOL     OW12784   0.179   0.375   6.062
 3962SOL    HW112785   0.093   0.327   6.043
 3962SOL    HW212786   0.175   0.416   6.153
 3963SOL     OW12787   5.039   4.118   4.091
 3963SOL    HW112788   4.997   4.198   4.049
 3963SOL    HW212789   5.079   4.059   4.020
 3964SOL     OW12790   5.698   4.749   0.190
 3964SOL    HW112791   5.607   4.782   0.163
 3964SOL    HW212792   5.768   4.801   0.142
 3965SOL     OW12793   3.485   3.946   1.106
 3965SOL    HW112794   3.505   3.975   1.200
 3965SOL    HW212795   3.397   3.899   1.103
 3966SOL     OW12796   6.876   3.603   5.804
 3966SOL    HW112797   6.904   3.510   5.830
 3966SOL    HW212798   6.930   3.633   5.725
 3967SOL     OW12799   2.441   6.794   0.313
 3967SOL    HW112800   2.464   6.718   0.253
 3967SOL    HW212801   2.343   6.793   0.333
 3968SOL     OW12802   4.750   2.386   0.760
 3968SOL    HW112803   4.844   2.420   0.755
 3968SOL    HW212804   4.699   2.419   0.680
 3969SOL     OW12805   6.865   6.513   0.602
 3969SOL    HW112806   6.898   6.547   0.690
 3969SOL    HW212807   6.841   6.416   0.611
 3970SOL     OW12808   5.465   4.362   3.691
 3970SOL    HW112809   5.474   4.423   3.770
 3970SOL    HW212810   5.544   4.375   3.630
 3971SOL     OW12811   0.208   6.075   3.690
 3971SOL    HW112812   0.226   5.996   3.632
 3971SOL    HW212813   0.205   6.158   3.634
 3972SOL     OW12814   1.271   0.093   6.020
 3972SOL    HW112815   1.265   0.125   5.926
 3972SOL    HW212816   1.178   0.084   6.058
 3973SOL     OW12817   4.127   3.735   2.514
 3973SOL    HW112818   4.185   3.816   2.512
 3973SOL    HW212819   4.158   3.673   2.586
 3974SOL     OW12820   4.839   0.685   6.513
 3974SOL    HW112821   4.834   0.644   6.422
 3974SOL    HW212822   4.917   0.747   6.518
 3975SOL     OW12823   0.433   6.995   4.549
 3975SOL    HW112824   0.450   0.029   4.471
 3975SOL    HW212825   0.419   6.902   4.516
 3976SOL     OW12826   1.028   3.034   5.735
 3976SOL    HW112827   1.113   3.049   5.785
 3976SOL    HW212828   1.039   2.957   5.672
 3977SOL     OW12829   3.487   5.351   5.044
 3977SOL    HW112830   3.402   5.309   5.012
 3977SOL    HW212831   3.565   5.302   5.005
 3978SOL     OW12832   5.741   3.551   6.216
 3978SOL    HW112833   5.820   3.489   6.219
 3978SOL    HW212834   5.770   3.640   6.180
 3979SOL     OW12835   0.872   6.036   3.145
 3979SOL    HW112836   0.887   6.097   3.067
 3979SOL    HW212837   0.825   6.085   3.217
 3980SOL     OW12838   5.463   3.829   4.264
 3980SOL    HW112839   5.459   3.864   4.358
 3980SOL    HW212840   5.532   3.879   4.213
 3981SOL     OW12841   6.958   1.109   6.281
 3981SOL    HW112842   6.980   1.145   6.371
 3981SOL    HW212843   6.954   1.184   6.215
 3982SOL     OW12844   2.254   2.821   4.373
 3982SOL    HW112845   2.201   2.901   4.347
 3982SOL    HW212846   2.279   2.826   4.470
 3983SOL     OW12847   3.115   0.764   3.785
 3983SOL    HW112848   3.140   0.689   3.724
 3983SOL    HW212849   3.136   0.739   3.879
 3984SOL     OW12850   1.553   5.747   2.203
 3984SOL    HW112851   1.566   5.648   2.195
 3984SOL    HW212852   1.540   5.772   2.299
 3985SOL     OW12853   1.922   2.147   1.086
 3985SOL    HW112854   1.983   2.174   1.161
 3985SOL    HW212855   1.965   2.170   0.998
 3986SOL     OW12856   0.359   2.246   2.446
 3986SOL    HW112857   0.349   2.174   2.514
 3986SOL    HW212858   0.393   2.329   2.490
 3987SOL     OW12859   1.478   4.361   5.025
 3987SOL    HW112860   1.540   4.283   5.030
 3987SOL    HW212861   1.527   4.440   4.990
 3988SOL     OW12862   4.985   6.945   1.728
 3988SOL    HW112863   4.923   6.976   1.801
 3988SOL    HW212864   4.971   7.001   1.647
 3989SOL     OW12865   3.993   0.856   5.712
 3989SOL    HW112866   4.033   0.783   5.657
 3989SOL    HW212867   3.973   0.934   5.653
 3990SOL     OW12868   6.357   1.556   3.541
 3990SOL    HW112869   6.410   1.534   3.623
 3990SOL    HW212870   6.260   1.560   3.564
 3991SOL     OW12871   0.082   2.135   3.234
 3991SOL    HW112872   0.159   2.110   3.292
 3991SOL    HW212873   7.023   2.113   3.281
 3992SOL     OW12874   5.319   3.658   6.499
 3992SOL    HW112875   5.288   3.568   6.469
 3992SOL    HW212876   5.256   3.728   6.466
 3993SOL     OW12877   1.815   0.691   3.949
 3993SOL    HW112878   1.806   0.780   3.993
 3993SOL    HW212879   1.908   0.679   3.916
 3994SOL     OW12880   3.269   1.995   3.589
 3994SOL    HW112881   3.342   2.063   3.582
 3994SOL    HW212882   3.308   1.904   3.594
 3995SOL     OW12883   1.472   3.280   2.374
 3995SOL    HW112884   1.434   3.245   2.460
 3995SOL    HW212885   1.420   3.361   2.345
 3996SOL     OW12886   6.463   6.346   4.930
 3996SOL    HW112887   6.453   6.432   4.979
 3996SOL    HW212888   6.401   6.344   4.851
 3997SOL     OW12889   5.781   3.499   4.140
 3997SOL    HW112890   5.713   3.430   4.115
 3997SOL    HW212891   5.750   3.589   4.108
 3998SOL     OW12892   4.554   2.228   3.664
 3998SOL    HW112893   4.523   2.322   3.674
 3998SOL    HW212894   4.514   2.187   3.582
 3999SOL     OW12895   4.963   3.210   0.561
 3999SOL    HW112896   5.028   3.240   0.492
 3999SOL    HW212897   4.989   3.247   0.650
 4000SOL     OW12898   2.590   4.968   3.127
 4000SOL    HW112899   2.601   4.994   3.223
 4000SOL    HW212900   2.650   4.891   3.106
 4001SOL     OW12901   0.306   5.985   4.201
 4001SOL    HW112902   0.296   5.998   4.102
 4001SOL    HW212903   0.217   5.963   4.241
 4002SOL     OW12904   3.826   3.828   4.754
 4002SOL    HW112905   3.876   3.894   4.698
 4002SOL    HW212906   3.824   3.739   4.708
 4003SOL     OW12907   2.022   1.059   4.833
 4003SOL    HW112908   1.966   1.061   4.750
 4003SOL    HW212909   2.101   1.120   4.822
 4004SOL     OW12910   2.062   4.824   4.852
 4004SOL    HW112911   1.969   4.787   4.851
 4004SOL    HW212912   2.065   4.906   4.794
 4005SOL     OW12913   4.939   2.984   0.404
 4005SOL    HW112914   4.943   3.051   0.478
 4005SOL    HW212915   4.928   3.030   0.317
 4006SOL     OW12916   6.789   5.442   1.949
 4006SOL    HW112917   6.782   5.344   1.966
 4006SOL    HW212918   6.799   5.458   1.851
 4007SOL     OW12919   0.721   0.970   1.776
 4007SOL    HW112920   0.681   1.051   1.819
 4007SOL    HW212921   0.791   0.997   1.710
 4008SOL     OW12922   3.074   1.143   1.337
 4008SOL    HW112923   3.049   1.235   1.368
 4008SOL    HW212924   3.149   1.107   1.393
 4009SOL     OW12925   4.120   2.567   0.599
 4009SOL    HW112926   4.205   2.615   0.619
 4009SOL    HW212927   4.046   2.633   0.587
 4010SOL     OW12928   1.728   3.969   1.072
 4010SOL    HW112929   1.824   3.987   1.050
 4010SOL    HW212930   1.722   3.926   1.163
 4011SOL     OW12931   6.242   6.693   6.010
 4011SOL    HW112932   6.292   6.777   6.032
 4011SOL    HW212933   6.163   6.716   5.953
 4012SOL     OW12934   5.894   5.885   2.590
 4012SOL    HW112935   5.923   5.790   2.589
 4012SOL    HW212936   5.968   5.943   2.624
 4013SOL     OW12937   6.768   1.385   6.989
 4013SOL    HW112938   6.691   1.429   0.008
 4013SOL    HW212939   6.832   1.351   0.032
 4014SOL     OW12940   3.923   5.751   2.170
 4014SOL    HW112941   3.838   5.759   2.221
 4014SOL    HW212942   3.996   5.719   2.231
 4015SOL     OW12943   4.455   5.435   5.807
 4015SOL    HW112944   4.389   5.469   5.874
 4015SOL    HW212945   4.548   5.446   5.843
 4016SOL     OW12946   4.926   4.760   4.500
 4016SOL    HW112947   4.979   4.733   4.581
 4016SOL    HW212948   4.851   4.820   4.528
 4017SOL     OW12949   1.553   6.048   5.398
 4017SOL    HW112950   1.611   6.047   5.480
 4017SOL    HW212951   1.595   6.105   5.328
 4018SOL     OW12952   4.258   5.581   1.174
 4018SOL    HW112953   4.311   5.665   1.171
 4018SOL    HW212954   4.183   5.591   1.240
 4019SOL     OW12955   6.857   3.416   2.200
 4019SOL    HW112956   6.869   3.393   2.103
 4019SOL    HW212957   6.831   3.512   2.208
 4020SOL     OW12958   6.863   5.591   4.553
 4020SOL    HW112959   6.914   5.630   4.629
 4020SOL    HW212960   6.881   5.644   4.470
 4021SOL     OW12961   4.433   5.262   6.293
 4021SOL    HW112962   4.523   5.251   6.251
 4021SOL    HW212963   4.371   5.192   6.257
 4022SOL     OW12964   2.595   6.059   1.059
 4022SOL    HW112965   2.588   6.022   0.967
 4022SOL    HW212966   2.510   6.104   1.084
 4023SOL     OW12967   0.436   1.601   4.417
 4023SOL    HW112968   0.456   1.651   4.332
 4023SOL    HW212969   0.511   1.613   4.481
 4024SOL     OW12970   0.131   6.436   5.274
 4024SOL    HW112971   0.146   6.341   5.302
 4024SOL    HW212972   0.137   6.495   5.354
 4025SOL     OW12973   6.798   4.773   3.791
 4025SOL    HW112974   6.716   4.742   3.743
 4025SOL    HW212975   6.776   4.793   3.887
 4026SOL     OW12976   0.378   6.670   3.884
 4026SOL    HW112977   0.457   6.663   3.944
 4026SOL    HW212978   0.363   6.583   3.837
 4027SOL     OW12979   3.458   4.993   5.015
 4027SOL    HW112980   3.554   4.988   5.043
 4027SOL    HW212981   3.402   4.942   5.079
 4028SOL     OW12982   5.172   1.415   3.905
 4028SOL    HW112983   5.205   1.326   3.935
 4028SOL    HW212984   5.126   1.405   3.817
 4029SOL     OW12985   1.275   6.547   0.679
 4029SOL    HW112986   1.324   6.620   0.631
 4029SOL    HW212987   1.196   6.585   0.726
 4030SOL     OW12988   0.438   1.566   2.428
 4030SOL    HW112989   0.530   1.602   2.411
 4030SOL    HW212990   0.395   1.542   2.342
 4031SOL     OW12991   5.723   6.238   0.240
 4031SOL    HW112992   5.779   6.260   0.320
 4031SOL    HW212993   5.657   6.166   0.265
 4032SOL     OW12994   5.047   0.819   2.756
 4032SOL    HW112995   5.068   0.818   2.658
 4032SOL    HW212996   5.089   0.739   2.800
 4033SOL     OW12997   2.350   2.530   2.987
 4033SOL    HW112998   2.396   2.472   2.919
 4033SOL    HW212999   2.390   2.512   3.077
 4034SOL     OW13000   1.534   2.464   4.803
 4034SOL    HW113001   1.441   2.426   4.803
 4034SOL    HW213002   1.567   2.470   4.709
 4035SOL     OW13003   4.614   2.155   1.940
 4035SOL    HW113004   4.522   2.114   1.939
 4035SOL    HW213005   4.636   2.189   1.848
 4036SOL     OW13006   3.226   5.717   3.526
 4036SOL    HW113007   3.173   5.757   3.451
 4036SOL    HW213008   3.208   5.619   3.531
 4037SOL     OW13009   2.305   2.073   6.470
 4037SOL    HW113010   2.209   2.072   6.496
 4037SOL    HW213011   2.334   1.981   6.442
 4038SOL     OW13012   3.451   4.798   5.677
 4038SOL    HW113013   3.384   4.855   5.724
 4038SOL    HW213014   3.521   4.769   5.743
 4039SOL     OW13015   5.756   4.880   1.465
 4039SOL    HW113016   5.761   4.870   1.565
 4039SOL    HW213017   5.716   4.969   1.443
 4040SOL     OW13018   3.483   0.496   5.234
 4040SOL    HW113019   3.429   0.532   5.311
 4040SOL    HW213020   3.481   0.396   5.237
 4041SOL     OW13021   1.422   5.350   1.935
 4041SOL    HW113022   1.480   5.332   2.014
 4041SOL    HW213023   1.434   5.444   1.905
 4042SOL     OW13024   0.301   1.772   2.845
 4042SOL    HW113025   0.325   1.856   2.893
 4042SOL    HW213026   0.213   1.783   2.799
 4043SOL     OW13027   4.925   3.176   5.971
 4043SOL    HW113028   4.881   3.216   6.052
 4043SOL    HW213029   4.861   3.112   5.927
 4044SOL     OW13030   4.864   4.082   3.273
 4044SOL    HW113031   4.961   4.057   3.274
 4044SOL    HW213032   4.816   4.028   3.341
 4045SOL     OW13033   4.473   1.231   5.472
 4045SOL    HW113034   4.406   1.158   5.476
 4045SOL    HW213035   4.563   1.193   5.452
 4046SOL     OW13036   5.148   1.702   3.645
 4046SOL    HW113037   5.225   1.661   3.695
 4046SOL    HW213038   5.117   1.638   3.574
 4047SOL     OW13039   3.312   2.852   6.687
 4047SOL    HW113040   3.248   2.866   6.762
 4047SOL    HW213041   3.271   2.790   6.620
 4048SOL     OW13042   4.945   1.911   2.607
 4048SOL    HW113043   4.947   1.864   2.519
 4048SOL    HW213044   4.887   1.860   2.671
 4049SOL     OW13045   4.023   4.030   0.901
 4049SOL    HW113046   3.976   3.941   0.907
 4049SOL    HW213047   3.995   4.077   0.818
 4050SOL     OW13048   0.320   5.109   2.784
 4050SOL    HW113049   0.417   5.122   2.762
 4050SOL    HW213050   0.271   5.194   2.767
 4051SOL     OW13051   5.643   0.875   5.578
 4051SOL    HW113052   5.736   0.912   5.583
 4051SOL    HW213053   5.577   0.944   5.606
 4052SOL     OW13054   5.247   1.913   3.511
 4052SOL    HW113055   5.171   1.969   3.478
 4052SOL    HW213056   5.212   1.828   3.548
 4053SOL     OW13057   0.819   4.995   3.974
 4053SOL    HW113058   0.878   4.957   3.903
 4053SOL    HW213059   0.875   5.033   4.047
 4054SOL     OW13060   4.292   3.974   0.842
 4054SOL    HW113061   4.310   3.890   0.893
 4054SOL    HW213062   4.199   4.005   0.859
 4055SOL     OW13063   0.296   4.195   0.616
 4055SOL    HW113064   0.203   4.171   0.643
 4055SOL    HW213065   0.359   4.167   0.688
 4056SOL     OW13066   4.775   3.460   6.760
 4056SOL    HW113067   4.749   3.422   6.672
 4056SOL    HW213068   4.798   3.386   6.823
 4057SOL     OW13069   0.072   3.669   0.495
 4057SOL    HW113070   0.026   3.661   0.406
 4057SOL    HW213071   0.171   3.672   0.482
 4058SOL     OW13072   2.718   0.493   4.908
 4058SOL    HW113073   2.716   0.514   4.811
 4058SOL    HW213074   2.717   0.394   4.921
 4059SOL     OW13075   0.173   1.510   3.633
 4059SOL    HW113076   0.147   1.477   3.724
 4059SOL    HW213077   0.237   1.447   3.591
 4060SOL     OW13078   6.979   6.147   4.610
 4060SOL    HW113079   6.958   6.220   4.545
 4060SOL    HW213080   6.901   6.085   4.619
 4061SOL     OW13081   1.576   4.805   1.162
 4061SOL    HW113082   1.569   4.892   1.113
 4061SOL    HW213083   1.486   4.764   1.171
 4062SOL     OW13084   1.712   3.705   0.877
 4062SOL    HW113085   1.716   3.717   0.976
 4062SOL    HW213086   1.656   3.625   0.856
 4063SOL     OW13087   4.334   0.325   0.562
 4063SOL    HW113088   4.416   0.340   0.617
 4063SOL    HW213089   4.283   0.248   0.599
 4064SOL     OW13090   1.985   1.249   5.768
 4064SOL    HW113091   1.974   1.175   5.835
 4064SOL    HW213092   1.928   1.230   5.688
 4065SOL     OW13093   2.399   0.375   1.187
 4065SOL    HW113094   2.372   0.306   1.121
 4065SOL    HW213095   2.370   0.347   1.279
 4066SOL     OW13096   0.867   3.658   3.508
 4066SOL    HW113097   0.908   3.674   3.418
 4066SOL    HW213098   0.849   3.560   3.519
 4067SOL     OW13099   5.575   5.164   0.763
 4067SOL    HW113100   5.522   5.221   0.700
 4067SOL    HW213101   5.671   5.194   0.762
 4068SOL     OW13102   2.299   2.775   4.869
 4068SOL    HW113103   2.311   2.865   4.911
 4068SOL    HW213104   2.250   2.715   4.933
 4069SOL     OW13105   5.142   6.426   6.562
 4069SOL    HW113106   5.061   6.371   6.540
 4069SOL    HW213107   5.114   6.520   6.581
 4070SOL     OW13108   1.082   3.644   3.712
 4070SOL    HW113109   1.180   3.661   3.701
 4070SOL    HW213110   1.038   3.646   3.622
 4071SOL     OW13111   1.038   0.768   5.163
 4071SOL    HW113112   1.134   0.750   5.142
 4071SOL    HW213113   1.011   0.857   5.125
 4072SOL     OW13114   2.765   6.008   3.017
 4072SOL    HW113115   2.843   6.034   3.075
 4072SOL    HW213116   2.700   5.955   3.070
 4073SOL     OW13117   4.699   4.994   6.797
 4073SOL    HW113118   4.671   5.060   6.727
 4073SOL    HW213119   4.619   4.969   6.852
 4074SOL     OW13120   1.746   5.770   2.739
 4074SOL    HW113121   1.657   5.815   2.729
 4074SOL    HW213122   1.778   5.739   2.650
 4075SOL     OW13123   6.686   0.339   0.740
 4075SOL    HW113124   6.692   0.277   0.661
 4075SOL    HW213125   6.598   0.326   0.786
 4076SOL     OW13126   2.281   5.058   4.258
 4076SOL    HW113127   2.253   5.152   4.236
 4076SOL    HW213128   2.337   5.058   4.340
 4077SOL     OW13129   3.020   0.426   2.314
 4077SOL    HW113130   2.934   0.476   2.301
 4077SOL    HW213131   3.033   0.362   2.239
 4078SOL     OW13132   3.603   4.964   2.248
 4078SOL    HW113133   3.563   5.038   2.194
 4078SOL    HW213134   3.631   4.889   2.188
 4079SOL     OW13135   0.307   2.235   3.782
 4079SOL    HW113136   0.373   2.238   3.858
 4079SOL    HW213137   0.256   2.150   3.785
 4080SOL     OW13138   6.878   2.297   5.572
 4080SOL    HW113139   6.848   2.342   5.656
 4080SOL    HW213140   6.808   2.308   5.502
 4081SOL     OW13141   0.983   3.201   3.569
 4081SOL    HW113142   0.899   3.196   3.516
 4081SOL    HW213143   1.018   3.109   3.586
 4082SOL     OW13144   0.519   3.582   0.825
 4082SOL    HW113145   0.534   3.673   0.865
 4082SOL    HW213146   0.567   3.514   0.880
 4083SOL     OW13147   6.464   2.827   4.709
 4083SOL    HW113148   6.415   2.751   4.752
 4083SOL    HW213149   6.547   2.792   4.665
 4084SOL     OW13150   6.723   1.691   4.294
 4084SOL    HW113151   6.717   1.740   4.381
 4084SOL    HW213152   6.808   1.716   4.247
 4085SOL     OW13153   2.459   6.377   0.361
 4085SOL    HW113154   2.450   6.467   0.402
 4085SOL    HW213155   2.395   6.368   0.285
 4086SOL     OW13156   0.973   4.312   0.776
 4086SOL    HW113157   0.978   4.331   0.678
 4086SOL    HW213158   1.030   4.232   0.797
 4087SOL     OW13159   2.645   1.683   2.846
 4087SOL    HW113160   2.564   1.693   2.903
 4087SOL    HW213161   2.620   1.696   2.750
 4088SOL     OW13162   6.327   2.078   0.589
 4088SOL    HW113163   6.227   2.071   0.594
 4088SOL    HW213164   6.361   2.013   0.522
 4089SOL     OW13165   1.416   1.615   5.801
 4089SOL    HW113166   1.438   1.579   5.710
 4089SOL    HW213167   1.482   1.687   5.825
 4090SOL     OW13168   1.958   4.641   6.268
 4090SOL    HW113169   2.022   4.698   6.217
 4090SOL    HW213170   1.948   4.553   6.222
 4091SOL     OW13171   3.830   6.945   0.557
 4091SOL    HW113172   3.896   6.879   0.520
 4091SOL    HW213173   3.802   7.007   0.485
 4092SOL     OW13174   6.636   2.224   4.909
 4092SOL    HW113175   6.727   2.247   4.874
 4092SOL    HW213176   6.621   2.126   4.902
 4093SOL     OW13177   5.826   6.681   4.756
 4093SOL    HW113178   5.752   6.651   4.697
 4093SOL    HW213179   5.829   6.625   4.838
 4094SOL     OW13180   2.992   4.480   5.388
 4094SOL    HW113181   2.957   4.509   5.299
 4094SOL    HW213182   3.077   4.429   5.375
 4095SOL     OW13183   1.959   3.924   6.019
 4095SOL    HW113184   2.031   3.956   6.081
 4095SOL    HW213185   1.983   3.949   5.925
 4096SOL     OW13186   4.318   4.754   2.136
 4096SOL    HW113187   4.278   4.785   2.050
 4096SOL    HW213188   4.371   4.671   2.120
 4097SOL     OW13189   2.931   3.565   3.997
 4097SOL    HW113190   2.856   3.606   3.945
 4097SOL    HW213191   3.003   3.632   4.010
 4098SOL     OW13192   0.410   2.678   2.312
 4098SOL    HW113193   0.499   2.721   2.299
 4098SOL    HW213194   0.341   2.729   2.260
 4099SOL     OW13195   2.904   6.281   1.723
 4099SOL    HW113196   2.898   6.196   1.775
 4099SOL    HW213197   2.869   6.267   1.631
 4100SOL     OW13198   3.632   6.337   2.969
 4100SOL    HW113199   3.577   6.394   3.030
 4100SOL    HW213200   3.604   6.242   2.977
 4101SOL     OW13201   4.419   1.087   6.893
 4101SOL    HW113202   4.426   1.162   6.958
 4101SOL    HW213203   4.388   1.121   6.805
 4102SOL     OW13204   5.582   1.215   0.505
 4102SOL    HW113205   5.664   1.161   0.485
 4102SOL    HW213206   5.511   1.194   0.438
 4103SOL     OW13207   0.091   0.118   2.254
 4103SOL    HW113208   0.071   0.036   2.201
 4103SOL    HW213209   0.087   0.198   2.194
 4104SOL     OW13210   1.612   4.959   2.496
 4104SOL    HW113211   1.615   5.033   2.562
 4104SOL    HW213212   1.667   4.882   2.529
 4105SOL     OW13213   5.435   5.424   0.353
 4105SOL    HW113214   5.357   5.428   0.290
 4105SOL    HW213215   5.513   5.384   0.306
 4106SOL     OW13216   0.241   3.749   5.034
 4106SOL    HW113217   0.156   3.793   5.063
 4106SOL    HW213218   0.220   3.666   4.983
 4107SOL     OW13219   6.941   1.248   0.876
 4107SOL    HW113220   0.010   1.275   0.862
 4107SOL    HW213221   6.939   1.155   0.914
 4108SOL     OW13222   6.600   3.195   5.117
 4108SOL    HW113223   6.544   3.165   5.040
 4108SOL    HW213224   6.616   3.293   5.110
 4109SOL     OW13225   2.802   6.549   3.459
 4109SOL    HW113226   2.844   6.499   3.534
 4109SOL    HW213227   2.739   6.489   3.409
 4110SOL     OW13228   4.190   3.253   5.274
 4110SOL    HW113229   4.255   3.267   5.349
 4110SOL    HW213230   4.105   3.215   5.310
 4111SOL     OW13231   4.559   3.359   6.550
 4111SOL    HW113232   4.467   3.338   6.518
 4111SOL    HW213233   4.595   3.439   6.501
 4112SOL     OW13234   3.671   0.871   4.523
 4112SOL    HW113235   3.679   0.858   4.622
 4112SOL    HW213236   3.579   0.846   4.493
 4113SOL     OW13237   3.908   5.709   4.560
 4113SOL    HW113238   3.840   5.648   4.599
 4113SOL    HW213239   3.901   5.707   4.460
 4114SOL     OW13240   2.983   2.098   2.768
 4114SOL    HW113241   3.009   2.013   2.721
 4114SOL    HW213242   2.927   2.154   2.707
 4115SOL     OW13243   5.346   5.008   2.286
 4115SOL    HW113244   5.333   5.034   2.382
 4115SOL    HW213245   5.281   5.058   2.228
 4116SOL     OW13246   3.293   1.183   2.346
 4116SOL    HW113247   3.260   1.214   2.436
 4116SOL    HW213248   3.233   1.111   2.312
 4117SOL     OW13249   0.826   5.492   2.096
 4117SOL    HW113250   0.898   5.423   2.102
 4117SOL    HW213251   0.753   5.457   2.037
 4118SOL     OW13252   2.604   6.748   0.652
 4118SOL    HW113253   2.593   6.800   0.737
 4118SOL    HW213254   2.694   6.767   0.613
 4119SOL     OW13255   4.654   0.944   3.418
 4119SOL    HW113256   4.669   0.891   3.501
 4119SOL    HW213257   4.723   0.919   3.350
 4120SOL     OW13258   3.799   1.011   2.363
 4120SOL    HW113259   3.814   0.968   2.274
 4120SOL    HW213260   3.712   1.060   2.362
 4121SOL     OW13261   6.479   3.128   4.822
 4121SOL    HW113262   6.491   3.033   4.791
 4121SOL    HW213263   6.561   3.181   4.800
 4122SOL     OW13264   1.746   5.619   6.526
 4122SOL    HW113265   1.714   5.575   6.442
 4122SOL    HW213266   1.787   5.707   6.505
 4123SOL     OW13267   4.638   4.204   6.079
 4123SOL    HW113268   4.704   4.234   6.010
 4123SOL    HW213269   4.545   4.211   6.042
 4124SOL     OW13270   4.531   6.608   3.707
 4124SOL    HW113271   4.448   6.607   3.652
 4124SOL    HW213272   4.539   6.522   3.757
 4125SOL     OW13273   4.992   1.256   0.843
 4125SOL    HW113274   5.068   1.254   0.907
 4125SOL    HW213275   4.930   1.331   0.866
 4126SOL     OW13276   1.945   4.865   4.487
 4126SOL    HW113277   1.979   4.848   4.395
 4126SOL    HW213278   1.924   4.777   4.532
 4127SOL     OW13279   6.134   4.052   4.851
 4127SOL    HW113280   6.200   4.081   4.920
 4127SOL    HW213281   6.059   4.118   4.847
 4128SOL     OW13282   1.335   2.010   2.241
 4128SOL    HW113283   1.284   1.927   2.222
 4128SOL    HW213284   1.373   2.047   2.156
 4129SOL     OW13285   5.876   2.127   6.254
 4129SOL    HW113286   5.835   2.127   6.345
 4129SOL    HW213287   5.937   2.048   6.245
 4130SOL     OW13288   5.917   3.429   1.332
 4130SOL    HW113289   5.913   3.446   1.430
 4130SOL    HW213290   5.825   3.430   1.294
 4131SOL     OW13291   6.707   4.013   3.321
 4131SOL    HW113292   6.785   4.040   3.377
 4131SOL    HW213293   6.648   3.951   3.374
 4132SOL     OW13294   5.140   2.108   4.560
 4132SOL    HW113295   5.168   2.204   4.559
 4132SOL    HW213296   5.108   2.082   4.469
 4133SOL     OW13297   2.589   2.127   1.160
 4133SOL    HW113298   2.599   2.135   1.259
 4133SOL    HW213299   2.664   2.177   1.115
 4134SOL     OW13300   1.260   1.629   6.781
 4134SOL    HW113301   1.238   1.571   6.859
 4134SOL    HW213302   1.348   1.674   6.796
 4135SOL     OW13303   1.257   0.624   1.117
 4135SOL    HW113304   1.244   0.629   1.217
 4135SOL    HW213305   1.223   0.536   1.084
 4136SOL     OW13306   0.980   1.535   3.371
 4136SOL    HW113307   0.973   1.435   3.362
 4136SOL    HW213308   1.014   1.558   3.462
 4137SOL     OW13309   3.886   3.909   5.241
 4137SOL    HW113310   3.897   3.957   5.154
 4137SOL    HW213311   3.937   3.823   5.238
 4138SOL     OW13312   4.263   5.427   2.886
 4138SOL    HW113313   4.282   5.339   2.930
 4138SOL    HW213314   4.202   5.413   2.808
 4139SOL     OW13315   2.017   0.880   0.386
 4139SOL    HW113316   2.038   0.865   0.290
 4139SOL    HW213317   2.093   0.847   0.443
 4140SOL     OW13318   4.683   1.603   5.434
 4140SOL    HW113319   4.682   1.702   5.424
 4140SOL    HW213320   4.591   1.567   5.415
 4141SOL     OW13321   5.635   5.518   0.914
 4141SOL    HW113322   5.545   5.474   0.912
 4141SOL    HW213323   5.704   5.450   0.938
 4142SOL     OW13324   6.259   2.645   1.838
 4142SOL    HW113325   6.211   2.557   1.834
 4142SOL    HW213326   6.339   2.642   1.779
 4143SOL     OW13327   0.581   1.927   1.664
 4143SOL    HW113328   0.661   1.981   1.688
 4143SOL    HW213329   0.596   1.884   1.574
 4144SOL     OW13330   4.652   0.714   2.296
 4144SOL    HW113331   4.610   0.730   2.385
 4144SOL    HW213332   4.610   0.775   2.228
 4145SOL     OW13333   3.198   0.160   2.992
 4145SOL    HW113334   3.155   0.154   2.901
 4145SOL    HW213335   3.214   0.068   3.027
 4146SOL     OW13336   5.200   5.425   0.151
 4146SOL    HW113337   5.117   5.381   0.117
 4146SOL    HW213338   5.177   5.517   0.184
 4147SOL     OW13339   3.130   2.593   5.766
 4147SOL    HW113340   3.147   2.585   5.668
 4147SOL    HW213341   3.152   2.685   5.797
 4148SOL     OW13342   5.782   0.189   2.855
 4148SOL    HW113343   5.685   0.168   2.845
 4148SOL    HW213344   5.831   0.111   2.893
 4149SOL     OW13345   5.101   4.513   1.695
 4149SOL    HW113346   5.039   4.519   1.773
 4149SOL    HW213347   5.140   4.603   1.677
 4150SOL     OW13348   4.978   0.489   5.831
 4150SOL    HW113349   5.045   0.561   5.847
 4150SOL    HW213350   4.994   0.414   5.895
 4151SOL     OW13351   0.414   5.494   0.733
 4151SOL    HW113352   0.477   5.417   0.729
 4151SOL    HW213353   0.421   5.547   0.649
 4152SOL     OW13354   3.814   4.386   1.604
 4152SOL    HW113355   3.720   4.415   1.588
 4152SOL    HW213356   3.826   4.292   1.573
 4153SOL     OW13357   6.014   5.554   6.246
 4153SOL    HW113358   6.106   5.515   6.240
 4153SOL    HW213359   5.974   5.534   6.335
 4154SOL     OW13360   4.625   2.737   5.638
 4154SOL    HW113361   4.610   2.706   5.732
 4154SOL    HW213362   4.586   2.672   5.574
 4155SOL     OW13363   1.333   2.912   1.187
 4155SOL    HW113364   1.305   2.981   1.121
 4155SOL    HW213365   1.258   2.894   1.251
 4156SOL     OW13366   6.393   7.014   5.530
 4156SOL    HW113367   6.365   6.944   5.596
 4156SOL    HW213368   6.485   6.992   5.496
 4157SOL     OW13369   3.442   0.729   4.470
 4157SOL    HW113370   3.385   0.730   4.553
 4157SOL    HW213371   3.457   0.634   4.442
 4158SOL     OW13372   0.925   0.069   4.214
 4158SOL    HW113373   0.887   7.014   4.171
 4158SOL    HW213374   0.859   0.144   4.207
 4159SOL     OW13375   0.727   3.376   5.508
 4159SOL    HW113376   0.662   3.358   5.581
 4159SOL    HW213377   0.679   3.374   5.420
 4160SOL     OW13378   1.320   1.151   0.856
 4160SOL    HW113379   1.375   1.073   0.826
 4160SOL    HW213380   1.224   1.122   0.865
 4161SOL     OW13381   6.067   1.838   0.276
 4161SOL    HW113382   6.035   1.928   0.305
 4161SOL    HW213383   6.049   1.771   0.348
 4162SOL     OW13384   7.018   6.928   4.943
 4162SOL    HW113385   0.056   6.999   4.915
 4162SOL    HW213386   0.025   6.838   4.914
 4163SOL     OW13387   6.307   0.840   4.146
 4163SOL    HW113388   6.292   0.765   4.210
 4163SOL    HW213389   6.304   0.805   4.052
 4164SOL     OW13390   2.725   6.778   6.525
 4164SOL    HW113391   2.662   6.836   6.576
 4164SOL    HW213392   2.695   6.683   6.530
 4165SOL     OW13393   2.814   5.753   2.635
 4165SOL    HW113394   2.746   5.761   2.707
 4165SOL    HW213395   2.769   5.757   2.546
 4166SOL     OW13396   6.002   2.718   1.321
 4166SOL    HW113397   5.949   2.739   1.403
 4166SOL    HW213398   6.099   2.712   1.344
 4167SOL     OW13399   2.504   3.284   1.205
 4167SOL    HW113400   2.486   3.380   1.227
 4167SOL    HW213401   2.497   3.229   1.288
 4168SOL     OW13402   1.478   4.538   0.968
 4168SOL    HW113403   1.418   4.616   0.981
 4168SOL    HW213404   1.433   4.455   1.001
 4169SOL     OW13405   6.387   3.737   4.594
 4169SOL    HW113406   6.464   3.723   4.657
 4169SOL    HW213407   6.308   3.769   4.646
 4170SOL     OW13408   4.160   2.267   5.290
 4170SOL    HW113409   4.166   2.365   5.276
 4170SOL    HW213410   4.194   2.244   5.381
 4171SOL     OW13411   5.395   3.531   1.411
 4171SOL    HW113412   5.404   3.436   1.383
 4171SOL    HW213413   5.439   3.544   1.500
 4172SOL     OW13414   2.623   1.163   7.006
 4172SOL    HW113415   2.536   1.202   0.011
 4172SOL    HW213416   2.676   1.234   6.959
 4173SOL     OW13417   5.707   3.423   5.465
 4173SOL    HW113418   5.799   3.451   5.493
 4173SOL    HW213419   5.660   3.500   5.422
 4174SOL     OW13420   5.199   0.582   4.272
 4174SOL    HW113421   5.227   0.555   4.364
 4174SOL    HW213422   5.275   0.627   4.226
 4175SOL     OW13423   3.673   1.838   3.450
 4175SOL    HW113424   3.690   1.936   3.441
 4175SOL    HW213425   3.579   1.823   3.479
 4176SOL     OW13426   6.180   5.531   2.965
 4176SOL    HW113427   6.091   5.489   2.984
 4176SOL    HW213428   6.168   5.607   2.901
 4177SOL     OW13429   6.565   5.280   2.907
 4177SOL    HW113430   6.617   5.209   2.860
 4177SOL    HW213431   6.467   5.265   2.892
 4178SOL     OW13432   3.916   2.999   6.111
 4178SOL    HW113433   3.986   2.929   6.124
 4178SOL    HW213434   3.912   3.057   6.193
 4179SOL     OW13435   6.363   2.954   6.509
 4179SOL    HW113436   6.271   2.986   6.533
 4179SOL    HW213437   6.396   2.891   6.580
 4180SOL     OW13438   4.189   3.617   1.230
 4180SOL    HW113439   4.149   3.668   1.153
 4180SOL    HW213440   4.203   3.680   1.307
 4181SOL     OW13441   0.086   1.298   0.626
 4181SOL    HW113442   0.059   1.394   0.624
 4181SOL    HW213443   0.013   1.242   0.584
 4182SOL     OW13444   5.590   1.244   3.499
 4182SOL    HW113445   5.518   1.266   3.564
 4182SOL    HW213446   5.669   1.303   3.515
 4183SOL     OW13447   1.802   1.730   1.314
 4183SOL    HW113448   1.873   1.669   1.349
 4183SOL    HW213449   1.843   1.794   1.250
 4184SOL     OW13450   3.863   5.083   6.935
 4184SOL    HW113451   3.929   5.045   6.999
 4184SOL    HW213452   3.829   5.171   6.971
 4185SOL     OW13453   0.102   6.760   4.226
 4185SOL    HW113454   0.185   6.784   4.175
 4185SOL    HW213455   0.056   6.683   4.181
 4186SOL     OW13456   3.535   4.262   1.795
 4186SOL    HW113457   3.462   4.222   1.739
 4186SOL    HW213458   3.542   4.214   1.882
 4187SOL     OW13459   4.384   4.969   6.352
 4187SOL    HW113460   4.441   4.999   6.428
 4187SOL    HW213461   4.435   4.901   6.298
 4188SOL     OW13462   5.308   6.412   4.810
 4188SOL    HW113463   5.276   6.372   4.896
 4188SOL    HW213464   5.231   6.455   4.763
 4189SOL     OW13465   1.775   3.217   3.306
 4189SOL    HW113466   1.778   3.117   3.315
 4189SOL    HW213467   1.687   3.251   3.341
 4190SOL     OW13468   3.313   6.995   1.660
 4190SOL    HW113469   3.223   6.958   1.636
 4190SOL    HW213470   3.378   6.977   1.586
 4191SOL     OW13471   0.299   2.717   1.901
 4191SOL    HW113472   0.235   2.641   1.914
 4191SOL    HW213473   0.264   2.799   1.946
 4192SOL     OW13474   5.959   1.028   2.780
 4192SOL    HW113475   5.875   1.005   2.829
 4192SOL    HW213476   6.023   1.073   2.843
 4193SOL     OW13477   1.810   6.594   2.514
 4193SOL    HW113478   1.884   6.662   2.517
 4193SOL    HW213479   1.834   6.522   2.448
 4194SOL     OW13480   6.444   1.123   3.547
 4194SOL    HW113481   6.396   1.035   3.545
 4194SOL    HW213482   6.482   1.139   3.638
 4195SOL     OW13483   5.211   1.033   2.997
 4195SOL    HW113484   5.152   1.053   3.075
 4195SOL    HW213485   5.230   0.935   2.993
 4196SOL     OW13486   4.431   2.275   3.121
 4196SOL    HW113487   4.512   2.309   3.170
 4196SOL    HW213488   4.415   2.332   3.040
 4197SOL     OW13489   4.947   4.040   4.501
 4197SOL    HW113490   4.914   3.953   4.539
 4197SOL    HW213491   5.044   4.051   4.524
 4198SOL     OW13492   5.565   4.271   6.082
 4198SOL    HW113493   5.522   4.219   6.008
 4198SOL    HW213494   5.601   4.209   6.151
 4199SOL     OW13495   3.189   3.754   5.074
 4199SOL    HW113496   3.125   3.828   5.051
 4199SOL    HW213497   3.138   3.668   5.083
 4200SOL     OW13498   2.355   0.178   6.121
 4200SOL    HW113499   2.327   0.162   6.215
 4200SOL    HW213500   2.280   0.155   6.058
 4201SOL     OW13501   6.066   6.772   4.677
 4201SOL    HW113502   6.079   6.742   4.583
 4201SOL    HW213503   5.975   6.746   4.709
 4202SOL     OW13504   5.547   3.832   4.940
 4202SOL    HW113505   5.631   3.779   4.948
 4202SOL    HW213506   5.474   3.786   4.991
 4203SOL     OW13507   4.969   5.189   4.169
 4203SOL    HW113508   5.042   5.256   4.160
 4203SOL    HW213509   4.904   5.219   4.238
 4204SOL     OW13510   2.210   4.280   0.913
 4204SOL    HW113511   2.227   4.368   0.958
 4204SOL    HW213512   2.271   4.270   0.835
 4205SOL     OW13513   2.869   5.713   3.185
 4205SOL    HW113514   2.953   5.753   3.221
 4205SOL    HW213515   2.888   5.668   3.098
 4206SOL     OW13516   5.709   6.680   4.380
 4206SOL    HW113517   5.754   6.604   4.427
 4206SOL    HW213518   5.774   6.754   4.366
 4207SOL     OW13519   0.795   0.674   0.665
 4207SOL    HW113520   0.738   0.596   0.690
 4207SOL    HW213521   0.886   0.643   0.641
 4208SOL     OW13522   1.029   2.724   0.312
 4208SOL    HW113523   1.089   2.803   0.323
 4208SOL    HW213524   0.954   2.747   0.250
 4209SOL     OW13525   2.712   0.799   5.023
 4209SOL    HW113526   2.665   0.720   5.062
 4209SOL    HW213527   2.803   0.771   4.991
 4210SOL     OW13528   4.946   2.625   0.185
 4210SOL    HW113529   4.929   2.643   0.282
 4210SOL    HW213530   4.971   2.528   0.174
 4211SOL     OW13531   5.182   3.465   3.981
 4211SOL    HW113532   5.086   3.450   4.004
 4211SOL    HW213533   5.234   3.488   4.063
 4212SOL     OW13534   6.423   6.722   2.854
 4212SOL    HW113535   6.471   6.754   2.936
 4212SOL    HW213536   6.399   6.626   2.866
 4213SOL     OW13537   1.007   6.931   1.710
 4213SOL    HW113538   0.928   6.989   1.691
 4213SOL    HW213539   1.089   6.973   1.671
 4214SOL     OW13540   2.322   5.211   4.799
 4214SOL    HW113541   2.376   5.127   4.792
 4214SOL    HW213542   2.271   5.224   4.714
 4215SOL     OW13543   0.775   5.327   5.392
 4215SOL    HW113544   0.794   5.229   5.395
 4215SOL    HW213545   0.764   5.361   5.486
 4216SOL     OW13546   2.807   3.089   5.548
 4216SOL    HW113547   2.748   3.024   5.500
 4216SOL    HW213548   2.883   3.040   5.589
 4217SOL     OW13549   6.990   0.898   2.830
 4217SOL    HW113550   6.952   0.807   2.812
 4217SOL    HW213551   0.041   0.914   2.769
 4218SOL     OW13552   3.119   6.328   2.186
 4218SOL    HW113553   3.172   6.412   2.190
 4218SOL    HW213554   3.151   6.271   2.110
 4219SOL     OW13555   4.959   7.010   3.266
 4219SOL    HW113556   4.896   6.943   3.227
 4219SOL    HW213557   4.966   6.996   3.365
 4220SOL     OW13558   0.738   4.050   3.368
 4220SOL    HW113559   0.791   4.103   3.433
 4220SOL    HW213560   0.729   3.956   3.401
 4221SOL     OW13561   5.570   6.271   5.778
 4221SOL    HW113562   5.579   6.315   5.689
 4221SOL    HW213563   5.475   6.248   5.796
 4222SOL     OW13564   3.154   2.943   6.906
 4222SOL    HW113565   3.104   3.024   6.935
 4222SOL    HW213566   3.218   2.915   6.978
 4223SOL     OW13567   2.953   3.663   2.632
 4223SOL    HW113568   3.011   3.736   2.669
 4223SOL    HW213569   2.938   3.679   2.535
 4224SOL     OW13570   3.895   2.112   5.968
 4224SOL    HW113571   3.809   2.126   5.919
 4224SOL    HW213572   3.890   2.154   6.058
 4225SOL     OW13573   5.263   0.453   4.525
 4225SOL    HW113574   5.363   0.448   4.518
 4225SOL    HW213575   5.223   0.366   4.497
 4226SOL     OW13576   1.946   1.241   3.145
 4226SOL    HW113577   1.978   1.273   3.234
 4226SOL    HW213578   1.846   1.242   3.143
 4227SOL     OW13579   5.862   3.888   6.854
 4227SOL    HW113580   5.840   3.851   6.763
 4227SOL    HW213581   5.951   3.853   6.883
 4228SOL     OW13582   5.536   5.408   2.956
 4228SOL    HW113583   5.550   5.430   2.859
 4228SOL    HW213584   5.556   5.489   3.011
 4229SOL     OW13585   4.466   4.866   5.314
 4229SOL    HW113586   4.483   4.962   5.291
 4229SOL    HW213587   4.448   4.858   5.412
 4230SOL     OW13588   3.262   0.438   4.811
 4230SOL    HW113589   3.329   0.501   4.852
 4230SOL    HW213590   3.238   0.367   4.877
 4231SOL     OW13591   3.811   6.482   5.586
 4231SOL    HW113592   3.740   6.553   5.595
 4231SOL    HW213593   3.785   6.402   5.640
 4232SOL     OW13594   2.571   4.328   1.349
 4232SOL    HW113595   2.663   4.341   1.386
 4232SOL    HW213596   2.518   4.411   1.363
 4233SOL     OW13597   5.625   6.711   1.191
 4233SOL    HW113598   5.636   6.739   1.096
 4233SOL    HW213599   5.653   6.616   1.201
 4234SOL     OW13600   3.252   3.901   5.432
 4234SOL    HW113601   3.176   3.965   5.423
 4234SOL    HW213602   3.217   3.808   5.439
 4235SOL     OW13603   0.289   3.750   5.312
 4235SOL    HW113604   0.286   3.715   5.219
 4235SOL    HW213605   0.315   3.847   5.310
 4236SOL     OW13606   0.852   3.792   4.787
 4236SOL    HW113607   0.932   3.809   4.844
 4236SOL    HW213608   0.771   3.831   4.830
 4237SOL     OW13609   5.470   4.639   5.421
 4237SOL    HW113610   5.565   4.614   5.401
 4237SOL    HW213611   5.425   4.564   5.469
 4238SOL     OW13612   4.682   4.335   4.506
 4238SOL    HW113613   4.676   4.266   4.434
 4238SOL    HW213614   4.703   4.291   4.593
 4239SOL     OW13615   5.534   5.832   5.775
 4239SOL    HW113616   5.461   5.780   5.732
 4239SOL    HW213617   5.495   5.909   5.826
 4240SOL     OW13618   2.551   4.896   6.256
 4240SOL    HW113619   2.475   4.917   6.195
 4240SOL    HW213620   2.615   4.972   6.257
 4241SOL     OW13621   4.277   1.482   0.158
 4241SOL    HW113622   4.207   1.550   0.182
 4241SOL    HW213623   4.364   1.508   0.199
 4242SOL     OW13624   1.372   0.534   2.425
 4242SOL    HW113625   1.324   0.448   2.443
 4242SOL    HW213626   1.306   0.602   2.391
 4243SOL     OW13627   1.310   2.603   2.784
 4243SOL    HW113628   1.380   2.661   2.742
 4243SOL    HW213629   1.350   2.552   2.861
 4244SOL     OW13630   3.165   0.007   0.818
 4244SOL    HW113631   3.212   0.094   0.832
 4244SOL    HW213632   3.094   0.018   0.748
 4245SOL     OW13633   6.757   2.147   1.113
 4245SOL    HW113634   6.795   2.200   1.190
 4245SOL    HW213635   6.824   2.145   1.038
 4246SOL     OW13636   4.891   2.607   3.931
 4246SOL    HW113637   4.821   2.578   3.865
 4246SOL    HW213638   4.904   2.535   3.999
 4247SOL     OW13639   1.745   4.539   0.017
 4247SOL    HW113640   1.804   4.554   6.964
 4247SOL    HW213641   1.659   4.496   7.013
 4248SOL     OW13642   2.207   0.703   3.414
 4248SOL    HW113643   2.257   0.789   3.422
 4248SOL    HW213644   2.109   0.723   3.403
 4249SOL     OW13645   5.938   0.435   6.066
 4249SOL    HW113646   5.954   0.478   6.155
 4249SOL    HW213647   5.922   0.506   5.997
 4250SOL     OW13648   0.064   6.132   4.884
 4250SOL    HW113649   7.009   6.087   4.920
 4250SOL    HW213650   0.054   6.145   4.785
 4251SOL     OW13651   4.711   2.245   5.565
 4251SOL    HW113652   4.614   2.223   5.571
 4251SOL    HW213653   4.735   2.308   5.639
 4252SOL     OW13654   0.103   0.077   6.841
 4252SOL    HW113655   0.013   0.111   6.814
 4252SOL    HW213656   0.135   0.010   6.774
 4253SOL     OW13657   4.346   6.271   2.959
 4253SOL    HW113658   4.409   6.199   2.932
 4253SOL    HW213659   4.391   6.335   3.022
 4254SOL     OW13660   1.470   1.963   6.187
 4254SOL    HW113661   1.381   1.976   6.144
 4254SOL    HW213662   1.542   1.988   6.123
 4255SOL     OW13663   1.036   2.700   2.886
 4255SOL    HW113664   1.117   2.707   2.827
 4255SOL    HW213665   1.048   2.624   2.950
 4256SOL     OW13666   6.622   6.010   0.776
 4256SOL    HW113667   6.682   5.985   0.700
 4256SOL    HW213668   6.532   6.036   0.741
 4257SOL     OW13669   6.214   0.655   3.417
 4257SOL    HW113670   6.115   0.664   3.417
 4257SOL    HW213671   6.246   0.632   3.325
 4258SOL     OW13672   2.835   5.858   0.867
 4258SOL    HW113673   2.838   5.797   0.946
 4258SOL    HW213674   2.910   5.923   0.872
 4259SOL     OW13675   1.281   0.194   0.522
 4259SOL    HW113676   1.355   0.171   0.586
 4259SOL    HW213677   1.318   0.199   0.429
 4260SOL     OW13678   6.091   0.366   4.821
 4260SOL    HW113679   6.019   0.430   4.848
 4260SOL    HW213680   6.112   0.305   4.897
 4261SOL     OW13681   2.243   6.183   4.358
 4261SOL    HW113682   2.249   6.269   4.307
 4261SOL    HW213683   2.147   6.164   4.379
 4262SOL     OW13684   1.733   4.932   5.230
 4262SOL    HW113685   1.783   4.973   5.306
 4262SOL    HW213686   1.780   4.955   5.144
 4263SOL     OW13687   2.629   1.594   3.259
 4263SOL    HW113688   2.572   1.575   3.179
 4263SOL    HW213689   2.700   1.660   3.235
 4264SOL     OW13690   4.489   2.040   5.948
 4264SOL    HW113691   4.472   1.953   5.995
 4264SOL    HW213692   4.402   2.081   5.921
 4265SOL     OW13693   2.647   6.440   6.365
 4265SOL    HW113694   2.587   6.484   6.432
 4265SOL    HW213695   2.651   6.495   6.282
 4266SOL     OW13696   1.175   5.322   1.856
 4266SOL    HW113697   1.273   5.316   1.876
 4266SOL    HW213698   1.160   5.392   1.786
 4267SOL     OW13699   0.990   3.570   4.342
 4267SOL    HW113700   1.019   3.650   4.394
 4267SOL    HW213701   0.931   3.598   4.266
 4268SOL     OW13702   1.266   4.599   6.118
 4268SOL    HW113703   1.272   4.534   6.043
 4268SOL    HW213704   1.330   4.674   6.103
 4269SOL     OW13705   2.989   1.567   4.474
 4269SOL    HW113706   3.087   1.551   4.485
 4269SOL    HW213707   2.941   1.535   4.555
 4270SOL     OW13708   4.216   4.135   0.262
 4270SOL    HW113709   4.238   4.231   0.279
 4270SOL    HW213710   4.189   4.123   0.166
 4271SOL     OW13711   0.006   0.387   1.128
 4271SOL    HW113712   6.949   0.376   1.074
 4271SOL    HW213713   0.005   0.476   1.174
 4272SOL     OW13714   6.970   1.654   5.840
 4272SOL    HW113715   7.001   1.677   5.748
 4272SOL    HW213716   7.003   1.563   5.865
 4273SOL     OW13717   2.823   6.043   3.949
 4273SOL    HW113718   2.738   6.073   3.993
 4273SOL    HW213719   2.805   5.961   3.895
 4274SOL     OW13720   0.725   1.199   2.107
 4274SOL    HW113721   0.669   1.228   2.185
 4274SOL    HW213722   0.676   1.216   2.022
 4275SOL     OW13723   6.881   2.383   3.865
 4275SOL    HW113724   6.809   2.322   3.832
 4275SOL    HW213725   6.854   2.423   3.952
 4276SOL     OW13726   1.074   6.523   2.782
 4276SOL    HW113727   1.140   6.487   2.848
 4276SOL    HW213728   1.122   6.564   2.705
 4277SOL     OW13729   6.600   5.535   3.119
 4277SOL    HW113730   6.625   5.448   3.076
 4277SOL    HW213731   6.614   5.528   3.218
 4278SOL     OW13732   0.891   6.924   1.186
 4278SOL    HW113733   0.807   6.943   1.238
 4278SOL    HW213734   0.921   6.831   1.205
 4279SOL     OW13735   0.752   2.195   3.368
 4279SOL    HW113736   0.785   2.132   3.298
 4279SOL    HW213737   0.747   2.288   3.330
 4280SOL     OW13738   1.768   6.185   6.420
 4280SOL    HW113739   1.727   6.103   6.459
 4280SOL    HW213740   1.696   6.251   6.399
 4281SOL     OW13741   6.254   6.052   3.404
 4281SOL    HW113742   6.324   6.117   3.376
 4281SOL    HW213743   6.187   6.098   3.462
 4282SOL     OW13744   5.291   5.543   2.242
 4282SOL    HW113745   5.197   5.508   2.244
 4282SOL    HW213746   5.354   5.466   2.232
 4283SOL     OW13747   5.903   0.982   4.882
 4283SOL    HW113748   5.948   1.032   4.808
 4283SOL    HW213749   5.915   1.031   4.968
 4284SOL     OW13750   4.921   5.964   6.950
 4284SOL    HW113751   4.896   5.869   6.968
 4284SOL    HW213752   4.850   6.008   6.895
 4285SOL     OW13753   3.000   1.728   6.230
 4285SOL    HW113754   3.045   1.652   6.183
 4285SOL    HW213755   3.017   1.722   6.328
 4286SOL     OW13756   5.110   0.155   6.959
 4286SOL    HW113757   5.017   0.156   6.996
 4286SOL    HW213758   5.171   0.205   7.022
 4287SOL     OW13759   3.129   0.825   1.489
 4287SOL    HW113760   3.037   0.862   1.504
 4287SOL    HW213761   3.169   0.799   1.577
 4288SOL     OW13762   6.921   5.788   1.933
 4288SOL    HW113763   6.881   5.731   2.004
 4288SOL    HW213764   7.009   5.823   1.964
 4289SOL     OW13765   0.088   4.422   5.136
 4289SOL    HW113766   0.142   4.351   5.090
 4289SOL    HW213767   7.017   4.408   5.115
 4290SOL     OW13768   6.854   1.801   3.394
 4290SOL    HW113769   6.764   1.757   3.400
 4290SOL    HW213770   6.923   1.732   3.373
 4291SOL     OW13771   4.490   4.716   6.703
 4291SOL    HW113772   4.456   4.778   6.632
 4291SOL    HW213773   4.581   4.683   6.678
 4292SOL     OW13774   6.565   1.049   1.559
 4292SOL    HW113775   6.626   1.079   1.632
 4292SOL    HW213776   6.554   0.950   1.564
 4293SOL     OW13777   3.655   3.006   0.113
 4293SOL    HW113778   3.590   2.991   0.037
 4293SOL    HW213779   3.662   3.104   0.132
 4294SOL     OW13780   3.043   1.737   6.491
 4294SOL    HW113781   3.118   1.731   6.557
 4294SOL    HW213782   2.976   1.805   6.522
 4295SOL     OW13783   4.753   6.452   3.065
 4295SOL    HW113784   4.768   6.494   3.155
 4295SOL    HW213785   4.745   6.353   3.075
 4296SOL     OW13786   2.129   6.345   1.958
 4296SOL    HW113787   2.156   6.434   1.996
 4296SOL    HW213788   2.089   6.359   1.868
 4297SOL     OW13789   4.945   5.297   7.026
 4297SOL    HW113790   4.899   5.345   6.952
 4297SOL    HW213791   4.965   5.203   6.997
 4298SOL     OW13792   1.485   0.213   0.740
 4298SOL    HW113793   1.431   0.189   0.821
 4298SOL    HW213794   1.576   0.173   0.748
 4299SOL     OW13795   0.888   3.106   6.291
 4299SOL    HW113796   0.842   3.190   6.318
 4299SOL    HW213797   0.936   3.119   6.205
 4300SOL     OW13798   3.362   0.669   2.172
 4300SOL    HW113799   3.277   0.684   2.222
 4300SOL    HW213800   3.356   0.712   2.082
 4301SOL     OW13801   2.362   6.020   5.749
 4301SOL    HW113802   2.441   6.002   5.807
 4301SOL    HW213803   2.393   6.037   5.655
 4302SOL     OW13804   3.328   5.072   6.092
 4302SOL    HW113805   3.252   5.070   6.157
 4302SOL    HW213806   3.409   5.033   6.135
 4303SOL     OW13807   4.144   5.659   3.515
 4303SOL    HW113808   4.172   5.705   3.431
 4303SOL    HW213809   4.171   5.713   3.594
 4304SOL     OW13810   2.995   3.965   1.827
 4304SOL    HW113811   2.970   4.048   1.778
 4304SOL    HW213812   3.044   3.990   1.911
 4305SOL     OW13813   0.594   6.090   6.087
 4305SOL    HW113814   0.572   6.022   6.017
 4305SOL    HW213815   0.678   6.138   6.060
 4306SOL     OW13816   5.868   3.275   4.957
 4306SOL    HW113817   5.769   3.268   4.945
 4306SOL    HW213818   5.910   3.303   4.871
 4307SOL     OW13819   6.752   1.108   5.258
 4307SOL    HW113820   6.686   1.141   5.325
 4307SOL    HW213821   6.799   1.186   5.216
 4308SOL     OW13822   4.081   5.504   6.370
 4308SOL    HW113823   4.029   5.556   6.302
 4308SOL    HW213824   4.178   5.525   6.361
 4309SOL     OW13825   2.253   1.543   0.782
 4309SOL    HW113826   2.308   1.485   0.722
 4309SOL    HW213827   2.217   1.621   0.730
 4310SOL     OW13828   6.268   2.089   3.161
 4310SOL    HW113829   6.266   1.993   3.133
 4310SOL    HW213830   6.189   2.136   3.122
 4311SOL     OW13831   0.615   0.004   1.596
 4311SOL    HW113832   0.695   0.060   1.617
 4311SOL    HW213833   0.646   6.942   1.562
 4312SOL     OW13834   0.026   3.872   2.194
 4312SOL    HW113835   0.000   3.968   2.206
 4312SOL    HW213836   0.048   3.856   2.098
 4313SOL     OW13837   1.236   3.890   6.950
 4313SOL    HW113838   1.313   3.864   6.892
 4313SOL    HW213839   1.249   3.854   0.016
 4314SOL     OW13840   1.545   1.217   5.442
 4314SOL    HW113841   1.596   1.252   5.363
 4314SOL    HW213842   1.595   1.141   5.483
 4315SOL     OW13843   2.364   2.180   5.530
 4315SOL    HW113844   2.433   2.205   5.598
 4315SOL    HW213845   2.362   2.081   5.521
 4316SOL     OW13846   4.293   5.656   2.145
 4316SOL    HW113847   4.346   5.700   2.218
 4316SOL    HW213848   4.309   5.557   2.147
 4317SOL     OW13849   5.298   0.631   5.046
 4317SOL    HW113850   5.378   0.624   4.987
 4317SOL    HW213851   5.226   0.570   5.012
 4318SOL     OW13852   1.494   6.201   4.186
 4318SOL    HW113853   1.493   6.245   4.276
 4318SOL    HW213854   1.584   6.213   4.144
 4319SOL     OW13855   1.229   4.355   2.668
 4319SOL    HW113856   1.209   4.344   2.571
 4319SOL    HW213857   1.272   4.272   2.704
 4320SOL     OW13858   3.464   6.958   0.816
 4320SOL    HW113859   3.415   0.015   0.836
 4320SOL    HW213860   3.443   6.928   0.723
 4321SOL     OW13861   6.839   6.211   3.182
 4321SOL    HW113862   6.887   6.277   3.123
 4321SOL    HW213863   6.891   6.125   3.184
 4322SOL     OW13864   2.367   2.343   4.073
 4322SOL    HW113865   2.330   2.316   3.984
 4322SOL    HW213866   2.386   2.262   4.128
 4323SOL     OW13867   4.608   4.779   0.417
 4323SOL    HW113868   4.705   4.803   0.417
 4323SOL    HW213869   4.594   4.701   0.478
 4324SOL     OW13870   0.413   4.639   5.939
 4324SOL    HW113871   0.349   4.569   5.909
 4324SOL    HW213872   0.489   4.596   5.988
 4325SOL     OW13873   1.620   6.964   1.424
 4325SOL    HW113874   1.640   7.022   1.503
 4325SOL    HW213875   1.546   6.901   1.447
 4326SOL     OW13876   4.835   2.452   2.542
 4326SOL    HW113877   4.900   2.404   2.601
 4326SOL    HW213878   4.747   2.459   2.588
 4327SOL     OW13879   2.495   5.934   3.745
 4327SOL    HW113880   2.500   6.033   3.743
 4327SOL    HW213881   2.537   5.896   3.663
 4328SOL     OW13882   5.820   0.057   3.376
 4328SOL    HW113883   5.774   0.061   3.288
 4328SOL    HW213884   5.919   0.060   3.362
 4329SOL     OW13885   6.221   3.992   6.890
 4329SOL    HW113886   6.283   3.923   6.926
 4329SOL    HW213887   6.256   4.083   6.912
 4330SOL     OW13888   2.492   4.574   4.407
 4330SOL    HW113889   2.510   4.536   4.497
 4330SOL    HW213890   2.427   4.650   4.415
 4331SOL     OW13891   5.862   1.842   2.378
 4331SOL    HW113892   5.905   1.891   2.302
 4331SOL    HW213893   5.775   1.885   2.401
 4332SOL     OW13894   6.926   5.650   1.489
 4332SOL    HW113895   6.874   5.640   1.404
 4332SOL    HW213896   6.997   5.719   1.477
 4333SOL     OW13897   3.622   3.033   6.192
 4333SOL    HW113898   3.711   3.066   6.225
 4333SOL    HW213899   3.635   2.966   6.120
 4334SOL     OW13900   6.875   2.927   3.931
 4334SOL    HW113901   6.910   3.020   3.929
 4334SOL    HW213902   6.947   2.866   3.964
 4335SOL     OW13903   2.566   4.428   1.670
 4335SOL    HW113904   2.539   4.335   1.696
 4335SOL    HW213905   2.506   4.461   1.598
 4336SOL     OW13906   2.699   5.556   5.410
 4336SOL    HW113907   2.798   5.562   5.426
 4336SOL    HW213908   2.682   5.513   5.321
 4337SOL     OW13909   6.970   4.482   3.541
 4337SOL    HW113910   6.900   4.541   3.581
 4337SOL    HW213911   0.015   4.539   3.500
 4338SOL     OW13912   2.974   2.423   6.414
 4338SOL    HW113913   2.942   2.508   6.373
 4338SOL    HW213914   2.924   2.406   6.499
 4339SOL     OW13915   4.190   4.885   5.187
 4339SOL    HW113916   4.261   4.856   5.123
 4339SOL    HW213917   4.228   4.891   5.280
 4340SOL     OW13918   0.242   4.133   1.307
 4340SOL    HW113919   0.247   4.226   1.269
 4340SOL    HW213920   0.329   4.112   1.352
 4341SOL     OW13921   6.110   5.837   1.544
 4341SOL    HW113922   6.175   5.818   1.470
 4341SOL    HW213923   6.124   5.930   1.578
 4342SOL     OW13924   5.508   3.076   2.787
 4342SOL    HW113925   5.525   3.050   2.692
 4342SOL    HW213926   5.570   3.026   2.847
 4343SOL     OW13927   3.723   0.264   6.353
 4343SOL    HW113928   3.684   0.233   6.440
 4343SOL    HW213929   3.816   0.227   6.344
 4344SOL     OW13930   0.643   3.823   2.906
 4344SOL    HW113931   0.624   3.819   3.004
 4344SOL    HW213932   0.741   3.809   2.890
 4345SOL     OW13933   3.856   3.964   2.811
 4345SOL    HW113934   3.843   3.889   2.746
 4345SOL    HW213935   3.925   3.938   2.878
 4346SOL     OW13936   0.773   3.009   2.882
 4346SOL    HW113937   0.816   3.006   2.792
 4346SOL    HW213938   0.706   3.084   2.884
 4347SOL     OW13939   6.391   5.282   0.751
 4347SOL    HW113940   6.332   5.260   0.674
 4347SOL    HW213941   6.471   5.222   0.751
 4348SOL     OW13942   5.835   4.831   5.604
 4348SOL    HW113943   5.748   4.844   5.557
 4348SOL    HW213944   5.847   4.903   5.673
 4349SOL     OW13945   0.823   3.625   4.121
 4349SOL    HW113946   0.732   3.584   4.122
 4349SOL    HW213947   0.890   3.556   4.092
 4350SOL     OW13948   4.185   1.049   4.001
 4350SOL    HW113949   4.087   1.041   3.988
 4350SOL    HW213950   4.213   1.145   3.987
 4351SOL     OW13951   7.001   5.877   1.304
 4351SOL    HW113952   0.066   5.846   1.277
 4351SOL    HW213953   6.939   5.868   1.226
 4352SOL     OW13954   3.713   5.021   1.927
 4352SOL    HW113955   3.682   4.937   1.973
 4352SOL    HW213956   3.755   5.082   1.994
 4353SOL     OW13957   2.957   3.754   0.680
 4353SOL    HW113958   3.028   3.807   0.633
 4353SOL    HW213959   2.869   3.802   0.672
 4354SOL     OW13960   5.705   5.948   2.393
 4354SOL    HW113961   5.770   5.909   2.459
 4354SOL    HW213962   5.654   5.874   2.349
 4355SOL     OW13963   2.158   4.923   2.882
 4355SOL    HW113964   2.219   4.926   2.961
 4355SOL    HW213965   2.164   5.009   2.831
 4356SOL     OW13966   6.007   2.926   5.421
 4356SOL    HW113967   5.983   3.020   5.447
 4356SOL    HW213968   5.997   2.916   5.322
 4357SOL     OW13969   5.483   6.563   2.054
 4357SOL    HW113970   5.388   6.596   2.052
 4357SOL    HW213971   5.542   6.635   2.090
 4358SOL     OW13972   2.866   1.005   0.266
 4358SOL    HW113973   2.905   0.918   0.235
 4358SOL    HW213974   2.899   1.079   0.208
 4359SOL     OW13975   2.306   2.107   1.369
 4359SOL    HW113976   2.321   2.022   1.419
 4359SOL    HW213977   2.393   2.156   1.362
 4360SOL     OW13978   2.241   5.654   4.226
 4360SOL    HW113979   2.170   5.627   4.161
 4360SOL    HW213980   2.324   5.599   4.210
 4361SOL     OW13981   0.888   2.011   0.383
 4361SOL    HW113982   0.954   2.006   0.457
 4361SOL    HW213983   0.933   2.042   0.299
 4362SOL     OW13984   1.257   4.964   3.384
 4362SOL    HW113985   1.183   4.919   3.434
 4362SOL    HW213986   1.319   4.895   3.347
 4363SOL     OW13987   3.855   0.903   1.847
 4363SOL    HW113988   3.862   0.808   1.814
 4363SOL    HW213989   3.920   0.916   1.922
 4364SOL     OW13990   3.001   3.928   2.735
 4364SOL    HW113991   3.029   3.958   2.644
 4364SOL    HW213992   2.923   3.982   2.765
 4365SOL     OW13993   2.199   1.097   1.147
 4365SOL    HW113994   2.236   1.183   1.111
 4365SOL    HW213995   2.100   1.105   1.155
 4366SOL     OW13996   5.059   6.245   4.272
 4366SOL    HW113997   5.047   6.231   4.174
 4366SOL    HW213998   4.991   6.311   4.304
 4367SOL     OW13999   2.319   6.050   2.351
 4367SOL    HW114000   2.234   6.033   2.401
 4367SOL    HW214001   2.334   6.148   2.343
 4368SOL     OW14002   5.009   3.847   4.171
 4368SOL    HW114003   5.015   3.943   4.145
 4368SOL    HW214004   5.071   3.829   4.248
 4369SOL     OW14005   5.452   3.890   3.622
 4369SOL    HW114006   5.488   3.801   3.650
 4369SOL    HW214007   5.436   3.946   3.704
 4370SOL     OW14008   4.416   5.054   0.805
 4370SOL    HW114009   4.447   5.015   0.892
 4370SOL    HW214010   4.332   5.106   0.820
 4371SOL     OW14011   3.514   1.122   2.731
 4371SOL    HW114012   3.542   1.033   2.697
 4371SOL    HW214013   3.589   1.187   2.722
 4372SOL     OW14014   1.910   4.632   4.649
 4372SOL    HW114015   1.865   4.546   4.628
 4372SOL    HW214016   2.007   4.615   4.667
 4373SOL     OW14017   4.596   0.948   0.260
 4373SOL    HW114018   4.516   0.901   0.298
 4373SOL    HW214019   4.587   0.954   0.160
 4374SOL     OW14020   2.659   6.905   0.417
 4374SOL    HW114021   2.576   6.851   0.402
 4374SOL    HW214022   2.685   6.950   0.332
 4375SOL     OW14023   3.880   1.447   5.792
 4375SOL    HW114024   3.962   1.437   5.735
 4375SOL    HW214025   3.816   1.373   5.771
 4376SOL     OW14026   2.153   5.476   0.249
 4376SOL    HW114027   2.115   5.400   0.196
 4376SOL    HW214028   2.241   5.503   0.210
 4377SOL     OW14029   5.418   5.897   7.007
 4377SOL    HW114030   5.346   5.858   6.950
 4377SOL    HW214031   5.419   5.852   0.070
 4378SOL     OW14032   2.875   4.746   2.511
 4378SOL    HW114033   2.943   4.736   2.439
 4378SOL    HW214034   2.921   4.764   2.598
 4379SOL     OW14035   0.419   6.749   1.376
 4379SOL    HW114036   0.481   6.690   1.323
 4379SOL    HW214037   0.324   6.725   1.354
 4380SOL     OW14038   1.726   5.516   4.291
 4380SOL    HW114039   1.733   5.429   4.242
 4380SOL    HW214040   1.768   5.589   4.236
 4381SOL     OW14041   4.774   5.810   5.103
 4381SOL    HW114042   4.694   5.766   5.145
 4381SOL    HW214043   4.786   5.774   5.011
 4382SOL     OW14044   5.316   3.971   3.173
 4382SOL    HW114045   5.347   4.065   3.158
 4382SOL    HW214046   5.396   3.912   3.188
 4383SOL     OW14047   1.155   1.737   0.303
 4383SOL    HW114048   1.177   1.829   0.268
 4383SOL    HW214049   1.235   1.678   0.295
 4384SOL     OW14050   4.150   6.428   1.324
 4384SOL    HW114051   4.210   6.480   1.264
 4384SOL    HW214052   4.077   6.386   1.270
 4385SOL     OW14053   5.922   2.725   2.471
 4385SOL    HW114054   5.960   2.634   2.485
 4385SOL    HW214055   5.986   2.780   2.416
 4386SOL     OW14056   1.894   4.102   6.847
 4386SOL    HW114057   1.838   4.039   6.901
 4386SOL    HW214058   1.919   4.180   6.904
 4387SOL     OW14059   6.853   2.595   1.764
 4387SOL    HW114060   6.762   2.555   1.760
 4387SOL    HW214061   6.853   2.684   1.717
 4388SOL     OW14062   3.332   1.911   5.770
 4388SOL    HW114063   3.391   1.980   5.814
 4388SOL    HW214064   3.382   1.825   5.762
 4389SOL     OW14065   5.932   2.206   2.409
 4389SOL    HW114066   5.998   2.278   2.389
 4389SOL    HW214067   5.941   2.133   2.341
 4390SOL     OW14068   4.280   2.633   1.410
 4390SOL    HW114069   4.231   2.706   1.361
 4390SOL    HW214070   4.292   2.660   1.505
 4391SOL     OW14071   0.321   6.527   0.363
 4391SOL    HW114072   0.413   6.507   0.397
 4391SOL    HW214073   0.284   6.606   0.410
 4392SOL     OW14074   5.452   4.308   4.802
 4392SOL    HW114075   5.439   4.328   4.705
 4392SOL    HW214076   5.456   4.209   4.815
 4393SOL     OW14077   5.504   6.167   3.465
 4393SOL    HW114078   5.548   6.253   3.442
 4393SOL    HW214079   5.459   6.175   3.554
 4394SOL     OW14080   4.514   1.180   2.487
 4394SOL    HW114081   4.496   1.192   2.389
 4394SOL    HW214082   4.606   1.144   2.499
 4395SOL     OW14083   5.324   1.610   1.326
 4395SOL    HW114084   5.274   1.637   1.244
 4395SOL    HW214085   5.261   1.569   1.392
 4396SOL     OW14086   1.573   1.330   3.755
 4396SOL    HW114087   1.524   1.315   3.669
 4396SOL    HW214088   1.664   1.367   3.736
 4397SOL     OW14089   5.599   0.288   6.351
 4397SOL    HW114090   5.546   0.332   6.423
 4397SOL    HW214091   5.681   0.246   6.391
 4398SOL     OW14092   0.078   5.505   4.373
 4398SOL    HW114093   0.163   5.545   4.338
 4398SOL    HW214094   0.086   5.491   4.471
 4399SOL     OW14095   3.055   1.008   2.336
 4399SOL    HW114096   3.014   1.090   2.294
 4399SOL    HW214097   2.995   0.974   2.407
 4400SOL     OW14098   3.934   5.975   3.639
 4400SOL    HW114099   3.924   6.004   3.544
 4400SOL    HW214100   3.948   5.876   3.643
 4401SOL     OW14101   5.712   6.024   4.841
 4401SOL    HW114102   5.664   6.088   4.901
 4401SOL    HW214103   5.649   5.993   4.769
 4402SOL     OW14104   6.791   6.534   2.920
 4402SOL    HW114105   6.810   6.629   2.943
 4402SOL    HW214106   6.722   6.529   2.848
 4403SOL     OW14107   0.371   0.874   2.794
 4403SOL    HW114108   0.297   0.881   2.728
 4403SOL    HW214109   0.339   0.825   2.875
 4404SOL     OW14110   2.195   4.697   2.726
 4404SOL    HW114111   2.180   4.771   2.791
 4404SOL    HW214112   2.254   4.729   2.652
 4405SOL     OW14113   2.624   3.766   5.904
 4405SOL    HW114114   2.615   3.756   5.805
 4405SOL    HW214115   2.651   3.860   5.926
 4406SOL     OW14116   5.717   3.353   1.863
 4406SOL    HW114117   5.794   3.390   1.811
 4406SOL    HW214118   5.736   3.363   1.961
 4407SOL     OW14119   6.858   0.645   6.887
 4407SOL    HW114120   6.801   0.649   6.969
 4407SOL    HW214121   6.932   0.712   6.894
 4408SOL     OW14122   4.224   6.336   0.757
 4408SOL    HW114123   4.146   6.399   0.767
 4408SOL    HW214124   4.305   6.378   0.798
 4409SOL     OW14125   2.825   1.501   2.966
 4409SOL    HW114126   2.878   1.534   3.044
 4409SOL    HW214127   2.771   1.576   2.929
 4410SOL     OW14128   2.124   5.699   1.568
 4410SOL    HW114129   2.057   5.768   1.595
 4410SOL    HW214130   2.193   5.741   1.508
 4411SOL     OW14131   3.856   3.766   2.615
 4411SOL    HW114132   3.801   3.688   2.584
 4411SOL    HW214133   3.941   3.769   2.563
 4412SOL     OW14134   3.402   1.663   5.655
 4412SOL    HW114135   3.482   1.691   5.602
 4412SOL    HW214136   3.420   1.575   5.698
 4413SOL     OW14137   4.780   5.258   3.845
 4413SOL    HW114138   4.831   5.259   3.759
 4413SOL    HW214139   4.791   5.169   3.889
 4414SOL     OW14140   3.689   5.519   1.744
 4414SOL    HW114141   3.602   5.517   1.694
 4414SOL    HW214142   3.676   5.478   1.834
 4415SOL     OW14143   4.639   1.640   1.195
 4415SOL    HW114144   4.613   1.721   1.248
 4415SOL    HW214145   4.565   1.573   1.200
 4416SOL     OW14146   2.663   2.036   4.853
 4416SOL    HW114147   2.697   2.130   4.843
 4416SOL    HW214148   2.653   1.995   4.763
 4417SOL     OW14149   6.495   0.491   1.285
 4417SOL    HW114150   6.519   0.445   1.370
 4417SOL    HW214151   6.424   0.560   1.303
 4418SOL     OW14152   4.927   1.114   3.956
 4418SOL    HW114153   4.997   1.182   3.979
 4418SOL    HW214154   4.837   1.156   3.962
 4419SOL     OW14155   6.504   5.348   6.561
 4419SOL    HW114156   6.547   5.437   6.573
 4419SOL    HW214157   6.467   5.317   6.649
 4420SOL     OW14158   4.341   0.804   6.808
 4420SOL    HW114159   4.291   0.890   6.808
 4420SOL    HW214160   4.415   0.807   6.740
 4421SOL     OW14161   0.592   1.594   3.576
 4421SOL    HW114162   0.589   1.506   3.529
 4421SOL    HW214163   0.672   1.596   3.637
 4422SOL     OW14164   2.015   4.733   5.946
 4422SOL    HW114165   2.018   4.782   6.034
 4422SOL    HW214166   1.938   4.766   5.892
 4423SOL     OW14167   0.213   1.417   6.304
 4423SOL    HW114168   0.263   1.460   6.379
 4423SOL    HW214169   0.127   1.465   6.290
 4424SOL     OW14170   0.448   6.276   3.464
 4424SOL    HW114171   0.498   6.261   3.549
 4424SOL    HW214172   0.419   6.372   3.459
 4425SOL     OW14173   5.253   4.328   0.639
 4425SOL    HW114174   5.246   4.230   0.622
 4425SOL    HW214175   5.283   4.374   0.555
 4426SOL     OW14176   0.586   0.501   5.900
 4426SOL    HW114177   0.547   0.468   5.986
 4426SOL    HW214178   0.685   0.484   5.900
 4427SOL     OW14179   0.563   5.908   3.761
 4427SOL    HW114180   0.641   5.947   3.712
 4427SOL    HW214181   0.566   5.937   3.856
 4428SOL     OW14182   1.786   6.502   3.197
 4428SOL    HW114183   1.718   6.457   3.254
 4428SOL    HW214184   1.856   6.545   3.254
 4429SOL     OW14185   3.639   0.277   3.138
 4429SOL    HW114186   3.653   0.352   3.202
 4429SOL    HW214187   3.669   0.191   3.180
 4430SOL     OW14188   1.193   0.549   1.929
 4430SOL    HW114189   1.155   0.634   1.892
 4430SOL    HW214190   1.275   0.524   1.877
 4431SOL     OW14191   2.800   2.044   3.477
 4431SOL    HW114192   2.834   2.134   3.506
 4431SOL    HW214193   2.808   2.036   3.377
 4432SOL     OW14194   3.190   3.069   3.610
 4432SOL    HW114195   3.148   3.035   3.526
 4432SOL    HW214196   3.216   3.165   3.597
 4433SOL     OW14197   6.292   0.364   3.230
 4433SOL    HW114198   6.356   0.290   3.208
 4433SOL    HW214199   6.314   0.445   3.176
 4434SOL     OW14200   4.698   1.927   4.942
 4434SOL    HW114201   4.681   1.998   5.010
 4434SOL    HW214202   4.783   1.879   4.966
 4435SOL     OW14203   4.114   3.306   2.300
 4435SOL    HW114204   4.020   3.276   2.283
 4435SOL    HW214205   4.172   3.281   2.222
 4436SOL     OW14206   5.177   0.260   0.642
 4436SOL    HW114207   5.204   0.269   0.738
 4436SOL    HW214208   5.219   0.334   0.589
 4437SOL     OW14209   3.212   0.322   5.112
 4437SOL    HW114210   3.305   0.284   5.117
 4437SOL    HW214211   3.147   0.255   5.149
 4438SOL     OW14212   4.163   3.663   6.788
 4438SOL    HW114213   4.081   3.706   6.823
 4438SOL    HW214214   4.240   3.682   6.849
 4439SOL     OW14215   2.299   4.829   2.502
 4439SOL    HW114216   2.353   4.913   2.504
 4439SOL    HW214217   2.321   4.777   2.419
 4440SOL     OW14218   6.312   1.131   0.190
 4440SOL    HW114219   6.360   1.133   0.278
 4440SOL    HW214220   6.377   1.147   0.116
 4441SOL     OW14221   6.090   1.196   3.395
 4441SOL    HW114222   6.161   1.264   3.373
 4441SOL    HW214223   6.086   1.184   3.494
 4442SOL     OW14224   1.529   5.848   1.863
 4442SOL    HW114225   1.455   5.906   1.898
 4442SOL    HW214226   1.617   5.895   1.877
 4443SOL     OW14227   2.798   1.364   6.684
 4443SOL    HW114228   2.835   1.384   6.593
 4443SOL    HW214229   2.858   1.404   6.754
 4444SOL     OW14230   4.936   1.266   2.995
 4444SOL    HW114231   4.966   1.309   2.910
 4444SOL    HW214232   4.924   1.168   2.980
 4445SOL     OW14233   1.200   0.880   6.364
 4445SOL    HW114234   1.187   0.822   6.284
 4445SOL    HW214235   1.234   0.969   6.336
 4446SOL     OW14236   5.191   4.795   3.594
 4446SOL    HW114237   5.117   4.730   3.611
 4446SOL    HW214238   5.153   4.886   3.583
 4447SOL     OW14239   5.201   3.087   4.921
 4447SOL    HW114240   5.238   3.179   4.926
 4447SOL    HW214241   5.255   3.026   4.979
 4448SOL     OW14242   1.992   3.059   6.772
 4448SOL    HW114243   1.932   3.040   6.694
 4448SOL    HW214244   1.999   3.158   6.786
 4449SOL     OW14245   0.092   1.657   5.339
 4449SOL    HW114246   0.129   1.749   5.346
 4449SOL    HW214247   7.019   1.660   5.348
 4450SOL     OW14248   3.402   3.589   2.591
 4450SOL    HW114249   3.419   3.688   2.589
 4450SOL    HW214250   3.316   3.571   2.639
 4451SOL     OW14251   0.034   4.083   0.878
 4451SOL    HW114252   0.023   4.024   0.957
 4451SOL    HW214253   0.029   4.028   0.794
 4452SOL     OW14254   6.482   3.746   6.231
 4452SOL    HW114255   6.580   3.730   6.224
 4452SOL    HW214256   6.434   3.694   6.160
 4453SOL     OW14257   5.069   1.551   0.829
 4453SOL    HW114258   5.055   1.628   0.767
 4453SOL    HW214259   5.163   1.518   0.822
 4454SOL     OW14260   5.108   2.755   1.520
 4454SOL    HW114261   5.038   2.746   1.449
 4454SOL    HW214262   5.148   2.847   1.516
 4455SOL     OW14263   4.144   2.305   1.946
 4455SOL    HW114264   4.069   2.277   1.885
 4455SOL    HW214265   4.127   2.269   2.038
 4456SOL     OW14266   0.875   5.629   2.677
 4456SOL    HW114267   0.871   5.577   2.762
 4456SOL    HW214268   0.900   5.567   2.602
 4457SOL     OW14269   4.817   1.733   6.738
 4457SOL    HW114270   4.883   1.658   6.739
 4457SOL    HW214271   4.863   1.817   6.709
 4458SOL     OW14272   4.029   1.567   0.556
 4458SOL    HW114273   3.988   1.478   0.575
 4458SOL    HW214274   3.959   1.638   0.558
 4459SOL     OW14275   5.330   6.569   5.263
 4459SOL    HW114276   5.343   6.623   5.346
 4459SOL    HW214277   5.331   6.472   5.286
 4460SOL     OW14278   1.089   1.365   6.476
 4460SOL    HW114279   1.021   1.333   6.542
 4460SOL    HW214280   1.052   1.358   6.383
 4461SOL     OW14281   2.132   6.580   2.104
 4461SOL    HW114282   2.158   6.650   2.038
 4461SOL    HW214283   2.186   6.592   2.188
 4462SOL     OW14284   0.072   4.859   0.915
 4462SOL    HW114285   7.004   4.891   0.912
 4462SOL    HW214286   0.074   4.760   0.903
 4463SOL     OW14287   1.435   4.105   6.325
 4463SOL    HW114288   1.376   4.029   6.352
 4463SOL    HW214289   1.413   4.132   6.231
 4464SOL     OW14290   6.276   2.730   0.153
 4464SOL    HW114291   6.328   2.644   0.157
 4464SOL    HW214292   6.322   2.798   0.210
 4465SOL     OW14293   0.834   5.947   0.545
 4465SOL    HW114294   0.809   5.928   0.640
 4465SOL    HW214295   0.834   5.862   0.493
 4466SOL     OW14296   0.031   3.147   2.994
 4466SOL    HW114297   0.125   3.179   3.007
 4466SOL    HW214298   0.011   3.144   2.896
 4467SOL     OW14299   1.390   0.248   3.226
 4467SOL    HW114300   1.318   0.252   3.295
 4467SOL    HW214301   1.421   0.341   3.205
 4468SOL     OW14302   2.173   2.106   0.598
 4468SOL    HW114303   2.095   2.082   0.655
 4468SOL    HW214304   2.246   2.145   0.655
 4469SOL     OW14305   4.847   0.183   0.267
 4469SOL    HW114306   4.785   0.116   0.307
 4469SOL    HW214307   4.842   0.177   0.167
 4470SOL     OW14308   4.418   5.144   1.394
 4470SOL    HW114309   4.330   5.160   1.437
 4470SOL    HW214310   4.431   5.046   1.379
 4471SOL     OW14311   6.274   2.722   0.627
 4471SOL    HW114312   6.230   2.719   0.717
 4471SOL    HW214313   6.347   2.654   0.624
 4472SOL     OW14314   2.156   4.679   1.314
 4472SOL    HW114315   2.149   4.762   1.370
 4472SOL    HW214316   2.092   4.611   1.349
 4473SOL     OW14317   0.302   0.653   6.395
 4473SOL    HW114318   0.239   0.721   6.434
 4473SOL    HW214319   0.253   0.599   6.326
 4474SOL     OW14320   6.006   0.362   4.566
 4474SOL    HW114321   5.971   0.280   4.521
 4474SOL    HW214322   6.032   0.341   4.660
 4475SOL     OW14323   1.934   3.635   0.732
 4475SOL    HW114324   2.012   3.686   0.770
 4475SOL    HW214325   1.852   3.654   0.786
 4476SOL     OW14326   5.123   6.716   2.326
 4476SOL    HW114327   5.094   6.746   2.417
 4476SOL    HW214328   5.222   6.704   2.325
 4477SOL     OW14329   1.027   1.454   0.567
 4477SOL    HW114330   1.035   1.546   0.527
 4477SOL    HW214331   0.931   1.435   0.586
 4478SOL     OW14332   1.726   4.873   2.165
 4478SOL    HW114333   1.820   4.865   2.199
 4478SOL    HW214334   1.701   4.969   2.158
 4479SOL     OW14335   0.855   0.453   5.952
 4479SOL    HW114336   0.894   0.472   5.862
 4479SOL    HW214337   0.928   0.434   6.017
 4480SOL     OW14338   0.277   4.220   3.733
 4480SOL    HW114339   0.355   4.166   3.703
 4480SOL    HW214340   0.249   4.190   3.824
 4481SOL     OW14341   0.757   0.526   4.030
 4481SOL    HW114342   0.825   0.461   3.998
 4481SOL    HW214343   0.761   0.532   4.130
 4482SOL     OW14344   1.078   3.979   3.770
 4482SOL    HW114345   1.078   3.880   3.761
 4482SOL    HW214346   1.039   4.005   3.859
 4483SOL     OW14347   5.417   2.992   0.848
 4483SOL    HW114348   5.456   2.935   0.776
 4483SOL    HW214349   5.486   3.008   0.919
 4484SOL     OW14350   3.758   3.531   6.284
 4484SOL    HW114351   3.731   3.473   6.208
 4484SOL    HW214352   3.786   3.473   6.361
 4485SOL     OW14353   4.650   0.783   6.708
 4485SOL    HW114354   4.695   0.725   6.640
 4485SOL    HW214355   4.656   0.879   6.679
 4486SOL     OW14356   5.992   2.790   3.838
 4486SOL    HW114357   6.053   2.717   3.869
 4486SOL    HW214358   5.932   2.818   3.913
 4487SOL     OW14359   2.805   2.905   5.787
 4487SOL    HW114360   2.875   2.978   5.786
 4487SOL    HW214361   2.715   2.947   5.797
 4488SOL     OW14362   6.983   1.579   6.308
 4488SOL    HW114363   7.013   1.673   6.290
 4488SOL    HW214364   6.930   1.576   6.392
 4489SOL     OW14365   6.925   1.160   3.129
 4489SOL    HW114366   6.858   1.209   3.185
 4489SOL    HW214367   7.015   1.166   3.172
 4490SOL     OW14368   6.737   2.276   3.630
 4490SOL    HW114369   6.660   2.259   3.692
 4490SOL    HW214370   6.708   2.261   3.536
 4491SOL     OW14371   1.647   3.650   2.911
 4491SOL    HW114372   1.708   3.579   2.946
 4491SOL    HW214373   1.583   3.609   2.846
 4492SOL     OW14374   5.043   5.010   6.266
 4492SOL    HW114375   5.102   4.971   6.336
 4492SOL    HW214376   5.092   5.083   6.217
 4493SOL     OW14377   5.758   4.923   3.546
 4493SOL    HW114378   5.768   4.861   3.623
 4493SOL    HW214379   5.846   4.969   3.529
 4494SOL     OW14380   5.818   2.689   3.239
 4494SOL    HW114381   5.723   2.670   3.216
 4494SOL    HW214382   5.849   2.627   3.311
 4495SOL     OW14383   4.504   6.043   1.829
 4495SOL    HW114384   4.476   5.949   1.845
 4495SOL    HW214385   4.559   6.075   1.906
 4496SOL     OW14386   5.308   4.654   5.947
 4496SOL    HW114387   5.336   4.747   5.968
 4496SOL    HW214388   5.295   4.644   5.849
 4497SOL     OW14389   6.113   4.997   1.051
 4497SOL    HW114390   6.033   4.967   1.102
 4497SOL    HW214391   6.100   5.092   1.022
 4498SOL     OW14392   0.786   4.097   6.875
 4498SOL    HW114393   0.710   4.060   6.822
 4498SOL    HW214394   0.842   4.021   6.909
 4499SOL     OW14395   5.473   3.490   6.144
 4499SOL    HW114396   5.471   3.406   6.089
 4499SOL    HW214397   5.567   3.519   6.157
 4500SOL     OW14398   3.045   3.791   3.440
 4500SOL    HW114399   3.061   3.885   3.470
 4500SOL    HW214400   3.129   3.738   3.450
 4501SOL     OW14401   1.590   5.110   4.863
 4501SOL    HW114402   1.608   5.193   4.915
 4501SOL    HW214403   1.554   5.040   4.924
 4502SOL     OW14404   6.341   2.959   6.994
 4502SOL    HW114405   6.303   2.985   0.056
 4502SOL    HW214406   6.284   2.889   6.952
 4503SOL     OW14407   1.741   3.295   2.459
 4503SOL    HW114408   1.649   3.259   2.443
 4503SOL    HW214409   1.758   3.301   2.557
 4504SOL     OW14410   4.372   2.350   4.186
 4504SOL    HW114411   4.295   2.296   4.149
 4504SOL    HW214412   4.392   2.319   4.279
 4505SOL     OW14413   1.902   4.895   6.842
 4505SOL    HW114414   1.971   4.966   6.826
 4505SOL    HW214415   1.878   4.853   6.754
 4506SOL     OW14416   4.325   6.697   4.743
 4506SOL    HW114417   4.298   6.651   4.659
 4506SOL    HW214418   4.250   6.693   4.809
 4507SOL     OW14419   6.335   3.530   1.836
 4507SOL    HW114420   6.266   3.458   1.832
 4507SOL    HW214421   6.298   3.609   1.883
 4508SOL     OW14422   2.344   4.138   6.749
 4508SOL    HW114423   2.261   4.083   6.762
 4508SOL    HW214424   2.341   4.179   6.657
 4509SOL     OW14425   0.289   1.996   3.367
 4509SOL    HW114426   0.347   2.072   3.398
 4509SOL    HW214427   0.317   1.912   3.414
 4510SOL     OW14428   3.576   6.323   5.376
 4510SOL    HW114429   3.499   6.302   5.437
 4510SOL    HW214430   3.612   6.238   5.337
 4511SOL     OW14431   6.147   2.247   6.181
 4511SOL    HW114432   6.234   2.263   6.229
 4511SOL    HW214433   6.071   2.260   6.245
 4512SOL     OW14434   2.699   4.816   6.774
 4512SOL    HW114435   2.702   4.859   6.683
 4512SOL    HW214436   2.751   4.731   6.772
 4513SOL     OW14437   5.873   1.257   2.202
 4513SOL    HW114438   5.924   1.270   2.287
 4513SOL    HW214439   5.799   1.325   2.198
 4514SOL     OW14440   3.604   0.792   5.941
 4514SOL    HW114441   3.667   0.767   6.014
 4514SOL    HW214442   3.535   0.856   5.976
 4515SOL     OW14443   6.641   4.628   1.095
 4515SOL    HW114444   6.613   4.566   1.169
 4515SOL    HW214445   6.597   4.600   1.010
 4516SOL     OW14446   0.804   0.127   3.932
 4516SOL    HW114447   0.811   0.044   3.988
 4516SOL    HW214448   0.896   0.163   3.915
 4517SOL     OW14449   3.726   0.079   6.026
 4517SOL    HW114450   3.783   0.042   5.953
 4517SOL    HW214451   3.741   0.178   6.032
 4518SOL     OW14452   1.369   0.652   3.519
 4518SOL    HW114453   1.450   0.694   3.560
 4518SOL    HW214454   1.386   0.634   3.422
 4519SOL     OW14455   5.979   2.643   5.170
 4519SOL    HW114456   5.996   2.549   5.141
 4519SOL    HW214457   5.886   2.669   5.146
 4520SOL     OW14458   0.203   4.190   2.434
 4520SOL    HW114459   0.152   4.122   2.382
 4520SOL    HW214460   0.278   4.145   2.483
 4521SOL     OW14461   5.133   1.627   6.314
 4521SOL    HW114462   5.112   1.719   6.281
 4521SOL    HW214463   5.160   1.570   6.236
 4522SOL     OW14464   5.605   0.480   2.927
 4522SOL    HW114465   5.617   0.447   2.834
 4522SOL    HW214466   5.619   0.403   2.991
 4523SOL     OW14467   4.388   3.181   6.273
 4523SOL    HW114468   4.365   3.257   6.334
 4523SOL    HW214469   4.467   3.132   6.310
 4524SOL     OW14470   6.388   0.166   5.095
 4524SOL    HW114471   6.415   0.077   5.131
 4524SOL    HW214472   6.434   0.239   5.147
 4525SOL     OW14473   6.090   2.242   5.533
 4525SOL    HW114474   6.064   2.150   5.506
 4525SOL    HW214475   6.189   2.249   5.541
 4526SOL     OW14476   3.366   0.849   1.159
 4526SOL    HW114477   3.401   0.760   1.128
 4526SOL    HW214478   3.420   0.922   1.119
 4527SOL     OW14479   4.031   6.780   3.913
 4527SOL    HW114480   3.994   6.691   3.885
 4527SOL    HW214481   3.985   6.811   3.996
 4528SOL     OW14482   5.163   6.924   5.713
 4528SOL    HW114483   5.098   7.001   5.714
 4528SOL    HW214484   5.236   6.944   5.649
 4529SOL     OW14485   3.905   0.334   3.775
 4529SOL    HW114486   3.998   0.303   3.752
 4529SOL    HW214487   3.867   0.275   3.846
 4530SOL     OW14488   0.276   2.698   4.815
 4530SOL    HW114489   0.183   2.719   4.785
 4530SOL    HW214490   0.285   2.716   4.914
 4531SOL     OW14491   0.065   3.931   3.674
 4531SOL    HW114492   0.086   4.024   3.643
 4531SOL    HW214493   0.139   3.870   3.646
 4532SOL     OW14494   6.648   1.717   0.546
 4532SOL    HW114495   6.616   1.760   0.630
 4532SOL    HW214496   6.645   1.617   0.556
 4533SOL     OW14497   3.565   5.974   2.092
 4533SOL    HW114498   3.632   5.941   2.158
 4533SOL    HW214499   3.587   6.068   2.066
 4534SOL     OW14500   6.928   4.129   5.489
 4534SOL    HW114501   6.978   4.153   5.572
 4534SOL    HW214502   6.872   4.207   5.460
 4535SOL     OW14503   5.156   2.437   2.916
 4535SOL    HW114504   5.232   2.373   2.915
 4535SOL    HW214505   5.122   2.447   3.010
 4536SOL     OW14506   6.665   0.683   4.342
 4536SOL    HW114507   6.687   0.586   4.350
 4536SOL    HW214508   6.688   0.729   4.427
 4537SOL     OW14509   4.074   3.441   6.277
 4537SOL    HW114510   4.013   3.521   6.282
 4537SOL    HW214511   4.052   3.388   6.195
 4538SOL     OW14512   3.339   1.847   1.631
 4538SOL    HW114513   3.259   1.820   1.685
 4538SOL    HW214514   3.341   1.947   1.622
 4539SOL     OW14515   2.088   2.262   2.560
 4539SOL    HW114516   2.023   2.314   2.616
 4539SOL    HW214517   2.117   2.180   2.609
 4540SOL     OW14518   3.191   2.995   5.029
 4540SOL    HW114519   3.152   3.029   4.944
 4540SOL    HW214520   3.125   3.008   5.103
 4541SOL     OW14521   6.385   1.247   1.601
 4541SOL    HW114522   6.301   1.225   1.652
 4541SOL    HW214523   6.440   1.164   1.590
 4542SOL     OW14524   4.895   6.749   3.145
 4542SOL    HW114525   4.839   6.719   3.068
 4542SOL    HW214526   4.837   6.759   3.226
 4543SOL     OW14527   5.801   2.174   1.558
 4543SOL    HW114528   5.735   2.099   1.544
 4543SOL    HW214529   5.753   2.261   1.555
 4544SOL     OW14530   4.087   5.312   0.061
 4544SOL    HW114531   4.068   5.403   0.024
 4544SOL    HW214532   4.151   5.320   0.138
 4545SOL     OW14533   3.980   3.891   5.993
 4545SOL    HW114534   3.935   3.883   5.904
 4545SOL    HW214535   4.061   3.833   5.995
 4546SOL     OW14536   0.208   6.474   6.812
 4546SOL    HW114537   0.132   6.538   6.827
 4546SOL    HW214538   0.262   6.467   6.896
 4547SOL     OW14539   4.228   1.692   1.439
 4547SOL    HW114540   4.228   1.776   1.386
 4547SOL    HW214541   4.135   1.659   1.451
 4548SOL     OW14542   1.169   3.365   3.723
 4548SOL    HW114543   1.133   3.458   3.726
 4548SOL    HW214544   1.118   3.312   3.655
 4549SOL     OW14545   4.419   1.636   2.131
 4549SOL    HW114546   4.506   1.633   2.179
 4549SOL    HW214547   4.390   1.731   2.120
 4550SOL     OW14548   1.388   6.154   4.496
 4550SOL    HW114549   1.460   6.176   4.562
 4550SOL    HW214550   1.416   6.076   4.440
 4551SOL     OW14551   0.252   2.832   0.209
 4551SOL    HW114552   0.293   2.843   0.119
 4551SOL    HW214553   0.172   2.892   0.217
 4552SOL     OW14554   6.438   2.947   3.976
 4552SOL    HW114555   6.520   2.989   4.013
 4552SOL    HW214556   6.463   2.888   3.899
 4553SOL     OW14557   5.297   4.870   0.302
 4553SOL    HW114558   5.343   4.877   0.213
 4553SOL    HW214559   5.226   4.799   0.296
 4554SOL     OW14560   5.586   0.027   3.195
 4554SOL    HW114561   5.583   7.004   3.108
 4554SOL    HW214562   5.511   7.023   3.253
 4555SOL     OW14563   4.456   1.956   6.697
 4555SOL    HW114564   4.518   1.972   6.775
 4555SOL    HW214565   4.403   2.039   6.681
 4556SOL     OW14566   5.100   0.784   5.143
 4556SOL    HW114567   5.120   0.815   5.235
 4556SOL    HW214568   5.182   0.740   5.104
 4557SOL     OW14569   5.435   0.166   4.930
 4557SOL    HW114570   5.438   0.195   5.026
 4557SOL    HW214571   5.386   0.233   4.876
 4558SOL     OW14572   6.125   3.462   5.981
 4558SOL    HW114573   6.202   3.401   6.000
 4558SOL    HW214574   6.143   3.552   6.019
 4559SOL     OW14575   0.500   6.317   1.679
 4559SOL    HW114576   0.565   6.321   1.755
 4559SOL    HW214577   0.541   6.359   1.598
 4560SOL     OW14578   5.123   2.872   2.519
 4560SOL    HW114579   5.091   2.837   2.607
 4560SOL    HW214580   5.128   2.798   2.453
 4561SOL     OW14581   3.172   0.562   6.493
 4561SOL    HW114582   3.271   0.580   6.496
 4561SOL    HW214583   3.136   0.558   6.586
 4562SOL     OW14584   2.559   4.698   5.431
 4562SOL    HW114585   2.470   4.653   5.424
 4562SOL    HW214586   2.549   4.785   5.479
 4563SOL     OW14587   5.618   2.518   6.379
 4563SOL    HW114588   5.683   2.481   6.312
 4563SOL    HW214589   5.628   2.468   6.465
 4564SOL     OW14590   0.786   5.651   0.001
 4564SOL    HW114591   0.695   5.637   6.988
 4564SOL    HW214592   0.806   5.749   0.006
 4565SOL     OW14593   3.025   0.848   4.063
 4565SOL    HW114594   2.968   0.875   3.986
 4565SOL    HW214595   2.981   0.876   4.149
 4566SOL     OW14596   1.399   1.568   0.314
 4566SOL    HW114597   1.469   1.620   0.362
 4566SOL    HW214598   1.429   1.472   0.306
 4567SOL     OW14599   6.263   1.383   1.094
 4567SOL    HW114600   6.241   1.467   1.043
 4567SOL    HW214601   6.353   1.350   1.067
 4568SOL     OW14602   3.633   5.130   4.159
 4568SOL    HW114603   3.714   5.155   4.212
 4568SOL    HW214604   3.555   5.117   4.221
 4569SOL     OW14605   0.395   1.928   3.112
 4569SOL    HW114606   0.352   1.981   3.039
 4569SOL    HW214607   0.334   1.923   3.190
 4570SOL     OW14608   5.947   5.015   4.274
 4570SOL    HW114609   5.921   4.995   4.179
 4570SOL    HW214610   5.973   4.930   4.320
 4571SOL     OW14611   3.700   2.942   4.119
 4571SOL    HW114612   3.783   2.990   4.092
 4571SOL    HW214613   3.632   3.008   4.151
 4572SOL     OW14614   2.255   5.446   1.954
 4572SOL    HW114615   2.254   5.380   1.879
 4572SOL    HW214616   2.276   5.537   1.917
 4573SOL     OW14617   4.716   6.880   0.839
 4573SOL    HW114618   4.671   6.914   0.756
 4573SOL    HW214619   4.805   6.842   0.816
 4574SOL     OW14620   0.269   4.372   1.514
 4574SOL    HW114621   0.352   4.402   1.468
 4574SOL    HW214622   0.197   4.358   1.446
 4575SOL     OW14623   6.797   6.508   2.423
 4575SOL    HW114624   6.709   6.464   2.438
 4575SOL    HW214625   6.864   6.472   2.488
 4576SOL     OW14626   3.565   6.207   3.757
 4576SOL    HW114627   3.626   6.258   3.817
 4576SOL    HW214628   3.505   6.270   3.708
 4577SOL     OW14629   1.640   2.153   3.761
 4577SOL    HW114630   1.553   2.117   3.725
 4577SOL    HW214631   1.716   2.111   3.712
 4578SOL     OW14632   0.233   4.923   4.079
 4578SOL    HW114633   0.236   4.931   3.980
 4578SOL    HW214634   0.162   4.984   4.115
 4579SOL     OW14635   5.191   1.894   4.745
 4579SOL    HW114636   5.160   1.917   4.837
 4579SOL    HW214637   5.172   1.969   4.683
 4580SOL     OW14638   0.010   5.747   0.015
 4580SOL    HW114639   0.036   5.685   0.089
 4580SOL    HW214640   7.002   5.832   0.054
 4581SOL     OW14641   2.941   6.331   3.945
 4581SOL    HW114642   2.876   6.255   3.935
 4581SOL    HW214643   2.892   6.413   3.975
 4582SOL     OW14644   5.067   6.732   3.366
 4582SOL    HW114645   5.058   6.633   3.359
 4582SOL    HW214646   5.045   6.774   3.278
 4583SOL     OW14647   3.906   1.306   5.388
 4583SOL    HW114648   3.829   1.335   5.331
 4583SOL    HW214649   3.963   1.385   5.410
 4584SOL     OW14650   1.553   5.157   6.225
 4584SOL    HW114651   1.491   5.123   6.154
 4584SOL    HW214652   1.638   5.104   6.223
 4585SOL     OW14653   3.120   6.313   2.502
 4585SOL    HW114654   3.218   6.329   2.492
 4585SOL    HW214655   3.087   6.258   2.425
 4586SOL     OW14656   2.698   6.372   2.230
 4586SOL    HW114657   2.745   6.285   2.217
 4586SOL    HW214658   2.764   6.441   2.258
 4587SOL     OW14659   3.156   5.293   0.757
 4587SOL    HW114660   3.144   5.308   0.659
 4587SOL    HW214661   3.076   5.326   0.806
 4588SOL     OW14662   3.817   4.349   5.289
 4588SOL    HW114663   3.899   4.294   5.308
 4588SOL    HW214664   3.741   4.289   5.268
 4589SOL     OW14665   1.160   1.930   3.158
 4589SOL    HW114666   1.141   1.969   3.069
 4589SOL    HW214667   1.100   1.851   3.174
 4590SOL     OW14668   4.338   5.886   3.046
 4590SOL    HW114669   4.280   5.857   2.969
 4590SOL    HW214670   4.289   5.873   3.132
 4591SOL     OW14671   6.211   6.585   5.377
 4591SOL    HW114672   6.190   6.572   5.280
 4591SOL    HW214673   6.130   6.622   5.423
 4592SOL     OW14674   3.428   1.421   5.790
 4592SOL    HW114675   3.470   1.379   5.710
 4592SOL    HW214676   3.368   1.355   5.835
 4593SOL     OW14677   4.229   6.540   1.810
 4593SOL    HW114678   4.224   6.441   1.819
 4593SOL    HW214679   4.325   6.568   1.800
 4594SOL     OW14680   3.357   1.826   2.618
 4594SOL    HW114681   3.350   1.865   2.526
 4594SOL    HW214682   3.376   1.899   2.684
 4595SOL     OW14683   4.947   3.672   6.041
 4595SOL    HW114684   4.979   3.592   6.091
 4595SOL    HW214685   4.862   3.650   5.993
 4596SOL     OW14686   5.233   0.092   2.349
 4596SOL    HW114687   5.211   0.011   2.403
 4596SOL    HW214688   5.299   0.068   2.278
 4597SOL     OW14689   6.451   4.796   5.822
 4597SOL    HW114690   6.504   4.874   5.854
 4597SOL    HW214691   6.492   4.712   5.857
 4598SOL     OW14692   3.331   4.161   0.948
 4598SOL    HW114693   3.408   4.224   0.935
 4598SOL    HW214694   3.322   4.140   1.045
 4599SOL     OW14695   2.198   5.208   0.411
 4599SOL    HW114696   2.186   5.241   0.504
 4599SOL    HW214697   2.189   5.285   0.347
 4600SOL     OW14698   3.859   5.068   1.470
 4600SOL    HW114699   3.827   5.058   1.375
 4600SOL    HW214700   3.907   4.985   1.498
 4601SOL     OW14701   1.416   5.873   4.460
 4601SOL    HW114702   1.347   5.867   4.387
 4601SOL    HW214703   1.495   5.817   4.435
 4602SOL     OW14704   1.412   0.972   1.221
 4602SOL    HW114705   1.466   0.896   1.186
 4602SOL    HW214706   1.315   0.956   1.203
 4603SOL     OW14707   3.056   1.473   1.959
 4603SOL    HW114708   3.129   1.529   1.999
 4603SOL    HW214709   3.083   1.442   1.868
 4604SOL     OW14710   1.621   0.734   2.437
 4604SOL    HW114711   1.535   0.684   2.439
 4604SOL    HW214712   1.631   0.780   2.349
 4605SOL     OW14713   4.833   6.487   5.910
 4605SOL    HW114714   4.822   6.579   5.871
 4605SOL    HW214715   4.926   6.478   5.946
 4606SOL     OW14716   6.699   6.192   5.416
 4606SOL    HW114717   6.712   6.212   5.319
 4606SOL    HW214718   6.777   6.139   5.449
 4607SOL     OW14719   2.771   2.580   1.449
 4607SOL    HW114720   2.817   2.629   1.374
 4607SOL    HW214721   2.830   2.581   1.530
 4608SOL     OW14722   1.668   3.929   4.907
 4608SOL    HW114723   1.630   3.861   4.843
 4608SOL    HW214724   1.757   3.960   4.874
 4609SOL     OW14725   3.343   6.927   0.007
 4609SOL    HW114726   3.360   6.832   0.031
 4609SOL    HW214727   3.251   6.953   0.034
 4610SOL     OW14728   7.004   3.194   6.939
 4610SOL    HW114729   7.007   3.293   6.924
 4610SOL    HW214730   0.058   3.167   6.993
 4611SOL     OW14731   1.188   3.626   6.543
 4611SOL    HW114732   1.136   3.555   6.589
 4611SOL    HW214733   1.166   3.715   6.583
 4612SOL     OW14734   2.371   0.333   6.550
 4612SOL    HW114735   2.310   0.399   6.595
 4612SOL    HW214736   2.444   0.382   6.503
 4613SOL     OW14737   3.565   5.214   1.796
 4613SOL    HW114738   3.624   5.156   1.852
 4613SOL    HW214739   3.524   5.285   1.853
 4614SOL     OW14740   2.405   4.988   0.127
 4614SOL    HW114741   2.462   4.906   0.127
 4614SOL    HW214742   2.315   4.966   0.163
 4615SOL     OW14743   6.900   3.141   0.436
 4615SOL    HW114744   6.959   3.152   0.516
 4615SOL    HW214745   6.805   3.154   0.462
 4616SOL     OW14746   6.246   0.483   0.691
 4616SOL    HW114747   6.299   0.458   0.610
 4616SOL    HW214748   6.202   0.402   0.729
 4617SOL     OW14749   0.356   4.221   2.171
 4617SOL    HW114750   0.310   4.172   2.245
 4617SOL    HW214751   0.446   4.251   2.202
 4618SOL     OW14752   0.518   2.519   6.267
 4618SOL    HW114753   0.560   2.477   6.348
 4618SOL    HW214754   0.420   2.532   6.284
 4619SOL     OW14755   3.430   0.356   3.837
 4619SOL    HW114756   3.507   0.360   3.900
 4619SOL    HW214757   3.344   0.368   3.887
 4620SOL     OW14758   2.445   5.311   6.578
 4620SOL    HW114759   2.378   5.240   6.561
 4620SOL    HW214760   2.514   5.310   6.506
 4621SOL     OW14761   0.340   6.989   6.439
 4621SOL    HW114762   0.392   6.915   6.396
 4621SOL    HW214763   0.402   0.036   6.465
 4622SOL     OW14764   2.658   3.414   0.876
 4622SOL    HW114765   2.611   3.470   0.944
 4622SOL    HW214766   2.638   3.448   0.784
 4623SOL     OW14767   5.809   4.839   2.421
 4623SOL    HW114768   5.736   4.853   2.355
 4623SOL    HW214769   5.895   4.872   2.382
 4624SOL     OW14770   5.005   0.438   5.560
 4624SOL    HW114771   4.990   0.437   5.659
 4624SOL    HW214772   4.927   0.396   5.514
 4625SOL     OW14773   1.575   3.775   6.203
 4625SOL    HW114774   1.670   3.777   6.233
 4625SOL    HW214775   1.515   3.803   6.278
 4626SOL     OW14776   5.736   5.543   2.454
 4626SOL    HW114777   5.716   5.455   2.411
 4626SOL    HW214778   5.821   5.580   2.415
 4627SOL     OW14779   1.858   6.952   5.729
 4627SOL    HW114780   1.832   7.013   5.654
 4627SOL    HW214781   1.850   7.000   5.816
 4628SOL     OW14782   0.262   3.316   1.916
 4628SOL    HW114783   0.209   3.297   1.999
 4628SOL    HW214784   0.311   3.403   1.927
 4629SOL     OW14785   3.832   5.108   4.341
 4629SOL    HW114786   3.887   5.087   4.260
 4629SOL    HW214787   3.815   5.024   4.393
 4630SOL     OW14788   1.380   6.814   2.495
 4630SOL    HW114789   1.445   6.876   2.537
 4630SOL    HW214790   1.336   6.859   2.417
 4631SOL     OW14791   1.715   1.001   2.847
 4631SOL    HW114792   1.636   0.947   2.816
 4631SOL    HW214793   1.785   1.002   2.776
 4632SOL     OW14794   5.776   5.504   4.274
 4632SOL    HW114795   5.811   5.499   4.368
 4632SOL    HW214796   5.843   5.550   4.216
 4633SOL     OW14797   5.297   2.667   5.692
 4633SOL    HW114798   5.305   2.641   5.595
 4633SOL    HW214799   5.369   2.623   5.745
 4634SOL     OW14800   3.709   5.008   0.936
 4634SOL    HW114801   3.711   4.921   0.886
 4634SOL    HW214802   3.666   5.078   0.878
 4635SOL     OW14803   5.086   3.867   1.329
 4635SOL    HW114804   5.062   3.930   1.255
 4635SOL    HW214805   5.146   3.796   1.294
 4636SOL     OW14806   1.126   5.598   1.263
 4636SOL    HW114807   1.075   5.671   1.218
 4636SOL    HW214808   1.131   5.519   1.202
 4637SOL     OW14809   1.302   0.669   4.814
 4637SOL    HW114810   1.393   0.711   4.817
 4637SOL    HW214811   1.308   0.580   4.769
 4638SOL     OW14812   4.493   4.347   6.324
 4638SOL    HW114813   4.485   4.323   6.227
 4638SOL    HW214814   4.565   4.415   6.335
 4639SOL     OW14815   0.081   2.679   5.018
 4639SOL    HW114816   7.025   2.647   5.066
 4639SOL    HW214817   0.094   2.624   4.936
 4640SOL     OW14818   6.222   4.570   2.360
 4640SOL    HW114819   6.174   4.657   2.347
 4640SOL    HW214820   6.197   4.507   2.286
 4641SOL     OW14821   2.971   4.263   5.561
 4641SOL    HW114822   3.040   4.205   5.516
 4641SOL    HW214823   2.964   4.350   5.512
 4642SOL     OW14824   6.627   5.968   4.104
 4642SOL    HW114825   6.539   5.949   4.060
 4642SOL    HW214826   6.611   6.003   4.196
 4643SOL     OW14827   4.202   2.922   0.996
 4643SOL    HW114828   4.146   2.996   0.959
 4643SOL    HW214829   4.298   2.938   0.973
 4644SOL     OW14830   2.995   4.976   5.276
 4644SOL    HW114831   3.041   4.888   5.261
 4644SOL    HW214832   3.064   5.046   5.297
 4645SOL     OW14833   2.006   6.415   4.845
 4645SOL    HW114834   2.029   6.359   4.765
 4645SOL    HW214835   1.907   6.412   4.860
 4646SOL     OW14836   3.880   0.773   1.488
 4646SOL    HW114837   3.889   0.720   1.572
 4646SOL    HW214838   3.936   0.732   1.416
 4647SOL     OW14839   6.959   0.610   4.976
 4647SOL    HW114840   6.907   0.539   5.023
 4647SOL    HW214841   6.897   0.685   4.952
 4648SOL     OW14842   1.749   4.754   2.626
 4648SOL    HW114843   1.842   4.753   2.588
 4648SOL    HW214844   1.751   4.721   2.720
 4649SOL     OW14845   5.692   6.605   5.985
 4649SOL    HW114846   5.711   6.509   5.961
 4649SOL    HW214847   5.597   6.613   6.013
 4650SOL     OW14848   7.016   4.735   1.787
 4650SOL    HW114849   6.950   4.671   1.747
 4650SOL    HW214850   6.981   4.768   1.875
 4651SOL     OW14851   6.624   1.830   2.415
 4651SOL    HW114852   6.656   1.843   2.321
 4651SOL    HW214853   6.580   1.914   2.447
 4652SOL     OW14854   7.005   6.016   5.615
 4652SOL    HW114855   6.995   5.999   5.713
 4652SOL    HW214856   0.021   5.936   5.572
 4653SOL     OW14857   0.548   5.696   6.887
 4653SOL    HW114858   0.529   5.731   6.795
 4653SOL    HW214859   0.479   5.732   6.951
 4654SOL     OW14860   0.809   1.889   6.177
 4654SOL    HW114861   0.746   1.860   6.105
 4654SOL    HW214862   0.883   1.942   6.137
 4655SOL     OW14863   0.519   5.382   3.466
 4655SOL    HW114864   0.529   5.323   3.386
 4655SOL    HW214865   0.544   5.330   3.548
 4656SOL     OW14866   2.449   0.064   3.091
 4656SOL    HW114867   2.510   7.021   3.131
 4656SOL    HW214868   2.469   0.153   3.133
 4657SOL     OW14869   5.841   0.236   6.447
 4657SOL    HW114870   5.918   0.243   6.384
 4657SOL    HW214871   5.871   0.191   6.531
 4658SOL     OW14872   4.694   0.856   3.702
 4658SOL    HW114873   4.680   0.787   3.773
 4658SOL    HW214874   4.625   0.928   3.712
 4659SOL     OW14875   2.577   2.333   4.833
 4659SOL    HW114876   2.506   2.276   4.873
 4659SOL    HW214877   2.544   2.371   4.747
 4660SOL     OW14878   6.887   1.202   5.679
 4660SOL    HW114879   6.946   1.263   5.626
 4660SOL    HW214880   6.838   1.256   5.748
 4661SOL     OW14881   4.012   3.798   3.699
 4661SOL    HW114882   4.041   3.837   3.787
 4661SOL    HW214883   4.025   3.699   3.701
 4662SOL     OW14884   5.562   0.287   3.668
 4662SOL    HW114885   5.611   0.363   3.624
 4662SOL    HW214886   5.482   0.263   3.613
 4663SOL     OW14887   0.886   1.699   1.776
 4663SOL    HW114888   0.961   1.764   1.774
 4663SOL    HW214889   0.859   1.677   1.682
 4664SOL     OW14890   3.811   3.508   0.291
 4664SOL    HW114891   3.777   3.560   0.213
 4664SOL    HW214892   3.741   3.506   0.363
 4665SOL     OW14893   5.172   0.714   6.594
 4665SOL    HW114894   5.199   0.667   6.509
 4665SOL    HW214895   5.195   0.656   6.672
 4666SOL     OW14896   2.444   1.817   0.403
 4666SOL    HW114897   2.375   1.879   0.366
 4666SOL    HW214898   2.433   1.727   0.363
 4667SOL     OW14899   0.388   5.484   4.760
 4667SOL    HW114900   0.454   5.534   4.704
 4667SOL    HW214901   0.436   5.419   4.819
 4668SOL     OW14902   5.651   1.384   5.124
 4668SOL    HW114903   5.675   1.291   5.150
 4668SOL    HW214904   5.655   1.394   5.025
 4669SOL     OW14905   2.702   0.898   1.261
 4669SOL    HW114906   2.713   0.995   1.283
 4669SOL    HW214907   2.787   0.863   1.222
 4670SOL     OW14908   1.870   1.120   5.047
 4670SOL    HW114909   1.939   1.080   4.988
 4670SOL    HW214910   1.900   1.210   5.077
 4671SOL     OW14911   5.671   2.635   1.103
 4671SOL    HW114912   5.771   2.624   1.108
 4671SOL    HW214913   5.630   2.611   1.191
 4672SOL     OW14914   2.930   2.836   5.338
 4672SOL    HW114915   2.969   2.924   5.309
 4672SOL    HW214916   2.831   2.845   5.345
 4673SOL     OW14917   4.117   0.594   2.757
 4673SOL    HW114918   4.042   0.611   2.693
 4673SOL    HW214919   4.196   0.650   2.732
 4674SOL     OW14920   4.974   6.477   5.368
 4674SOL    HW114921   5.015   6.492   5.278
 4674SOL    HW214922   5.021   6.534   5.436
 4675SOL     OW14923   0.919   4.053   6.004
 4675SOL    HW114924   0.932   3.958   5.977
 4675SOL    HW214925   0.921   4.111   5.922
 4676SOL     OW14926   0.406   4.854   3.738
 4676SOL    HW114927   0.321   4.821   3.696
 4676SOL    HW214928   0.445   4.782   3.795
 4677SOL     OW14929   1.565   3.024   0.822
 4677SOL    HW114930   1.572   3.090   0.748
 4677SOL    HW214931   1.534   3.070   0.905
 4678SOL     OW14932   1.143   4.320   2.375
 4678SOL    HW114933   1.079   4.397   2.374
 4678SOL    HW214934   1.154   4.284   2.282
 4679SOL     OW14935   4.153   0.246   1.392
 4679SOL    HW114936   4.207   0.163   1.405
 4679SOL    HW214937   4.207   0.313   1.341
 4680SOL     OW14938   2.119   0.449   7.017
 4680SOL    HW114939   2.159   0.541   7.023
 4680SOL    HW214940   2.187   0.382   0.021
 4681SOL     OW14941   4.982   5.522   2.252
 4681SOL    HW114942   5.008   5.535   2.347
 4681SOL    HW214943   4.913   5.449   2.246
 4682SOL     OW14944   3.515   4.105   6.540
 4682SOL    HW114945   3.430   4.156   6.554
 4682SOL    HW214946   3.556   4.084   6.629
 4683SOL     OW14947   5.987   4.261   3.622
 4683SOL    HW114948   6.079   4.246   3.586
 4683SOL    HW214949   5.920   4.215   3.564
 4684SOL     OW14950   5.808   6.219   6.867
 4684SOL    HW114951   5.766   6.134   6.834
 4684SOL    HW214952   5.739   6.292   6.868
 4685SOL     OW14953   3.136   4.026   4.089
 4685SOL    HW114954   3.215   4.075   4.054
 4685SOL    HW214955   3.062   4.030   4.022
 4686SOL     OW14956   1.279   6.545   0.075
 4686SOL    HW114957   1.297   6.631   0.122
 4686SOL    HW214958   1.225   6.562   7.019
 4687SOL     OW14959   2.522   0.614   2.710
 4687SOL    HW114960   2.463   0.583   2.785
 4687SOL    HW214961   2.589   0.679   2.747
 4688SOL     OW14962   5.566   2.564   6.082
 4688SOL    HW114963   5.657   2.523   6.074
 4688SOL    HW214964   5.538   2.564   6.178
 4689SOL     OW14965   6.717   0.867   2.020
 4689SOL    HW114966   6.777   0.786   2.023
 4689SOL    HW214967   6.636   0.851   2.076
 4690SOL     OW14968   2.396   2.042   0.941
 4690SOL    HW114969   2.428   1.947   0.944
 4690SOL    HW214970   2.441   2.094   1.014
 4691SOL     OW14971   6.173   4.175   2.392
 4691SOL    HW114972   6.235   4.098   2.378
 4691SOL    HW214973   6.150   4.183   2.489
 4692SOL     OW14974   4.819   3.164   2.384
 4692SOL    HW114975   4.870   3.124   2.460
 4692SOL    HW214976   4.790   3.091   2.322
 4693SOL     OW14977   1.102   0.664   3.127
 4693SOL    HW114978   1.120   0.749   3.077
 4693SOL    HW214979   1.107   0.587   3.063
 4694SOL     OW14980   2.059   0.252   6.284
 4694SOL    HW114981   2.118   0.179   6.316
 4694SOL    HW214982   2.013   0.296   6.362
 4695SOL     OW14983   1.810   5.113   2.370
 4695SOL    HW114984   1.874   5.050   2.326
 4695SOL    HW214985   1.731   5.061   2.404
 4696SOL     OW14986   1.208   6.035   6.348
 4696SOL    HW114987   1.228   6.092   6.268
 4696SOL    HW214988   1.194   6.093   6.428
 4697SOL     OW14989   4.386   5.380   1.613
 4697SOL    HW114990   4.432   5.451   1.560
 4697SOL    HW214991   4.289   5.378   1.589
 4698SOL     OW14992   5.711   0.797   4.971
 4698SOL    HW114993   5.773   0.867   4.935
 4698SOL    HW214994   5.719   0.793   5.070
 4699SOL     OW14995   1.846   0.401   2.610
 4699SOL    HW114996   1.835   0.500   2.610
 4699SOL    HW214997   1.810   0.363   2.695
 4700SOL     OW14998   6.252   1.870   2.644
 4700SOL    HW114999   6.308   1.798   2.603
 4700SOL    HW215000   6.305   1.918   2.714
 4701SOL     OW15001   2.900   2.594   1.699
 4701SOL    HW115002   2.901   2.537   1.781
 4701SOL    HW215003   2.897   2.691   1.725
 4702SOL     OW15004   5.437   5.185   6.703
 4702SOL    HW115005   5.385   5.165   6.786
 4702SOL    HW215006   5.517   5.241   6.725
 4703SOL     OW15007   1.003   5.051   3.568
 4703SOL    HW115008   1.041   5.127   3.516
 4703SOL    HW215009   1.020   4.965   3.519
 4704SOL     OW15010   1.334   4.686   4.213
 4704SOL    HW115011   1.268   4.637   4.271
 4704SOL    HW215012   1.352   4.776   4.253
 4705SOL     OW15013   3.634   1.903   1.659
 4705SOL    HW115014   3.542   1.867   1.647
 4705SOL    HW215015   3.632   2.003   1.655
 4706SOL     OW15016   2.461   0.693   1.463
 4706SOL    HW115017   2.414   0.764   1.410
 4706SOL    HW215018   2.546   0.668   1.418
 4707SOL     OW15019   1.548   5.301   2.175
 4707SOL    HW115020   1.595   5.377   2.219
 4707SOL    HW215021   1.534   5.227   2.241
 4708SOL     OW15022   1.724   2.450   4.976
 4708SOL    HW115023   1.771   2.537   4.965
 4708SOL    HW215024   1.636   2.453   4.928
 4709SOL     OW15025   4.741   4.423   5.822
 4709SOL    HW115026   4.673   4.495   5.833
 4709SOL    HW215027   4.797   4.441   5.741
 4710SOL     OW15028   5.815   6.088   5.357
 4710SOL    HW115029   5.889   6.083   5.424
 4710SOL    HW215030   5.850   6.067   5.266
 4711SOL     OW15031   5.112   4.130   2.563
 4711SOL    HW115032   5.134   4.174   2.475
 4711SOL    HW215033   5.115   4.030   2.551
 4712SOL     OW15034   4.594   4.280   5.635
 4712SOL    HW115035   4.650   4.319   5.708
 4712SOL    HW215036   4.620   4.185   5.621
 4713SOL     OW15037   5.347   4.467   0.883
 4713SOL    HW115038   5.311   4.407   0.812
 4713SOL    HW215039   5.272   4.519   0.925
 4714SOL     OW15040   4.350   2.177   6.607
 4714SOL    HW115041   4.295   2.134   6.535
 4714SOL    HW215042   4.291   2.229   6.668
 4715SOL     OW15043   6.856   1.456   1.500
 4715SOL    HW115044   6.807   1.401   1.431
 4715SOL    HW215045   6.818   1.548   1.503
 4716SOL     OW15046   3.863   4.862   5.743
 4716SOL    HW115047   3.871   4.961   5.756
 4716SOL    HW215048   3.873   4.840   5.646
 4717SOL     OW15049   2.349   4.508   5.398
 4717SOL    HW115050   2.439   4.479   5.367
 4717SOL    HW215051   2.279   4.452   5.353
 4718SOL     OW15052   4.598   4.652   0.880
 4718SOL    HW115053   4.615   4.562   0.841
 4718SOL    HW215054   4.654   4.720   0.833
 4719SOL     OW15055   6.773   4.416   3.803
 4719SOL    HW115056   6.730   4.451   3.719
 4719SOL    HW215057   6.866   4.451   3.809
 4720SOL     OW15058   2.353   3.249   6.918
 4720SOL    HW115059   2.405   3.164   6.927
 4720SOL    HW215060   2.304   3.268   7.004
 4721SOL     OW15061   0.368   2.557   3.029
 4721SOL    HW115062   0.433   2.633   3.026
 4721SOL    HW215063   0.298   2.575   3.097
 4722SOL     OW15064   1.004   5.889   6.889
 4722SOL    HW115065   0.998   5.790   6.889
 4722SOL    HW215066   1.094   5.918   6.858
 4723SOL     OW15067   3.427   4.878   6.546
 4723SOL    HW115068   3.501   4.936   6.512
 4723SOL    HW215069   3.342   4.930   6.548
 4724SOL     OW15070   0.847   0.241   4.584
 4724SOL    HW115071   0.844   0.324   4.527
 4724SOL    HW215072   0.923   0.183   4.554
 4725SOL     OW15073   5.532   5.505   1.585
 4725SOL    HW115074   5.498   5.412   1.571
 4725SOL    HW215075   5.504   5.562   1.508
 4726SOL     OW15076   2.080   2.670   5.655
 4726SOL    HW115077   2.048   2.594   5.598
 4726SOL    HW215078   2.164   2.708   5.615
 4727SOL     OW15079   6.823   4.156   1.442
 4727SOL    HW115080   6.767   4.164   1.525
 4727SOL    HW215081   6.918   4.138   1.468
 4728SOL     OW15082   5.849   1.604   4.377
 4728SOL    HW115083   5.845   1.622   4.278
 4728SOL    HW215084   5.878   1.686   4.425
 4729SOL     OW15085   5.943   1.485   1.976
 4729SOL    HW115086   5.911   1.420   2.045
 4729SOL    HW215087   6.030   1.524   2.006
 4730SOL     OW15088   3.325   0.277   4.207
 4730SOL    HW115089   3.392   0.205   4.221
 4730SOL    HW215090   3.320   0.299   4.110
 4731SOL     OW15091   2.753   6.581   0.871
 4731SOL    HW115092   2.777   6.678   0.867
 4731SOL    HW215093   2.706   6.562   0.957
 4732SOL     OW15094   0.559   5.341   4.921
 4732SOL    HW115095   0.601   5.261   4.964
 4732SOL    HW215096   0.557   5.417   4.986
 4733SOL     OW15097   1.969   3.993   2.693
 4733SOL    HW115098   2.014   4.083   2.696
 4733SOL    HW215099   1.892   3.997   2.630
 4734SOL     OW15100   4.774   4.253   6.780
 4734SOL    HW115101   4.800   4.198   6.701
 4734SOL    HW215102   4.780   4.196   6.863
 4735SOL     OW15103   0.605   0.683   5.046
 4735SOL    HW115104   0.577   0.709   4.953
 4735SOL    HW215105   0.661   0.600   5.042
 4736SOL     OW15106   6.589   1.710   3.500
 4736SOL    HW115107   6.495   1.678   3.516
 4736SOL    HW215108   6.595   1.750   3.409
 4737SOL     OW15109   2.069   4.743   7.009
 4737SOL    HW115110   2.137   4.713   6.942
 4737SOL    HW215111   1.991   4.783   6.961
 4738SOL     OW15112   1.040   5.561   4.138
 4738SOL    HW115113   0.975   5.521   4.203
 4738SOL    HW215114   1.102   5.489   4.106
 4739SOL     OW15115   5.631   3.316   3.114
 4739SOL    HW115116   5.720   3.287   3.079
 4739SOL    HW215117   5.589   3.380   3.050
 4740SOL     OW15118   1.051   0.265   0.691
 4740SOL    HW115119   0.998   0.193   0.736
 4740SOL    HW215120   1.110   0.225   0.621
 4741SOL     OW15121   5.652   4.958   1.109
 4741SOL    HW115122   5.749   4.953   1.132
 4741SOL    HW215123   5.632   4.894   1.035
 4742SOL     OW15124   2.390   5.577   2.667
 4742SOL    HW115125   2.351   5.622   2.747
 4742SOL    HW215126   2.439   5.644   2.611
 4743SOL     OW15127   2.777   3.628   0.431
 4743SOL    HW115128   2.723   3.658   0.510
 4743SOL    HW215129   2.723   3.638   0.347
 4744SOL     OW15130   2.513   1.770   5.255
 4744SOL    HW115131   2.419   1.740   5.276
 4744SOL    HW215132   2.576   1.725   5.318
 4745SOL     OW15133   3.666   5.245   4.863
 4745SOL    HW115134   3.710   5.158   4.885
 4745SOL    HW215135   3.634   5.244   4.769
 4746SOL     OW15136   6.086   1.136   1.527
 4746SOL    HW115137   6.007   1.146   1.587
 4746SOL    HW215138   6.134   1.052   1.549
 4747SOL     OW15139   0.217   2.629   1.592
 4747SOL    HW115140   0.310   2.618   1.557
 4747SOL    HW215141   0.221   2.659   1.687
 4748SOL     OW15142   1.612   0.737   1.212
 4748SOL    HW115143   1.569   0.656   1.174
 4748SOL    HW215144   1.699   0.753   1.166
 4749SOL     OW15145   2.734   0.211   6.255
 4749SOL    HW115146   2.694   0.124   6.283
 4749SOL    HW215147   2.680   0.286   6.291
 4750SOL     OW15148   0.864   1.914   4.318
 4750SOL    HW115149   0.932   1.898   4.389
 4750SOL    HW215150   0.790   1.847   4.327
 4751SOL     OW15151   1.155   3.684   5.619
 4751SOL    HW115152   1.065   3.669   5.661
 4751SOL    HW215153   1.144   3.689   5.519
 4752SOL     OW15154   1.694   6.184   1.638
 4752SOL    HW115155   1.621   6.188   1.706
 4752SOL    HW215156   1.654   6.192   1.546
 4753SOL     OW15157   0.176   6.601   5.493
 4753SOL    HW115158   0.232   6.684   5.490
 4753SOL    HW215159   0.193   6.552   5.579
 4754SOL     OW15160   0.662   0.629   6.910
 4754SOL    HW115161   0.602   0.550   6.896
 4754SOL    HW215162   0.745   0.619   6.855
 4755SOL     OW15163   2.759   0.746   1.519
 4755SOL    HW115164   2.778   0.842   1.500
 4755SOL    HW215165   2.785   0.725   1.614
 4756SOL     OW15166   4.728   2.957   1.419
 4756SOL    HW115167   4.759   2.948   1.514
 4756SOL    HW215168   4.780   2.895   1.361
 4757SOL     OW15169   2.581   1.585   1.516
 4757SOL    HW115170   2.497   1.538   1.490
 4757SOL    HW215171   2.587   1.672   1.467
 4758SOL     OW15172   5.522   3.977   5.612
 4758SOL    HW115173   5.425   4.000   5.602
 4758SOL    HW215174   5.577   4.038   5.555
 4759SOL     OW15175   5.983   4.316   6.127
 4759SOL    HW115176   5.930   4.340   6.045
 4759SOL    HW215177   5.935   4.245   6.178
 4760SOL     OW15178   1.787   2.529   0.726
 4760SOL    HW115179   1.882   2.504   0.709
 4760SOL    HW215180   1.726   2.462   0.683
 4761SOL     OW15181   1.390   5.916   5.959
 4761SOL    HW115182   1.388   5.995   5.898
 4761SOL    HW215183   1.468   5.858   5.937
 4762SOL     OW15184   4.052   6.744   2.202
 4762SOL    HW115185   4.137   6.796   2.200
 4762SOL    HW215186   3.988   6.781   2.134
 4763SOL     OW15187   5.865   5.403   4.513
 4763SOL    HW115188   5.795   5.356   4.566
 4763SOL    HW215189   5.945   5.420   4.571
 4764SOL     OW15190   3.880   4.009   4.560
 4764SOL    HW115191   3.846   3.935   4.502
 4764SOL    HW215192   3.828   4.092   4.542
 4765SOL     OW15193   6.225   4.612   5.480
 4765SOL    HW115194   6.166   4.586   5.556
 4765SOL    HW215195   6.281   4.534   5.452
 4766SOL     OW15196   3.280   0.251   3.567
 4766SOL    HW115197   3.268   0.279   3.472
 4766SOL    HW215198   3.373   0.270   3.597
 4767SOL     OW15199   4.238   6.028   6.673
 4767SOL    HW115200   4.156   5.973   6.692
 4767SOL    HW215201   4.279   6.058   6.759
 4768SOL     OW15202   0.516   0.997   5.118
 4768SOL    HW115203   0.539   0.956   5.206
 4768SOL    HW215204   0.418   0.986   5.101
 4769SOL     OW15205   3.588   0.747   1.565
 4769SOL    HW115206   3.609   0.662   1.614
 4769SOL    HW215207   3.669   0.776   1.513
 4770SOL     OW15208   2.221   0.376   4.139
 4770SOL    HW115209   2.316   0.398   4.117
 4770SOL    HW215210   2.172   0.459   4.162
 4771SOL     OW15211   4.099   4.238   5.266
 4771SOL    HW115212   4.131   4.314   5.211
 4771SOL    HW215213   4.159   4.227   5.346
 4772SOL     OW15214   1.818   3.073   0.228
 4772SOL    HW115215   1.748   3.079   0.158
 4772SOL    HW215216   1.909   3.073   0.185
 4773SOL     OW15217   0.280   4.986   4.390
 4773SOL    HW115218   0.322   4.945   4.309
 4773SOL    HW215219   0.296   5.085   4.389
 4774SOL     OW15220   1.551   4.491   6.698
 4774SOL    HW115221   1.453   4.486   6.678
 4774SOL    HW215222   1.600   4.427   6.638
 4775SOL     OW15223   2.400   1.473   2.381
 4775SOL    HW115224   2.320   1.533   2.375
 4775SOL    HW215225   2.479   1.527   2.411
 4776SOL     OW15226   3.941   4.959   2.181
 4776SOL    HW115227   4.026   5.010   2.169
 4776SOL    HW215228   3.893   4.992   2.262
 4777SOL     OW15229   2.967   4.057   1.453
 4777SOL    HW115230   2.920   4.099   1.530
 4777SOL    HW215231   2.970   4.121   1.377
 4778SOL     OW15232   5.248   3.852   2.747
 4778SOL    HW115233   5.206   3.888   2.831
 4778SOL    HW215234   5.197   3.772   2.716
 4779SOL     OW15235   4.878   1.015   2.840
 4779SOL    HW115236   4.839   1.061   2.760
 4779SOL    HW215237   4.941   0.943   2.809
 4780SOL     OW15238   1.734   0.167   5.572
 4780SOL    HW115239   1.679   0.201   5.648
 4780SOL    HW215240   1.791   0.240   5.536
 4781SOL     OW15241   2.337   5.659   3.128
 4781SOL    HW115242   2.375   5.567   3.140
 4781SOL    HW215243   2.256   5.670   3.186
 4782SOL     OW15244   5.791   5.876   0.187
 4782SOL    HW115245   5.811   5.865   0.285
 4782SOL    HW215246   5.874   5.904   0.139
 4783SOL     OW15247   6.529   3.913   2.543
 4783SOL    HW115248   6.468   3.992   2.551
 4783SOL    HW215249   6.480   3.830   2.570
 4784SOL     OW15250   5.922   4.234   4.851
 4784SOL    HW115251   5.875   4.146   4.840
 4784SOL    HW215252   5.858   4.309   4.832
 4785SOL     OW15253   6.230   6.901   1.147
 4785SOL    HW115254   6.270   6.816   1.113
 4785SOL    HW215255   6.275   6.927   1.232
 4786SOL     OW15256   1.270   2.985   2.388
 4786SOL    HW115257   1.176   3.002   2.360
 4786SOL    HW215258   1.321   2.945   2.312
 4787SOL     OW15259   4.245   2.198   2.709
 4787SOL    HW115260   4.182   2.153   2.772
 4787SOL    HW215261   4.200   2.214   2.621
 4788SOL     OW15262   1.638   6.297   5.555
 4788SOL    HW115263   1.722   6.244   5.547
 4788SOL    HW215264   1.595   6.279   5.643
 4789SOL     OW15265   6.084   6.756   0.697
 4789SOL    HW115266   6.155   6.759   0.627
 4789SOL    HW215267   6.033   6.842   0.695
 4790SOL     OW15268   5.222   0.489   6.778
 4790SOL    HW115269   5.237   0.399   6.738
 4790SOL    HW215270   5.247   0.487   6.874
 4791SOL     OW15271   4.411   1.737   3.149
 4791SOL    HW115272   4.481   1.707   3.215
 4791SOL    HW215273   4.405   1.670   3.075
 4792SOL     OW15274   3.257   2.490   1.439
 4792SOL    HW115275   3.236   2.469   1.535
 4792SOL    HW215276   3.219   2.579   1.415
 4793SOL     OW15277   0.789   0.322   6.676
 4793SOL    HW115278   0.798   0.295   6.581
 4793SOL    HW215279   0.789   0.241   6.735
 4794SOL     OW15280   4.299   1.175   1.663
 4794SOL    HW115281   4.352   1.097   1.630
 4794SOL    HW215282   4.361   1.249   1.689
 4795SOL     OW15283   5.633   2.728   4.241
 4795SOL    HW115284   5.719   2.755   4.198
 4795SOL    HW215285   5.575   2.808   4.253
 4796SOL     OW15286   5.859   4.100   0.905
 4796SOL    HW115287   5.953   4.092   0.871
 4796SOL    HW215288   5.826   4.010   0.934
 4797SOL     OW15289   0.288   4.739   4.975
 4797SOL    HW115290   0.327   4.831   4.974
 4797SOL    HW215291   0.190   4.743   4.958
 4798SOL     OW15292   6.888   4.311   5.827
 4798SOL    HW115293   6.820   4.329   5.898
 4798SOL    HW215294   6.930   4.397   5.799
 4799SOL     OW15295   3.692   1.291   5.129
 4799SOL    HW115296   3.771   1.351   5.120
 4799SOL    HW215297   3.618   1.341   5.174
 4800SOL     OW15298   2.170   1.862   3.776
 4800SOL    HW115299   2.099   1.927   3.748
 4800SOL    HW215300   2.140   1.813   3.858
 4801SOL     OW15301   0.851   2.827   0.741
 4801SOL    HW115302   0.908   2.904   0.713
 4801SOL    HW215303   0.763   2.831   0.693
 4802SOL     OW15304   2.069   0.070   1.883
 4802SOL    HW115305   1.969   0.065   1.887
 4802SOL    HW215306   2.106   0.062   1.976
 4803SOL     OW15307   0.387   0.120   1.199
 4803SOL    HW115308   0.357   0.066   1.278
 4803SOL    HW215309   0.332   0.204   1.194
 4804SOL     OW15310   3.825   5.308   0.048
 4804SOL    HW115311   3.766   5.258   0.112
 4804SOL    HW215312   3.916   5.318   0.087
 4805SOL     OW15313   0.737   0.897   1.122
 4805SOL    HW115314   0.712   0.875   1.028
 4805SOL    HW215315   0.737   0.997   1.134
 4806SOL     OW15316   0.380   2.900   3.281
 4806SOL    HW115317   0.313   2.874   3.351
 4806SOL    HW215318   0.403   2.819   3.226
 4807SOL     OW15319   0.569   6.257   2.019
 4807SOL    HW115320   0.635   6.277   1.946
 4807SOL    HW215321   0.534   6.164   2.008
 4808SOL     OW15322   5.199   2.990   1.046
 4808SOL    HW115323   5.106   2.968   1.017
 4808SOL    HW215324   5.259   2.995   0.967
 4809SOL     OW15325   4.322   6.563   6.552
 4809SOL    HW115326   4.306   6.488   6.488
 4809SOL    HW215327   4.245   6.570   6.615
 4810SOL     OW15328   1.072   0.289   1.415
 4810SOL    HW115329   1.039   0.383   1.423
 4810SOL    HW215330   1.009   0.237   1.358
 4811SOL     OW15331   5.614   5.818   2.841
 4811SOL    HW115332   5.536   5.812   2.778
 4811SOL    HW215333   5.659   5.906   2.830
 4812SOL     OW15334   6.685   5.233   3.966
 4812SOL    HW115335   6.658   5.308   3.906
 4812SOL    HW215336   6.784   5.222   3.963
 4813SOL     OW15337   5.408   3.175   3.048
 4813SOL    HW115338   5.386   3.217   2.960
 4813SOL    HW215339   5.481   3.227   3.092
 4814SOL     OW15340   6.602   3.511   1.910
 4814SOL    HW115341   6.634   3.461   1.830
 4814SOL    HW215342   6.503   3.522   1.905
 4815SOL     OW15343   4.121   6.984   2.998
 4815SOL    HW115344   4.109   6.885   2.994
 4815SOL    HW215345   4.157   7.010   3.087
 4816SOL     OW15346   5.189   4.994   3.225
 4816SOL    HW115347   5.216   5.080   3.182
 4816SOL    HW215348   5.268   4.952   3.269
 4817SOL     OW15349   6.974   1.555   0.202
 4817SOL    HW115350   0.015   1.583   0.270
 4817SOL    HW215351   6.882   1.579   0.234
 4818SOL     OW15352   6.874   5.977   3.383
 4818SOL    HW115353   6.970   5.949   3.380
 4818SOL    HW215354   6.816   5.895   3.375
 4819SOL     OW15355   1.832   3.256   1.501
 4819SOL    HW115356   1.784   3.254   1.588
 4819SOL    HW215357   1.832   3.165   1.460
 4820SOL     OW15358   0.602   3.227   2.771
 4820SOL    HW115359   0.656   3.310   2.779
 4820SOL    HW215360   0.568   3.218   2.678
 4821SOL     OW15361   0.191   5.361   3.638
 4821SOL    HW115362   0.273   5.316   3.671
 4821SOL    HW215363   0.215   5.430   3.570
 4822SOL     OW15364   2.227   4.239   4.417
 4822SOL    HW115365   2.207   4.337   4.414
 4822SOL    HW215366   2.318   4.224   4.455
 4823SOL     OW15367   1.618   2.903   1.137
 4823SOL    HW115368   1.523   2.904   1.167
 4823SOL    HW215369   1.623   2.872   1.042
 4824SOL     OW15370   6.396   1.412   6.951
 4824SOL    HW115371   6.347   1.495   6.924
 4824SOL    HW215372   6.463   1.434   7.022
 4825SOL     OW15373   1.199   6.819   3.665
 4825SOL    HW115374   1.279   6.864   3.626
 4825SOL    HW215375   1.131   6.804   3.594
 4826SOL     OW15376   3.667   6.984   1.085
 4826SOL    HW115377   3.636   6.967   0.992
 4826SOL    HW215378   3.589   7.014   1.141
 4827SOL     OW15379   6.800   1.695   0.893
 4827SOL    HW115380   6.710   1.728   0.863
 4827SOL    HW215381   6.794   1.599   0.918
 4828SOL     OW15382   5.554   1.733   5.535
 4828SOL    HW115383   5.455   1.743   5.535
 4828SOL    HW215384   5.589   1.742   5.628
 4829SOL     OW15385   4.143   6.471   5.249
 4829SOL    HW115386   4.213   6.461   5.178
 4829SOL    HW215387   4.116   6.567   5.255
 4830SOL     OW15388   2.177   6.540   3.765
 4830SOL    HW115389   2.212   6.461   3.816
 4830SOL    HW215390   2.092   6.515   3.720
 4831SOL     OW15391   3.085   4.723   5.260
 4831SOL    HW115392   3.013   4.663   5.226
 4831SOL    HW215393   3.113   4.692   5.351
 4832SOL     OW15394   4.045   3.346   4.283
 4832SOL    HW115395   3.960   3.394   4.307
 4832SOL    HW215396   4.067   3.363   4.187
 4833SOL     OW15397   6.325   2.983   5.239
 4833SOL    HW115398   6.295   3.077   5.253
 4833SOL    HW215399   6.347   2.941   5.327
 4834SOL     OW15400   1.251   5.419   1.562
 4834SOL    HW115401   1.222   5.345   1.501
 4834SOL    HW215402   1.320   5.475   1.516
 4835SOL     OW15403   0.135   3.051   6.282
 4835SOL    HW115404   0.233   3.056   6.263
 4835SOL    HW215405   0.098   2.965   6.248
 4836SOL     OW15406   4.222   2.094   5.889
 4836SOL    HW115407   4.160   2.137   5.955
 4836SOL    HW215408   4.177   2.090   5.799
 4837SOL     OW15409   1.301   3.823   4.351
 4837SOL    HW115410   1.326   3.750   4.286
 4837SOL    HW215411   1.274   3.905   4.300
 4838SOL     OW15412   2.135   4.142   6.191
 4838SOL    HW115413   2.091   4.128   6.279
 4838SOL    HW215414   2.106   4.229   6.152
 4839SOL     OW15415   2.539   1.088   0.919
 4839SOL    HW115416   2.619   1.101   0.978
 4839SOL    HW215417   2.476   1.023   0.962
 4840SOL     OW15418   5.111   3.278   5.253
 4840SOL    HW115419   5.192   3.255   5.308
 4840SOL    HW215420   5.118   3.372   5.222
 4841SOL     OW15421   2.588   6.645   3.017
 4841SOL    HW115422   2.679   6.686   3.025
 4841SOL    HW215423   2.550   6.630   3.109
 4842SOL     OW15424   3.629   5.710   3.270
 4842SOL    HW115425   3.645   5.696   3.173
 4842SOL    HW215426   3.563   5.643   3.304
 4843SOL     OW15427   6.688   1.439   0.523
 4843SOL    HW115428   6.781   1.466   0.496
 4843SOL    HW215429   6.693   1.376   0.601
 4844SOL     OW15430   1.446   5.691   6.444
 4844SOL    HW115431   1.446   5.788   6.421
 4844SOL    HW215432   1.514   5.643   6.390
 4845SOL     OW15433   4.832   3.858   5.216
 4845SOL    HW115434   4.921   3.833   5.180
 4845SOL    HW215435   4.771   3.778   5.212
 4846SOL     OW15436   6.020   3.614   4.905
 4846SOL    HW115437   6.046   3.525   4.868
 4846SOL    HW215438   6.090   3.681   4.882
 4847SOL     OW15439   2.707   6.563   0.073
 4847SOL    HW115440   2.719   6.577   7.001
 4847SOL    HW215441   2.758   6.481   0.101
 4848SOL     OW15442   4.797   1.413   3.859
 4848SOL    HW115443   4.797   1.497   3.913
 4848SOL    HW215444   4.745   1.343   3.907
 4849SOL     OW15445   2.298   6.713   1.583
 4849SOL    HW115446   2.391   6.699   1.548
 4849SOL    HW215447   2.301   6.774   1.662
 4850SOL     OW15448   3.190   6.631   1.442
 4850SOL    HW115449   3.238   6.578   1.511
 4850SOL    HW215450   3.220   6.603   1.351
 4851SOL     OW15451   3.946   4.754   0.086
 4851SOL    HW115452   3.890   4.696   0.145
 4851SOL    HW215453   3.961   4.843   0.130
 4852SOL     OW15454   5.068   5.348   5.890
 4852SOL    HW115455   5.067   5.249   5.901
 4852SOL    HW215456   5.153   5.385   5.927
 4853SOL     OW15457   4.205   0.131   2.807
 4853SOL    HW115458   4.200   0.084   2.719
 4853SOL    HW215459   4.180   0.067   2.880
 4854SOL     OW15460   4.379   6.878   2.396
 4854SOL    HW115461   4.362   6.926   2.310
 4854SOL    HW215462   4.476   6.858   2.404
 4855SOL     OW15463   4.755   5.198   5.249
 4855SOL    HW115464   4.670   5.166   5.208
 4855SOL    HW215465   4.735   5.250   5.332
 4856SOL     OW15466   0.458   3.041   2.904
 4856SOL    HW115467   0.534   3.078   2.851
 4856SOL    HW215468   0.403   3.116   2.941
 4857SOL     OW15469   2.163   2.688   5.071
 4857SOL    HW115470   2.141   2.752   5.145
 4857SOL    HW215471   2.173   2.596   5.108
 4858SOL     OW15472   1.667   6.174   5.192
 4858SOL    HW115473   1.681   6.085   5.150
 4858SOL    HW215474   1.755   6.209   5.225
 4859SOL     OW15475   6.820   5.966   3.041
 4859SOL    HW115476   6.785   5.885   3.089
 4859SOL    HW215477   6.744   6.028   3.022
 4860SOL     OW15478   3.872   5.508   2.061
 4860SOL    HW115479   3.783   5.501   2.015
 4860SOL    HW215480   3.876   5.594   2.112
 4861SOL     OW15481   0.208   4.583   5.601
 4861SOL    HW115482   0.268   4.508   5.629
 4861SOL    HW215483   0.193   4.579   5.502
 4862SOL     OW15484   2.132   6.474   4.585
 4862SOL    HW115485   2.224   6.489   4.548
 4862SOL    HW215486   2.134   6.492   4.684
 4863SOL     OW15487   5.726   1.738   1.759
 4863SOL    HW115488   5.725   1.641   1.781
 4863SOL    HW215489   5.736   1.750   1.661
 4864SOL     OW15490   2.160   1.891   0.910
 4864SOL    HW115491   2.183   1.812   0.968
 4864SOL    HW215492   2.232   1.960   0.918
 4865SOL     OW15493   3.956   6.514   4.742
 4865SOL    HW115494   4.042   6.472   4.770
 4865SOL    HW215495   3.889   6.504   4.816
 4866SOL     OW15496   0.650   5.474   1.868
 4866SOL    HW115497   0.551   5.489   1.874
 4866SOL    HW215498   0.677   5.472   1.772
 4867SOL     OW15499   5.481   4.738   4.724
 4867SOL    HW115500   5.528   4.769   4.806
 4867SOL    HW215501   5.422   4.660   4.746
 4868SOL     OW15502   1.952   5.513   1.477
 4868SOL    HW115503   2.029   5.575   1.485
 4868SOL    HW215504   1.945   5.458   1.561
 4869SOL     OW15505   6.358   1.792   1.773
 4869SOL    HW115506   6.337   1.694   1.766
 4869SOL    HW215507   6.316   1.840   1.696
 4870SOL     OW15508   6.327   0.790   1.343
 4870SOL    HW115509   6.426   0.774   1.348
 4870SOL    HW215510   6.306   0.838   1.258
 4871SOL     OW15511   1.332   3.639   4.573
 4871SOL    HW115512   1.383   3.557   4.546
 4871SOL    HW215513   1.335   3.705   4.498
 4872SOL     OW15514   1.097   1.304   3.872
 4872SOL    HW115515   1.114   1.374   3.941
 4872SOL    HW215516   1.039   1.233   3.910
 4873SOL     OW15517   1.085   6.431   5.329
 4873SOL    HW115518   1.014   6.393   5.269
 4873SOL    HW215519   1.043   6.467   5.412
 4874SOL     OW15520   5.973   2.820   3.065
 4874SOL    HW115521   5.983   2.741   3.004
 4874SOL    HW215522   5.932   2.790   3.152
 4875SOL     OW15523   0.062   3.194   6.516
 4875SOL    HW115524   0.052   3.130   6.592
 4875SOL    HW215525   0.094   3.145   6.435
 4876SOL     OW15526   0.035   1.687   6.939
 4876SOL    HW115527   7.022   1.667   0.002
 4876SOL    HW215528   0.130   1.658   6.937
 4877SOL     OW15529   5.751   1.463   1.752
 4877SOL    HW115530   5.710   1.373   1.771
 4877SOL    HW215531   5.829   1.478   1.813
 4878SOL     OW15532   0.628   3.284   1.454
 4878SOL    HW115533   0.556   3.251   1.515
 4878SOL    HW215534   0.717   3.262   1.492
 4879SOL     OW15535   4.500   5.812   3.315
 4879SOL    HW115536   4.563   5.889   3.305
 4879SOL    HW215537   4.406   5.846   3.324
 4880SOL     OW15538   5.921   1.937   5.469
 4880SOL    HW115539   5.981   1.897   5.399
 4880SOL    HW215540   5.928   1.884   5.553
 4881SOL     OW15541   2.811   5.727   6.212
 4881SOL    HW115542   2.734   5.789   6.222
 4881SOL    HW215543   2.866   5.754   6.134
 4882SOL     OW15544   5.308   6.365   0.136
 4882SOL    HW115545   5.278   6.456   0.165
 4882SOL    HW215546   5.236   6.321   0.082
 4883SOL     OW15547   6.384   5.216   6.774
 4883SOL    HW115548   6.435   5.264   6.845
 4883SOL    HW215549   6.287   5.216   6.796
 4884SOL     OW15550   4.321   0.013   1.348
 4884SOL    HW115551   4.277   6.972   1.289
 4884SOL    HW215552   4.392   0.061   1.297
 4885SOL     OW15553   1.989   6.817   2.473
 4885SOL    HW115554   2.027   6.822   2.380
 4885SOL    HW215555   2.063   6.802   2.538
 4886SOL     OW15556   6.073   1.172   6.052
 4886SOL    HW115557   6.101   1.125   6.136
 4886SOL    HW215558   6.131   1.252   6.039
 4887SOL     OW15559   0.829   2.035   5.444
 4887SOL    HW115560   0.804   2.112   5.503
 4887SOL    HW215561   0.881   1.968   5.497
 4888SOL     OW15562   3.410   6.146   1.857
 4888SOL    HW115563   3.453   6.060   1.830
 4888SOL    HW215564   3.481   6.210   1.889
 4889SOL     OW15565   1.566   3.110   6.392
 4889SOL    HW115566   1.552   3.102   6.491
 4889SOL    HW215567   1.656   3.150   6.374
 4890SOL     OW15568   7.025   0.769   4.291
 4890SOL    HW115569   6.980   0.709   4.224
 4890SOL    HW215570   0.009   0.721   4.377
 4891SOL     OW15571   1.123   4.539   0.589
 4891SOL    HW115572   1.088   4.461   0.536
 4891SOL    HW215573   1.218   4.523   0.615
 4892SOL     OW15574   1.902   5.340   2.238
 4892SOL    HW115575   2.001   5.355   2.237
 4892SOL    HW215576   1.881   5.259   2.294
 4893SOL     OW15577   0.536   3.879   6.898
 4893SOL    HW115578   0.531   3.972   6.863
 4893SOL    HW215579   0.447   3.833   6.886
 4894SOL     OW15580   1.463   0.523   3.125
 4894SOL    HW115581   1.407   0.598   3.161
 4894SOL    HW215582   1.535   0.560   3.067
 4895SOL     OW15583   6.042   4.205   6.872
 4895SOL    HW115584   6.076   4.111   6.875
 4895SOL    HW215585   6.017   4.234   6.964
 4896SOL     OW15586   4.087   6.564   3.552
 4896SOL    HW115587   4.033   6.516   3.621
 4896SOL    HW215588   4.028   6.627   3.502
 4897SOL     OW15589   2.639   5.672   6.582
 4897SOL    HW115590   2.642   5.772   6.579
 4897SOL    HW215591   2.623   5.642   6.676
 4898SOL     OW15592   6.174   2.011   4.424
 4898SOL    HW115593   6.148   2.096   4.379
 4898SOL    HW215594   6.124   1.935   4.383
 4899SOL     OW15595   4.999   4.506   4.250
 4899SOL    HW115596   5.056   4.544   4.177
 4899SOL    HW215597   5.034   4.416   4.276
 4900SOL     OW15598   0.676   6.645   4.746
 4900SOL    HW115599   0.700   6.639   4.649
 4900SOL    HW215600   0.664   6.553   4.783
 4901SOL     OW15601   0.123   6.764   3.188
 4901SOL    HW115602   0.044   6.786   3.131
 4901SOL    HW215603   0.113   6.809   3.277
 4902SOL     OW15604   3.690   4.781   1.430
 4902SOL    HW115605   3.733   4.819   1.512
 4902SOL    HW215606   3.639   4.699   1.454
 4903SOL     OW15607   5.483   5.659   6.131
 4903SOL    HW115608   5.573   5.657   6.175
 4903SOL    HW215609   5.494   5.648   6.033
 4904SOL     OW15610   2.901   0.207   3.582
 4904SOL    HW115611   2.927   0.260   3.500
 4904SOL    HW215612   2.984   0.173   3.626
 4905SOL     OW15613   6.628   3.112   3.102
 4905SOL    HW115614   6.565   3.063   3.162
 4905SOL    HW215615   6.588   3.199   3.075
 4906SOL     OW15616   4.844   0.690   1.166
 4906SOL    HW115617   4.867   0.603   1.124
 4906SOL    HW215618   4.867   0.765   1.104
 4907SOL     OW15619   2.521   1.736   1.909
 4907SOL    HW115620   2.503   1.639   1.893
 4907SOL    HW215621   2.598   1.746   1.971
 4908SOL     OW15622   3.887   5.610   0.678
 4908SOL    HW115623   3.888   5.517   0.715
 4908SOL    HW215624   3.793   5.641   0.668
 4909SOL     OW15625   6.526   6.982   5.176
 4909SOL    HW115626   6.598   6.998   5.109
 4909SOL    HW215627   6.565   6.946   5.261
 4910SOL     OW15628   5.888   6.719   6.186
 4910SOL    HW115629   5.876   6.643   6.122
 4910SOL    HW215630   5.800   6.745   6.225
 4911SOL     OW15631   0.966   4.050   6.623
 4911SOL    HW115632   0.890   3.991   6.649
 4911SOL    HW215633   0.979   4.046   6.524
 4912SOL     OW15634   2.451   2.554   1.710
 4912SOL    HW115635   2.475   2.646   1.678
 4912SOL    HW215636   2.516   2.526   1.780
 4913SOL     OW15637   2.601   2.987   1.743
 4913SOL    HW115638   2.684   3.034   1.774
 4913SOL    HW215639   2.526   3.053   1.736
 4914SOL     OW15640   1.138   6.680   2.514
 4914SOL    HW115641   1.237   6.680   2.527
 4914SOL    HW215642   1.109   6.769   2.480
 4915SOL     OW15643   2.233   6.348   3.213
 4915SOL    HW115644   2.186   6.387   3.134
 4915SOL    HW215645   2.219   6.249   3.215
 4916SOL     OW15646   1.818   2.069   2.394
 4916SOL    HW115647   1.824   2.017   2.308
 4916SOL    HW215648   1.863   2.158   2.382
 4917SOL     OW15649   1.994   4.396   6.100
 4917SOL    HW115650   1.935   4.320   6.073
 4917SOL    HW215651   2.039   4.433   6.019
 4918SOL     OW15652   2.351   0.564   3.842
 4918SOL    HW115653   2.434   0.538   3.793
 4918SOL    HW215654   2.371   0.573   3.940
 4919SOL     OW15655   2.399   3.209   1.684
 4919SOL    HW115656   2.306   3.244   1.689
 4919SOL    HW215657   2.463   3.286   1.687
 4920SOL     OW15658   3.704   0.653   0.434
 4920SOL    HW115659   3.758   0.720   0.485
 4920SOL    HW215660   3.732   0.561   0.461
 4921SOL     OW15661   0.314   4.713   1.827
 4921SOL    HW115662   0.373   4.753   1.757
 4921SOL    HW215663   0.219   4.717   1.797
 4922SOL     OW15664   1.265   2.813   5.963
 4922SOL    HW115665   1.246   2.728   6.012
 4922SOL    HW215666   1.315   2.793   5.879
 4923SOL     OW15667   2.879   2.047   0.142
 4923SOL    HW115668   2.813   2.046   0.067
 4923SOL    HW215669   2.933   1.962   0.139
 4924SOL     OW15670   6.697   3.503   4.339
 4924SOL    HW115671   6.612   3.545   4.371
 4924SOL    HW215672   6.706   3.518   4.240
 4925SOL     OW15673   4.629   5.932   6.055
 4925SOL    HW115674   4.603   5.951   5.960
 4925SOL    HW215675   4.548   5.932   6.113
 4926SOL     OW15676   4.576   3.215   0.635
 4926SOL    HW115677   4.580   3.258   0.725
 4926SOL    HW215678   4.606   3.280   0.565
 4927SOL     OW15679   3.200   3.445   2.298
 4927SOL    HW115680   3.212   3.353   2.259
 4927SOL    HW215681   3.103   3.462   2.314
 4928SOL     OW15682   0.850   0.266   0.447
 4928SOL    HW115683   0.913   0.188   0.443
 4928SOL    HW215684   0.797   0.262   0.532
 4929SOL     OW15685   1.231   4.477   4.634
 4929SOL    HW115686   1.330   4.491   4.628
 4929SOL    HW215687   1.184   4.561   4.608
 4930SOL     OW15688   0.285   3.013   0.550
 4930SOL    HW115689   0.336   2.954   0.488
 4930SOL    HW215690   0.276   2.969   0.639
 4931SOL     OW15691   6.029   6.374   1.253
 4931SOL    HW115692   5.958   6.307   1.274
 4931SOL    HW215693   6.114   6.325   1.231
 4932SOL     OW15694   3.276   1.593   1.148
 4932SOL    HW115695   3.271   1.663   1.219
 4932SOL    HW215696   3.333   1.518   1.179
 4933SOL     OW15697   2.999   0.274   4.724
 4933SOL    HW115698   2.982   0.245   4.818
 4933SOL    HW215699   3.022   0.371   4.723
 4934SOL     OW15700   1.986   6.031   5.095
 4934SOL    HW115701   1.955   5.944   5.134
 4934SOL    HW215702   1.969   6.104   5.161
 4935SOL     OW15703   1.947   1.766   0.515
 4935SOL    HW115704   2.038   1.747   0.553
 4935SOL    HW215705   1.879   1.760   0.588
 4936SOL     OW15706   5.328   5.814   1.517
 4936SOL    HW115707   5.237   5.833   1.481
 4936SOL    HW215708   5.324   5.806   1.617
 4937SOL     OW15709   1.101   3.377   4.838
 4937SOL    HW115710   1.013   3.421   4.819
 4937SOL    HW215711   1.121   3.311   4.766
 4938SOL     OW15712   3.469   4.768   1.643
 4938SOL    HW115713   3.383   4.795   1.687
 4938SOL    HW215714   3.537   4.748   1.714
 4939SOL     OW15715   1.252   1.604   0.716
 4939SOL    HW115716   1.181   1.604   0.786
 4939SOL    HW215717   1.210   1.613   0.625
 4940SOL     OW15718   1.250   1.930   5.757
 4940SOL    HW115719   1.232   1.869   5.680
 4940SOL    HW215720   1.272   2.022   5.722
 4941SOL     OW15721   3.941   2.479   5.346
 4941SOL    HW115722   4.016   2.489   5.281
 4941SOL    HW215723   3.977   2.457   5.437
 4942SOL     OW15724   6.970   1.603   3.193
 4942SOL    HW115725   6.918   1.566   3.116
 4942SOL    HW215726   6.975   1.534   3.265
 4943SOL     OW15727   5.176   2.493   6.737
 4943SOL    HW115728   5.189   2.590   6.756
 4943SOL    HW215729   5.215   2.471   6.648
 4944SOL     OW15730   0.673   4.885   0.388
 4944SOL    HW115731   0.610   4.874   0.465
 4944SOL    HW215732   0.717   4.797   0.368
 4945SOL     OW15733   2.829   0.226   6.004
 4945SOL    HW115734   2.910   0.284   6.003
 4945SOL    HW215735   2.793   0.222   6.097
 4946SOL     OW15736   2.604   5.577   6.845
 4946SOL    HW115737   2.621   5.612   6.937
 4946SOL    HW215738   2.562   5.486   6.851
 4947SOL     OW15739   0.716   0.324   0.684
 4947SOL    HW115740   0.795   0.293   0.737
 4947SOL    HW215741   0.649   0.366   0.746
 4948SOL     OW15742   1.751   2.024   2.100
 4948SOL    HW115743   1.750   2.122   2.122
 4948SOL    HW215744   1.837   2.002   2.055
 4949SOL     OW15745   0.032   4.192   6.007
 4949SOL    HW115746   0.007   4.229   6.097
 4949SOL    HW215747   7.004   4.237   5.936
 4950SOL     OW15748   4.034   4.508   5.578
 4950SOL    HW115749   4.101   4.515   5.503
 4950SOL    HW215750   4.010   4.412   5.592
 4951SOL     OW15751   4.889   5.754   2.706
 4951SOL    HW115752   4.952   5.681   2.681
 4951SOL    HW215753   4.869   5.810   2.625
 4952SOL     OW15754   1.277   0.740   6.967
 4952SOL    HW115755   1.351   0.740   6.899
 4952SOL    HW215756   1.316   0.727   0.032
 4953SOL     OW15757   1.193   1.971   4.774
 4953SOL    HW115758   1.145   2.021   4.702
 4953SOL    HW215759   1.200   1.875   4.749
 4954SOL     OW15760   2.833   3.867   5.261
 4954SOL    HW115761   2.746   3.890   5.305
 4954SOL    HW215762   2.848   3.769   5.268
 4955SOL     OW15763   3.905   5.914   6.250
 4955SOL    HW115764   3.811   5.948   6.263
 4955SOL    HW215765   3.968   5.971   6.301
 4956SOL     OW15766   3.007   0.117   4.957
 4956SOL    HW115767   2.945   0.132   5.034
 4956SOL    HW215768   2.962   0.058   4.890
 4957SOL     OW15769   5.509   4.835   6.795
 4957SOL    HW115770   5.479   4.741   6.809
 4957SOL    HW215771   5.505   4.856   6.697
 4958SOL     OW15772   3.581   5.340   0.903
 4958SOL    HW115773   3.554   5.269   0.837
 4958SOL    HW215774   3.522   5.334   0.984
 4959SOL     OW15775   7.019   2.864   3.072
 4959SOL    HW115776   0.060   2.794   3.049
 4959SOL    HW215777   0.035   2.954   3.063
 4960SOL     OW15778   5.164   4.254   3.796
 4960SOL    HW115779   5.152   4.353   3.805
 4960SOL    HW215780   5.254   4.227   3.829
 4961SOL     OW15781   3.544   2.481   1.709
 4961SOL    HW115782   3.471   2.538   1.747
 4961SOL    HW215783   3.591   2.433   1.784
 4962SOL     OW15784   1.556   3.142   0.353
 4962SOL    HW115785   1.476   3.089   0.325
 4962SOL    HW215786   1.639   3.091   0.332
 4963SOL     OW15787   0.750   3.979   5.745
 4963SOL    HW115788   0.837   4.028   5.741
 4963SOL    HW215789   0.768   3.884   5.772
 4964SOL     OW15790   1.887   5.336   4.784
 4964SOL    HW115791   1.889   5.412   4.719
 4964SOL    HW215792   1.881   5.250   4.733
 4965SOL     OW15793   1.669   6.692   3.355
 4965SOL    HW115794   1.687   6.694   3.257
 4965SOL    HW215795   1.573   6.670   3.372
 4966SOL     OW15796   4.126   6.949   4.646
 4966SOL    HW115797   4.147   6.914   4.737
 4966SOL    HW215798   4.033   6.923   4.621
 4967SOL     OW15799   4.070   4.873   4.548
 4967SOL    HW115800   3.997   4.899   4.611
 4967SOL    HW215801   4.137   4.816   4.597
 4968SOL     OW15802   0.165   2.848   3.471
 4968SOL    HW115803   0.078   2.855   3.422
 4968SOL    HW215804   0.170   2.919   3.541
 4969SOL     OW15805   0.423   6.263   4.207
 4969SOL    HW115806   0.401   6.298   4.116
 4969SOL    HW215807   0.388   6.170   4.216
 4970SOL     OW15808   1.970   1.567   1.441
 4970SOL    HW115809   1.898   1.499   1.453
 4970SOL    HW215810   2.037   1.559   1.514
 4971SOL     OW15811   0.120   5.951   1.997
 4971SOL    HW115812   0.183   5.928   2.071
 4971SOL    HW215813   0.114   6.050   1.987
 4972SOL     OW15814   1.095   4.268   0.255
 4972SOL    HW115815   1.026   4.333   0.224
 4972SOL    HW215816   1.161   4.252   0.182
 4973SOL     OW15817   6.109   1.176   0.416
 4973SOL    HW115818   6.134   1.188   0.320
 4973SOL    HW215819   6.179   1.122   0.463
 4974SOL     OW15820   3.175   0.012   4.620
 4974SOL    HW115821   3.143   6.996   4.535
 4974SOL    HW215822   3.100   0.065   4.661
 4975SOL     OW15823   5.209   4.888   0.888
 4975SOL    HW115824   5.127   4.919   0.838
 4975SOL    HW215825   5.285   4.950   0.868
 4976SOL     OW15826   0.937   7.019   3.493
 4976SOL    HW115827   0.838   7.014   3.505
 4976SOL    HW215828   0.959   0.050   3.415
 4977SOL     OW15829   1.820   4.189   6.084
 4977SOL    HW115830   1.784   4.173   6.175
 4977SOL    HW215831   1.862   4.105   6.049
 4978SOL     OW15832   6.018   4.573   4.387
 4978SOL    HW115833   6.025   4.492   4.445
 4978SOL    HW215834   6.083   4.566   4.312
 4979SOL     OW15835   2.146   6.869   6.703
 4979SOL    HW115836   2.215   6.809   6.744
 4979SOL    HW215837   2.111   6.932   6.772
 4980SOL     OW15838   5.651   2.499   4.039
 4980SOL    HW115839   5.640   2.570   4.109
 4980SOL    HW215840   5.675   2.541   3.952
 4981SOL     OW15841   3.357   5.434   2.857
 4981SOL    HW115842   3.345   5.380   2.774
 4981SOL    HW215843   3.269   5.451   2.900
 4982SOL     OW15844   3.748   2.274   5.351
 4982SOL    HW115845   3.810   2.352   5.350
 4982SOL    HW215846   3.654   2.306   5.346
 4983SOL     OW15847   5.941   4.356   2.420
 4983SOL    HW115848   5.987   4.291   2.480
 4983SOL    HW215849   6.009   4.404   2.364
 4984SOL     OW15850   4.915   3.713   4.546
 4984SOL    HW115851   4.884   3.677   4.458
 4984SOL    HW215852   4.845   3.693   4.615
 4985SOL     OW15853   5.512   0.568   2.197
 4985SOL    HW115854   5.486   0.660   2.227
 4985SOL    HW215855   5.483   0.501   2.265
 4986SOL     OW15856   0.849   5.451   1.128
 4986SOL    HW115857   0.938   5.407   1.139
 4986SOL    HW215858   0.795   5.438   1.210
 4987SOL     OW15859   2.018   1.560   2.968
 4987SOL    HW115860   2.084   1.486   2.984
 4987SOL    HW215861   2.045   1.612   2.888
 4988SOL     OW15862   6.426   5.587   3.878
 4988SOL    HW115863   6.426   5.686   3.864
 4988SOL    HW215864   6.402   5.567   3.973
 4989SOL     OW15865   5.516   6.849   3.571
 4989SOL    HW115866   5.536   6.883   3.663
 4989SOL    HW215867   5.426   6.807   3.570
 4990SOL     OW15868   4.589   1.777   6.135
 4990SOL    HW115869   4.554   1.706   6.197
 4990SOL    HW215870   4.641   1.844   6.187
 4991SOL     OW15871   2.021   5.458   5.818
 4991SOL    HW115872   2.036   5.455   5.719
 4991SOL    HW215873   1.943   5.400   5.842
 4992SOL     OW15874   1.393   3.615   4.194
 4992SOL    HW115875   1.447   3.686   4.148
 4992SOL    HW215876   1.330   3.574   4.128
 4993SOL     OW15877   2.356   6.209   4.047
 4993SOL    HW115878   2.322   6.268   4.120
 4993SOL    HW215879   2.456   6.210   4.047
 4994SOL     OW15880   4.074   5.153   5.583
 4994SOL    HW115881   4.057   5.227   5.649
 4994SOL    HW215882   4.012   5.165   5.505
 4995SOL     OW15883   0.251   0.713   5.866
 4995SOL    HW115884   0.221   0.759   5.782
 4995SOL    HW215885   0.299   0.629   5.842
 4996SOL     OW15886   0.127   1.294   3.877
 4996SOL    HW115887   0.046   1.326   3.926
 4996SOL    HW215888   0.177   1.230   3.935
 4997SOL     OW15889   4.086   1.289   0.824
 4997SOL    HW115890   4.089   1.265   0.727
 4997SOL    HW215891   4.178   1.283   0.863
 4998SOL     OW15892   0.708   3.576   3.208
 4998SOL    HW115893   0.655   3.650   3.168
 4998SOL    HW215894   0.802   3.606   3.224
 4999SOL     OW15895   0.827   2.829   3.436
 4999SOL    HW115896   0.877   2.746   3.412
 4999SOL    HW215897   0.749   2.806   3.493
 5000SOL     OW15898   2.404   6.022   3.038
 5000SOL    HW115899   2.460   5.943   3.014
 5000SOL    HW215900   2.435   6.102   2.987
 5001SOL     OW15901   0.347   6.235   2.922
 5001SOL    HW115902   0.284   6.236   3.000
 5001SOL    HW215903   0.294   6.242   2.837
 5002SOL     OW15904   1.434   4.677   3.955
 5002SOL    HW115905   1.386   4.716   3.876
 5002SOL    HW215906   1.372   4.676   4.034
 5003SOL     OW15907   3.942   0.657   2.966
 5003SOL    HW115908   3.949   0.756   2.976
 5003SOL    HW215909   4.024   0.622   2.920
 5004SOL     OW15910   4.023   5.967   0.187
 5004SOL    HW115911   4.073   5.923   0.113
 5004SOL    HW215912   4.083   5.978   0.266
 5005SOL     OW15913   2.929   3.096   0.620
 5005SOL    HW115914   3.010   3.050   0.584
 5005SOL    HW215915   2.958   3.178   0.671
 5006SOL     OW15916   4.948   1.361   2.385
 5006SOL    HW115917   4.928   1.397   2.476
 5006SOL    HW215918   4.974   1.265   2.392
 5007SOL     OW15919   6.040   5.732   2.059
 5007SOL    HW115920   6.044   5.655   2.123
 5007SOL    HW215921   5.951   5.732   2.013
 5008SOL     OW15922   5.344   0.433   3.357
 5008SOL    HW115923   5.370   0.338   3.340
 5008SOL    HW215924   5.344   0.451   3.455
 5009SOL     OW15925   0.125   2.375   0.935
 5009SOL    HW115926   0.094   2.469   0.920
 5009SOL    HW215927   0.047   2.316   0.952
 5010SOL     OW15928   3.829   3.767   0.874
 5010SOL    HW115929   3.862   3.692   0.930
 5010SOL    HW215930   3.807   3.733   0.782
 5011SOL     OW15931   1.350   2.820   6.517
 5011SOL    HW115932   1.429   2.843   6.574
 5011SOL    HW215933   1.353   2.874   6.433
 5012SOL     OW15934   6.145   1.622   6.460
 5012SOL    HW115935   6.128   1.713   6.498
 5012SOL    HW215936   6.107   1.552   6.521
 5013SOL     OW15937   5.457   7.003   6.334
 5013SOL    HW115938   5.484   7.006   6.431
 5013SOL    HW215939   5.460   0.069   6.295
 5014SOL     OW15940   5.438   3.283   1.313
 5014SOL    HW115941   5.506   3.263   1.384
 5014SOL    HW215942   5.368   3.211   1.312
 5015SOL     OW15943   6.311   5.482   4.103
 5015SOL    HW115944   6.398   5.441   4.131
 5015SOL    HW215945   6.257   5.504   4.183
 5016SOL     OW15946   1.776   3.723   5.968
 5016SOL    HW115947   1.857   3.779   5.983
 5016SOL    HW215948   1.700   3.757   6.023
 5017SOL     OW15949   0.140   3.275   1.646
 5017SOL    HW115950   0.051   3.310   1.616
 5017SOL    HW215951   0.157   3.304   1.740
 5018SOL     OW15952   1.025   0.609   6.873
 5018SOL    HW115953   1.094   0.681   6.871
 5018SOL    HW215954   0.996   0.589   6.779
 5019SOL     OW15955   1.520   4.413   4.315
 5019SOL    HW115956   1.575   4.495   4.332
 5019SOL    HW215957   1.530   4.350   4.393
 5020SOL     OW15958   2.151   0.362   4.584
 5020SOL    HW115959   2.217   0.313   4.527
 5020SOL    HW215960   2.195   0.440   4.628
 5021SOL     OW15961   2.181   0.882   0.959
 5021SOL    HW115962   2.241   0.921   0.889
 5021SOL    HW215963   2.182   0.940   1.040
 5022SOL     OW15964   6.666   2.799   1.421
 5022SOL    HW115965   6.619   2.887   1.411
 5022SOL    HW215966   6.654   2.745   1.338
 5023SOL     OW15967   0.626   4.186   2.558
 5023SOL    HW115968   0.620   4.186   2.658
 5023SOL    HW215969   0.560   4.119   2.522
 5024SOL     OW15970   4.532   3.911   0.750
 5024SOL    HW115971   4.563   3.833   0.805
 5024SOL    HW215972   4.438   3.933   0.774
 5025SOL     OW15973   4.812   1.313   4.842
 5025SOL    HW115974   4.806   1.261   4.927
 5025SOL    HW215975   4.805   1.411   4.862
 5026SOL     OW15976   5.379   6.974   4.437
 5026SOL    HW115977   5.435   6.899   4.472
 5026SOL    HW215978   5.314   6.939   4.370
 5027SOL     OW15979   5.316   6.228   0.851
 5027SOL    HW115980   5.367   6.167   0.910
 5027SOL    HW215981   5.274   6.301   0.905
 5028SOL     OW15982   5.996   2.035   2.221
 5028SOL    HW115983   5.993   2.112   2.158
 5028SOL    HW215984   6.048   1.960   2.180
 5029SOL     OW15985   6.037   1.899   1.804
 5029SOL    HW115986   6.077   1.840   1.874
 5029SOL    HW215987   6.041   1.853   1.715
 5030SOL     OW15988   0.713   3.853   6.569
 5030SOL    HW115989   0.620   3.882   6.545
 5030SOL    HW215990   0.708   3.773   6.628
 5031SOL     OW15991   6.428   6.916   5.935
 5031SOL    HW115992   6.498   6.905   6.007
 5031SOL    HW215993   6.404   7.012   5.927
 5032SOL     OW15994   2.806   3.327   6.048
 5032SOL    HW115995   2.788   3.387   5.970
 5032SOL    HW215996   2.881   3.364   6.103
 5033SOL     OW15997   2.251   6.901   6.463
 5033SOL    HW115998   2.193   6.882   6.543
 5033SOL    HW215999   2.340   6.858   6.477
 5034SOL     OW16000   4.245   6.364   4.525
 5034SOL    HW116001   4.223   6.290   4.590
 5034SOL    HW216002   4.230   6.331   4.431
 5035SOL     OW16003   2.129   3.427   3.816
 5035SOL    HW116004   2.171   3.475   3.893
 5035SOL    HW216005   2.156   3.331   3.818
 5036SOL     OW16006   1.105   2.650   4.963
 5036SOL    HW116007   1.203   2.653   4.943
 5036SOL    HW216008   1.066   2.742   4.953
 5037SOL     OW16009   4.362   4.236   0.854
 5037SOL    HW116010   4.269   4.260   0.880
 5037SOL    HW216011   4.367   4.138   0.834
 5038SOL     OW16012   3.671   3.623   3.306
 5038SOL    HW116013   3.707   3.631   3.398
 5038SOL    HW216014   3.731   3.564   3.252
 5039SOL     OW16015   1.436   3.929   6.760
 5039SOL    HW116016   1.528   3.895   6.740
 5039SOL    HW216017   1.380   3.925   6.677
 5040SOL     OW16018   0.124   1.448   5.927
 5040SOL    HW116019   0.154   1.396   5.848
 5040SOL    HW216020   0.199   1.503   5.962
 5041SOL     OW16021   6.871   2.309   1.292
 5041SOL    HW116022   6.842   2.325   1.386
 5041SOL    HW216023   6.885   2.397   1.246
 5042SOL     OW16024   1.139   2.608   6.136
 5042SOL    HW116025   1.066   2.546   6.106
 5042SOL    HW216026   1.104   2.668   6.208
 5043SOL     OW16027   3.390   6.483   1.573
 5043SOL    HW116028   3.441   6.550   1.627
 5043SOL    HW216029   3.319   6.441   1.629
 5044SOL     OW16030   6.844   5.242   0.181
 5044SOL    HW116031   6.827   5.337   0.152
 5044SOL    HW216032   6.769   5.184   0.149
 5045SOL     OW16033   5.490   2.861   6.661
 5045SOL    HW116034   5.501   2.777   6.609
 5045SOL    HW216035   5.580   2.894   6.691
 5046SOL     OW16036   4.178   3.496   2.664
 5046SOL    HW116037   4.117   3.418   2.677
 5046SOL    HW216038   4.266   3.463   2.629
 5047SOL     OW16039   2.091   3.578   3.586
 5047SOL    HW116040   2.098   3.671   3.623
 5047SOL    HW216041   2.126   3.513   3.653
 5048SOL     OW16042   2.509   0.777   6.216
 5048SOL    HW116043   2.540   0.870   6.195
 5048SOL    HW216044   2.586   0.714   6.208
 5049SOL     OW16045   4.326   1.668   6.788
 5049SOL    HW116046   4.335   1.747   6.727
 5049SOL    HW216047   4.406   1.609   6.777
 5050SOL     OW16048   1.763   0.112   0.749
 5050SOL    HW116049   1.825   0.036   0.728
 5050SOL    HW216050   1.815   0.187   0.789
 5051SOL     OW16051   4.805   5.123   1.156
 5051SOL    HW116052   4.852   5.042   1.121
 5051SOL    HW216053   4.739   5.155   1.088
 5052SOL     OW16054   2.688   1.630   5.053
 5052SOL    HW116055   2.623   1.677   5.113
 5052SOL    HW216056   2.759   1.694   5.025
 5053SOL     OW16057   0.007   1.073   1.583
 5053SOL    HW116058   0.101   1.053   1.611
 5053SOL    HW216059   6.993   1.137   1.648
 5054SOL     OW16060   4.026   5.532   3.721
 5054SOL    HW116061   3.967   5.455   3.697
 5054SOL    HW216062   4.066   5.570   3.638
 5055SOL     OW16063   0.221   3.965   6.299
 5055SOL    HW116064   0.315   3.931   6.304
 5055SOL    HW216065   0.176   3.926   6.219
 5056SOL     OW16066   5.676   3.713   4.006
 5056SOL    HW116067   5.667   3.795   4.063
 5056SOL    HW216068   5.762   3.719   3.954
 5057SOL     OW16069   0.852   5.375   2.476
 5057SOL    HW116070   0.929   5.382   2.412
 5057SOL    HW216071   0.796   5.458   2.469
 5058SOL     OW16072   2.710   5.244   5.801
 5058SOL    HW116073   2.774   5.319   5.784
 5058SOL    HW216074   2.619   5.270   5.770
 5059SOL     OW16075   6.698   0.243   2.353
 5059SOL    HW116076   6.759   0.314   2.388
 5059SOL    HW216077   6.609   0.250   2.399
 5060SOL     OW16078   6.766   2.425   6.127
 5060SOL    HW116079   6.710   2.352   6.167
 5060SOL    HW216080   6.823   2.466   6.197
 5061SOL     OW16081   5.173   4.642   0.603
 5061SOL    HW116082   5.132   4.729   0.577
 5061SOL    HW216083   5.267   4.657   0.634
 5062SOL     OW16084   6.790   0.372   1.017
 5062SOL    HW116085   6.746   0.457   1.045
 5062SOL    HW216086   6.773   0.356   0.920
 5063SOL     OW16087   1.316   6.036   1.957
 5063SOL    HW116088   1.252   6.078   2.021
 5063SOL    HW216089   1.273   6.026   1.868
 5064SOL     OW16090   5.098   3.467   0.083
 5064SOL    HW116091   5.031   3.465   0.009
 5064SOL    HW216092   5.190   3.461   0.044
 5065SOL     OW16093   2.924   6.869   6.065
 5065SOL    HW116094   2.863   6.829   5.996
 5065SOL    HW216095   2.982   6.938   6.021
 5066SOL     OW16096   4.882   4.873   1.075
 5066SOL    HW116097   4.787   4.844   1.087
 5066SOL    HW216098   4.943   4.809   1.120
 5067SOL     OW16099   5.315   1.087   6.865
 5067SOL    HW116100   5.320   1.037   6.779
 5067SOL    HW216101   5.221   1.119   6.880
 5068SOL     OW16102   3.550   5.059   1.570
 5068SOL    HW116103   3.562   4.960   1.579
 5068SOL    HW216104   3.537   5.099   1.661
 5069SOL     OW16105   0.118   4.937   2.714
 5069SOL    HW116106   0.046   4.982   2.768
 5069SOL    HW216107   0.204   4.988   2.724
 5070SOL     OW16108   5.092   3.507   4.306
 5070SOL    HW116109   5.190   3.516   4.325
 5070SOL    HW216110   5.065   3.411   4.307
 5071SOL     OW16111   3.794   0.825   6.916
 5071SOL    HW116112   3.729   0.752   6.893
 5071SOL    HW216113   3.887   0.790   6.912
 5072SOL     OW16114   1.197   4.257   1.503
 5072SOL    HW116115   1.178   4.345   1.546
 5072SOL    HW216116   1.143   4.185   1.547
 5073SOL     OW16117   4.311   2.042   4.482
 5073SOL    HW116118   4.316   1.977   4.406
 5073SOL    HW216119   4.291   1.993   4.567
 5074SOL     OW16120   3.715   5.032   5.096
 5074SOL    HW116121   3.763   4.960   5.146
 5074SOL    HW216122   3.696   5.108   5.158
 5075SOL     OW16123   6.635   6.682   3.940
 5075SOL    HW116124   6.547   6.727   3.943
 5075SOL    HW216125   6.637   6.607   4.006
 5076SOL     OW16126   3.924   0.443   0.717
 5076SOL    HW116127   3.982   0.449   0.635
 5076SOL    HW216128   3.934   0.527   0.771
 5077SOL     OW16129   0.154   2.561   2.389
 5077SOL    HW116130   0.168   2.473   2.434
 5077SOL    HW216131   0.242   2.595   2.355
 5078SOL     OW16132   6.986   0.977   3.736
 5078SOL    HW116133   0.014   1.043   3.683
 5078SOL    HW216134   6.951   0.906   3.675
 5079SOL     OW16135   4.023   5.050   4.848
 5079SOL    HW116136   4.118   5.036   4.821
 5079SOL    HW216137   3.999   5.146   4.838
 5080SOL     OW16138   6.129   0.030   5.776
 5080SOL    HW116139   6.085   0.110   5.817
 5080SOL    HW216140   6.226   0.031   5.800
 5081SOL     OW16141   2.935   3.494   2.905
 5081SOL    HW116142   2.972   3.519   2.815
 5081SOL    HW216143   2.915   3.577   2.957
 5082SOL     OW16144   6.886   0.546   6.139
 5082SOL    HW116145   6.833   0.467   6.170
 5082SOL    HW216146   6.841   0.588   6.060
 5083SOL     OW16147   1.137   5.573   2.131
 5083SOL    HW116148   1.218   5.523   2.100
 5083SOL    HW216149   1.163   5.668   2.150
 5084SOL     OW16150   2.090   6.012   2.527
 5084SOL    HW116151   2.061   6.107   2.542
 5084SOL    HW216152   2.121   5.973   2.613
 5085SOL     OW16153   6.831   2.956   6.467
 5085SOL    HW116154   6.853   2.977   6.563
 5085SOL    HW216155   6.900   2.998   6.408
 5086SOL     OW16156   7.018   4.673   4.232
 5086SOL    HW116157   6.982   4.759   4.268
 5086SOL    HW216158   6.962   4.643   4.154
 5087SOL     OW16159   7.004   5.376   5.056
 5087SOL    HW116160   0.061   5.427   5.036
 5087SOL    HW216161   6.934   5.399   4.988
 5088SOL     OW16162   6.127   0.770   6.814
 5088SOL    HW116163   6.216   0.814   6.807
 5088SOL    HW216164   6.092   0.750   6.723
 5089SOL     OW16165   5.372   2.424   3.959
 5089SOL    HW116166   5.298   2.489   3.977
 5089SOL    HW216167   5.460   2.466   3.984
 5090SOL     OW16168   1.362   4.855   0.476
 5090SOL    HW116169   1.408   4.879   0.562
 5090SOL    HW216170   1.421   4.877   0.399
 5091SOL     OW16171   1.360   6.822   3.221
 5091SOL    HW116172   1.400   6.882   3.290
 5091SOL    HW216173   1.282   6.868   3.178
 5092SOL     OW16174   3.495   2.997   1.386
 5092SOL    HW116175   3.526   3.044   1.304
 5092SOL    HW216176   3.570   2.994   1.452
 5093SOL     OW16177   1.058   1.853   0.856
 5093SOL    HW116178   1.147   1.880   0.892
 5093SOL    HW216179   1.023   1.925   0.796
 5094SOL     OW16180   6.598   0.378   6.734
 5094SOL    HW116181   6.668   0.441   6.698
 5094SOL    HW216182   6.637   0.327   6.810
 5095SOL     OW16183   3.472   0.223   5.237
 5095SOL    HW116184   3.550   0.215   5.300
 5095SOL    HW216185   3.437   0.132   5.217
 5096SOL     OW16186   3.856   5.532   2.804
 5096SOL    HW116187   3.884   5.587   2.883
 5096SOL    HW216188   3.836   5.439   2.833
 5097SOL     OW16189   0.773   1.240   6.399
 5097SOL    HW116190   0.791   1.291   6.315
 5097SOL    HW216191   0.731   1.152   6.375
 5098SOL     OW16192   6.728   2.918   2.547
 5098SOL    HW116193   6.672   2.854   2.495
 5098SOL    HW216194   6.788   2.868   2.609
 5099SOL     OW16195   1.052   0.105   4.466
 5099SOL    HW116196   1.033   0.095   4.369
 5099SOL    HW216197   1.109   0.029   4.497
 5100SOL     OW16198   4.673   5.506   5.928
 5100SOL    HW116199   4.746   5.544   5.871
 5100SOL    HW216200   4.683   5.539   6.022
 5101SOL     OW16201   4.042   5.992   0.758
 5101SOL    HW116202   4.039   5.919   0.826
 5101SOL    HW216203   4.093   5.961   0.678
 5102SOL     OW16204   4.214   5.411   3.889
 5102SOL    HW116205   4.183   5.403   3.983
 5102SOL    HW216206   4.145   5.459   3.835
 5103SOL     OW16207   1.588   0.996   4.182
 5103SOL    HW116208   1.547   1.082   4.150
 5103SOL    HW216209   1.546   0.919   4.135
 5104SOL     OW16210   1.056   0.107   0.959
 5104SOL    HW116211   1.024   0.188   1.009
 5104SOL    HW216212   0.985   0.036   0.962
 5105SOL     OW16213   2.195   2.914   6.643
 5105SOL    HW116214   2.118   2.975   6.664
 5105SOL    HW216215   2.248   2.953   6.568
 5106SOL     OW16216   3.096   7.018   2.363
 5106SOL    HW116217   3.102   6.986   2.457
 5106SOL    HW216218   3.001   0.013   2.341
 5107SOL     OW16219   1.196   0.704   6.167
 5107SOL    HW116220   1.127   0.632   6.156
 5107SOL    HW216221   1.209   0.752   6.080
 5108SOL     OW16222   2.970   3.333   3.601
 5108SOL    HW116223   2.989   3.323   3.699
 5108SOL    HW216224   2.922   3.419   3.585
 5109SOL     OW16225   0.156   1.570   1.935
 5109SOL    HW116226   0.165   1.548   1.838
 5109SOL    HW216227   0.121   1.663   1.945
 5110SOL     OW16228   2.163   5.510   4.956
 5110SOL    HW116229   2.104   5.529   4.879
 5110SOL    HW216230   2.258   5.504   4.925
 5111SOL     OW16231   1.901   0.997   6.790
 5111SOL    HW116232   1.850   1.082   6.785
 5111SOL    HW216233   1.893   0.947   6.704
 5112SOL     OW16234   0.416   0.145   3.597
 5112SOL    HW116235   0.380   0.230   3.560
 5112SOL    HW216236   0.342   0.081   3.614
 5113SOL     OW16237   0.777   0.148   6.461
 5113SOL    HW116238   0.725   0.063   6.449
 5113SOL    HW216239   0.859   0.145   6.403
 5114SOL     OW16240   4.312   5.543   6.614
 5114SOL    HW116241   4.315   5.571   6.518
 5114SOL    HW216242   4.221   5.510   6.637
 5115SOL     OW16243   2.123   3.823   4.916
 5115SOL    HW116244   2.138   3.751   4.983
 5115SOL    HW216245   2.157   3.910   4.952
 5116SOL     OW16246   6.651   3.233   0.933
 5116SOL    HW116247   6.609   3.207   0.846
 5116SOL    HW216248   6.582   3.278   0.990
 5117SOL     OW16249   2.603   5.005   3.409
 5117SOL    HW116250   2.661   4.927   3.386
 5117SOL    HW216251   2.554   4.987   3.494
 5118SOL     OW16252   4.437   6.886   1.585
 5118SOL    HW116253   4.369   6.922   1.520
 5118SOL    HW216254   4.525   6.878   1.539
 5119SOL     OW16255   6.427   0.017   2.424
 5119SOL    HW116256   6.343   6.991   2.439
 5119SOL    HW216257   6.491   7.026   2.500
 5120SOL     OW16258   3.685   1.514   2.415
 5120SOL    HW116259   3.670   1.417   2.396
 5120SOL    HW216260   3.617   1.569   2.366
 5121SOL     OW16261   1.313   3.120   4.147
 5121SOL    HW116262   1.383   3.146   4.213
 5121SOL    HW216263   1.225   3.108   4.193
 5122SOL     OW16264   2.222   5.660   3.537
 5122SOL    HW116265   2.126   5.637   3.517
 5122SOL    HW216266   2.249   5.618   3.624
 5123SOL     OW16267   6.299   3.947   1.725
 5123SOL    HW116268   6.374   4.001   1.686
 5123SOL    HW216269   6.219   3.954   1.665
 5124SOL     OW16270   2.759   6.228   0.797
 5124SOL    HW116271   2.766   6.303   0.732
 5124SOL    HW216272   2.684   6.245   0.861
 5125SOL     OW16273   6.806   2.278   5.885
 5125SOL    HW116274   6.904   2.297   5.893
 5125SOL    HW216275   6.764   2.278   5.975
 5126SOL     OW16276   4.197   2.208   6.895
 5126SOL    HW116277   4.197   2.109   6.912
 5126SOL    HW216278   4.142   2.227   6.814
 5127SOL     OW16279   5.596   3.555   6.447
 5127SOL    HW116280   5.637   3.562   6.357
 5127SOL    HW216281   5.505   3.598   6.447
 5128SOL     OW16282   0.185   6.932   6.640
 5128SOL    HW116283   0.251   6.947   6.566
 5128SOL    HW216284   0.227   6.875   6.711
 5129SOL     OW16285   4.631   2.605   3.438
 5129SOL    HW116286   4.559   2.537   3.426
 5129SOL    HW216287   4.658   2.642   3.349
 5130SOL     OW16288   0.987   6.498   4.954
 5130SOL    HW116289   0.945   6.459   4.872
 5130SOL    HW216290   1.083   6.519   4.935
 5131SOL     OW16291   3.893   4.829   3.813
 5131SOL    HW116292   3.863   4.839   3.718
 5131SOL    HW216293   3.824   4.869   3.874
 5132SOL     OW16294   3.342   1.709   6.543
 5132SOL    HW116295   3.438   1.685   6.559
 5132SOL    HW216296   3.317   1.684   6.449
 5133SOL     OW16297   4.800   4.752   6.696
 5133SOL    HW116298   4.773   4.844   6.725
 5133SOL    HW216299   4.818   4.695   6.776
 5134SOL     OW16300   6.104   5.807   0.474
 5134SOL    HW116301   6.111   5.903   0.449
 5134SOL    HW216302   6.009   5.776   0.464
 5135SOL     OW16303   6.962   2.603   2.180
 5135SOL    HW116304   6.914   2.524   2.140
 5135SOL    HW216305   0.005   2.570   2.245
 5136SOL     OW16306   1.036   1.480   5.225
 5136SOL    HW116307   0.995   1.443   5.308
 5136SOL    HW216308   1.095   1.411   5.183
 5137SOL     OW16309   5.564   0.300   3.239
 5137SOL    HW116310   5.613   0.328   3.322
 5137SOL    HW216311   5.595   0.209   3.210
 5138SOL     OW16312   3.490   2.869   2.486
 5138SOL    HW116313   3.479   2.899   2.391
 5138SOL    HW216314   3.514   2.772   2.487
 5139SOL     OW16315   3.952   0.451   5.150
 5139SOL    HW116316   3.989   0.411   5.233
 5139SOL    HW216317   3.891   0.527   5.174
 5140SOL     OW16318   3.146   3.753   6.627
 5140SOL    HW116319   3.115   3.660   6.608
 5140SOL    HW216320   3.238   3.766   6.589
 5141SOL     OW16321   0.914   2.811   1.599
 5141SOL    HW116322   0.958   2.899   1.581
 5141SOL    HW216323   0.928   2.750   1.521
 5142SOL     OW16324   0.590   0.269   2.519
 5142SOL    HW116325   0.597   0.198   2.449
 5142SOL    HW216326   0.629   0.354   2.483
 5143SOL     OW16327   0.287   6.125   2.576
 5143SOL    HW116328   0.292   6.026   2.591
 5143SOL    HW216329   0.204   6.160   2.619
 5144SOL     OW16330   2.212   2.900   5.296
 5144SOL    HW116331   2.298   2.927   5.252
 5144SOL    HW216332   2.135   2.930   5.239
 5145SOL     OW16333   2.370   5.678   5.723
 5145SOL    HW116334   2.374   5.582   5.750
 5145SOL    HW216335   2.422   5.691   5.638
 5146SOL     OW16336   5.718   5.780   6.720
 5146SOL    HW116337   5.698   5.866   6.767
 5146SOL    HW216338   5.699   5.789   6.623
 5147SOL     OW16339   5.468   1.973   3.650
 5147SOL    HW116340   5.388   1.958   3.593
 5147SOL    HW216341   5.467   2.067   3.685
 5148SOL     OW16342   6.683   1.142   0.283
 5148SOL    HW116343   6.598   1.189   0.305
 5148SOL    HW216344   6.754   1.209   0.261
 5149SOL     OW16345   4.459   5.621   4.061
 5149SOL    HW116346   4.498   5.594   4.149
 5149SOL    HW216347   4.405   5.704   4.073
 5150SOL     OW16348   6.229   0.302   3.960
 5150SOL    HW116349   6.274   0.380   3.919
 5150SOL    HW216350   6.148   0.333   4.011
 5151SOL     OW16351   5.379   5.518   1.815
 5151SOL    HW116352   5.444   5.487   1.884
 5151SOL    HW216353   5.424   5.518   1.725
 5152SOL     OW16354   2.196   1.613   0.156
 5152SOL    HW116355   2.098   1.593   0.149
 5152SOL    HW216356   2.212   1.710   0.137
 5153SOL     OW16357   1.911   1.814   0.240
 5153SOL    HW116358   1.938   1.788   0.332
 5153SOL    HW216359   1.992   1.839   0.187
 5154SOL     OW16360   0.466   2.628   0.793
 5154SOL    HW116361   0.452   2.538   0.753
 5154SOL    HW216362   0.472   2.620   0.893
 5155SOL     OW16363   1.712   1.688   0.115
 5155SOL    HW116364   1.774   1.726   0.184
 5155SOL    HW216365   1.753   1.700   0.025
 5156SOL     OW16366   5.704   5.399   5.295
 5156SOL    HW116367   5.666   5.483   5.257
 5156SOL    HW216368   5.742   5.418   5.386
 5157SOL     OW16369   3.888   1.068   1.532
 5157SOL    HW116370   3.872   0.972   1.558
 5157SOL    HW216371   3.846   1.085   1.443
 5158SOL     OW16372   1.474   2.184   1.803
 5158SOL    HW116373   1.449   2.184   1.900
 5158SOL    HW216374   1.530   2.103   1.783
 5159SOL     OW16375   6.512   3.250   6.192
 5159SOL    HW116376   6.540   3.176   6.253
 5159SOL    HW216377   6.590   3.311   6.176
 5160SOL     OW16378   6.561   0.021   3.731
 5160SOL    HW116379   6.552   6.960   3.684
 5160SOL    HW216380   6.473   0.067   3.733
 5161SOL     OW16381   1.038   1.953   6.699
 5161SOL    HW116382   1.113   1.949   6.633
 5161SOL    HW216383   1.012   1.860   6.726
 5162SOL     OW16384   0.114   0.258   4.810
 5162SOL    HW116385   0.167   0.175   4.789
 5162SOL    HW216386   0.170   0.320   4.865
 5163SOL     OW16387   3.193   6.932   2.114
 5163SOL    HW116388   3.169   6.960   2.207
 5163SOL    HW216389   3.126   6.969   2.049
 5164SOL     OW16390   2.856   4.005   0.204
 5164SOL    HW116391   2.763   4.040   0.219
 5164SOL    HW216392   2.859   3.955   0.117
 5165SOL     OW16393   1.780   4.893   6.187
 5165SOL    HW116394   1.846   4.957   6.225
 5165SOL    HW216395   1.749   4.830   6.259
 5166SOL     OW16396   0.007   4.913   6.789
 5166SOL    HW116397   0.035   4.864   6.706
 5166SOL    HW216398   0.060   4.998   6.796
 5167SOL     OW16399   5.542   3.622   5.393
 5167SOL    HW116400   5.522   3.704   5.339
 5167SOL    HW216401   5.535   3.643   5.490
 5168SOL     OW16402   4.661   2.093   2.974
 5168SOL    HW116403   4.747   2.143   2.983
 5168SOL    HW216404   4.637   2.052   3.062
 5169SOL     OW16405   5.428   5.357   4.488
 5169SOL    HW116406   5.458   5.419   4.415
 5169SOL    HW216407   5.506   5.304   4.521
 5170SOL     OW16408   2.423   4.079   5.790
 5170SOL    HW116409   2.383   4.022   5.862
 5170SOL    HW216410   2.508   4.120   5.823
 5171SOL     OW16411   2.174   6.767   6.004
 5171SOL    HW116412   2.158   6.834   6.077
 5171SOL    HW216413   2.252   6.710   6.029
 5172SOL     OW16414   5.930   5.867   6.156
 5172SOL    HW116415   5.935   5.963   6.129
 5172SOL    HW216416   6.018   5.823   6.139
 5173SOL     OW16417   4.407   5.848   4.480
 5173SOL    HW116418   4.327   5.903   4.504
 5173SOL    HW216419   4.438   5.797   4.560
 5174SOL     OW16420   1.353   6.565   2.699
 5174SOL    HW116421   1.429   6.625   2.675
 5174SOL    HW216422   1.365   6.532   2.792
 5175SOL     OW16423   2.648   2.844   6.784
 5175SOL    HW116424   2.645   2.745   6.772
 5175SOL    HW216425   2.688   2.866   6.873
 5176SOL     OW16426   6.298   6.221   6.369
 5176SOL    HW116427   6.228   6.243   6.437
 5176SOL    HW216428   6.260   6.228   6.277
 5177SOL     OW16429   5.924   6.495   0.670
 5177SOL    HW116430   5.968   6.584   0.684
 5177SOL    HW216431   5.845   6.487   0.731
 5178SOL     OW16432   0.898   4.732   1.622
 5178SOL    HW116433   0.814   4.705   1.575
 5178SOL    HW216434   0.887   4.824   1.659
 5179SOL     OW16435   4.931   6.013   3.175
 5179SOL    HW116436   4.908   5.926   3.219
 5179SOL    HW216437   4.965   5.996   3.083
 5180SOL     OW16438   1.372   4.593   2.819
 5180SOL    HW116439   1.281   4.555   2.830
 5180SOL    HW216440   1.420   4.546   2.745
 5181SOL     OW16441   6.786   1.335   5.882
 5181SOL    HW116442   6.834   1.348   5.969
 5181SOL    HW216443   6.693   1.370   5.890
 5182SOL     OW16444   1.947   6.247   2.638
 5182SOL    HW116445   1.851   6.218   2.630
 5182SOL    HW216446   1.955   6.344   2.617
 5183SOL     OW16447   4.411   2.457   3.383
 5183SOL    HW116448   4.376   2.480   3.293
 5183SOL    HW216449   4.357   2.382   3.422
 5184SOL     OW16450   1.959   1.601   3.596
 5184SOL    HW116451   2.054   1.586   3.570
 5184SOL    HW216452   1.903   1.610   3.514
 5185SOL     OW16453   0.014   0.058   2.500
 5185SOL    HW116454   0.014   0.098   2.409
 5185SOL    HW216455   7.007   0.125   2.566
 5186SOL     OW16456   6.139   2.968   6.681
 5186SOL    HW116457   6.117   2.924   6.768
 5186SOL    HW216458   6.055   2.977   6.626
 5187SOL     OW16459   1.312   4.756   5.223
 5187SOL    HW116460   1.374   4.706   5.162
 5187SOL    HW216461   1.279   4.694   5.295
 5188SOL     OW16462   6.624   0.586   2.187
 5188SOL    HW116463   6.572   0.548   2.111
 5188SOL    HW216464   6.697   0.522   2.213
 5189SOL     OW16465   4.760   6.204   0.019
 5189SOL    HW116466   4.759   6.215   6.947
 5189SOL    HW216467   4.792   6.112   0.043
 5190SOL     OW16468   1.505   4.248   0.700
 5190SOL    HW116469   1.539   4.244   0.606
 5190SOL    HW216470   1.455   4.333   0.714
 5191SOL     OW16471   2.607   4.647   1.834
 5191SOL    HW116472   2.700   4.671   1.861
 5191SOL    HW216473   2.606   4.555   1.795
 5192SOL     OW16474   0.802   4.977   2.878
 5192SOL    HW116475   0.811   5.066   2.833
 5192SOL    HW216476   0.707   4.946   2.871
 5193SOL     OW16477   4.666   1.011   5.449
 5193SOL    HW116478   4.739   1.012   5.381
 5193SOL    HW216479   4.700   0.973   5.535
 5194SOL     OW16480   4.600   1.191   5.127
 5194SOL    HW116481   4.563   1.150   5.211
 5194SOL    HW216482   4.692   1.156   5.111
 5195SOL     OW16483   0.757   0.543   5.548
 5195SOL    HW116484   0.726   0.636   5.570
 5195SOL    HW216485   0.793   0.541   5.455
 5196SOL     OW16486   5.388   6.712   3.288
 5196SOL    HW116487   5.324   6.686   3.216
 5196SOL    HW216488   5.397   6.637   3.354
 5197SOL     OW16489   0.926   2.859   4.949
 5197SOL    HW116490   0.919   2.916   5.032
 5197SOL    HW216491   0.834   2.827   4.924
 5198SOL     OW16492   5.815   4.714   3.160
 5198SOL    HW116493   5.742   4.744   3.097
 5198SOL    HW216494   5.775   4.687   3.247
 5199SOL     OW16495   0.274   4.460   0.534
 5199SOL    HW116496   0.294   4.364   0.554
 5199SOL    HW216497   0.315   4.518   0.605
 5200SOL     OW16498   6.189   3.796   5.361
 5200SOL    HW116499   6.212   3.699   5.352
 5200SOL    HW216500   6.096   3.811   5.330
 5201SOL     OW16501   0.596   6.166   4.495
 5201SOL    HW116502   0.579   6.077   4.454
 5201SOL    HW216503   0.513   6.199   4.539
 5202SOL     OW16504   0.981   4.545   2.374
 5202SOL    HW116505   0.931   4.575   2.456
 5202SOL    HW216506   0.919   4.544   2.296
 5203SOL     OW16507   6.223   3.213   6.776
 5203SOL    HW116508   6.139   3.260   6.802
 5203SOL    HW216509   6.202   3.120   6.746
 5204SOL     OW16510   4.849   5.264   6.424
 5204SOL    HW116511   4.778   5.209   6.379
 5204SOL    HW216512   4.878   5.218   6.508
 5205SOL     OW16513   2.158   0.044   0.058
 5205SOL    HW116514   2.244   0.095   0.051
 5205SOL    HW216515   2.155   7.023   0.146
 5206SOL     OW16516   0.475   4.002   5.316
 5206SOL    HW116517   0.513   3.922   5.270
 5206SOL    HW216518   0.388   4.026   5.274
 5207SOL     OW16519   2.040   4.519   3.626
 5207SOL    HW116520   1.993   4.551   3.544
 5207SOL    HW216521   2.009   4.426   3.647
 5208SOL     OW16522   4.951   0.697   6.839
 5208SOL    HW116523   5.032   0.670   6.787
 5208SOL    HW216524   4.869   0.663   6.793
 5209SOL     OW16525   5.959   5.573   3.300
 5209SOL    HW116526   5.915   5.612   3.380
 5209SOL    HW216527   5.960   5.639   3.225
 5210SOL     OW16528   5.155   4.013   2.972
 5210SOL    HW116529   5.065   3.971   2.970
 5210SOL    HW216530   5.208   3.976   3.048
 5211SOL     OW16531   3.105   4.063   2.066
 5211SOL    HW116532   3.050   4.143   2.091
 5211SOL    HW216533   3.202   4.084   2.078
 5212SOL     OW16534   0.984   0.415   0.059
 5212SOL    HW116535   0.976   0.467   7.000
 5212SOL    HW216536   1.006   0.320   0.039
 5213SOL     OW16537   4.409   2.199   6.195
 5213SOL    HW116538   4.453   2.160   6.114
 5213SOL    HW216539   4.396   2.297   6.182
 5214SOL     OW16540   5.224   1.779   0.193
 5214SOL    HW116541   5.271   1.692   0.208
 5214SOL    HW216542   5.291   1.852   0.182
 5215SOL     OW16543   5.392   5.198   3.049
 5215SOL    HW116544   5.465   5.140   3.086
 5215SOL    HW216545   5.431   5.280   3.008
 5216SOL     OW16546   4.530   5.744   1.842
 5216SOL    HW116547   4.461   5.685   1.887
 5216SOL    HW216548   4.557   5.703   1.755
 5217SOL     OW16549   2.934   4.871   3.222
 5217SOL    HW116550   2.914   4.960   3.263
 5217SOL    HW216551   2.864   4.805   3.248
 5218SOL     OW16552   1.932   0.297   4.466
 5218SOL    HW116553   1.853   0.309   4.527
 5218SOL    HW216554   2.015   0.324   4.514
 5219SOL     OW16555   2.364   0.002   0.833
 5219SOL    HW116556   2.422   0.025   0.755
 5219SOL    HW216557   2.409   6.958   0.888
 5220SOL     OW16558   0.770   0.054   1.944
 5220SOL    HW116559   0.812   0.092   2.026
 5220SOL    HW216560   0.753   6.983   1.958
 5221SOL     OW16561   4.426   1.173   6.237
 5221SOL    HW116562   4.494   1.145   6.305
 5221SOL    HW216563   4.335   1.147   6.268
 5222SOL     OW16564   0.880   0.237   3.023
 5222SOL    HW116565   0.872   0.176   2.945
 5222SOL    HW216566   0.843   0.327   2.999
 5223SOL     OW16567   4.974   6.828   0.727
 5223SOL    HW116568   4.917   6.817   0.646
 5223SOL    HW216569   5.059   6.874   0.701
 5224SOL     OW16570   5.076   1.633   3.390
 5224SOL    HW116571   5.053   1.557   3.329
 5224SOL    HW216572   5.023   1.714   3.365
 5225SOL     OW16573   6.414   6.560   5.590
 5225SOL    HW116574   6.356   6.568   5.509
 5225SOL    HW216575   6.478   6.484   5.577
 5226SOL     OW16576   2.864   6.316   4.210
 5226SOL    HW116577   2.961   6.313   4.234
 5226SOL    HW216578   2.817   6.381   4.270
 5227SOL     OW16579   5.156   3.305   3.719
 5227SOL    HW116580   5.190   3.371   3.786
 5227SOL    HW216581   5.157   3.213   3.760
 5228SOL     OW16582   5.180   0.854   1.344
 5228SOL    HW116583   5.267   0.825   1.305
 5228SOL    HW216584   5.112   0.781   1.331
 5229SOL     OW16585   1.492   4.103   4.157
 5229SOL    HW116586   1.508   4.126   4.062
 5229SOL    HW216587   1.394   4.097   4.174
 5230SOL     OW16588   1.245   6.500   6.133
 5230SOL    HW116589   1.196   6.533   6.052
 5230SOL    HW216590   1.179   6.475   6.203
 5231SOL     OW16591   3.790   3.455   2.939
 5231SOL    HW116592   3.729   3.398   2.884
 5231SOL    HW216593   3.811   3.408   3.024
 5232SOL     OW16594   4.911   2.915   5.032
 5232SOL    HW116595   4.973   2.888   5.105
 5232SOL    HW216596   4.935   3.007   5.000
 5233SOL     OW16597   0.793   0.506   2.980
 5233SOL    HW116598   0.822   0.600   2.990
 5233SOL    HW216599   0.736   0.481   3.059
 5234SOL     OW16600   4.128   5.476   1.575
 5234SOL    HW116601   4.107   5.551   1.638
 5234SOL    HW216602   4.118   5.507   1.481
 5235SOL     OW16603   0.996   3.647   1.085
 5235SOL    HW116604   0.928   3.627   1.156
 5235SOL    HW216605   0.981   3.585   1.007
 5236SOL     OW16606   5.529   3.688   1.226
 5236SOL    HW116607   5.471   3.639   1.292
 5236SOL    HW216608   5.502   3.784   1.223
 5237SOL     OW16609   2.018   1.734   4.011
 5237SOL    HW116610   1.998   1.819   4.060
 5237SOL    HW216611   2.010   1.657   4.074
 5238SOL     OW16612   2.064   3.719   1.443
 5238SOL    HW116613   2.046   3.807   1.398
 5238SOL    HW216614   2.081   3.734   1.540
 5239SOL     OW16615   3.287   3.320   5.068
 5239SOL    HW116616   3.334   3.400   5.106
 5239SOL    HW216617   3.353   3.247   5.053
 5240SOL     OW16618   3.294   1.880   4.866
 5240SOL    HW116619   3.260   1.882   4.772
 5240SOL    HW216620   3.375   1.821   4.870
 5241SOL     OW16621   2.965   6.010   5.353
 5241SOL    HW116622   2.914   6.005   5.267
 5241SOL    HW216623   3.044   6.071   5.342
 5242SOL     OW16624   4.464   0.340   5.413
 5242SOL    HW116625   4.497   0.434   5.408
 5242SOL    HW216626   4.480   0.304   5.504
 5243SOL     OW16627   0.638   4.103   0.247
 5243SOL    HW116628   0.648   4.151   0.159
 5243SOL    HW216629   0.615   4.007   0.230
 5244SOL     OW16630   6.180   3.505   0.286
 5244SOL    HW116631   6.263   3.450   0.274
 5244SOL    HW216632   6.102   3.444   0.303
 5245SOL     OW16633   4.613   4.905   6.515
 5245SOL    HW116634   4.686   4.863   6.569
 5245SOL    HW216635   4.653   4.965   6.446
 5246SOL     OW16636   1.304   2.985   3.070
 5246SOL    HW116637   1.223   2.974   3.013
 5246SOL    HW216638   1.386   2.966   3.015
 5247SOL     OW16639   0.134   4.575   0.956
 5247SOL    HW116640   0.190   4.493   0.940
 5247SOL    HW216641   0.044   4.563   0.915
 5248SOL     OW16642   4.922   7.024   0.486
 5248SOL    HW116643   4.983   0.069   0.452
 5248SOL    HW216644   4.880   0.027   0.572
 5249SOL     OW16645   1.193   5.551   6.053
 5249SOL    HW116646   1.105   5.510   6.029
 5249SOL    HW216647   1.181   5.649   6.071
 5250SOL     OW16648   1.160   1.655   5.747
 5250SOL    HW116649   1.256   1.645   5.775
 5250SOL    HW216650   1.151   1.628   5.652
 5251SOL     OW16651   0.936   3.103   1.042
 5251SOL    HW116652   0.836   3.110   1.043
 5251SOL    HW216653   0.963   3.012   1.075
 5252SOL     OW16654   4.795   6.616   1.172
 5252SOL    HW116655   4.811   6.532   1.224
 5252SOL    HW216656   4.882   6.662   1.155
 5253SOL     OW16657   6.036   2.485   3.191
 5253SOL    HW116658   6.047   2.539   3.274
 5253SOL    HW216659   5.988   2.538   3.122
 5254SOL     OW16660   4.859   0.557   4.454
 5254SOL    HW116661   4.896   0.556   4.361
 5254SOL    HW216662   4.815   0.469   4.473
 5255SOL     OW16663   3.456   6.237   4.491
 5255SOL    HW116664   3.367   6.193   4.495
 5255SOL    HW216665   3.456   6.317   4.551
 5256SOL     OW16666   5.635   6.747   2.192
 5256SOL    HW116667   5.641   6.847   2.186
 5256SOL    HW216668   5.726   6.707   2.184
 5257SOL     OW16669   3.860   0.934   3.472
 5257SOL    HW116670   3.955   0.904   3.463
 5257SOL    HW216671   3.837   0.944   3.569
 5258SOL     OW16672   5.595   1.988   1.572
 5258SOL    HW116673   5.601   2.000   1.671
 5258SOL    HW216674   5.517   1.930   1.550
 5259SOL     OW16675   5.409   4.523   1.713
 5259SOL    HW116676   5.340   4.458   1.680
 5259SOL    HW216677   5.412   4.602   1.653
 5260SOL     OW16678   4.895   3.239   2.139
 5260SOL    HW116679   4.868   3.170   2.072
 5260SOL    HW216680   4.851   3.219   2.226
 5261SOL     OW16681   2.433   2.500   5.009
 5261SOL    HW116682   2.459   2.557   5.087
 5261SOL    HW216683   2.512   2.486   4.949
 5262SOL     OW16684   2.229   0.116   2.119
 5262SOL    HW116685   2.305   0.162   2.074
 5262SOL    HW216686   2.264   0.060   2.194
 5263SOL     OW16687   0.333   6.451   0.105
 5263SOL    HW116688   0.332   6.491   0.197
 5263SOL    HW216689   0.265   6.377   0.100
 5264SOL     OW16690   0.847   1.703   0.948
 5264SOL    HW116691   0.769   1.765   0.946
 5264SOL    HW216692   0.932   1.756   0.945
 5265SOL     OW16693   5.548   5.085   2.791
 5265SOL    HW116694   5.565   5.067   2.889
 5265SOL    HW216695   5.593   5.014   2.737
 5266SOL     OW16696   0.833   6.807   1.539
 5266SOL    HW116697   0.833   6.750   1.457
 5266SOL    HW216698   0.920   6.857   1.545
 5267SOL     OW16699   4.662   3.577   5.399
 5267SOL    HW116700   4.760   3.563   5.413
 5267SOL    HW216701   4.643   3.582   5.301
 5268SOL     OW16702   6.105   5.390   5.098
 5268SOL    HW116703   6.024   5.399   5.040
 5268SOL    HW216704   6.094   5.312   5.159
 5269SOL     OW16705   2.106   4.395   5.651
 5269SOL    HW116706   2.108   4.309   5.702
 5269SOL    HW216707   2.157   4.465   5.702
 5270SOL     OW16708   6.079   2.501   2.525
 5270SOL    HW116709   6.131   2.450   2.456
 5270SOL    HW216710   6.129   2.500   2.612
 5271SOL     OW16711   5.138   4.409   5.313
 5271SOL    HW116712   5.145   4.489   5.254
 5271SOL    HW216713   5.195   4.423   5.395
 5272SOL     OW16714   1.804   0.930   4.070
 5272SOL    HW116715   1.725   0.964   4.120
 5272SOL    HW216716   1.873   1.002   4.064
 5273SOL     OW16717   0.497   0.277   4.624
 5273SOL    HW116718   0.482   0.179   4.642
 5273SOL    HW216719   0.416   0.315   4.579
 5274SOL     OW16720   0.320   5.624   4.256
 5274SOL    HW116721   0.288   5.679   4.178
 5274SOL    HW216722   0.406   5.580   4.233
 5275SOL     OW16723   1.645   6.431   6.779
 5275SOL    HW116724   1.617   6.527   6.786
 5275SOL    HW216725   1.639   6.402   6.683
 5276SOL     OW16726   0.303   0.171   0.697
 5276SOL    HW116727   0.222   0.112   0.700
 5276SOL    HW216728   0.285   0.250   0.638
 5277SOL     OW16729   1.297   1.293   2.184
 5277SOL    HW116730   1.288   1.339   2.095
 5277SOL    HW216731   1.308   1.361   2.256
 5278SOL     OW16732   0.475   3.957   6.477
 5278SOL    HW116733   0.426   4.042   6.494
 5278SOL    HW216734   0.507   3.955   6.382
 5279SOL     OW16735   2.273   6.228   6.618
 5279SOL    HW116736   2.327   6.144   6.628
 5279SOL    HW216737   2.198   6.213   6.553
 5280SOL     OW16738   4.876   6.701   5.016
 5280SOL    HW116739   4.795   6.725   4.962
 5280SOL    HW216740   4.908   6.782   5.065
 5281SOL     OW16741   2.488   6.933   5.271
 5281SOL    HW116742   2.505   6.857   5.333
 5281SOL    HW216743   2.490   7.019   5.322
 5282SOL     OW16744   0.879   6.931   0.923
 5282SOL    HW116745   0.878   6.928   1.023
 5282SOL    HW216746   0.853   6.842   0.886
 5283SOL     OW16747   1.099   0.852   3.581
 5283SOL    HW116748   1.038   0.820   3.509
 5283SOL    HW216749   1.194   0.844   3.551
 5284SOL     OW16750   4.763   3.241   1.730
 5284SOL    HW116751   4.680   3.201   1.769
 5284SOL    HW216752   4.840   3.179   1.746
 5285SOL     OW16753   1.066   1.741   3.850
 5285SOL    HW116754   0.998   1.809   3.878
 5285SOL    HW216755   1.152   1.757   3.899
 5286SOL     OW16756   6.144   3.197   1.625
 5286SOL    HW116757   6.196   3.111   1.626
 5286SOL    HW216758   6.162   3.246   1.540
 5287SOL     OW16759   1.611   5.046   1.024
 5287SOL    HW116760   1.673   5.057   0.947
 5287SOL    HW216761   1.588   5.135   1.062
 5288SOL     OW16762   4.014   0.578   1.325
 5288SOL    HW116763   3.936   0.529   1.366
 5288SOL    HW216764   4.076   0.512   1.283
 5289SOL     OW16765   2.454   4.400   5.779
 5289SOL    HW116766   2.472   4.335   5.854
 5289SOL    HW216767   2.373   4.454   5.801
 5290SOL     OW16768   2.113   3.505   4.738
 5290SOL    HW116769   2.040   3.563   4.702
 5290SOL    HW216770   2.112   3.507   4.838
 5291SOL     OW16771   3.378   5.009   4.326
 5291SOL    HW116772   3.351   5.077   4.394
 5291SOL    HW216773   3.297   4.973   4.280
 5292SOL     OW16774   0.487   3.463   5.334
 5292SOL    HW116775   0.500   3.524   5.413
 5292SOL    HW216776   0.573   3.454   5.285
 5293SOL     OW16777   2.236   0.035   4.772
 5293SOL    HW116778   2.327   7.022   4.782
 5293SOL    HW216779   2.180   7.003   4.714
 5294SOL     OW16780   4.819   0.275   5.094
 5294SOL    HW116781   4.821   0.274   4.994
 5294SOL    HW216782   4.726   0.260   5.125
 5295SOL     OW16783   2.485   0.938   2.546
 5295SOL    HW116784   2.518   0.940   2.452
 5295SOL    HW216785   2.553   0.894   2.605
 5296SOL     OW16786   4.621   4.677   1.789
 5296SOL    HW116787   4.624   4.578   1.776
 5296SOL    HW216788   4.670   4.722   1.714
 5297SOL     OW16789   2.706   5.522   6.365
 5297SOL    HW116790   2.755   5.580   6.301
 5297SOL    HW216791   2.676   5.576   6.444
 5298SOL     OW16792   1.906   1.288   0.597
 5298SOL    HW116793   1.891   1.193   0.571
 5298SOL    HW216794   1.887   1.348   0.520
 5299SOL     OW16795   2.757   1.287   1.726
 5299SOL    HW116796   2.847   1.291   1.683
 5299SOL    HW216797   2.763   1.326   1.818
 5300SOL     OW16798   2.942   4.900   6.572
 5300SOL    HW116799   2.981   4.871   6.484
 5300SOL    HW216800   2.976   4.840   6.644
 5301SOL     OW16801   6.027   6.979   6.142
 5301SOL    HW116802   6.002   6.979   6.045
 5301SOL    HW216803   5.970   6.914   6.191
 5302SOL     OW16804   5.684   6.062   2.699
 5302SOL    HW116805   5.742   6.101   2.771
 5302SOL    HW216806   5.741   6.024   2.627
 5303SOL     OW16807   0.988   5.276   5.888
 5303SOL    HW116808   0.965   5.371   5.868
 5303SOL    HW216809   0.992   5.224   5.802
 5304SOL     OW16810   0.102   0.587   2.748
 5304SOL    HW116811   0.165   0.587   2.670
 5304SOL    HW216812   0.139   0.644   2.821
 5305SOL     OW16813   0.031   4.951   3.437
 5305SOL    HW116814   0.093   5.025   3.411
 5305SOL    HW216815   0.024   4.947   3.537
 5306SOL     OW16816   0.274   3.022   5.787
 5306SOL    HW116817   0.284   3.099   5.723
 5306SOL    HW216818   0.186   2.977   5.771
 5307SOL     OW16819   6.639   1.673   1.278
 5307SOL    HW116820   6.548   1.711   1.262
 5307SOL    HW216821   6.675   1.707   1.364
 5308SOL     OW16822   1.582   4.064   3.508
 5308SOL    HW116823   1.654   4.027   3.449
 5308SOL    HW216824   1.504   4.002   3.510
 5309SOL     OW16825   6.146   5.039   3.219
 5309SOL    HW116826   6.229   5.086   3.191
 5309SOL    HW216827   6.112   5.078   3.305
 5310SOL     OW16828   5.584   2.514   2.536
 5310SOL    HW116829   5.582   2.609   2.506
 5310SOL    HW216830   5.645   2.461   2.477
 5311SOL     OW16831   6.065   0.346   0.397
 5311SOL    HW116832   6.124   0.278   0.354
 5311SOL    HW216833   6.121   0.418   0.439
 5312SOL     OW16834   7.013   6.651   0.094
 5312SOL    HW116835   6.977   6.654   0.187
 5312SOL    HW216836   0.078   6.692   0.092
 5313SOL     OW16837   0.920   6.296   5.748
 5313SOL    HW116838   0.896   6.232   5.675
 5313SOL    HW216839   1.017   6.286   5.770
 5314SOL     OW16840   6.087   0.894   1.854
 5314SOL    HW116841   6.099   0.796   1.837
 5314SOL    HW216842   6.121   0.916   1.946
 5315SOL     OW16843   4.858   1.443   4.355
 5315SOL    HW116844   4.788   1.476   4.292
 5315SOL    HW216845   4.867   1.344   4.347
 5316SOL     OW16846   0.811   2.026   4.764
 5316SOL    HW116847   0.863   2.108   4.740
 5316SOL    HW216848   0.874   1.954   4.791
 5317SOL     OW16849   6.028   2.859   6.915
 5317SOL    HW116850   6.052   2.780   6.972
 5317SOL    HW216851   5.960   2.915   6.962
 5318SOL     OW16852   6.633   3.915   6.679
 5318SOL    HW116853   6.554   3.897   6.738
 5318SOL    HW216854   6.607   3.982   6.609
 5319SOL     OW16855   4.104   6.987   1.646
 5319SOL    HW116856   4.025   0.014   1.676
 5319SOL    HW216857   4.079   6.933   1.566
 5320SOL     OW16858   4.141   5.869   1.005
 5320SOL    HW116859   4.047   5.843   1.026
 5320SOL    HW216860   4.156   5.964   1.030
 5321SOL     OW16861   1.707   4.467   5.326
 5321SOL    HW116862   1.755   4.513   5.401
 5321SOL    HW216863   1.665   4.383   5.359
 5322SOL     OW16864   5.203   6.673   2.053
 5322SOL    HW116865   5.163   6.665   2.144
 5322SOL    HW216866   5.131   6.677   1.984
 5323SOL     OW16867   4.486   0.355   5.691
 5323SOL    HW116868   4.472   0.269   5.741
 5323SOL    HW216869   4.542   0.417   5.745
 5324SOL     OW16870   1.775   1.503   1.023
 5324SOL    HW116871   1.868   1.479   1.049
 5324SOL    HW216872   1.746   1.446   0.946
 5325SOL     OW16873   2.173   1.704   5.074
 5325SOL    HW116874   2.238   1.635   5.104
 5325SOL    HW216875   2.220   1.772   5.018
 5326SOL     OW16876   6.408   6.598   2.309
 5326SOL    HW116877   6.450   6.511   2.336
 5326SOL    HW216878   6.454   6.673   2.357
 5327SOL     OW16879   6.768   3.013   5.223
 5327SOL    HW116880   6.811   2.956   5.153
 5327SOL    HW216881   6.679   3.044   5.191
 5328SOL     OW16882   4.601   5.548   0.274
 5328SOL    HW116883   4.516   5.515   0.234
 5328SOL    HW216884   4.678   5.493   0.240
 5329SOL     OW16885   1.103   6.620   6.442
 5329SOL    HW116886   1.057   6.667   6.367
 5329SOL    HW216887   1.106   6.522   6.423
 5330SOL     OW16888   2.407   4.588   1.414
 5330SOL    HW116889   2.321   4.594   1.363
 5330SOL    HW216890   2.403   4.648   1.494
 5331SOL     OW16891   6.243   0.590   6.568
 5331SOL    HW116892   6.147   0.563   6.562
 5331SOL    HW216893   6.271   0.591   6.664
 5332SOL     OW16894   0.925   4.822   2.012
 5332SOL    HW116895   1.004   4.816   2.073
 5332SOL    HW216896   0.928   4.747   1.946
 5333SOL     OW16897   0.968   6.487   4.319
 5333SOL    HW116898   0.911   6.495   4.400
 5333SOL    HW216899   1.000   6.393   4.309
 5334SOL     OW16900   3.496   0.263   4.566
 5334SOL    HW116901   3.553   0.248   4.647
 5334SOL    HW216902   3.401   0.238   4.587
 5335SOL     OW16903   6.719   5.487   0.123
 5335SOL    HW116904   6.652   5.524   0.187
 5335SOL    HW216905   6.806   5.537   0.132
 5336SOL     OW16906   1.041   3.783   1.859
 5336SOL    HW116907   1.005   3.829   1.940
 5336SOL    HW216908   1.134   3.816   1.840
 5337SOL     OW16909   5.071   4.298   1.487
 5337SOL    HW116910   5.056   4.204   1.516
 5337SOL    HW216911   5.052   4.360   1.563
 5338SOL     OW16912   6.414   1.464   6.680
 5338SOL    HW116913   6.419   1.394   6.752
 5338SOL    HW216914   6.353   1.432   6.607
 5339SOL     OW16915   6.044   0.727   2.693
 5339SOL    HW116916   6.032   0.826   2.692
 5339SOL    HW216917   6.083   0.699   2.781
 5340SOL     OW16918   5.253   2.725   6.121
 5340SOL    HW116919   5.350   2.748   6.129
 5340SOL    HW216920   5.215   2.769   6.040
 5341SOL     OW16921   4.347   0.094   0.294
 5341SOL    HW116922   4.360   0.008   0.244
 5341SOL    HW216923   4.252   0.103   0.322
 5342SOL     OW16924   2.952   0.857   6.277
 5342SOL    HW116925   3.045   0.857   6.313
 5342SOL    HW216926   2.952   0.826   6.182
 5343SOL     OW16927   3.314   3.641   2.126
 5343SOL    HW116928   3.273   3.591   2.202
 5343SOL    HW216929   3.343   3.576   2.055
 5344SOL     OW16930   2.557   2.135   3.183
 5344SOL    HW116931   2.653   2.117   3.204
 5344SOL    HW216932   2.510   2.167   3.266
 5345SOL     OW16933   4.217   6.861   1.862
 5345SOL    HW116934   4.279   6.787   1.836
 5345SOL    HW216935   4.180   6.905   1.780
 5346SOL     OW16936   1.813   6.204   3.223
 5346SOL    HW116937   1.797   6.262   3.304
 5346SOL    HW216938   1.782   6.252   3.141
 5347SOL     OW16939   7.008   2.015   2.304
 5347SOL    HW116940   6.931   1.970   2.259
 5347SOL    HW216941   6.975   2.098   2.349
 5348SOL     OW16942   6.972   0.907   0.638
 5348SOL    HW116943   0.043   0.919   0.622
 5348SOL    HW216944   6.921   0.981   0.594
 5349SOL     OW16945   6.438   0.717   1.831
 5349SOL    HW116946   6.466   0.736   1.737
 5349SOL    HW216947   6.341   0.690   1.832
 5350SOL     OW16948   2.567   0.840   6.760
 5350SOL    HW116949   2.560   0.855   6.661
 5350SOL    HW216950   2.485   0.874   6.805
 5351SOL     OW16951   4.345   0.822   1.871
 5351SOL    HW116952   4.321   0.918   1.857
 5351SOL    HW216953   4.300   0.766   1.801
 5352SOL     OW16954   2.862   5.935   3.560
 5352SOL    HW116955   2.932   5.885   3.611
 5352SOL    HW216956   2.906   5.998   3.497
 5353SOL     OW16957   5.952   0.063   5.580
 5353SOL    HW116958   5.990   0.019   5.498
 5353SOL    HW216959   6.021   0.062   5.653
 5354SOL     OW16960   1.102   4.071   0.842
 5354SOL    HW116961   1.050   4.073   0.927
 5354SOL    HW216962   1.187   4.021   0.856
 5355SOL     OW16963   4.214   1.812   5.164
 5355SOL    HW116964   4.246   1.754   5.238
 5355SOL    HW216965   4.149   1.879   5.200
 5356SOL     OW16966   6.150   3.565   1.251
 5356SOL    HW116967   6.171   3.535   1.158
 5356SOL    HW216968   6.061   3.528   1.278
 5357SOL     OW16969   3.480   6.705   0.394
 5357SOL    HW116970   3.579   6.701   0.378
 5357SOL    HW216971   3.463   6.715   0.492
 5358SOL     OW16972   4.298   3.144   1.437
 5358SOL    HW116973   4.376   3.109   1.488
 5358SOL    HW216974   4.228   3.073   1.431
 5359SOL     OW16975   2.316   0.171   6.818
 5359SOL    HW116976   2.226   0.128   6.824
 5359SOL    HW216977   2.321   0.226   6.734
 5360SOL     OW16978   4.007   6.860   6.866
 5360SOL    HW116979   4.004   6.766   6.899
 5360SOL    HW216980   4.098   6.898   6.882
 5361SOL     OW16981   1.894   0.600   5.970
 5361SOL    HW116982   1.967   0.538   5.999
 5361SOL    HW216983   1.934   0.676   5.918
 5362SOL     OW16984   4.286   5.914   3.569
 5362SOL    HW116985   4.380   5.914   3.601
 5362SOL    HW216986   4.223   5.907   3.647
 5363SOL     OW16987   0.356   4.973   5.769
 5363SOL    HW116988   0.446   4.936   5.793
 5363SOL    HW216989   0.286   4.902   5.780
 5364SOL     OW16990   0.560   6.090   6.982
 5364SOL    HW116991   0.586   6.175   6.936
 5364SOL    HW216992   0.474   6.056   6.944
 5365SOL     OW16993   3.851   2.297   6.560
 5365SOL    HW116994   3.805   2.350   6.489
 5365SOL    HW216995   3.866   2.203   6.528
 5366SOL     OW16996   3.517   4.048   6.823
 5366SOL    HW116997   3.605   4.041   6.870
 5366SOL    HW216998   3.474   3.958   6.820
 5367SOL     OW16999   0.476   4.578   0.742
 5367SOL    HW117000   0.499   4.588   0.838
 5367SOL    HW217001   0.541   4.517   0.698
 5368SOL     OW17002   6.233   1.028   3.783
 5368SOL    HW117003   6.285   0.997   3.703
 5368SOL    HW217004   6.292   1.083   3.842
 5369SOL     OW17005   1.525   3.949   2.440
 5369SOL    HW117006   1.493   3.875   2.499
 5369SOL    HW217007   1.448   4.008   2.417
 5370SOL     OW17008   3.685   2.944   1.594
 5370SOL    HW117009   3.683   3.009   1.670
 5370SOL    HW217010   3.709   2.853   1.629
 5371SOL     OW17011   1.547   3.953   5.441
 5371SOL    HW117012   1.517   3.879   5.501
 5371SOL    HW217013   1.560   3.918   5.348
 5372SOL     OW17014   2.379   5.365   3.185
 5372SOL    HW117015   2.367   5.318   3.098
 5372SOL    HW217016   2.289   5.389   3.223
 5373SOL     OW17017   2.520   4.884   3.649
 5373SOL    HW117018   2.534   4.924   3.740
 5373SOL    HW217019   2.545   4.787   3.651
 5374SOL     OW17020   3.241   2.277   0.558
 5374SOL    HW117021   3.312   2.284   0.488
 5374SOL    HW217022   3.166   2.220   0.524
 5375SOL     OW17023   1.682   4.623   4.384
 5375SOL    HW117024   1.700   4.671   4.298
 5375SOL    HW217025   1.750   4.552   4.398
 5376SOL     OW17026   2.463   4.332   0.378
 5376SOL    HW117027   2.502   4.249   0.419
 5376SOL    HW217028   2.368   4.315   0.352
 5377SOL     OW17029   0.735   1.522   1.203
 5377SOL    HW117030   0.747   1.492   1.108
 5377SOL    HW217031   0.648   1.489   1.238
 5378SOL     OW17032   4.579   6.958   0.110
 5378SOL    HW117033   4.610   6.910   0.027
 5378SOL    HW217034   4.633   6.927   0.188
 5379SOL     OW17035   6.727   6.694   1.831
 5379SOL    HW117036   6.771   6.783   1.814
 5379SOL    HW217037   6.675   6.698   1.916
 5380SOL     OW17038   2.528   0.429   4.416
 5380SOL    HW117039   2.555   0.454   4.509
 5380SOL    HW217040   2.463   0.353   4.418
 5381SOL     OW17041   5.367   3.974   1.532
 5381SOL    HW117042   5.336   4.066   1.506
 5381SOL    HW217043   5.296   3.928   1.585
 5382SOL     OW17044   1.435   0.449   1.852
 5382SOL    HW117045   1.455   0.367   1.907
 5382SOL    HW217046   1.468   0.435   1.759
 5383SOL     OW17047   2.205   1.972   4.977
 5383SOL    HW117048   2.183   2.062   4.940
 5383SOL    HW217049   2.304   1.956   4.969
 5384SOL     OW17050   6.088   6.840   3.962
 5384SOL    HW117051   6.014   6.774   3.970
 5384SOL    HW217052   6.055   6.922   3.915
 5385SOL     OW17053   3.079   3.850   2.267
 5385SOL    HW117054   3.060   3.890   2.177
 5385SOL    HW217055   3.177   3.837   2.278
 5386SOL     OW17056   5.411   0.043   5.552
 5386SOL    HW117057   5.462   0.001   5.628
 5386SOL    HW217058   5.474   0.098   5.497
 5387SOL     OW17059   3.395   5.463   1.630
 5387SOL    HW117060   3.342   5.537   1.590
 5387SOL    HW217061   3.376   5.378   1.580
 5388SOL     OW17062   5.834   6.612   2.628
 5388SOL    HW117063   5.831   6.539   2.559
 5388SOL    HW217064   5.862   6.698   2.584
 5389SOL     OW17065   4.696   2.178   1.218
 5389SOL    HW117066   4.747   2.214   1.296
 5389SOL    HW217067   4.698   2.245   1.143
 5390SOL     OW17068   6.031   4.691   5.951
 5390SOL    HW117069   5.965   4.761   5.924
 5390SOL    HW217070   6.001   4.602   5.918
 5391SOL     OW17071   2.591   3.608   0.207
 5391SOL    HW117072   2.564   3.634   0.114
 5391SOL    HW217073   2.530   3.651   0.273
 5392SOL     OW17074   6.096   3.077   2.570
 5392SOL    HW117075   6.089   3.171   2.537
 5392SOL    HW217076   6.093   3.013   2.493
 5393SOL     OW17077   6.050   6.815   6.625
 5393SOL    HW117078   6.015   6.730   6.585
 5393SOL    HW217079   6.143   6.800   6.660
 5394SOL     OW17080   1.251   4.136   5.732
 5394SOL    HW117081   1.262   4.160   5.635
 5394SOL    HW217082   1.305   4.200   5.788
 5395SOL     OW17083   4.642   0.912   6.978
 5395SOL    HW117084   4.552   0.956   6.972
 5395SOL    HW217085   4.643   0.831   6.919
 5396SOL     OW17086   5.322   3.033   2.395
 5396SOL    HW117087   5.319   3.050   2.296
 5396SOL    HW217088   5.243   2.979   2.422
 5397SOL     OW17089   0.198   3.026   1.442
 5397SOL    HW117090   0.264   3.010   1.368
 5397SOL    HW217091   0.244   3.014   1.530
 5398SOL     OW17092   3.690   3.087   1.844
 5398SOL    HW117093   3.656   3.164   1.899
 5398SOL    HW217094   3.790   3.091   1.840
 5399SOL     OW17095   1.108   6.191   0.174
 5399SOL    HW117096   1.142   6.281   0.202
 5399SOL    HW217097   1.052   6.152   0.247
 5400SOL     OW17098   2.513   4.490   6.840
 5400SOL    HW117099   2.608   4.512   6.861
 5400SOL    HW217100   2.508   4.442   6.752
 5401SOL     OW17101   6.597   2.473   1.721
 5401SOL    HW117102   6.551   2.556   1.687
 5401SOL    HW217103   6.566   2.453   1.813
 5402SOL     OW17104   1.603   6.172   2.451
 5402SOL    HW117105   1.629   6.155   2.546
 5402SOL    HW217106   1.527   6.237   2.449
 5403SOL     OW17107   6.222   3.632   6.710
 5403SOL    HW117108   6.295   3.582   6.757
 5403SOL    HW217109   6.141   3.637   6.769
 5404SOL     OW17110   1.740   3.096   2.711
 5404SOL    HW117111   1.749   3.155   2.791
 5404SOL    HW217112   1.806   3.021   2.717
 5405SOL     OW17113   6.526   4.151   6.205
 5405SOL    HW117114   6.491   4.117   6.118
 5405SOL    HW217115   6.489   4.096   6.280
 5406SOL     OW17116   1.581   6.865   4.811
 5406SOL    HW117117   1.488   6.874   4.847
 5406SOL    HW217118   1.589   6.777   4.763
 5407SOL     OW17119   4.124   3.348   6.792
 5407SOL    HW117120   4.175   3.276   6.839
 5407SOL    HW217121   4.189   3.413   6.751
 5408SOL     OW17122   3.293   1.409   0.161
 5408SOL    HW117123   3.302   1.318   0.121
 5408SOL    HW217124   3.338   1.476   0.102
 5409SOL     OW17125   3.881   0.746   2.290
 5409SOL    HW117126   3.796   0.697   2.310
 5409SOL    HW217127   3.932   0.762   2.375
 5410SOL     OW17128   1.962   2.345   2.353
 5410SOL    HW117129   2.036   2.302   2.406
 5410SOL    HW217130   1.983   2.441   2.338
 5411SOL     OW17131   0.959   5.269   4.560
 5411SOL    HW117132   1.004   5.222   4.635
 5411SOL    HW217133   0.873   5.309   4.592
 5412SOL     OW17134   6.008   3.039   1.274
 5412SOL    HW117135   5.950   3.027   1.354
 5412SOL    HW217136   6.104   3.046   1.303
 5413SOL     OW17137   2.753   0.229   2.148
 5413SOL    HW117138   2.785   0.220   2.242
 5413SOL    HW217139   2.658   0.257   2.148
 5414SOL     OW17140   4.418   0.873   5.784
 5414SOL    HW117141   4.461   0.787   5.758
 5414SOL    HW217142   4.479   0.923   5.845
 5415SOL     OW17143   5.767   4.547   2.015
 5415SOL    HW117144   5.715   4.529   1.931
 5415SOL    HW217145   5.704   4.574   2.088
 5416SOL     OW17146   4.563   5.378   4.024
 5416SOL    HW117147   4.617   5.377   3.940
 5416SOL    HW217148   4.512   5.464   4.030
 5417SOL     OW17149   3.701   7.026   5.148
 5417SOL    HW117150   3.607   0.029   5.130
 5417SOL    HW217151   3.708   6.998   5.244
 5418SOL     OW17152   3.481   0.201   2.923
 5418SOL    HW117153   3.545   0.241   2.988
 5418SOL    HW217154   3.387   0.220   2.953
 5419SOL     OW17155   3.345   4.375   6.568
 5419SOL    HW117156   3.363   4.356   6.664
 5419SOL    HW217157   3.327   4.473   6.556
 5420SOL     OW17158   1.554   1.519   2.568
 5420SOL    HW117159   1.620   1.590   2.544
 5420SOL    HW217160   1.507   1.543   2.653
 5421SOL     OW17161   1.199   3.361   1.373
 5421SOL    HW117162   1.168   3.455   1.362
 5421SOL    HW217163   1.266   3.356   1.448
 5422SOL     OW17164   2.228   4.058   1.117
 5422SOL    HW117165   2.314   4.045   1.069
 5422SOL    HW217166   2.181   4.139   1.081
 5423SOL     OW17167   5.890   3.772   6.167
 5423SOL    HW117168   5.957   3.734   6.103
 5423SOL    HW217169   5.871   3.867   6.141
 5424SOL     OW17170   5.597   3.900   5.232
 5424SOL    HW117171   5.548   3.913   5.146
 5424SOL    HW217172   5.625   3.989   5.268
 5425SOL     OW17173   5.373   0.382   4.799
 5425SOL    HW117174   5.357   0.478   4.818
 5425SOL    HW217175   5.315   0.353   4.723
 5426SOL     OW17176   6.852   6.999   5.340
 5426SOL    HW117177   6.894   6.914   5.372
 5426SOL    HW217178   6.784   0.004   5.407
 5427SOL     OW17179   4.419   5.779   6.828
 5427SOL    HW117180   4.475   5.822   6.756
 5427SOL    HW217181   4.332   5.749   6.789
 5428SOL     OW17182   1.152   0.321   6.550
 5428SOL    HW117183   1.214   0.250   6.518
 5428SOL    HW217184   1.190   0.411   6.526
 5429SOL     OW17185   1.498   2.492   6.670
 5429SOL    HW117186   1.506   2.434   6.751
 5429SOL    HW217187   1.523   2.586   6.694
 5430SOL     OW17188   2.380   2.425   5.334
 5430SOL    HW117189   2.373   2.379   5.422
 5430SOL    HW217190   2.290   2.428   5.291
 5431SOL     OW17191   3.706   6.134   4.515
 5431SOL    HW117192   3.756   6.220   4.523
 5431SOL    HW217193   3.609   6.152   4.502
 5432SOL     OW17194   5.566   6.326   1.441
 5432SOL    HW117195   5.602   6.397   1.380
 5432SOL    HW217196   5.622   6.321   1.523
 5433SOL     OW17197   6.961   1.874   4.510
 5433SOL    HW117198   7.016   1.909   4.434
 5433SOL    HW217199   6.998   1.786   4.539
 5434SOL     OW17200   2.781   6.741   5.815
 5434SOL    HW117201   2.840   6.671   5.854
 5434SOL    HW217202   2.812   6.763   5.722
 5435SOL     OW17203   4.496   1.346   1.761
 5435SOL    HW117204   4.495   1.434   1.809
 5435SOL    HW217205   4.523   1.360   1.666
 5436SOL     OW17206   5.696   3.824   2.498
 5436SOL    HW117207   5.602   3.788   2.496
 5436SOL    HW217208   5.722   3.852   2.405
 5437SOL     OW17209   2.960   3.830   6.460
 5437SOL    HW117210   3.023   3.804   6.533
 5437SOL    HW217211   3.011   3.874   6.386
 5438SOL     OW17212   6.694   1.678   1.558
 5438SOL    HW117213   6.726   1.678   1.653
 5438SOL    HW217214   6.627   1.605   1.546
 5439SOL     OW17215   1.394   2.366   1.333
 5439SOL    HW117216   1.325   2.383   1.403
 5439SOL    HW217217   1.464   2.305   1.369
 5440SOL     OW17218   1.731   2.076   0.820
 5440SOL    HW117219   1.685   2.104   0.904
 5440SOL    HW217220   1.697   1.987   0.791
 5441SOL     OW17221   4.467   1.467   3.998
 5441SOL    HW117222   4.418   1.553   4.001
 5441SOL    HW217223   4.403   1.391   4.008
 5442SOL     OW17224   3.607   0.385   2.733
 5442SOL    HW117225   3.561   0.330   2.803
 5442SOL    HW217226   3.639   0.325   2.660
 5443SOL     OW17227   3.078   6.656   5.018
 5443SOL    HW117228   3.084   6.609   5.106
 5443SOL    HW217229   3.117   6.599   4.946
 5444SOL     OW17230   0.138   6.896   3.436
 5444SOL    HW117231   0.059   6.857   3.484
 5444SOL    HW217232   0.131   6.996   3.439
 5445SOL     OW17233   5.587   3.632   1.950
 5445SOL    HW117234   5.675   3.608   1.908
 5445SOL    HW217235   5.515   3.572   1.914
 5446SOL     OW17236   6.787   5.598   5.951
 5446SOL    HW117237   6.711   5.581   5.888
 5446SOL    HW217238   6.805   5.697   5.954
 5447SOL     OW17239   3.109   1.665   0.574
 5447SOL    HW117240   3.045   1.705   0.509
 5447SOL    HW217241   3.081   1.688   0.667
 5448SOL     OW17242   5.522   2.173   6.223
 5448SOL    HW117243   5.595   2.109   6.202
 5448SOL    HW217244   5.556   2.267   6.216
 5449SOL     OW17245   0.546   3.584   7.011
 5449SOL    HW117246   0.557   3.644   0.064
 5449SOL    HW217247   0.465   3.613   6.960
 5450SOL     OW17248   2.006   6.793   0.440
 5450SOL    HW117249   1.913   6.829   0.448
 5450SOL    HW217250   2.008   6.698   0.469
 5451SOL     OW17251   1.735   0.203   2.407
 5451SOL    HW117252   1.782   0.273   2.460
 5451SOL    HW217253   1.750   0.114   2.450
 5452SOL     OW17254   2.877   4.027   5.708
 5452SOL    HW117255   2.784   3.995   5.690
 5452SOL    HW217256   2.890   4.116   5.664
 5453SOL     OW17257   6.161   4.931   6.291
 5453SOL    HW117258   6.254   4.926   6.255
 5453SOL    HW217259   6.137   4.843   6.331
 5454SOL     OW17260   0.132   4.454   6.189
 5454SOL    HW117261   0.101   4.362   6.216
 5454SOL    HW217262   0.229   4.451   6.165
 5455SOL     OW17263   6.756   3.056   1.113
 5455SOL    HW117264   6.726   3.082   1.205
 5455SOL    HW217265   6.763   3.138   1.056
 5456SOL     OW17266   3.515   6.615   1.036
 5456SOL    HW117267   3.571   6.663   0.969
 5456SOL    HW217268   3.575   6.573   1.105
 5457SOL     OW17269   5.977   3.820   0.560
 5457SOL    HW117270   6.001   3.906   0.604
 5457SOL    HW217271   6.002   3.823   0.464
 5458SOL     OW17272   2.437   4.699   6.381
 5458SOL    HW117273   2.481   4.778   6.338
 5458SOL    HW217274   2.442   4.620   6.321
 5459SOL     OW17275   2.234   4.575   5.836
 5459SOL    HW117276   2.158   4.597   5.897
 5459SOL    HW217277   2.260   4.657   5.785
 5460SOL     OW17278   3.678   0.539   1.691
 5460SOL    HW117279   3.654   0.444   1.714
 5460SOL    HW217280   3.693   0.590   1.776
 5461SOL     OW17281   4.677   6.790   4.867
 5461SOL    HW117282   4.618   6.850   4.920
 5461SOL    HW217283   4.740   6.846   4.812
 5462SOL     OW17284   0.877   0.157   1.607
 5462SOL    HW117285   0.864   0.222   1.682
 5462SOL    HW217286   0.909   0.206   1.526
 5463SOL     OW17287   6.983   2.880   0.770
 5463SOL    HW117288   6.900   2.828   0.753
 5463SOL    HW217289   6.980   2.966   0.719
 5464SOL     OW17290   2.245   6.760   4.418
 5464SOL    HW117291   2.188   6.695   4.367
 5464SOL    HW217292   2.206   6.774   4.509
 5465SOL     OW17293   2.379   6.683   6.309
 5465SOL    HW117294   2.408   6.607   6.251
 5465SOL    HW217295   2.424   6.767   6.278
 5466SOL     OW17296   4.933   4.466   4.556
 5466SOL    HW117297   4.857   4.404   4.539
 5466SOL    HW217298   4.930   4.541   4.490
 5467SOL     OW17299   6.136   1.819   2.102
 5467SOL    HW117300   6.217   1.871   2.129
 5467SOL    HW217301   6.147   1.724   2.128
 5468SOL     OW17302   4.060   1.540   5.433
 5468SOL    HW117303   4.018   1.630   5.420
 5468SOL    HW217304   4.129   1.526   5.362
 5469SOL     OW17305   4.490   5.103   0.025
 5469SOL    HW117306   4.443   5.034   6.997
 5469SOL    HW217307   4.478   5.083   0.122
 5470SOL     OW17308   1.081   5.333   3.500
 5470SOL    HW117309   1.012   5.362   3.566
 5470SOL    HW217310   1.099   5.407   3.435
 5471SOL     OW17311   6.171   4.849   2.045
 5471SOL    HW117312   6.151   4.870   1.950
 5471SOL    HW217313   6.225   4.765   2.049
 5472SOL     OW17314   3.840   5.277   5.900
 5472SOL    HW117315   3.897   5.317   5.828
 5472SOL    HW217316   3.769   5.220   5.858
 5473SOL     OW17317   1.557   3.351   3.364
 5473SOL    HW117318   1.473   3.299   3.378
 5473SOL    HW217319   1.555   3.434   3.421
 5474SOL     OW17320   1.758   6.139   3.643
 5474SOL    HW117321   1.842   6.148   3.697
 5474SOL    HW217322   1.777   6.086   3.560
 5475SOL     OW17323   2.942   2.869   1.447
 5475SOL    HW117324   2.919   2.840   1.539
 5475SOL    HW217325   2.866   2.848   1.385
 5476SOL     OW17326   1.228   3.560   6.270
 5476SOL    HW117327   1.237   3.589   6.366
 5476SOL    HW217328   1.291   3.484   6.252
 5477SOL     OW17329   1.865   3.053   2.166
 5477SOL    HW117330   1.940   3.115   2.143
 5477SOL    HW217331   1.779   3.103   2.165
 5478SOL     OW17332   6.684   6.132   6.332
 5478SOL    HW117333   6.656   6.199   6.263
 5478SOL    HW217334   6.655   6.040   6.302
 5479SOL     OW17335   4.482   0.357   4.454
 5479SOL    HW117336   4.415   0.292   4.490
 5479SOL    HW217337   4.475   0.443   4.505
 5480SOL     OW17338   0.458   3.019   4.918
 5480SOL    HW117339   0.433   2.937   4.970
 5480SOL    HW217340   0.380   3.082   4.917
 5481SOL     OW17341   4.717   6.717   3.914
 5481SOL    HW117342   4.745   6.813   3.921
 5481SOL    HW217343   4.654   6.706   3.837
 5482SOL     OW17344   1.523   4.264   2.324
 5482SOL    HW117345   1.463   4.332   2.368
 5482SOL    HW217346   1.582   4.222   2.393
 5483SOL     OW17347   0.850   2.749   6.176
 5483SOL    HW117348   0.901   2.824   6.218
 5483SOL    HW217349   0.842   2.764   6.078
 5484SOL     OW17350   4.871   6.953   5.180
 5484SOL    HW117351   4.872   7.007   5.096
 5484SOL    HW217352   4.937   6.992   5.245
 5485SOL     OW17353   3.369   0.029   4.810
 5485SOL    HW117354   3.323   0.042   4.722
 5485SOL    HW217355   3.307   7.008   4.873
 5486SOL     OW17356   2.464   5.323   4.566
 5486SOL    HW117357   2.421   5.238   4.535
 5486SOL    HW217358   2.538   5.301   4.630
 5487SOL     OW17359   3.358   5.324   5.362
 5487SOL    HW117360   3.393   5.328   5.268
 5487SOL    HW217361   3.270   5.372   5.367
 5488SOL     OW17362   5.485   2.184   0.830
 5488SOL    HW117363   5.575   2.155   0.863
 5488SOL    HW217364   5.421   2.187   0.907
 5489SOL     OW17365   0.035   3.530   3.713
 5489SOL    HW117366   0.109   3.547   3.648
 5489SOL    HW217367   0.034   3.602   3.783
 5490SOL     OW17368   1.288   5.827   2.901
 5490SOL    HW117369   1.236   5.812   2.985
 5490SOL    HW217370   1.245   5.777   2.826
 5491SOL     OW17371   6.303   4.302   0.427
 5491SOL    HW117372   6.225   4.347   0.471
 5491SOL    HW217373   6.384   4.311   0.485
 5492SOL     OW17374   7.016   1.873   6.353
 5492SOL    HW117375   7.004   1.906   6.260
 5492SOL    HW217376   0.065   1.921   6.397
 5493SOL     OW17377   4.013   3.986   0.456
 5493SOL    HW117378   4.041   4.037   0.375
 5493SOL    HW217379   4.028   3.888   0.441
 5494SOL     OW17380   5.951   3.178   5.499
 5494SOL    HW117381   5.954   3.267   5.544
 5494SOL    HW217382   5.902   3.112   5.557
 5495SOL     OW17383   5.809   6.917   0.477
 5495SOL    HW117384   5.835   6.989   0.413
 5495SOL    HW217385   5.823   6.827   0.435
 5496SOL     OW17386   4.198   0.018   4.952
 5496SOL    HW117387   4.248   0.035   5.038
 5496SOL    HW217388   4.214   0.093   4.889
 5497SOL     OW17389   0.621   0.412   4.853
 5497SOL    HW117390   0.720   0.396   4.857
 5497SOL    HW217391   0.584   0.368   4.771
 5498SOL     OW17392   0.132   5.568   1.282
 5498SOL    HW117393   0.123   5.469   1.286
 5498SOL    HW217394   0.085   5.603   1.201
 5499SOL     OW17395   2.057   0.261   4.850
 5499SOL    HW117396   2.109   0.183   4.814
 5499SOL    HW217397   2.039   0.326   4.776
 5500SOL     OW17398   2.920   0.510   1.402
 5500SOL    HW117399   2.983   0.561   1.345
 5500SOL    HW217400   2.838   0.565   1.420
 5501SOL     OW17401   3.909   3.448   6.925
 5501SOL    HW117402   3.973   3.432   6.849
 5501SOL    HW217403   3.832   3.384   6.918
 5502SOL     OW17404   4.872   3.053   6.464
 5502SOL    HW117405   4.921   2.981   6.514
 5502SOL    HW217406   4.921   3.139   6.474
 5503SOL     OW17407   5.825   3.341   1.019
 5503SOL    HW117408   5.842   3.253   1.063
 5503SOL    HW217409   5.773   3.400   1.081
 5504SOL     OW17410   3.902   1.971   7.021
 5504SOL    HW117411   3.990   1.943   0.031
 5504SOL    HW217412   3.861   2.039   0.054
 5505SOL     OW17413   3.176   4.847   3.330
 5505SOL    HW117414   3.087   4.833   3.285
 5505SOL    HW217415   3.172   4.813   3.423
 5506SOL     OW17416   6.344   2.798   6.020
 5506SOL    HW117417   6.442   2.801   6.039
 5506SOL    HW217418   6.327   2.834   5.928
 5507SOL     OW17419   3.445   7.021   6.790
 5507SOL    HW117420   3.513   0.067   6.794
 5507SOL    HW217421   3.424   6.990   6.883
 5508SOL     OW17422   0.342   0.848   6.134
 5508SOL    HW117423   0.362   0.824   6.039
 5508SOL    HW217424   0.397   0.928   6.160
 5509SOL     OW17425   6.418   5.039   0.467
 5509SOL    HW117426   6.473   4.955   0.471
 5509SOL    HW217427   6.478   5.118   0.454
 5510SOL     OW17428   4.998   5.158   6.654
 5510SOL    HW117429   5.001   5.128   6.749
 5510SOL    HW217430   5.086   5.139   6.610
 5511SOL     OW17431   0.627   2.625   6.048
 5511SOL    HW117432   0.560   2.597   6.116
 5511SOL    HW217433   0.710   2.657   6.095
 5512SOL     OW17434   2.210   0.413   2.364
 5512SOL    HW117435   2.184   0.506   2.339
 5512SOL    HW217436   2.269   0.374   2.294
 5513SOL     OW17437   3.777   4.733   6.917
 5513SOL    HW117438   3.862   4.748   6.968
 5513SOL    HW217439   3.773   4.638   6.887
 5514SOL     OW17440   3.640   0.803   0.202
 5514SOL    HW117441   3.701   0.864   0.151
 5514SOL    HW217442   3.688   0.766   0.282
 5515SOL     OW17443   2.703   5.557   2.418
 5515SOL    HW117444   2.760   5.560   2.336
 5515SOL    HW217445   2.643   5.637   2.419
 5516SOL     OW17446   1.865   2.113   5.649
 5516SOL    HW117447   1.948   2.164   5.626
 5516SOL    HW217448   1.803   2.172   5.701
 5517SOL     OW17449   1.402   2.067   3.167
 5517SOL    HW117450   1.372   1.980   3.128
 5517SOL    HW217451   1.450   2.121   3.098
 5518SOL     OW17452   4.815   5.350   6.779
 5518SOL    HW117453   4.841   5.439   6.741
 5518SOL    HW217454   4.869   5.278   6.736
 5519SOL     OW17455   4.997   2.488   4.815
 5519SOL    HW117456   5.072   2.530   4.765
 5519SOL    HW217457   5.028   2.403   4.857
 5520SOL     OW17458   4.511   0.637   1.564
 5520SOL    HW117459   4.574   0.641   1.641
 5520SOL    HW217460   4.417   0.635   1.598
 5521SOL     OW17461   4.562   6.387   2.653
 5521SOL    HW117462   4.467   6.359   2.667
 5521SOL    HW217463   4.597   6.343   2.570
 5522SOL     OW17464   5.899   6.072   0.648
 5522SOL    HW117465   5.997   6.092   0.651
 5522SOL    HW217466   5.860   6.078   0.740
 5523SOL     OW17467   5.436   1.772   0.724
 5523SOL    HW117468   5.337   1.788   0.719
 5523SOL    HW217469   5.484   1.850   0.684
 5524SOL     OW17470   2.378   1.265   3.811
 5524SOL    HW117471   2.346   1.257   3.717
 5524SOL    HW217472   2.400   1.174   3.847
 5525SOL     OW17473   6.294   0.849   1.091
 5525SOL    HW117474   6.311   0.782   1.018
 5525SOL    HW217475   6.256   0.933   1.052
 5526SOL     OW17476   5.375   5.165   3.911
 5526SOL    HW117477   5.413   5.132   3.825
 5526SOL    HW217478   5.275   5.171   3.903
 5527SOL     OW17479   6.039   0.445   3.156
 5527SOL    HW117480   6.016   0.394   3.073
 5527SOL    HW217481   6.123   0.409   3.196
 5528SOL     OW17482   1.316   1.934   6.879
 5528SOL    HW117483   1.345   2.005   6.944
 5528SOL    HW217484   1.291   1.852   6.930
 5529SOL     OW17485   3.631   0.865   2.544
 5529SOL    HW117486   3.704   0.930   2.527
 5529SOL    HW217487   3.588   0.839   2.457
 5530SOL     OW17488   6.990   1.848   1.005
 5530SOL    HW117489   6.898   1.810   1.004
 5530SOL    HW217490   0.025   1.788   0.953
 5531SOL     OW17491   2.106   4.095   1.709
 5531SOL    HW117492   2.181   4.085   1.774
 5531SOL    HW217493   2.047   4.014   1.714
 5532SOL     OW17494   0.717   2.927   6.838
 5532SOL    HW117495   0.814   2.901   6.837
 5532SOL    HW217496   0.666   2.866   6.777
 5533SOL     OW17497   3.795   1.223   2.680
 5533SOL    HW117498   3.883   1.177   2.684
 5533SOL    HW217499   3.750   1.201   2.593
 5534SOL     OW17500   1.071   0.379   4.440
 5534SOL    HW117501   1.076   0.280   4.454
 5534SOL    HW217502   1.112   0.402   4.352
 5535SOL     OW17503   0.331   2.096   2.913
 5535SOL    HW117504   0.250   2.154   2.906
 5535SOL    HW217505   0.408   2.140   2.867
 5536SOL     OW17506   4.847   6.414   4.388
 5536SOL    HW117507   4.834   6.479   4.313
 5536SOL    HW217508   4.789   6.334   4.373
 5537SOL     OW17509   3.127   2.030   3.844
 5537SOL    HW117510   3.182   2.024   3.761
 5537SOL    HW217511   3.145   1.951   3.902
 5538SOL     OW17512   4.699   4.969   4.248
 5538SOL    HW117513   4.639   5.022   4.187
 5538SOL    HW217514   4.689   5.003   4.341
 5539SOL     OW17515   2.404   4.619   0.093
 5539SOL    HW117516   2.351   4.649   0.172
 5539SOL    HW217517   2.496   4.659   0.097
 5540SOL     OW17518   4.231   5.399   2.078
 5540SOL    HW117519   4.179   5.462   2.020
 5540SOL    HW217520   4.175   5.374   2.157
 5541SOL     OW17521   4.075   1.125   6.072
 5541SOL    HW117522   4.047   1.216   6.041
 5541SOL    HW217523   4.146   1.089   6.012
 5542SOL     OW17524   5.324   4.355   6.705
 5542SOL    HW117525   5.413   4.315   6.726
 5542SOL    HW217526   5.253   4.306   6.756
 5543SOL     OW17527   0.644   2.222   4.850
 5543SOL    HW117528   0.715   2.156   4.824
 5543SOL    HW217529   0.627   2.215   4.948
 5544SOL     OW17530   5.451   0.864   6.953
 5544SOL    HW117531   5.549   0.878   6.968
 5544SOL    HW217532   5.409   0.950   6.925
 5545SOL     OW17533   2.645   2.486   1.911
 5545SOL    HW117534   2.745   2.486   1.913
 5545SOL    HW217535   2.609   2.450   1.998
 5546SOL     OW17536   4.185   4.841   5.871
 5546SOL    HW117537   4.105   4.884   5.912
 5546SOL    HW217538   4.189   4.863   5.774
 5547SOL     OW17539   3.559   5.988   4.134
 5547SOL    HW117540   3.514   6.065   4.089
 5547SOL    HW217541   3.563   5.911   4.070
 5548SOL     OW17542   0.489   2.168   4.336
 5548SOL    HW117543   0.583   2.191   4.312
 5548SOL    HW217544   0.446   2.245   4.382
 5549SOL     OW17545   3.410   5.245   6.869
 5549SOL    HW117546   3.477   5.171   6.858
 5549SOL    HW217547   3.454   5.333   6.851
 5550SOL     OW17548   2.717   6.021   2.333
 5550SOL    HW117549   2.800   6.054   2.288
 5550SOL    HW217550   2.637   6.059   2.287
 5551SOL     OW17551   0.961   1.301   3.049
 5551SOL    HW117552   0.867   1.315   3.020
 5551SOL    HW217553   0.966   1.293   3.148
 5552SOL     OW17554   0.986   2.548   1.975
 5552SOL    HW117555   0.957   2.453   1.965
 5552SOL    HW217556   0.921   2.608   1.928
 5553SOL     OW17557   4.448   6.092   6.510
 5553SOL    HW117558   4.372   6.070   6.571
 5553SOL    HW217559   4.424   6.172   6.455
 5554SOL     OW17560   3.559   1.322   4.499
 5554SOL    HW117561   3.600   1.248   4.445
 5554SOL    HW217562   3.468   1.342   4.465
 5555SOL     OW17563   0.900   6.157   1.461
 5555SOL    HW117564   0.926   6.160   1.558
 5555SOL    HW217565   0.962   6.097   1.412
 5556SOL     OW17566   0.894   0.845   4.392
 5556SOL    HW117567   0.988   0.879   4.389
 5556SOL    HW217568   0.831   0.917   4.363
 5557SOL     OW17569   2.636   0.678   3.075
 5557SOL    HW117570   2.626   0.638   3.166
 5557SOL    HW217571   2.698   0.621   3.020
 5558SOL     OW17572   4.943   2.421   5.518
 5558SOL    HW117573   5.006   2.432   5.441
 5558SOL    HW217574   4.887   2.503   5.527
 5559SOL     OW17575   1.915   0.792   1.209
 5559SOL    HW117576   1.970   0.726   1.260
 5559SOL    HW217577   1.871   0.854   1.273
 5560SOL     OW17578   0.316   1.090   4.437
 5560SOL    HW117579   0.230   1.090   4.487
 5560SOL    HW217580   0.392   1.076   4.500
 5561SOL     OW17581   1.672   3.924   2.216
 5561SOL    HW117582   1.646   4.002   2.160
 5561SOL    HW217583   1.609   3.915   2.293
 5562SOL     OW17584   3.078   2.151   6.934
 5562SOL    HW117585   3.021   2.153   7.016
 5562SOL    HW217586   3.026   2.187   6.857
 5563SOL     OW17587   4.071   4.327   1.663
 5563SOL    HW117588   3.977   4.360   1.651
 5563SOL    HW217589   4.133   4.405   1.661
 5564SOL     OW17590   5.068   2.085   1.414
 5564SOL    HW117591   5.074   2.018   1.341
 5564SOL    HW217592   5.160   2.106   1.448
 5565SOL     OW17593   2.531   2.709   5.233
 5565SOL    HW117594   2.496   2.704   5.327
 5565SOL    HW217595   2.502   2.796   5.192
 5566SOL     OW17596   2.149   4.028   0.456
 5566SOL    HW117597   2.102   3.939   0.457
 5566SOL    HW217598   2.191   4.044   0.545
 5567SOL     OW17599   1.650   5.382   3.059
 5567SOL    HW117600   1.603   5.452   3.004
 5567SOL    HW217601   1.587   5.306   3.077
 5568SOL     OW17602   3.798   2.794   0.188
 5568SOL    HW117603   3.723   2.733   0.163
 5568SOL    HW217604   3.777   2.887   0.158
 5569SOL     OW17605   4.691   1.876   6.515
 5569SOL    HW117606   4.595   1.894   6.535
 5569SOL    HW217607   4.748   1.945   6.561
 5570SOL     OW17608   1.479   3.252   5.160
 5570SOL    HW117609   1.462   3.239   5.062
 5570SOL    HW217610   1.392   3.249   5.210
 5571SOL     OW17611   6.672   4.600   6.566
 5571SOL    HW117612   6.676   4.673   6.634
 5571SOL    HW217613   6.588   4.608   6.513
 5572SOL     OW17614   0.288   3.288   4.945
 5572SOL    HW117615   0.285   3.292   5.044
 5572SOL    HW217616   0.353   3.356   4.910
 5573SOL     OW17617   0.139   3.965   0.222
 5573SOL    HW117618   0.204   4.026   0.268
 5573SOL    HW217619   0.112   4.005   0.135
 5574SOL     OW17620   1.617   0.039   3.851
 5574SOL    HW117621   1.535   0.081   3.890
 5574SOL    HW217622   1.591   6.992   3.788
 5575SOL     OW17623   1.120   1.109   2.138
 5575SOL    HW117624   1.180   1.186   2.157
 5575SOL    HW217625   1.083   1.118   2.046
 5576SOL     OW17626   5.584   6.688   5.700
 5576SOL    HW117627   5.659   6.753   5.686
 5576SOL    HW217628   5.558   6.687   5.797
 5577SOL     OW17629   2.491   4.608   4.700
 5577SOL    HW117630   2.582   4.647   4.700
 5577SOL    HW217631   2.460   4.595   4.795
 5578SOL     OW17632   3.178   2.182   6.315
 5578SOL    HW117633   3.127   2.266   6.330
 5578SOL    HW217634   3.134   2.128   6.243
 5579SOL     OW17635   5.210   5.150   2.078
 5579SOL    HW117636   5.193   5.246   2.099
 5579SOL    HW217637   5.260   5.143   1.991
 5580SOL     OW17638   5.248   1.262   1.345
 5580SOL    HW117639   5.170   1.201   1.328
 5580SOL    HW217640   5.256   1.278   1.443
 5581SOL     OW17641   2.900   2.608   0.581
 5581SOL    HW117642   2.804   2.583   0.591
 5581SOL    HW217643   2.910   2.667   0.500
 5582SOL     OW17644   3.876   3.070   3.115
 5582SOL    HW117645   3.884   2.997   3.048
 5582SOL    HW217646   3.784   3.110   3.111
 5583SOL     OW17647   4.382   0.622   7.014
 5583SOL    HW117648   4.375   0.635   0.087
 5583SOL    HW217649   4.339   0.700   6.968
 5584SOL     OW17650   4.954   3.359   3.523
 5584SOL    HW117651   5.024   3.332   3.590
 5584SOL    HW217652   4.914   3.277   3.482
 5585SOL     OW17653   0.695   0.005   3.671
 5585SOL    HW117654   0.654   0.091   3.639
 5585SOL    HW217655   0.727   0.017   3.765
 5586SOL     OW17656   2.531   1.272   6.746
 5586SOL    HW117657   2.619   1.253   6.703
 5586SOL    HW217658   2.512   1.370   6.742
 5587SOL     OW17659   2.875   6.380   3.671
 5587SOL    HW117660   2.900   6.461   3.724
 5587SOL    HW217661   2.909   6.298   3.717
 5588SOL     OW17662   5.076   6.902   6.529
 5588SOL    HW117663   5.022   6.970   6.480
 5588SOL    HW217664   5.096   6.935   6.621
 5589SOL     OW17665   2.440   3.871   0.593
 5589SOL    HW117666   2.411   3.817   0.514
 5589SOL    HW217667   2.383   3.849   0.672
 5590SOL     OW17668   6.677   0.250   3.634
 5590SOL    HW117669   6.641   0.162   3.665
 5590SOL    HW217670   6.723   0.296   3.710
 5591SOL     OW17671   5.520   0.162   0.720
 5591SOL    HW117672   5.587   0.140   0.791
 5591SOL    HW217673   5.433   0.185   0.762
 5592SOL     OW17674   1.284   2.723   2.232
 5592SOL    HW117675   1.273   2.691   2.326
 5592SOL    HW217676   1.255   2.651   2.169
 5593SOL     OW17677   2.333   4.547   4.913
 5593SOL    HW117678   2.282   4.493   4.981
 5593SOL    HW217679   2.330   4.644   4.938
 5594SOL     OW17680   3.179   1.545   6.837
 5594SOL    HW117681   3.204   1.489   6.758
 5594SOL    HW217682   3.185   1.642   6.812
 5595SOL     OW17683   0.687   2.883   6.506
 5595SOL    HW117684   0.637   2.950   6.561
 5595SOL    HW217685   0.718   2.926   6.421
 5596SOL     OW17686   4.890   3.227   4.585
 5596SOL    HW117687   4.815   3.165   4.562
 5596SOL    HW217688   4.864   3.282   4.664
 5597SOL     OW17689   6.611   1.597   6.834
 5597SOL    HW117690   6.685   1.536   6.864
 5597SOL    HW217691   6.550   1.547   6.773
 5598SOL     OW17692   6.476   1.162   3.849
 5598SOL    HW117693   6.573   1.141   3.859
 5598SOL    HW217694   6.451   1.234   3.914
 5599SOL     OW17695   5.396   2.948   3.191
 5599SOL    HW117696   5.490   2.938   3.225
 5599SOL    HW217697   5.394   3.021   3.122
 5600SOL     OW17698   2.012   2.775   1.880
 5600SOL    HW117699   2.035   2.695   1.824
 5600SOL    HW217700   1.913   2.786   1.882
 5601SOL     OW17701   5.820   2.781   5.739
 5601SOL    HW117702   5.872   2.859   5.775
 5601SOL    HW217703   5.728   2.781   5.778
 5602SOL     OW17704   5.935   2.012   2.872
 5602SOL    HW117705   5.933   1.949   2.950
 5602SOL    HW217706   5.929   1.960   2.787
 5603SOL     OW17707   3.499   2.300   6.492
 5603SOL    HW117708   3.462   2.213   6.458
 5603SOL    HW217709   3.528   2.288   6.587
 5604SOL     OW17710   1.338   5.997   3.447
 5604SOL    HW117711   1.341   5.898   3.457
 5604SOL    HW217712   1.247   6.024   3.415
 5605SOL     OW17713   4.383   0.438   3.972
 5605SOL    HW117714   4.417   0.427   4.065
 5605SOL    HW217715   4.374   0.348   3.929
 5606SOL     OW17716   4.565   3.599   0.827
 5606SOL    HW117717   4.513   3.625   0.908
 5606SOL    HW217718   4.554   3.501   0.809
 5607SOL     OW17719   6.834   2.407   3.310
 5607SOL    HW117720   6.906   2.422   3.242
 5607SOL    HW217721   6.789   2.494   3.330
 5608SOL     OW17722   5.468   0.229   4.055
 5608SOL    HW117723   5.482   0.191   3.963
 5608SOL    HW217724   5.373   0.260   4.064
 5609SOL     OW17725   6.631   0.641   0.401
 5609SOL    HW117726   6.678   0.640   0.490
 5609SOL    HW217727   6.542   0.685   0.411
 5610SOL     OW17728   5.956   5.989   5.783
 5610SOL    HW117729   5.903   5.926   5.840
 5610SOL    HW217730   6.049   5.997   5.820
 5611SOL     OW17731   6.444   3.870   1.993
 5611SOL    HW117732   6.532   3.911   2.017
 5611SOL    HW217733   6.396   3.928   1.928
 5612SOL     OW17734   4.058   1.872   1.164
 5612SOL    HW117735   4.105   1.932   1.229
 5612SOL    HW217736   3.978   1.832   1.209
 5613SOL     OW17737   6.204   5.186   5.675
 5613SOL    HW117738   6.198   5.090   5.705
 5613SOL    HW217739   6.241   5.190   5.582
 5614SOL     OW17740   4.932   1.847   5.104
 5614SOL    HW117741   4.966   1.762   5.064
 5614SOL    HW217742   4.928   1.839   5.204
 5615SOL     OW17743   0.719   2.874   3.196
 5615SOL    HW117744   0.756   2.850   3.286
 5615SOL    HW217745   0.795   2.890   3.132
 5616SOL     OW17746   1.318   3.369   1.640
 5616SOL    HW117747   1.390   3.438   1.645
 5616SOL    HW217748   1.359   3.278   1.646
 5617SOL     OW17749   0.913   5.370   6.284
 5617SOL    HW117750   0.881   5.281   6.318
 5617SOL    HW217751   0.940   5.427   6.361
 5618SOL     OW17752   4.543   0.006   2.748
 5618SOL    HW117753   4.507   0.050   2.666
 5618SOL    HW217754   4.484   6.956   2.774
 5619SOL     OW17755   3.377   3.197   3.246
 5619SOL    HW117756   3.327   3.141   3.313
 5619SOL    HW217757   3.322   3.278   3.223
 5620SOL     OW17758   5.311   4.527   4.791
 5620SOL    HW117759   5.371   4.454   4.821
 5620SOL    HW217760   5.226   4.488   4.756
 5621SOL     OW17761   1.074   3.052   6.783
 5621SOL    HW117762   1.076   2.988   6.706
 5621SOL    HW217763   1.039   3.006   6.864
 5622SOL     OW17764   4.802   6.037   3.745
 5622SOL    HW117765   4.774   6.023   3.650
 5622SOL    HW217766   4.749   5.978   3.805
 5623SOL     OW17767   4.496   4.426   3.853
 5623SOL    HW117768   4.527   4.461   3.941
 5623SOL    HW217769   4.406   4.384   3.863
 5624SOL     OW17770   4.978   3.765   3.915
 5624SOL    HW117771   4.993   3.763   4.014
 5624SOL    HW217772   4.985   3.860   3.882
 5625SOL     OW17773   3.052   6.244   6.243
 5625SOL    HW117774   3.111   6.286   6.312
 5625SOL    HW217775   3.088   6.155   6.217
 5626SOL     OW17776   1.337   5.442   6.551
 5626SOL    HW117777   1.381   5.520   6.507
 5626SOL    HW217778   1.396   5.361   6.543
 5627SOL     OW17779   1.100   5.716   0.884
 5627SOL    HW117780   1.038   5.673   0.819
 5627SOL    HW217781   1.181   5.658   0.896
 5628SOL     OW17782   1.731   2.790   0.010
 5628SOL    HW117783   1.710   2.886   7.018
 5628SOL    HW217784   1.829   2.780   0.026
 5629SOL     OW17785   6.566   3.773   4.197
 5629SOL    HW117786   6.522   3.716   4.267
 5629SOL    HW217787   6.613   3.714   4.132
 5630SOL     OW17788   1.405   3.969   0.607
 5630SOL    HW117789   1.423   4.061   0.642
 5630SOL    HW217790   1.492   3.924   0.585
 5631SOL     OW17791   3.690   0.654   1.942
 5631SOL    HW117792   3.778   0.643   1.989
 5631SOL    HW217793   3.618   0.665   2.010
 5632SOL     OW17794   4.119   5.834   6.980
 5632SOL    HW117795   4.218   5.837   6.987
 5632SOL    HW217796   4.086   5.746   7.015
 5633SOL     OW17797   1.131   5.795   5.566
 5633SOL    HW117798   1.098   5.850   5.490
 5633SOL    HW217799   1.075   5.813   5.647
 5634SOL     OW17800   2.681   0.839   1.887
 5634SOL    HW117801   2.625   0.841   1.804
 5634SOL    HW217802   2.621   0.837   1.968
 5635SOL     OW17803   3.734   0.924   2.105
 5635SOL    HW117804   3.749   1.023   2.105
 5635SOL    HW217805   3.727   0.892   2.010
 5636SOL     OW17806   5.580   0.606   5.490
 5636SOL    HW117807   5.633   0.551   5.555
 5636SOL    HW217808   5.581   0.701   5.519
 5637SOL     OW17809   4.954   6.707   4.660
 5637SOL    HW117810   4.895   6.639   4.705
 5637SOL    HW217811   4.907   6.795   4.659
 5638SOL     OW17812   6.983   5.425   0.442
 5638SOL    HW117813   6.893   5.403   0.480
 5638SOL    HW217814   0.007   5.340   0.426
 5639SOL     OW17815   3.489   0.134   1.971
 5639SOL    HW117816   3.454   0.228   1.964
 5639SOL    HW217817   3.418   0.075   2.009
 5640SOL     OW17818   3.049   6.853   3.709
 5640SOL    HW117819   3.034   6.952   3.714
 5640SOL    HW217820   2.961   6.807   3.699
 5641SOL     OW17821   6.647   4.557   3.611
 5641SOL    HW117822   6.644   4.603   3.522
 5641SOL    HW217823   6.585   4.604   3.675
 5642SOL     OW17824   2.060   3.381   6.369
 5642SOL    HW117825   2.118   3.304   6.395
 5642SOL    HW217826   2.055   3.446   6.444
 5643SOL     OW17827   6.196   2.625   3.917
 5643SOL    HW117828   6.134   2.547   3.903
 5643SOL    HW217829   6.269   2.622   3.849
 5644SOL     OW17830   3.826   0.437   6.168
 5644SOL    HW117831   3.873   0.377   6.102
 5644SOL    HW217832   3.799   0.383   6.248
 5645SOL     OW17833   5.778   6.518   3.139
 5645SOL    HW117834   5.694   6.475   3.106
 5645SOL    HW217835   5.755   6.585   3.210
 5646SOL     OW17836   6.320   0.119   3.678
 5646SOL    HW117837   6.230   0.081   3.699
 5646SOL    HW217838   6.322   0.216   3.703
 5647SOL     OW17839   6.810   3.725   6.541
 5647SOL    HW117840   6.726   3.755   6.588
 5647SOL    HW217841   6.884   3.718   6.607
 5648SOL     OW17842   2.479   1.799   4.204
 5648SOL    HW117843   2.478   1.899   4.200
 5648SOL    HW217844   2.386   1.766   4.218
 5649SOL     OW17845   0.991   0.560   5.713
 5649SOL    HW117846   0.936   0.576   5.631
 5649SOL    HW217847   1.010   0.648   5.757
 5650SOL     OW17848   6.917   5.247   5.258
 5650SOL    HW117849   6.970   5.168   5.289
 5650SOL    HW217850   6.971   5.302   5.195
 5651SOL     OW17851   6.203   1.578   2.492
 5651SOL    HW117852   6.122   1.619   2.450
 5651SOL    HW217853   6.175   1.514   2.564
 5652SOL     OW17854   5.500   4.239   0.092
 5652SOL    HW117855   5.520   4.244   7.021
 5652SOL    HW217856   5.586   4.243   0.144
 5653SOL     OW17857   2.062   5.710   0.117
 5653SOL    HW117858   2.063   5.636   0.185
 5653SOL    HW217859   2.072   5.798   0.165
 5654SOL     OW17860   1.579   6.521   0.064
 5654SOL    HW117861   1.482   6.538   0.082
 5654SOL    HW217862   1.590   6.430   0.024
 5655SOL     OW17863   6.302   5.162   2.873
 5655SOL    HW117864   6.208   5.194   2.859
 5655SOL    HW217865   6.319   5.151   2.971
 5656SOL     OW17866   3.558   5.461   6.867
 5656SOL    HW117867   3.555   5.488   6.963
 5656SOL    HW217868   3.654   5.449   6.839
 5657SOL     OW17869   4.646   5.257   1.916
 5657SOL    HW117870   4.567   5.314   1.892
 5657SOL    HW217871   4.663   5.264   2.014
 5658SOL     OW17872   5.073   6.533   6.002
 5658SOL    HW117873   5.126   6.611   5.971
 5658SOL    HW217874   5.134   6.464   6.041
 5659SOL     OW17875   2.914   3.629   3.288
 5659SOL    HW117876   2.957   3.687   3.357
 5659SOL    HW217877   2.922   3.672   3.198
 5660SOL     OW17878   7.018   6.328   1.566
 5660SOL    HW117879   6.966   6.409   1.593
 5660SOL    HW217880   6.965   6.246   1.585
 5661SOL     OW17881   6.370   5.722   4.342
 5661SOL    HW117882   6.461   5.751   4.373
 5661SOL    HW217883   6.355   5.627   4.368
 5662SOL     OW17884   1.831   5.061   5.009
 5662SOL    HW117885   1.926   5.090   4.992
 5662SOL    HW217886   1.776   5.141   5.033
 5663SOL     OW17887   2.419   4.086   1.363
 5663SOL    HW117888   2.463   4.170   1.395
 5663SOL    HW217889   2.375   4.103   1.275
 5664SOL     OW17890   6.817   6.047   1.986
 5664SOL    HW117891   6.820   6.080   2.081
 5664SOL    HW217892   6.857   5.956   1.981
 5665SOL     OW17893   1.161   1.344   5.868
 5665SOL    HW117894   1.219   1.421   5.894
 5665SOL    HW217895   1.133   1.353   5.773
 5666SOL     OW17896   5.704   5.608   0.059
 5666SOL    HW117897   5.744   5.699   0.065
 5666SOL    HW217898   5.767   5.547   0.010
 5667SOL     OW17899   5.882   4.583   2.563
 5667SOL    HW117900   5.910   4.508   2.504
 5667SOL    HW217901   5.839   4.655   2.508
 5668SOL     OW17902   6.107   2.999   6.328
 5668SOL    HW117903   6.184   3.019   6.267
 5668SOL    HW217904   6.067   2.911   6.302
 5669SOL     OW17905   0.329   3.253   4.492
 5669SOL    HW117906   0.387   3.172   4.488
 5669SOL    HW217907   0.233   3.225   4.499
 5670SOL     OW17908   1.453   3.706   2.568
 5670SOL    HW117909   1.408   3.632   2.619
 5670SOL    HW217910   1.538   3.672   2.529
 5671SOL     OW17911   0.888   0.818   5.377
 5671SOL    HW117912   0.962   0.806   5.311
 5671SOL    HW217913   0.916   0.885   5.446
 5672SOL     OW17914   5.154   4.090   5.998
 5672SOL    HW117915   5.078   4.121   5.942
 5672SOL    HW217916   5.131   4.101   6.094
 5673SOL     OW17917   1.633   6.879   0.788
 5673SOL    HW117918   1.617   6.974   0.760
 5673SOL    HW217919   1.699   6.877   0.863
 5674SOL     OW17920   6.895   3.393   1.515
 5674SOL    HW117921   6.906   3.374   1.417
 5674SOL    HW217922   6.901   3.491   1.531
 5675SOL     OW17923   3.950   0.879   6.230
 5675SOL    HW117924   3.973   0.927   6.315
 5675SOL    HW217925   3.988   0.928   6.152
 5676SOL     OW17926   3.099   6.871   1.498
 5676SOL    HW117927   3.011   6.874   1.545
 5676SOL    HW217928   3.117   6.778   1.466
 5677SOL     OW17929   6.818   0.357   3.146
 5677SOL    HW117930   6.905   0.349   3.194
 5677SOL    HW217931   6.779   0.265   3.133
 5678SOL     OW17932   1.374   5.726   3.481
 5678SOL    HW117933   1.415   5.689   3.564
 5678SOL    HW217934   1.392   5.664   3.404
 5679SOL     OW17935   3.147   5.440   5.657
 5679SOL    HW117936   3.172   5.401   5.745
 5679SOL    HW217937   3.211   5.515   5.635
 5680SOL     OW17938   1.707   6.877   6.566
 5680SOL    HW117939   1.729   6.795   6.619
 5680SOL    HW217940   1.684   6.952   6.629
 5681SOL     OW17941   2.741   4.426   6.991
 5681SOL    HW117942   2.770   4.338   6.955
 5681SOL    HW217943   2.697   4.414   0.054
 5682SOL     OW17944   1.507   3.476   4.411
 5682SOL    HW117945   1.497   3.557   4.353
 5682SOL    HW217946   1.596   3.433   4.393
 5683SOL     OW17947   3.925   3.756   5.025
 5683SOL    HW117948   3.883   3.666   5.040
 5683SOL    HW217949   3.879   3.801   4.949
 5684SOL     OW17950   3.110   3.179   2.912
 5684SOL    HW117951   3.043   3.245   2.945
 5684SOL    HW217952   3.200   3.222   2.907
 5685SOL     OW17953   0.335   5.716   1.933
 5685SOL    HW117954   0.332   5.721   1.833
 5685SOL    HW217955   0.430   5.716   1.963
 5686SOL     OW17956   3.556   4.839   0.011
 5686SOL    HW117957   3.640   4.810   6.990
 5686SOL    HW217958   3.485   4.769   7.024
 5687SOL     OW17959   4.346   5.528   6.330
 5687SOL    HW117960   4.353   5.430   6.312
 5687SOL    HW217961   4.407   5.578   6.268
 5688SOL     OW17962   5.749   1.844   2.031
 5688SOL    HW117963   5.835   1.802   2.061
 5688SOL    HW217964   5.748   1.849   1.931
 5689SOL     OW17965   4.280   3.570   6.123
 5689SOL    HW117966   4.226   3.521   6.192
 5689SOL    HW217967   4.377   3.550   6.137
 5690SOL     OW17968   4.156   6.436   2.478
 5690SOL    HW117969   4.202   6.457   2.392
 5690SOL    HW217970   4.093   6.510   2.501
 5691SOL     OW17971   3.205   0.396   3.976
 5691SOL    HW117972   3.129   0.331   3.978
 5691SOL    HW217973   3.187   0.470   4.040
 5692SOL     OW17974   5.515   2.870   6.129
 5692SOL    HW117975   5.600   2.827   6.100
 5692SOL    HW217976   5.529   2.916   6.217
 5693SOL     OW17977   4.885   2.446   2.255
 5693SOL    HW117978   4.871   2.453   2.354
 5693SOL    HW217979   4.874   2.351   2.226
 5694SOL     OW17980   1.239   1.737   4.065
 5694SOL    HW117981   1.294   1.792   4.128
 5694SOL    HW217982   1.297   1.668   4.022
 5695SOL     OW17983   1.900   3.351   3.544
 5695SOL    HW117984   1.911   3.450   3.533
 5695SOL    HW217985   1.871   3.311   3.457
 5696SOL     OW17986   3.052   0.586   5.956
 5696SOL    HW117987   3.086   0.512   6.014
 5696SOL    HW217988   3.037   0.552   5.863
 5697SOL     OW17989   6.508   3.931   0.142
 5697SOL    HW117990   6.415   3.934   0.176
 5697SOL    HW217991   6.562   4.003   0.186
 5698SOL     OW17992   1.150   4.076   3.420
 5698SOL    HW117993   1.217   4.149   3.414
 5698SOL    HW217994   1.195   3.992   3.450
 5699SOL     OW17995   6.874   2.547   5.124
 5699SOL    HW117996   6.925   2.522   5.207
 5699SOL    HW217997   6.777   2.530   5.139
 5700SOL     OW17998   0.832   5.751   3.738
 5700SOL    HW117999   0.806   5.674   3.680
 5700SOL    HW218000   0.848   5.832   3.682
 5701SOL     OW18001   5.396   4.157   2.266
 5701SOL    HW118002   5.482   4.178   2.313
 5701SOL    HW218003   5.387   4.213   2.184
 5702SOL     OW18004   2.728   0.169   6.930
 5702SOL    HW118005   2.791   0.235   6.970
 5702SOL    HW218006   2.739   0.080   6.975
 5703SOL     OW18007   4.785   4.195   1.916
 5703SOL    HW118008   4.698   4.243   1.931
 5703SOL    HW218009   4.851   4.224   1.985
 5704SOL     OW18010   5.023   4.262   3.572
 5704SOL    HW118011   5.027   4.179   3.516
 5704SOL    HW218012   5.077   4.250   3.655
 5705SOL     OW18013   6.255   1.796   3.040
 5705SOL    HW118014   6.261   1.759   3.133
 5705SOL    HW218015   6.158   1.806   3.015
 5706SOL     OW18016   2.037   1.227   6.561
 5706SOL    HW118017   1.971   1.265   6.625
 5706SOL    HW218018   1.990   1.170   6.493
 5707SOL     OW18019   2.937   1.436   6.898
 5707SOL    HW118020   3.030   1.464   6.876
 5707SOL    HW218021   2.901   1.495   6.970
 5708SOL     OW18022   6.745   0.242   1.245
 5708SOL    HW118023   6.782   0.280   1.159
 5708SOL    HW218024   6.755   0.143   1.245
 5709SOL     OW18025   1.317   2.065   1.528
 5709SOL    HW118026   1.321   2.034   1.623
 5709SOL    HW218027   1.399   2.118   1.506
 5710SOL     OW18028   3.312   4.628   6.517
 5710SOL    HW118029   3.275   4.608   6.426
 5710SOL    HW218030   3.368   4.710   6.512
 5711SOL     OW18031   5.481   1.013   4.879
 5711SOL    HW118032   5.529   0.925   4.882
 5711SOL    HW218033   5.454   1.040   4.971
 5712SOL     OW18034   6.789   6.326   6.834
 5712SOL    HW118035   6.842   6.241   6.833
 5712SOL    HW218036   6.713   6.318   6.770
 5713SOL     OW18037   0.153   2.762   2.743
 5713SOL    HW118038   0.246   2.793   2.725
 5713SOL    HW218039   0.155   2.665   2.770
 5714SOL     OW18040   2.295   0.597   6.241
 5714SOL    HW118041   2.348   0.677   6.211
 5714SOL    HW218042   2.312   0.521   6.179
 5715SOL     OW18043   1.406   6.984   3.561
 5715SOL    HW118044   1.364   0.037   3.604
 5715SOL    HW218045   1.485   7.014   3.506
 5716SOL     OW18046   1.856   2.217   4.984
 5716SOL    HW118047   1.816   2.308   4.973
 5716SOL    HW218048   1.881   2.203   5.079
 5717SOL     OW18049   0.710   3.654   6.765
 5717SOL    HW118050   0.661   3.695   6.842
 5717SOL    HW218051   0.802   3.628   6.794
 5718SOL     OW18052   2.510   5.388   5.563
 5718SOL    HW118053   2.538   5.294   5.544
 5718SOL    HW218054   2.581   5.451   5.529
 5719SOL     OW18055   2.089   0.644   0.998
 5719SOL    HW118056   2.117   0.735   0.970
 5719SOL    HW218057   1.996   0.648   1.035
 5720SOL     OW18058   1.062   5.743   3.937
 5720SOL    HW118059   1.045   5.688   4.018
 5720SOL    HW218060   1.013   5.704   3.858
 5721SOL     OW18061   6.916   4.574   0.836
 5721SOL    HW118062   6.870   4.647   0.784
 5721SOL    HW218063   6.851   4.502   0.857
 5722SOL     OW18064   5.593   1.372   4.093
 5722SOL    HW118065   5.647   1.353   4.011
 5722SOL    HW218066   5.534   1.452   4.077
 5723SOL     OW18067   1.212   4.410   1.209
 5723SOL    HW118068   1.183   4.362   1.291
 5723SOL    HW218069   1.272   4.351   1.155
 5724SOL     OW18070   4.795   2.392   5.807
 5724SOL    HW118071   4.769   2.324   5.876
 5724SOL    HW218072   4.894   2.406   5.809
 5725SOL     OW18073   5.223   6.268   5.584
 5725SOL    HW118074   5.180   6.356   5.606
 5725SOL    HW218075   5.267   6.275   5.494
 5726SOL     OW18076   4.625   4.021   5.512
 5726SOL    HW118077   4.566   4.029   5.432
 5726SOL    HW218078   4.720   4.035   5.484
 5727SOL     OW18079   5.595   2.259   4.140
 5727SOL    HW118080   5.639   2.200   4.073
 5727SOL    HW218081   5.601   2.355   4.110
 5728SOL     OW18082   4.758   0.532   5.416
 5728SOL    HW118083   4.745   0.588   5.499
 5728SOL    HW218084   4.830   0.573   5.360
 5729SOL     OW18085   1.319   2.927   4.572
 5729SOL    HW118086   1.284   2.835   4.586
 5729SOL    HW218087   1.369   2.931   4.485
 5730SOL     OW18088   3.911   5.101   0.443
 5730SOL    HW118089   3.925   5.132   0.537
 5730SOL    HW218090   3.858   5.170   0.393
 5731SOL     OW18091   4.538   1.618   4.752
 5731SOL    HW118092   4.494   1.529   4.761
 5731SOL    HW218093   4.493   1.671   4.681
 5732SOL     OW18094   5.642   3.984   4.120
 5732SOL    HW118095   5.582   4.002   4.043
 5732SOL    HW218096   5.733   4.021   4.101
 5733SOL     OW18097   2.807   0.209   1.673
 5733SOL    HW118098   2.889   0.266   1.682
 5733SOL    HW218099   2.766   0.196   1.763
 5734SOL     OW18100   1.459   6.572   6.270
 5734SOL    HW118101   1.392   6.556   6.197
 5734SOL    HW218102   1.543   6.520   6.250
 5735SOL     OW18103   5.505   1.024   1.740
 5735SOL    HW118104   5.565   0.979   1.805
 5735SOL    HW218105   5.438   0.958   1.705
 5736SOL     OW18106   6.145   4.044   6.403
 5736SOL    HW118107   6.194   3.988   6.470
 5736SOL    HW218108   6.193   4.041   6.316
 5737SOL     OW18109   5.443   6.058   2.236
 5737SOL    HW118110   5.454   6.096   2.328
 5737SOL    HW218111   5.346   6.051   2.214
 5738SOL     OW18112   2.469   0.872   1.092
 5738SOL    HW118113   2.549   0.881   1.152
 5738SOL    HW218114   2.404   0.809   1.133
 5739SOL     OW18115   2.700   0.746   5.977
 5739SOL    HW118116   2.630   0.807   6.015
 5739SOL    HW218117   2.788   0.767   6.021
 5740SOL     OW18118   4.940   3.704   2.740
 5740SOL    HW118119   5.003   3.673   2.668
 5740SOL    HW218120   4.925   3.631   2.806
 5741SOL     OW18121   1.325   3.271   4.416
 5741SOL    HW118122   1.379   3.356   4.412
 5741SOL    HW218123   1.387   3.193   4.415
 5742SOL     OW18124   5.964   6.675   3.023
 5742SOL    HW118125   6.029   6.699   3.096
 5742SOL    HW218126   5.902   6.604   3.057
 5743SOL     OW18127   3.799   5.667   0.228
 5743SOL    HW118128   3.792   5.682   0.130
 5743SOL    HW218129   3.798   5.755   0.276
 5744SOL     OW18130   5.206   6.068   3.637
 5744SOL    HW118131   5.286   6.113   3.675
 5744SOL    HW218132   5.157   6.132   3.578
 5745SOL     OW18133   0.927   2.808   2.419
 5745SOL    HW118134   0.913   2.746   2.342
 5745SOL    HW218135   0.934   2.755   2.504
 5746SOL     OW18136   5.322   0.442   2.829
 5746SOL    HW118137   5.333   0.403   2.737
 5746SOL    HW218138   5.340   0.371   2.897
 5747SOL     OW18139   1.699   6.613   1.121
 5747SOL    HW118140   1.636   6.597   1.046
 5747SOL    HW218141   1.652   6.596   1.208
 5748SOL     OW18142   6.648   6.482   0.256
 5748SOL    HW118143   6.622   6.491   0.160
 5748SOL    HW218144   6.710   6.405   0.266
 5749SOL     OW18145   1.960   5.974   5.999
 5749SOL    HW118146   2.053   6.010   6.005
 5749SOL    HW218147   1.963   5.877   5.974
 5750SOL     OW18148   6.783   2.721   4.308
 5750SOL    HW118149   6.838   2.673   4.376
 5750SOL    HW218150   6.801   2.819   4.313
 5751SOL     OW18151   1.025   3.788   4.524
 5751SOL    HW118152   1.105   3.848   4.532
 5751SOL    HW218153   0.992   3.763   4.615
 5752SOL     OW18154   5.399   0.659   0.192
 5752SOL    HW118155   5.356   0.604   0.121
 5752SOL    HW218156   5.441   0.740   0.151
 5753SOL     OW18157   3.391   4.083   4.552
 5753SOL    HW118158   3.352   4.141   4.623
 5753SOL    HW218159   3.382   3.987   4.579
 5754SOL     OW18160   0.050   6.159   1.153
 5754SOL    HW118161   7.018   6.109   1.217
 5754SOL    HW218162   0.131   6.192   1.201
 5755SOL     OW18163   0.976   3.507   6.763
 5755SOL    HW118164   0.934   3.417   6.774
 5755SOL    HW218165   1.053   3.516   6.826
 5756SOL     OW18166   6.367   6.072   2.006
 5756SOL    HW118167   6.268   6.060   2.003
 5756SOL    HW218168   6.403   6.028   2.088
 5757SOL     OW18169   6.849   1.250   3.631
 5757SOL    HW118170   6.816   1.158   3.651
 5757SOL    HW218171   6.780   1.299   3.578
 5758SOL     OW18172   6.039   6.515   2.843
 5758SOL    HW118173   5.993   6.560   2.766
 5758SOL    HW218174   6.033   6.573   2.924
 5759SOL     OW18175   2.886   0.159   2.625
 5759SOL    HW118176   2.848   0.113   2.545
 5759SOL    HW218177   2.813   0.179   2.691
 5760SOL     OW18178   1.352   2.602   7.009
 5760SOL    HW118179   1.397   2.513   7.014
 5760SOL    HW218180   1.390   2.663   0.052
 5761SOL     OW18181   6.458   6.739   4.701
 5761SOL    HW118182   6.489   6.716   4.609
 5761SOL    HW218183   6.537   6.759   4.759
 5762SOL     OW18184   0.932   5.496   6.054
 5762SOL    HW118185   0.867   5.570   6.073
 5762SOL    HW218186   0.957   5.450   6.139
 5763SOL     OW18187   5.559   0.115   0.457
 5763SOL    HW118188   5.648   0.142   0.419
 5763SOL    HW218189   5.564   0.117   0.557
 5764SOL     OW18190   4.508   6.498   4.223
 5764SOL    HW118191   4.476   6.488   4.318
 5764SOL    HW218192   4.602   6.530   4.223
 5765SOL     OW18193   6.450   4.903   2.185
 5765SOL    HW118194   6.458   4.866   2.277
 5765SOL    HW218195   6.354   4.927   2.167
 5766SOL     OW18196   0.764   1.264   4.098
 5766SOL    HW118197   0.745   1.184   4.156
 5766SOL    HW218198   0.861   1.287   4.104
 5767SOL     OW18199   4.223   6.365   6.879
 5767SOL    HW118200   4.300   6.304   6.859
 5767SOL    HW218201   4.143   6.337   6.827
 5768SOL     OW18202   0.770   1.178   5.180
 5768SOL    HW118203   0.693   1.120   5.154
 5768SOL    HW218204   0.739   1.271   5.195
 5769SOL     OW18205   1.595   3.133   5.938
 5769SOL    HW118206   1.628   3.097   6.025
 5769SOL    HW218207   1.540   3.215   5.954
 5770SOL     OW18208   1.863   4.278   2.161
 5770SOL    HW118209   1.834   4.341   2.233
 5770SOL    HW218210   1.843   4.319   2.072
 5771SOL     OW18211   2.946   4.782   3.711
 5771SOL    HW118212   2.922   4.847   3.639
 5771SOL    HW218213   2.901   4.807   3.796
 5772SOL     OW18214   3.268   6.903   3.009
 5772SOL    HW118215   3.307   6.853   2.932
 5772SOL    HW218216   3.341   6.928   3.073
 5773SOL     OW18217   5.665   1.324   2.516
 5773SOL    HW118218   5.761   1.315   2.490
 5773SOL    HW218219   5.621   1.394   2.460
 5774SOL     OW18220   0.675   6.663   2.900
 5774SOL    HW118221   0.734   6.668   2.820
 5774SOL    HW218222   0.709   6.592   2.962
 5775SOL     OW18223   6.401   4.929   1.691
 5775SOL    HW118224   6.381   4.844   1.642
 5775SOL    HW218225   6.476   4.914   1.755
 5776SOL     OW18226   2.408   1.121   4.360
 5776SOL    HW118227   2.355   1.106   4.277
 5776SOL    HW218228   2.392   1.213   4.395
 5777SOL     OW18229   1.913   6.707   1.895
 5777SOL    HW118230   1.844   6.664   1.837
 5777SOL    HW218231   1.869   6.775   1.954
 5778SOL     OW18232   7.019   0.647   1.174
 5778SOL    HW118233   0.076   0.700   1.186
 5778SOL    HW218234   6.953   0.673   1.244
 5779SOL     OW18235   5.705   1.235   6.673
 5779SOL    HW118236   5.631   1.217   6.738
 5779SOL    HW218237   5.779   1.170   6.687
 5780SOL     OW18238   5.287   4.738   4.016
 5780SOL    HW118239   5.247   4.829   4.029
 5780SOL    HW218240   5.350   4.719   4.091
 5781SOL     OW18241   1.323   5.512   5.817
 5781SOL    HW118242   1.256   5.546   5.883
 5781SOL    HW218243   1.316   5.565   5.733
 5782SOL     OW18244   0.575   0.878   6.994
 5782SOL    HW118245   0.631   0.922   0.038
 5782SOL    HW218246   0.618   0.792   6.967
 5783SOL     OW18247   2.355   2.340   0.449
 5783SOL    HW118248   2.429   2.282   0.415
 5783SOL    HW218249   2.297   2.287   0.511
 5784SOL     OW18250   6.933   6.088   6.904
 5784SOL    HW118251   6.958   6.063   6.997
 5784SOL    HW218252   7.015   6.101   6.849
 5785SOL     OW18253   1.299   1.212   0.311
 5785SOL    HW118254   1.239   1.228   0.389
 5785SOL    HW218255   1.378   1.157   0.339
 5786SOL     OW18256   6.345   5.380   1.443
 5786SOL    HW118257   6.403   5.408   1.367
 5786SOL    HW218258   6.402   5.343   1.517
 5787SOL     OW18259   2.316   3.000   6.409
 5787SOL    HW118260   2.395   2.941   6.425
 5787SOL    HW218261   2.277   2.982   6.319
 5788SOL     OW18262   3.262   0.563   3.625
 5788SOL    HW118263   3.277   0.576   3.527
 5788SOL    HW218264   3.281   0.467   3.649
 5789SOL     OW18265   4.064   4.879   6.398
 5789SOL    HW118266   4.033   4.836   6.313
 5789SOL    HW218267   4.038   4.975   6.398
 5790SOL     OW18268   1.300   3.234   3.340
 5790SOL    HW118269   1.308   3.136   3.356
 5790SOL    HW218270   1.208   3.255   3.306
 5791SOL     OW18271   2.237   0.575   3.161
 5791SOL    HW118272   2.227   0.663   3.209
 5791SOL    HW218273   2.172   0.509   3.199
 5792SOL     OW18274   6.922   2.777   2.724
 5792SOL    HW118275   7.019   2.793   2.745
 5792SOL    HW218276   6.884   2.712   2.790
 5793SOL     OW18277   0.095   0.991   4.001
 5793SOL    HW118278   0.035   1.015   4.078
 5793SOL    HW218279   0.039   0.973   3.920
 5794SOL     OW18280   5.413   4.924   6.107
 5794SOL    HW118281   5.374   4.853   6.166
 5794SOL    HW218282   5.356   5.006   6.114
 5795SOL     OW18283   5.586   4.284   6.434
 5795SOL    HW118284   5.647   4.336   6.495
 5795SOL    HW218285   5.639   4.212   6.389
 5796SOL     OW18286   3.415   2.657   0.688
 5796SOL    HW118287   3.472   2.595   0.742
 5796SOL    HW218288   3.332   2.609   0.660
 5797SOL     OW18289   3.458   3.065   5.933
 5797SOL    HW118290   3.551   3.091   5.910
 5797SOL    HW218291   3.459   3.001   6.010
 5798SOL     OW18292   6.931   5.317   4.539
 5798SOL    HW118293   6.891   5.407   4.521
 5798SOL    HW218294   0.001   5.328   4.561
 5799SOL     OW18295   5.306   0.779   3.471
 5799SOL    HW118296   5.362   0.791   3.389
 5799SOL    HW218297   5.337   0.699   3.522
 5800SOL     OW18298   5.911   5.358   0.188
 5800SOL    HW118299   5.926   5.363   0.090
 5800SOL    HW218300   5.936   5.445   0.231
 5801SOL     OW18301   2.278   0.951   2.730
 5801SOL    HW118302   2.298   0.909   2.819
 5801SOL    HW218303   2.355   0.936   2.668
 5802SOL     OW18304   0.364   2.376   4.450
 5802SOL    HW118305   0.314   2.462   4.442
 5802SOL    HW218306   0.366   2.347   4.546
 5803SOL     OW18307   1.638   5.092   0.632
 5803SOL    HW118308   1.574   5.150   0.682
 5803SOL    HW218309   1.631   5.112   0.534
 5804SOL     OW18310   6.516   3.117   5.796
 5804SOL    HW118311   6.441   3.151   5.853
 5804SOL    HW218312   6.485   3.114   5.700
 5805SOL     OW18313   5.956   3.295   6.880
 5805SOL    HW118314   5.906   3.223   6.928
 5805SOL    HW218315   5.894   3.343   6.817
 5806SOL     OW18316   0.349   6.876   6.879
 5806SOL    HW118317   0.342   6.854   6.976
 5806SOL    HW218318   0.414   6.952   6.866
 5807SOL     OW18319   2.022   3.571   2.048
 5807SOL    HW118320   2.056   3.597   2.138
 5807SOL    HW218321   2.084   3.504   2.007
 5808SOL     OW18322   6.528   2.244   3.137
 5808SOL    HW118323   6.530   2.309   3.061
 5808SOL    HW218324   6.461   2.172   3.118
 5809SOL     OW18325   6.687   3.084   4.043
 5809SOL    HW118326   6.749   3.043   3.976
 5809SOL    HW218327   6.685   3.183   4.031
 5810SOL     OW18328   2.374   2.342   2.731
 5810SOL    HW118329   2.351   2.413   2.664
 5810SOL    HW218330   2.304   2.271   2.728
 5811SOL     OW18331   2.768   1.365   2.647
 5811SOL    HW118332   2.677   1.324   2.659
 5811SOL    HW218333   2.759   1.464   2.641
 5812SOL     OW18334   4.466   0.592   4.589
 5812SOL    HW118335   4.380   0.624   4.627
 5812SOL    HW218336   4.512   0.668   4.542
 5813SOL     OW18337   1.354   1.082   5.281
 5813SOL    HW118338   1.404   1.136   5.348
 5813SOL    HW218339   1.419   1.037   5.219
 5814SOL     OW18340   0.456   4.996   0.976
 5814SOL    HW118341   0.391   4.995   0.899
 5814SOL    HW218342   0.463   4.905   1.015
 5815SOL     OW18343   3.552   1.204   3.424
 5815SOL    HW118344   3.495   1.127   3.394
 5815SOL    HW218345   3.513   1.289   3.388
 5816SOL     OW18346   5.050   6.756   1.204
 5816SOL    HW118347   5.113   6.693   1.249
 5816SOL    HW218348   5.086   6.782   1.114
 5817SOL     OW18349   5.249   2.220   5.461
 5817SOL    HW118350   5.166   2.231   5.515
 5817SOL    HW218351   5.326   2.200   5.522
 5818SOL     OW18352   6.158   6.520   5.685
 5818SOL    HW118353   6.255   6.539   5.669
 5818SOL    HW218354   6.121   6.468   5.608
 5819SOL     OW18355   5.721   0.241   0.947
 5819SOL    HW118356   5.751   0.336   0.942
 5819SOL    HW218357   5.682   0.223   1.037
 5820SOL     OW18358   6.261   6.085   3.014
 5820SOL    HW118359   6.170   6.053   3.041
 5820SOL    HW218360   6.330   6.047   3.075
 5821SOL     OW18361   3.707   0.153   2.119
 5821SOL    HW118362   3.717   0.241   2.165
 5821SOL    HW218363   3.621   0.153   2.067
 5822SOL     OW18364   0.766   1.135   2.655
 5822SOL    HW118365   0.676   1.119   2.696
 5822SOL    HW218366   0.833   1.151   2.728
 5823SOL     OW18367   2.418   2.732   4.161
 5823SOL    HW118368   2.347   2.672   4.124
 5823SOL    HW218369   2.384   2.775   4.244
 5824SOL     OW18370   4.269   0.711   3.723
 5824SOL    HW118371   4.213   0.685   3.801
 5824SOL    HW218372   4.293   0.629   3.671
 5825SOL     OW18373   2.724   1.090   0.690
 5825SOL    HW118374   2.678   1.008   0.657
 5825SOL    HW218375   2.679   1.123   0.773
 5826SOL     OW18376   6.335   0.456   4.744
 5826SOL    HW118377   6.400   0.390   4.781
 5826SOL    HW218378   6.246   0.446   4.790
 5827SOL     OW18379   0.927   5.085   5.032
 5827SOL    HW118380   0.828   5.086   5.043
 5827SOL    HW218381   0.958   4.991   5.018
 5828SOL     OW18382   6.785   3.072   1.842
 5828SOL    HW118383   6.786   2.972   1.843
 5828SOL    HW218384   6.701   3.103   1.797
 5829SOL     OW18385   1.263   1.429   1.934
 5829SOL    HW118386   1.292   1.491   1.861
 5829SOL    HW218387   1.163   1.432   1.943
 5830SOL     OW18388   2.384   1.019   5.528
 5830SOL    HW118389   2.332   1.045   5.610
 5830SOL    HW218390   2.398   0.920   5.527
 5831SOL     OW18391   5.849   6.102   3.079
 5831SOL    HW118392   5.834   6.153   2.994
 5831SOL    HW218393   5.760   6.077   3.119
 5832SOL     OW18394   3.464   3.552   4.833
 5832SOL    HW118395   3.463   3.541   4.734
 5832SOL    HW218396   3.506   3.640   4.856
 5833SOL     OW18397   3.526   3.219   4.865
 5833SOL    HW118398   3.442   3.216   4.812
 5833SOL    HW218399   3.569   3.309   4.854
 5834SOL     OW18400   6.251   0.684   0.163
 5834SOL    HW118401   6.215   0.733   0.083
 5834SOL    HW218402   6.337   0.640   0.138
 5835SOL     OW18403   5.165   2.635   4.001
 5835SOL    HW118404   5.074   2.634   3.958
 5835SOL    HW218405   5.159   2.677   4.091
 5836SOL     OW18406   3.549   6.220   2.308
 5836SOL    HW118407   3.580   6.172   2.390
 5836SOL    HW218408   3.619   6.215   2.237
 5837SOL     OW18409   4.892   4.759   6.251
 5837SOL    HW118410   4.930   4.851   6.256
 5837SOL    HW218411   4.910   4.710   6.336
 5838SOL     OW18412   0.256   2.183   5.353
 5838SOL    HW118413   0.322   2.110   5.335
 5838SOL    HW218414   0.184   2.150   5.413
 5839SOL     OW18415   6.984   3.157   2.713
 5839SOL    HW118416   6.901   3.184   2.665
 5839SOL    HW218417   0.006   3.088   2.659
 5840SOL     OW18418   2.072   5.219   0.085
 5840SOL    HW118419   2.112   5.128   0.098
 5840SOL    HW218420   1.983   5.210   0.041
 5841SOL     OW18421   6.435   2.281   2.610
 5841SOL    HW118422   6.468   2.374   2.624
 5841SOL    HW218423   6.368   2.259   2.681
 5842SOL     OW18424   4.106   3.038   0.478
 5842SOL    HW118425   4.075   3.027   0.573
 5842SOL    HW218426   4.105   3.135   0.454
 5843SOL     OW18427   1.653   2.636   1.584
 5843SOL    HW118428   1.736   2.690   1.583
 5843SOL    HW218429   1.574   2.696   1.596
 5844SOL     OW18430   0.871   6.288   6.991
 5844SOL    HW118431   0.782   6.258   6.959
 5844SOL    HW218432   0.930   6.209   7.006
 5845SOL     OW18433   1.124   2.092   4.540
 5845SOL    HW118434   1.106   1.998   4.509
 5845SOL    HW218435   1.037   2.141   4.547
 5846SOL     OW18436   0.398   3.250   6.419
 5846SOL    HW118437   0.338   3.326   6.394
 5846SOL    HW218438   0.398   3.182   6.347
 5847SOL     OW18439   1.747   2.156   3.471
 5847SOL    HW118440   1.801   2.209   3.406
 5847SOL    HW218441   1.766   2.058   3.458
 5848SOL     OW18442   1.398   5.017   3.680
 5848SOL    HW118443   1.368   5.097   3.629
 5848SOL    HW218444   1.460   5.045   3.753
 5849SOL     OW18445   3.388   6.752   5.438
 5849SOL    HW118446   3.442   6.735   5.520
 5849SOL    HW218447   3.291   6.735   5.458
 5850SOL     OW18448   1.110   3.847   3.144
 5850SOL    HW118449   1.132   3.907   3.222
 5850SOL    HW218450   1.109   3.902   3.060
 5851SOL     OW18451   5.360   3.066   2.130
 5851SOL    HW118452   5.289   3.051   2.060
 5851SOL    HW218453   5.450   3.050   2.090
 5852SOL     OW18454   3.925   5.666   2.577
 5852SOL    HW118455   3.953   5.625   2.490
 5852SOL    HW218456   3.922   5.595   2.647
 5853SOL     OW18457   3.833   4.078   5.471
 5853SOL    HW118458   3.740   4.098   5.437
 5853SOL    HW218459   3.862   3.989   5.437
 5854SOL     OW18460   0.500   1.103   6.688
 5854SOL    HW118461   0.477   1.122   6.783
 5854SOL    HW218462   0.565   1.027   6.684
 5855SOL     OW18463   1.499   0.903   5.072
 5855SOL    HW118464   1.421   0.907   5.009
 5855SOL    HW218465   1.575   0.955   5.034
 5856SOL     OW18466   2.495   5.424   3.724
 5856SOL    HW118467   2.433   5.346   3.723
 5856SOL    HW218468   2.444   5.506   3.749
 5857SOL     OW18469   0.320   2.784   6.081
 5857SOL    HW118470   0.241   2.808   6.026
 5857SOL    HW218471   0.395   2.755   6.022
 5858SOL     OW18472   3.474   6.479   3.119
 5858SOL    HW118473   3.494   6.568   3.078
 5858SOL    HW218474   3.474   6.488   3.219
 5859SOL     OW18475   6.617   5.660   1.488
 5859SOL    HW118476   6.678   5.619   1.421
 5859SOL    HW218477   6.570   5.588   1.540
 5860SOL     OW18478   1.625   3.586   1.473
 5860SOL    HW118479   1.616   3.555   1.568
 5860SOL    HW218480   1.718   3.570   1.441
 5861SOL     OW18481   6.122   2.032   3.690
 5861SOL    HW118482   6.160   2.020   3.782
 5861SOL    HW218483   6.160   2.114   3.649
 5862SOL     OW18484   4.749   4.296   3.457
 5862SOL    HW118485   4.840   4.287   3.497
 5862SOL    HW218486   4.729   4.216   3.401
 5863SOL     OW18487   1.715   1.339   0.805
 5863SOL    HW118488   1.634   1.359   0.749
 5863SOL    HW218489   1.794   1.324   0.745
 5864SOL     OW18490   4.356   5.337   0.675
 5864SOL    HW118491   4.381   5.249   0.634
 5864SOL    HW218492   4.416   5.408   0.640
 5865SOL     OW18493   4.474   1.120   3.315
 5865SOL    HW118494   4.458   1.112   3.216
 5865SOL    HW218495   4.517   1.037   3.349
 5866SOL     OW18496   3.390   0.913   6.640
 5866SOL    HW118497   3.403   0.907   6.739
 5866SOL    HW218498   3.292   0.905   6.619
 5867SOL     OW18499   0.300   2.645   0.535
 5867SOL    HW118500   0.291   2.705   0.614
 5867SOL    HW218501   0.233   2.672   0.465
 5868SOL     OW18502   1.150   6.994   4.811
 5868SOL    HW118503   1.084   0.042   4.809
 5868SOL    HW218504   1.191   6.983   4.720
 5869SOL     OW18505   3.189   5.053   3.612
 5869SOL    HW118506   3.200   5.112   3.532
 5869SOL    HW218507   3.093   5.027   3.621
 5870SOL     OW18508   5.273   4.963   4.691
 5870SOL    HW118509   5.350   4.956   4.754
 5870SOL    HW218510   5.277   4.888   4.625
 5871SOL     OW18511   2.622   3.168   0.007
 5871SOL    HW118512   2.594   3.204   0.096
 5871SOL    HW218513   2.607   3.069   0.005
 5872SOL     OW18514   3.820   5.958   4.291
 5872SOL    HW118515   3.740   5.933   4.236
 5872SOL    HW218516   3.794   6.029   4.356
 5873SOL     OW18517   2.241   3.566   6.959
 5873SOL    HW118518   2.210   3.473   6.975
 5873SOL    HW218519   2.252   3.581   6.861
 5874SOL     OW18520   1.562   4.393   0.234
 5874SOL    HW118521   1.652   4.437   0.236
 5874SOL    HW218522   1.528   4.390   0.140
 5875SOL     OW18523   4.673   2.233   0.062
 5875SOL    HW118524   4.702   2.291   0.138
 5875SOL    HW218525   4.609   2.284   0.003
 5876SOL     OW18526   3.805   4.310   6.260
 5876SOL    HW118527   3.733   4.357   6.209
 5876SOL    HW218528   3.832   4.228   6.211
 5877SOL     OW18529   6.392   0.171   2.203
 5877SOL    HW118530   6.406   0.127   2.292
 5877SOL    HW218531   6.415   0.106   2.131
 5878SOL     OW18532   5.066   4.708   2.192
 5878SOL    HW118533   5.003   4.763   2.247
 5878SOL    HW218534   5.100   4.763   2.116
 5879SOL     OW18535   3.509   3.311   5.604
 5879SOL    HW118536   3.414   3.339   5.615
 5879SOL    HW218537   3.513   3.227   5.549
 5880SOL     OW18538   5.985   2.813   6.166
 5880SOL    HW118539   6.004   2.715   6.165
 5880SOL    HW218540   6.000   2.851   6.075
 5881SOL     OW18541   1.394   6.377   2.430
 5881SOL    HW118542   1.383   6.425   2.343
 5881SOL    HW218543   1.390   6.443   2.505
 5882SOL     OW18544   1.762   4.921   5.666
 5882SOL    HW118545   1.672   4.948   5.633
 5882SOL    HW218546   1.798   4.990   5.728
 5883SOL     OW18547   6.231   5.054   0.187
 5883SOL    HW118548   6.298   5.000   0.136
 5883SOL    HW218549   6.256   5.056   0.284
 5884SOL     OW18550   7.023   1.191   2.642
 5884SOL    HW118551   6.962   1.192   2.721
 5884SOL    HW218552   0.031   1.283   2.625
 5885SOL     OW18553   0.048   5.271   0.830
 5885SOL    HW118554   0.121   5.327   0.868
 5885SOL    HW218555   6.990   5.288   0.880
 5886SOL     OW18556   1.937   4.257   3.671
 5886SOL    HW118557   1.978   4.205   3.746
 5886SOL    HW218558   1.837   4.257   3.681
 5887SOL     OW18559   2.343   3.149   0.759
 5887SOL    HW118560   2.316   3.214   0.830
 5887SOL    HW218561   2.427   3.102   0.787
 5888SOL     OW18562   2.684   6.496   1.615
 5888SOL    HW118563   2.766   6.488   1.559
 5888SOL    HW218564   2.701   6.460   1.706
 5889SOL     OW18565   6.136   1.009   2.136
 5889SOL    HW118566   6.146   1.107   2.118
 5889SOL    HW218567   6.217   0.961   2.103
 5890SOL     OW18568   2.257   5.117   3.373
 5890SOL    HW118569   2.251   5.026   3.415
 5890SOL    HW218570   2.302   5.180   3.436
 5891SOL     OW18571   2.317   3.696   6.578
 5891SOL    HW118572   2.353   3.746   6.499
 5891SOL    HW218573   2.250   3.628   6.547
 5892SOL     OW18574   0.806   3.039   0.279
 5892SOL    HW118575   0.716   3.083   0.279
 5892SOL    HW218576   0.847   3.047   0.370
 5893SOL     OW18577   0.809   6.572   0.978
 5893SOL    HW118578   0.866   6.499   0.941
 5893SOL    HW218579   0.792   6.640   0.907
 5894SOL     OW18580   1.758   6.032   6.954
 5894SOL    HW118581   1.766   6.013   6.856
 5894SOL    HW218582   1.847   6.023   6.998
 5895SOL     OW18583   5.406   4.256   3.260
 5895SOL    HW118584   5.495   4.218   3.284
 5895SOL    HW218585   5.363   4.295   3.341
 5896SOL     OW18586   5.616   2.467   2.022
 5896SOL    HW118587   5.610   2.564   2.045
 5896SOL    HW218588   5.529   2.422   2.040
 5897SOL     OW18589   3.651   2.219   0.591
 5897SOL    HW118590   3.703   2.142   0.626
 5897SOL    HW218591   3.706   2.270   0.525
 5898SOL     OW18592   2.290   1.392   6.468
 5898SOL    HW118593   2.361   1.349   6.413
 5898SOL    HW218594   2.231   1.321   6.507
 5899SOL     OW18595   0.408   6.461   6.571
 5899SOL    HW118596   0.502   6.472   6.602
 5899SOL    HW218597   0.347   6.462   6.650
 5900SOL     OW18598   6.105   6.268   2.664
 5900SOL    HW118599   6.129   6.324   2.743
 5900SOL    HW218600   6.185   6.257   2.605
 5901SOL     OW18601   2.391   0.781   4.850
 5901SOL    HW118602   2.464   0.795   4.783
 5901SOL    HW218603   2.431   0.779   4.942
 5902SOL     OW18604   4.307   3.750   5.789
 5902SOL    HW118605   4.283   3.802   5.871
 5902SOL    HW218606   4.288   3.653   5.805
 5903SOL     OW18607   6.365   1.888   5.469
 5903SOL    HW118608   6.268   1.913   5.476
 5903SOL    HW218609   6.403   1.927   5.385
 5904SOL     OW18610   0.741   5.164   1.573
 5904SOL    HW118611   0.759   5.083   1.627
 5904SOL    HW218612   0.657   5.208   1.605
 5905SOL     OW18613   5.713   1.948   4.343
 5905SOL    HW118614   5.720   2.043   4.313
 5905SOL    HW218615   5.630   1.908   4.305
 5906SOL     OW18616   4.377   1.510   6.088
 5906SOL    HW118617   4.411   1.519   6.182
 5906SOL    HW218618   4.376   1.414   6.062
 5907SOL     OW18619   1.185   3.517   5.993
 5907SOL    HW118620   1.174   3.529   6.092
 5907SOL    HW218621   1.246   3.588   5.958
 5908SOL     OW18622   4.568   4.086   6.463
 5908SOL    HW118623   4.624   4.135   6.531
 5908SOL    HW218624   4.554   4.145   6.383
 5909SOL     OW18625   6.456   4.674   3.797
 5909SOL    HW118626   6.494   4.727   3.873
 5909SOL    HW218627   6.400   4.734   3.740
 5910SOL     OW18628   3.394   4.646   0.617
 5910SOL    HW118629   3.390   4.614   0.522
 5910SOL    HW218630   3.447   4.581   0.672
 5911SOL     OW18631   6.370   6.948   6.966
 5911SOL    HW118632   6.314   6.868   6.989
 5911SOL    HW218633   6.422   6.976   0.020
 5912SOL     OW18634   0.748   3.536   4.996
 5912SOL    HW118635   0.763   3.483   4.912
 5912SOL    HW218636   0.816   3.609   5.002
 5913SOL     OW18637   1.473   2.211   4.646
 5913SOL    HW118638   1.402   2.257   4.699
 5913SOL    HW218639   1.529   2.155   4.708
 5914SOL     OW18640   1.756   6.099   0.819
 5914SOL    HW118641   1.812   6.053   0.887
 5914SOL    HW218642   1.717   6.182   0.859
 5915SOL     OW18643   5.517   2.986   4.347
 5915SOL    HW118644   5.502   3.034   4.261
 5915SOL    HW218645   5.582   3.038   4.403
 5916SOL     OW18646   3.320   0.016   6.132
 5916SOL    HW118647   3.310   0.104   6.177
 5916SOL    HW218648   3.383   6.985   6.184
 5917SOL     OW18649   3.424   4.145   2.381
 5917SOL    HW118650   3.450   4.058   2.424
 5917SOL    HW218651   3.495   4.173   2.317
 5918SOL     OW18652   2.589   2.550   3.975
 5918SOL    HW118653   2.558   2.476   4.035
 5918SOL    HW218654   2.591   2.636   4.027
 5919SOL     OW18655   1.515   2.329   6.886
 5919SOL    HW118656   1.526   2.317   6.984
 5919SOL    HW218657   1.429   2.289   6.856
 5920SOL     OW18658   2.329   5.484   0.024
 5920SOL    HW118659   2.281   5.487   6.963
 5920SOL    HW218660   2.406   5.419   0.018
 5921SOL     OW18661   3.515   5.460   5.809
 5921SOL    HW118662   3.467   5.415   5.733
 5921SOL    HW218663   3.494   5.413   5.894
 5922SOL     OW18664   5.928   4.551   1.318
 5922SOL    HW118665   5.925   4.474   1.382
 5922SOL    HW218666   5.836   4.588   1.305
 5923SOL     OW18667   6.576   0.799   3.671
 5923SOL    HW118668   6.551   0.815   3.766
 5923SOL    HW218669   6.633   0.717   3.665
 5924SOL     OW18670   5.966   1.422   4.981
 5924SOL    HW118671   5.895   1.379   4.925
 5924SOL    HW218672   5.954   1.522   4.979
 5925SOL     OW18673   6.329   5.662   0.617
 5925SOL    HW118674   6.278   5.745   0.595
 5925SOL    HW218675   6.267   5.583   0.611
 5926SOL     OW18676   3.110   5.350   2.574
 5926SOL    HW118677   3.188   5.310   2.622
 5926SOL    HW218678   3.104   5.311   2.482
 5927SOL     OW18679   2.414   5.344   2.343
 5927SOL    HW118680   2.456   5.253   2.342
 5927SOL    HW218681   2.456   5.400   2.414
 5928SOL     OW18682   0.624   6.473   1.487
 5928SOL    HW118683   0.639   6.407   1.413
 5928SOL    HW218684   0.641   6.566   1.453
 5929SOL     OW18685   1.319   0.081   5.459
 5929SOL    HW118686   1.278   7.016   5.457
 5929SOL    HW218687   1.419   0.072   5.459
 5930SOL     OW18688   6.505   1.220   5.040
 5930SOL    HW118689   6.562   1.213   4.958
 5930SOL    HW218690   6.521   1.141   5.099
 5931SOL     OW18691   5.754   5.178   1.356
 5931SOL    HW118692   5.823   5.250   1.363
 5931SOL    HW218693   5.665   5.219   1.337
 5932SOL     OW18694   2.524   0.285   0.258
 5932SOL    HW118695   2.466   0.259   0.335
 5932SOL    HW218696   2.518   0.383   0.242
 5933SOL     OW18697   5.982   3.547   2.851
 5933SOL    HW118698   5.966   3.594   2.765
 5933SOL    HW218699   5.987   3.613   2.926
 5934SOL     OW18700   3.352   3.850   2.309
 5934SOL    HW118701   3.355   3.770   2.249
 5934SOL    HW218702   3.431   3.847   2.371
 5935SOL     OW18703   4.012   3.816   3.005
 5935SOL    HW118704   4.027   3.795   3.102
 5935SOL    HW218705   4.019   3.732   2.951
 5936SOL     OW18706   5.681   6.121   6.310
 5936SOL    HW118707   5.751   6.055   6.283
 5936SOL    HW218708   5.591   6.086   6.287
 5937SOL     OW18709   1.575   4.223   0.449
 5937SOL    HW118710   1.652   4.161   0.430
 5937SOL    HW218711   1.566   4.289   0.375
 5938SOL     OW18712   1.689   4.411   1.495
 5938SOL    HW118713   1.723   4.350   1.423
 5938SOL    HW218714   1.591   4.394   1.509
 5939SOL     OW18715   2.194   1.153   2.556
 5939SOL    HW118716   2.211   1.069   2.608
 5939SOL    HW218717   2.226   1.141   2.462
 5940SOL     OW18718   4.159   5.154   3.373
 5940SOL    HW118719   4.207   5.100   3.442
 5940SOL    HW218720   4.187   5.250   3.379
 5941SOL     OW18721   6.810   3.555   2.706
 5941SOL    HW118722   6.817   3.467   2.751
 5941SOL    HW218723   6.900   3.583   2.672
 5942SOL     OW18724   6.437   1.990   5.209
 5942SOL    HW118725   6.348   2.006   5.165
 5942SOL    HW218726   6.472   1.900   5.182
 5943SOL     OW18727   0.944   5.256   0.864
 5943SOL    HW118728   0.929   5.335   0.924
 5943SOL    HW218729   0.950   5.173   0.919
 5944SOL     OW18730   5.190   2.053   2.705
 5944SOL    HW118731   5.110   1.997   2.683
 5944SOL    HW218732   5.264   2.031   2.641
 5945SOL     OW18733   6.600   5.005   5.913
 5945SOL    HW118734   6.620   5.100   5.888
 5945SOL    HW218735   6.637   4.986   6.003
 5946SOL     OW18736   3.961   2.796   5.218
 5946SOL    HW118737   3.946   2.871   5.154
 5946SOL    HW218738   4.041   2.743   5.188
 5947SOL     OW18739   4.311   3.815   1.434
 5947SOL    HW118740   4.317   3.803   1.533
 5947SOL    HW218741   4.266   3.902   1.413
 5948SOL     OW18742   3.560   5.319   3.522
 5948SOL    HW118743   3.561   5.328   3.621
 5948SOL    HW218744   3.647   5.279   3.491
 5949SOL     OW18745   4.800   4.428   2.677
 5949SOL    HW118746   4.763   4.411   2.585
 5949SOL    HW218747   4.899   4.411   2.676
 5950SOL     OW18748   6.392   2.527   3.723
 5950SOL    HW118749   6.466   2.477   3.768
 5950SOL    HW218750   6.349   2.468   3.655
 5951SOL     OW18751   2.192   6.795   3.889
 5951SOL    HW118752   2.114   6.797   3.951
 5951SOL    HW218753   2.195   6.706   3.843
 5952SOL     OW18754   6.860   6.520   4.940
 5952SOL    HW118755   6.917   6.541   4.861
 5952SOL    HW218756   6.916   6.475   5.010
 5953SOL     OW18757   0.510   3.554   6.382
 5953SOL    HW118758   0.546   3.630   6.327
 5953SOL    HW218759   0.420   3.528   6.348
 5954SOL     OW18760   1.030   5.184   6.767
 5954SOL    HW118761   0.956   5.118   6.772
 5954SOL    HW218762   1.058   5.209   6.859
 5955SOL     OW18763   4.641   5.146   2.876
 5955SOL    HW118764   4.675   5.192   2.793
 5955SOL    HW218765   4.682   5.188   2.957
 5956SOL     OW18766   6.528   1.941   0.162
 5956SOL    HW118767   6.538   1.902   0.071
 5956SOL    HW218768   6.512   2.040   0.155
 5957SOL     OW18769   4.783   7.025   5.776
 5957SOL    HW118770   4.836   0.082   5.787
 5957SOL    HW218771   4.805   6.983   5.688
 5958SOL     OW18772   1.274   5.324   2.897
 5958SOL    HW118773   1.289   5.228   2.921
 5958SOL    HW218774   1.307   5.341   2.804
 5959SOL     OW18775   2.053   0.796   6.964
 5959SOL    HW118776   2.011   0.860   6.900
 5959SOL    HW218777   2.013   0.705   6.952
 5960SOL     OW18778   3.443   6.741   5.012
 5960SOL    HW118779   3.430   6.839   5.003
 5960SOL    HW218780   3.456   6.717   5.109
 5961SOL     OW18781   2.426   1.239   5.933
 5961SOL    HW118782   2.468   1.278   5.851
 5961SOL    HW218783   2.435   1.303   6.009
 5962SOL     OW18784   5.453   5.333   2.666
 5962SOL    HW118785   5.476   5.249   2.716
 5962SOL    HW218786   5.534   5.391   2.659
 5963SOL     OW18787   4.020   3.909   1.948
 5963SOL    HW118788   4.082   3.986   1.931
 5963SOL    HW218789   4.053   3.828   1.899
 5964SOL     OW18790   1.436   3.912   5.831
 5964SOL    HW118791   1.509   3.900   5.763
 5964SOL    HW218792   1.367   3.974   5.796
 5965SOL     OW18793   2.041   1.418   4.305
 5965SOL    HW118794   2.119   1.413   4.243
 5965SOL    HW218795   2.051   1.350   4.377
 5966SOL     OW18796   1.566   6.540   4.159
 5966SOL    HW118797   1.630   6.464   4.145
 5966SOL    HW218798   1.526   6.567   4.071
 5967SOL     OW18799   4.458   6.552   2.079
 5967SOL    HW118800   4.544   6.537   2.030
 5967SOL    HW218801   4.407   6.626   2.036
 5968SOL     OW18802   0.283   2.087   4.154
 5968SOL    HW118803   0.351   2.113   4.223
 5968SOL    HW218804   0.326   2.028   4.086
 5969SOL     OW18805   5.653   2.914   3.265
 5969SOL    HW118806   5.735   2.856   3.258
 5969SOL    HW218807   5.666   2.980   3.339
 5970SOL     OW18808   2.203   3.037   3.582
 5970SOL    HW118809   2.224   2.940   3.570
 5970SOL    HW218810   2.162   3.073   3.498
 5971SOL     OW18811   2.439   6.688   2.793
 5971SOL    HW118812   2.489   6.698   2.706
 5971SOL    HW218813   2.504   6.683   2.868
 5972SOL     OW18814   4.668   6.802   1.465
 5972SOL    HW118815   4.741   6.747   1.504
 5972SOL    HW218816   4.688   6.821   1.369
 5973SOL     OW18817   1.041   4.535   3.397
 5973SOL    HW118818   0.963   4.558   3.339
 5973SOL    HW218819   1.008   4.487   3.478
 5974SOL     OW18820   1.052   4.046   6.382
 5974SOL    HW118821   1.106   4.018   6.303
 5974SOL    HW218822   1.089   4.132   6.419
 5975SOL     OW18823   1.928   3.334   6.766
 5975SOL    HW118824   2.013   3.338   6.714
 5975SOL    HW218825   1.851   3.318   6.703
 5976SOL     OW18826   3.666   3.173   4.387
 5976SOL    HW118827   3.599   3.137   4.321
 5976SOL    HW218828   3.732   3.102   4.410
 5977SOL     OW18829   1.090   3.293   3.183
 5977SOL    HW118830   1.138   3.284   3.096
 5977SOL    HW218831   0.991   3.285   3.167
 5978SOL     OW18832   5.111   5.604   3.006
 5978SOL    HW118833   5.184   5.668   3.028
 5978SOL    HW218834   5.149   5.526   2.956
 5979SOL     OW18835   0.868   0.926   2.503
 5979SOL    HW118836   0.881   0.945   2.406
 5979SOL    HW218837   0.829   1.006   2.548
 5980SOL     OW18838   6.273   3.949   6.166
 5980SOL    HW118839   6.357   3.922   6.212
 5980SOL    HW218840   6.287   3.949   6.067
 5981SOL     OW18841   3.737   1.988   1.357
 5981SOL    HW118842   3.755   2.008   1.261
 5981SOL    HW218843   3.761   2.068   1.412
 5982SOL     OW18844   5.956   2.638   6.747
 5982SOL    HW118845   6.030   2.578   6.716
 5982SOL    HW218846   5.988   2.696   6.821
 5983SOL     OW18847   0.885   1.507   4.854
 5983SOL    HW118848   0.914   1.416   4.825
 5983SOL    HW218849   0.799   1.500   4.904
 5984SOL     OW18850   0.510   6.973   5.428
 5984SOL    HW118851   0.489   0.027   5.374
 5984SOL    HW218852   0.444   6.963   5.502
 5985SOL     OW18853   5.034   3.209   4.312
 5985SOL    HW118854   5.089   3.126   4.305
 5985SOL    HW218855   4.959   3.194   4.377
 5986SOL     OW18856   3.828   3.305   2.230
 5986SOL    HW118857   3.807   3.220   2.279
 5986SOL    HW218858   3.762   3.375   2.257
 5987SOL     OW18859   4.781   6.836   5.552
 5987SOL    HW118860   4.711   6.819   5.621
 5987SOL    HW218861   4.758   6.787   5.468
 5988SOL     OW18862   3.861   7.021   4.351
 5988SOL    HW118863   3.873   6.957   4.426
 5988SOL    HW218864   3.820   0.079   4.385
 5989SOL     OW18865   2.748   1.163   6.433
 5989SOL    HW118866   2.797   1.190   6.350
 5989SOL    HW218867   2.775   1.222   6.509
 5990SOL     OW18868   3.447   5.179   2.115
 5990SOL    HW118869   3.367   5.238   2.120
 5990SOL    HW218870   3.422   5.095   2.066
 5991SOL     OW18871   3.325   5.498   3.818
 5991SOL    HW118872   3.388   5.427   3.787
 5991SOL    HW218873   3.317   5.494   3.918
 5992SOL     OW18874   4.398   1.766   4.552
 5992SOL    HW118875   4.437   1.810   4.472
 5992SOL    HW218876   4.349   1.683   4.524
 5993SOL     OW18877   3.910   5.663   3.932
 5993SOL    HW118878   3.928   5.621   3.843
 5993SOL    HW218879   3.890   5.761   3.919
 5994SOL     OW18880   6.491   3.006   1.412
 5994SOL    HW118881   6.440   3.021   1.497
 5994SOL    HW218882   6.428   3.004   1.335
 5995SOL     OW18883   1.149   4.721   1.463
 5995SOL    HW118884   1.062   4.730   1.415
 5995SOL    HW218885   1.168   4.805   1.514
 5996SOL     OW18886   0.638   5.290   6.027
 5996SOL    HW118887   0.567   5.338   5.975
 5996SOL    HW218888   0.726   5.334   6.010
 5997SOL     OW18889   0.373   0.617   1.661
 5997SOL    HW118890   0.278   0.636   1.635
 5997SOL    HW218891   0.385   0.519   1.674
 5998SOL     OW18892   4.291   2.030   3.144
 5998SOL    HW118893   4.374   1.976   3.133
 5998SOL    HW218894   4.310   2.126   3.120
 5999SOL     OW18895   2.427   2.653   3.390
 5999SOL    HW118896   2.497   2.724   3.398
 5999SOL    HW218897   2.466   2.573   3.343
 6000SOL     OW18898   4.412   6.479   3.134
 6000SOL    HW118899   4.328   6.532   3.128
 6000SOL    HW218900   4.480   6.531   3.186
 6001SOL     OW18901   5.931   1.820   0.054
 6001SOL    HW118902   5.997   1.857   7.015
 6001SOL    HW218903   5.965   1.834   0.147
 6002SOL     OW18904   1.921   0.447   1.891
 6002SOL    HW118905   2.009   0.482   1.859
 6002SOL    HW218906   1.879   0.514   1.952
 6003SOL     OW18907   5.239   3.923   3.894
 6003SOL    HW118908   5.292   3.846   3.858
 6003SOL    HW218909   5.161   3.941   3.834
 6004SOL     OW18910   0.105   3.591   1.279
 6004SOL    HW118911   0.166   3.583   1.358
 6004SOL    HW218912   0.016   3.626   1.310
 6005SOL     OW18913   2.439   5.987   2.646
 6005SOL    HW118914   2.500   5.915   2.613
 6005SOL    HW218915   2.351   5.947   2.672
 6006SOL     OW18916   2.129   5.803   6.904
 6006SOL    HW118917   2.210   5.861   6.912
 6006SOL    HW218918   2.096   5.780   6.996
 6007SOL     OW18919   5.230   2.372   4.562
 6007SOL    HW118920   5.266   2.398   4.472
 6007SOL    HW218921   5.198   2.454   4.610
 6008SOL     OW18922   4.793   4.817   0.733
 6008SOL    HW118923   4.865   4.749   0.722
 6008SOL    HW218924   4.834   4.902   0.767
 6009SOL     OW18925   3.512   1.586   4.291
 6009SOL    HW118926   3.432   1.645   4.288
 6009SOL    HW218927   3.594   1.641   4.277
 6010SOL     OW18928   1.435   2.830   3.550
 6010SOL    HW118929   1.393   2.883   3.476
 6010SOL    HW218930   1.530   2.859   3.562
 6011SOL     OW18931   6.738   3.021   2.216
 6011SOL    HW118932   6.748   2.962   2.136
 6011SOL    HW218933   6.689   3.104   2.190
 6012SOL     OW18934   0.417   3.157   0.913
 6012SOL    HW118935   0.362   3.076   0.890
 6012SOL    HW218936   0.388   3.193   1.001
 6013SOL     OW18937   5.865   1.019   2.073
 6013SOL    HW118938   5.853   1.098   2.134
 6013SOL    HW218939   5.955   0.978   2.091
 6014SOL     OW18940   5.164   0.416   1.316
 6014SOL    HW118941   5.237   0.484   1.326
 6014SOL    HW218942   5.079   0.452   1.353
 6015SOL     OW18943   5.566   1.172   4.670
 6015SOL    HW118944   5.518   1.260   4.675
 6015SOL    HW218945   5.520   1.105   4.728
 6016SOL     OW18946   1.584   7.010   5.420
 6016SOL    HW118947   1.640   0.048   5.472
 6016SOL    HW218948   1.625   6.919   5.426
 6017SOL     OW18949   6.920   3.972   2.631
 6017SOL    HW118950   6.858   4.050   2.632
 6017SOL    HW218951   6.881   3.897   2.685
 6018SOL     OW18952   2.491   5.360   1.041
 6018SOL    HW118953   2.510   5.408   1.127
 6018SOL    HW218954   2.427   5.414   0.986
 6019SOL     OW18955   5.667   6.549   3.585
 6019SOL    HW118956   5.605   6.516   3.515
 6019SOL    HW218957   5.651   6.647   3.601
 6020SOL     OW18958   2.685   0.190   2.789
 6020SOL    HW118959   2.639   0.102   2.782
 6020SOL    HW218960   2.662   0.232   2.877
 6021SOL     OW18961   4.112   0.828   3.542
 6021SOL    HW118962   4.131   0.749   3.600
 6021SOL    HW218963   4.085   0.906   3.599
 6022SOL     OW18964   4.238   1.044   5.857
 6022SOL    HW118965   4.306   0.996   5.802
 6022SOL    HW218966   4.171   1.088   5.797
 6023SOL     OW18967   0.602   1.828   2.654
 6023SOL    HW118968   0.615   1.898   2.724
 6023SOL    HW218969   0.514   1.841   2.609
 6024SOL     OW18970   0.331   5.669   2.344
 6024SOL    HW118971   0.274   5.673   2.261
 6024SOL    HW218972   0.398   5.596   2.335
 6025SOL     OW18973   3.885   2.099   2.236
 6025SOL    HW118974   3.871   2.123   2.333
 6025SOL    HW218975   3.811   2.137   2.182
 6026SOL     OW18976   0.635   4.523   6.022
 6026SOL    HW118977   0.642   4.473   5.936
 6026SOL    HW218978   0.717   4.507   6.077
 6027SOL     OW18979   3.327   3.594   0.429
 6027SOL    HW118980   3.363   3.686   0.447
 6027SOL    HW218981   3.231   3.601   0.401
 6028SOL     OW18982   1.079   4.733   6.800
 6028SOL    HW118983   1.034   4.778   6.877
 6028SOL    HW218984   1.015   4.669   6.757
 6029SOL     OW18985   1.377   5.161   1.605
 6029SOL    HW118986   1.328   5.248   1.614
 6029SOL    HW218987   1.378   5.134   1.508
 6030SOL     OW18988   1.750   0.219   1.585
 6030SOL    HW118989   1.774   0.253   1.494
 6030SOL    HW218990   1.826   0.235   1.648
 6031SOL     OW18991   5.600   0.543   4.486
 6031SOL    HW118992   5.584   0.446   4.509
 6031SOL    HW218993   5.684   0.574   4.531
 6032SOL     OW18994   0.208   3.814   2.780
 6032SOL    HW118995   0.146   3.761   2.722
 6032SOL    HW218996   0.189   3.795   2.876
 6033SOL     OW18997   0.267   0.006   4.762
 6033SOL    HW118998   0.323   6.982   4.828
 6033SOL    HW218999   0.315   0.008   4.674
 6034SOL     OW19000   2.114   4.164   4.874
 6034SOL    HW119001   2.189   4.102   4.895
 6034SOL    HW219002   2.121   4.245   4.932
 6035SOL     OW19003   5.666   0.100   3.839
 6035SOL    HW119004   5.638   0.174   3.777
 6035SOL    HW219005   5.743   0.130   3.895
 6036SOL     OW19006   0.991   1.076   3.979
 6036SOL    HW119007   0.915   1.026   4.020
 6036SOL    HW219008   1.004   1.045   3.885
 6037SOL     OW19009   6.938   5.677   4.812
 6037SOL    HW119010   6.900   5.594   4.852
 6037SOL    HW219011   6.877   5.754   4.830
 6038SOL     OW19012   5.307   4.446   6.108
 6038SOL    HW119013   5.376   4.381   6.078
 6038SOL    HW219014   5.301   4.522   6.042
 6039SOL     OW19015   4.054   3.214   3.781
 6039SOL    HW119016   4.006   3.155   3.846
 6039SOL    HW219017   4.025   3.193   3.688
 6040SOL     OW19018   1.310   1.377   0.073
 6040SOL    HW119019   1.321   1.324   0.157
 6040SOL    HW219020   1.292   1.316   7.023
 6041SOL     OW19021   0.859   2.626   0.518
 6041SOL    HW119022   0.917   2.647   0.440
 6041SOL    HW219023   0.833   2.711   0.565
 6042SOL     OW19024   5.755   5.092   4.455
 6042SOL    HW119025   5.765   5.036   4.537
 6042SOL    HW219026   5.814   5.056   4.382
 6043SOL     OW19027   0.519   4.683   3.923
 6043SOL    HW119028   0.467   4.597   3.921
 6043SOL    HW219029   0.539   4.708   4.018
 6044SOL     OW19030   0.683   0.549   1.457
 6044SOL    HW119031   0.770   0.573   1.414
 6044SOL    HW219032   0.623   0.628   1.456
 6045SOL     OW19033   6.982   3.522   0.694
 6045SOL    HW119034   7.025   3.545   0.607
 6045SOL    HW219035   0.024   3.485   0.757
 6046SOL     OW19036   2.592   3.498   0.627
 6046SOL    HW119037   2.648   3.490   0.544
 6046SOL    HW219038   2.504   3.453   0.612
 6047SOL     OW19039   0.268   6.364   4.854
 6047SOL    HW119040   0.200   6.292   4.865
 6047SOL    HW219041   0.268   6.423   4.935
 6048SOL     OW19042   5.218   5.777   4.791
 6048SOL    HW119043   5.228   5.725   4.875
 6048SOL    HW219044   5.254   5.724   4.714
 6049SOL     OW19045   6.321   5.392   1.014
 6049SOL    HW119046   6.245   5.456   0.999
 6049SOL    HW219047   6.335   5.338   0.931
 6050SOL     OW19048   5.232   4.758   5.398
 6050SOL    HW119049   5.324   4.725   5.376
 6050SOL    HW219050   5.225   4.855   5.373
 6051SOL     OW19051   2.197   1.806   3.023
 6051SOL    HW119052   2.247   1.892   3.034
 6051SOL    HW219053   2.154   1.804   2.932
 6052SOL     OW19054   6.829   1.117   0.555
 6052SOL    HW119055   6.788   1.175   0.626
 6052SOL    HW219056   6.804   1.151   0.465
 6053SOL     OW19057   1.813   0.004   6.011
 6053SOL    HW119058   1.814   0.083   6.073
 6053SOL    HW219059   1.801   6.947   6.065
 6054SOL     OW19060   2.257   4.621   6.828
 6054SOL    HW119061   2.240   4.603   6.731
 6054SOL    HW219062   2.314   4.549   6.866
 6055SOL     OW19063   4.830   0.615   3.935
 6055SOL    HW119064   4.736   0.595   3.908
 6055SOL    HW219065   4.881   0.649   3.856
 6056SOL     OW19066   4.975   3.337   6.537
 6056SOL    HW119067   5.043   3.333   6.611
 6056SOL    HW219068   4.933   3.428   6.535
 6057SOL     OW19069   2.947   0.473   6.373
 6057SOL    HW119070   2.921   0.418   6.453
 6057SOL    HW219071   3.042   0.502   6.383
 6058SOL     OW19072   5.278   1.159   3.964
 6058SOL    HW119073   5.220   1.178   4.043
 6058SOL    HW219074   5.282   1.061   3.948
 6059SOL     OW19075   6.935   6.367   6.071
 6059SOL    HW119076   6.884   6.453   6.064
 6059SOL    HW219077   6.901   6.303   6.003
 6060SOL     OW19078   3.245   6.071   6.600
 6060SOL    HW119079   3.177   6.052   6.671
 6060SOL    HW219080   3.232   6.164   6.565
 6061SOL     OW19081   1.999   1.572   6.595
 6061SOL    HW119082   2.036   1.665   6.597
 6061SOL    HW219083   2.031   1.522   6.676
 6062SOL     OW19084   1.726   0.291   4.652
 6062SOL    HW119085   1.698   0.385   4.672
 6062SOL    HW219086   1.683   0.229   4.718
 6063SOL     OW19087   5.256   6.491   6.815
 6063SOL    HW119088   5.227   6.493   6.719
 6063SOL    HW219089   5.300   6.404   6.835
 6064SOL     OW19090   0.787   5.470   3.625
 6064SOL    HW119091   0.807   5.529   3.546
 6064SOL    HW219092   0.702   5.420   3.609
 6065SOL     OW19093   5.698   6.441   1.240
 6065SOL    HW119094   5.686   6.407   1.147
 6065SOL    HW219095   5.794   6.437   1.266
 6066SOL     OW19096   4.435   2.570   6.446
 6066SOL    HW119097   4.406   2.520   6.364
 6066SOL    HW219098   4.373   2.549   6.521
 6067SOL     OW19099   5.661   2.393   6.624
 6067SOL    HW119100   5.730   2.390   6.696
 6067SOL    HW219101   5.570   2.377   6.664
 6068SOL     OW19102   5.007   2.012   5.360
 6068SOL    HW119103   5.100   2.001   5.325
 6068SOL    HW219104   5.006   2.078   5.435
 6069SOL     OW19105   6.018   3.912   4.308
 6069SOL    HW119106   6.023   3.813   4.323
 6069SOL    HW219107   6.109   3.953   4.320
 6070SOL     OW19108   4.048   3.004   6.740
 6070SOL    HW119109   4.077   2.938   6.671
 6070SOL    HW219110   3.957   3.038   6.717
 6071SOL     OW19111   5.078   6.500   5.117
 6071SOL    HW119112   5.162   6.538   5.154
 6071SOL    HW219113   5.031   6.570   5.062
 6072SOL     OW19114   0.260   1.603   0.731
 6072SOL    HW119115   0.350   1.575   0.697
 6072SOL    HW219116   0.235   1.690   0.690
 6073SOL     OW19117   6.560   1.970   1.194
 6073SOL    HW119118   6.615   2.034   1.141
 6073SOL    HW219119   6.616   1.931   1.268
 6074SOL     OW19120   0.503   0.240   5.056
 6074SOL    HW119121   0.572   0.287   5.001
 6074SOL    HW219122   0.518   0.141   5.050
 6075SOL     OW19123   5.077   4.395   6.522
 6075SOL    HW119124   5.020   4.325   6.566
 6075SOL    HW219125   5.173   4.371   6.533
 6076SOL     OW19126   2.445   6.688   4.068
 6076SOL    HW119127   2.358   6.698   4.018
 6076SOL    HW219128   2.461   6.769   4.123
 6077SOL     OW19129   5.681   5.475   2.730
 6077SOL    HW119130   5.736   5.517   2.802
 6077SOL    HW219131   5.711   5.509   2.641
 6078SOL     OW19132   2.267   4.862   3.502
 6078SOL    HW119133   2.295   4.927   3.573
 6078SOL    HW219134   2.290   4.769   3.531
 6079SOL     OW19135   2.319   1.661   1.011
 6079SOL    HW119136   2.302   1.607   1.093
 6079SOL    HW219137   2.321   1.601   0.931
 6080SOL     OW19138   5.447   2.291   2.643
 6080SOL    HW119139   5.473   2.280   2.739
 6080SOL    HW219140   5.502   2.364   2.602
 6081SOL     OW19141   0.637   3.606   2.455
 6081SOL    HW119142   0.558   3.613   2.516
 6081SOL    HW219143   0.704   3.676   2.478
 6082SOL     OW19144   3.748   1.771   4.187
 6082SOL    HW119145   3.840   1.738   4.207
 6082SOL    HW219146   3.743   1.802   4.092
 6083SOL     OW19147   1.905   6.654   0.695
 6083SOL    HW119148   1.990   6.617   0.658
 6083SOL    HW219149   1.917   6.751   0.716
 6084SOL     OW19150   0.142   4.883   6.055
 6084SOL    HW119151   0.144   4.808   6.121
 6084SOL    HW219152   0.138   4.845   5.962
 6085SOL     OW19153   5.230   4.778   1.666
 6085SOL    HW119154   5.254   4.841   1.591
 6085SOL    HW219155   5.226   4.829   1.752
 6086SOL     OW19156   2.905   1.688   3.184
 6086SOL    HW119157   2.991   1.671   3.136
 6086SOL    HW219158   2.924   1.720   3.277
 6087SOL     OW19159   4.158   0.099   0.686
 6087SOL    HW119160   4.221   0.023   0.701
 6087SOL    HW219161   4.107   0.117   0.770
 6088SOL     OW19162   6.788   6.814   5.669
 6088SOL    HW119163   6.759   6.719   5.686
 6088SOL    HW219164   6.874   6.813   5.618
 6089SOL     OW19165   6.519   3.335   0.349
 6089SOL    HW119166   6.552   3.426   0.377
 6089SOL    HW219167   6.560   3.266   0.408
 6090SOL     OW19168   0.182   5.622   3.744
 6090SOL    HW119169   0.201   5.534   3.702
 6090SOL    HW219170   0.237   5.693   3.698
 6091SOL     OW19171   6.313   1.985   1.567
 6091SOL    HW119172   6.402   2.029   1.553
 6091SOL    HW219173   6.292   1.926   1.490
 6092SOL     OW19174   1.417   2.575   1.099
 6092SOL    HW119175   1.421   2.530   1.189
 6092SOL    HW219176   1.508   2.572   1.057
 6093SOL     OW19177   1.237   3.749   0.545
 6093SOL    HW119178   1.278   3.832   0.581
 6093SOL    HW219179   1.307   3.680   0.530
 6094SOL     OW19180   0.933   0.719   0.984
 6094SOL    HW119181   0.872   0.771   1.043
 6094SOL    HW219182   0.988   0.782   0.930
 6095SOL     OW19183   6.333   3.986   5.471
 6095SOL    HW119184   6.281   3.913   5.426
 6095SOL    HW219185   6.367   4.050   5.402
 6096SOL     OW19186   3.884   1.591   2.869
 6096SOL    HW119187   3.828   1.552   2.796
 6096SOL    HW219188   3.980   1.567   2.853
 6097SOL     OW19189   3.170   1.790   1.824
 6097SOL    HW119190   3.203   1.831   1.910
 6097SOL    HW219191   3.070   1.794   1.822
 6098SOL     OW19192   1.484   0.978   6.618
 6098SOL    HW119193   1.444   0.894   6.583
 6098SOL    HW219194   1.428   1.056   6.590
 6099SOL     OW19195   5.723   5.075   4.812
 6099SOL    HW119196   5.771   4.987   4.807
 6099SOL    HW219197   5.692   5.091   4.906
 6100SOL     OW19198   6.500   2.198   0.179
 6100SOL    HW119199   6.465   2.244   0.261
 6100SOL    HW219200   6.592   2.232   0.159
 6101SOL     OW19201   5.516   0.559   3.871
 6101SOL    HW119202   5.486   0.644   3.914
 6101SOL    HW219203   5.492   0.481   3.929
 6102SOL     OW19204   3.056   0.492   5.413
 6102SOL    HW119205   2.992   0.566   5.434
 6102SOL    HW219206   3.084   0.497   5.317
 6103SOL     OW19207   6.258   1.165   5.378
 6103SOL    HW119208   6.187   1.094   5.368
 6103SOL    HW219209   6.269   1.212   5.290
 6104SOL     OW19210   1.645   3.261   1.029
 6104SOL    HW119211   1.564   3.274   1.085
 6104SOL    HW219212   1.721   3.232   1.087
 6105SOL     OW19213   3.585   4.988   4.549
 6105SOL    HW119214   3.518   4.994   4.623
 6105SOL    HW219215   3.538   4.979   4.461
 6106SOL     OW19216   3.289   5.424   4.081
 6106SOL    HW119217   3.249   5.333   4.079
 6106SOL    HW219218   3.283   5.461   4.174
 6107SOL     OW19219   2.316   5.095   5.644
 6107SOL    HW119220   2.349   5.172   5.699
 6107SOL    HW219221   2.377   5.083   5.565
 6108SOL     OW19222   6.015   1.861   4.267
 6108SOL    HW119223   6.047   1.843   4.174
 6108SOL    HW219224   5.917   1.881   4.265
 6109SOL     OW19225   6.346   4.283   2.048
 6109SOL    HW119226   6.346   4.371   2.002
 6109SOL    HW219227   6.293   4.217   1.994
 6110SOL     OW19228   3.692   2.066   4.177
 6110SOL    HW119229   3.713   1.972   4.205
 6110SOL    HW219230   3.607   2.066   4.124
 6111SOL     OW19231   0.406   4.488   3.101
 6111SOL    HW119232   0.332   4.428   3.070
 6111SOL    HW219233   0.426   4.470   3.197
 6112SOL     OW19234   1.086   2.212   1.540
 6112SOL    HW119235   1.009   2.164   1.582
 6112SOL    HW219236   1.169   2.158   1.552
 6113SOL     OW19237   2.252   5.393   5.448
 6113SOL    HW119238   2.334   5.430   5.491
 6113SOL    HW219239   2.278   5.317   5.387
 6114SOL     OW19240   5.295   5.780   1.100
 6114SOL    HW119241   5.281   5.691   1.143
 6114SOL    HW219242   5.387   5.785   1.061
 6115SOL     OW19243   6.112   4.412   2.191
 6115SOL    HW119244   6.078   4.431   2.099
 6115SOL    HW219245   6.160   4.324   2.191
 6116SOL     OW19246   3.055   2.239   0.928
 6116SOL    HW119247   3.151   2.248   0.956
 6116SOL    HW219248   3.016   2.330   0.912
 6117SOL     OW19249   5.857   6.359   4.206
 6117SOL    HW119250   5.884   6.376   4.301
 6117SOL    HW219251   5.923   6.297   4.164
 6118SOL     OW19252   5.975   0.378   2.864
 6118SOL    HW119253   5.905   0.308   2.876
 6118SOL    HW219254   5.977   0.406   2.768
 6119SOL     OW19255   6.119   5.266   3.942
 6119SOL    HW119256   6.201   5.324   3.945
 6119SOL    HW219257   6.083   5.254   4.035
 6120SOL     OW19258   3.136   0.990   3.377
 6120SOL    HW119259   3.055   0.933   3.362
 6120SOL    HW219260   3.187   0.955   3.456
 6121SOL     OW19261   6.479   2.189   4.559
 6121SOL    HW119262   6.575   2.191   4.587
 6121SOL    HW219263   6.441   2.098   4.577
 6122SOL     OW19264   4.486   5.979   4.028
 6122SOL    HW119265   4.542   5.904   3.992
 6122SOL    HW219266   4.528   6.014   4.111
 6123SOL     OW19267   6.847   1.507   2.029
 6123SOL    HW119268   6.916   1.535   2.095
 6123SOL    HW219269   6.876   1.425   1.981
 6124SOL     OW19270   2.819   0.219   5.113
 6124SOL    HW119271   2.736   0.188   5.158
 6124SOL    HW219272   2.817   0.319   5.104
 6125SOL     OW19273   1.979   4.913   2.279
 6125SOL    HW119274   1.965   4.886   2.374
 6125SOL    HW219275   2.050   4.983   2.274
 6126SOL     OW19276   4.368   5.555   2.428
 6126SOL    HW119277   4.431   5.617   2.381
 6126SOL    HW219278   4.375   5.569   2.527
 6127SOL     OW19279   1.927   3.968   2.273
 6127SOL    HW119280   1.913   4.051   2.326
 6127SOL    HW219281   1.840   3.939   2.232
 6128SOL     OW19282   4.935   2.780   1.262
 6128SOL    HW119283   4.898   2.687   1.269
 6128SOL    HW219284   4.930   2.810   1.167
 6129SOL     OW19285   5.840   4.155   3.420
 6129SOL    HW119286   5.772   4.085   3.442
 6129SOL    HW219287   5.821   4.192   3.329
 6130SOL     OW19288   5.469   4.451   2.752
 6130SOL    HW119289   5.392   4.506   2.784
 6130SOL    HW219290   5.435   4.377   2.694
 6131SOL     OW19291   6.565   0.881   5.214
 6131SOL    HW119292   6.585   0.794   5.260
 6131SOL    HW219293   6.622   0.953   5.253
 6132SOL     OW19294   6.499   2.529   0.608
 6132SOL    HW119295   6.568   2.542   0.680
 6132SOL    HW219296   6.434   2.458   0.637
 6133SOL     OW19297   1.471   4.940   0.246
 6133SOL    HW119298   1.479   5.000   0.166
 6133SOL    HW219299   1.537   4.866   0.238
 6134SOL     OW19300   4.612   3.403   0.189
 6134SOL    HW119301   4.587   3.309   0.169
 6134SOL    HW219302   4.628   3.413   0.288
 6135SOL     OW19303   5.477   0.368   2.430
 6135SOL    HW119304   5.417   0.441   2.397
 6135SOL    HW219305   5.526   0.399   2.511
 6136SOL     OW19306   0.042   1.749   2.515
 6136SOL    HW119307   0.020   1.763   2.612
 6136SOL    HW219308   0.063   1.837   2.473
 6137SOL     OW19309   2.912   6.541   5.965
 6137SOL    HW119310   2.899   6.442   5.960
 6137SOL    HW219311   2.851   6.579   6.035
 6138SOL     OW19312   4.830   0.312   3.068
 6138SOL    HW119313   4.781   0.233   3.031
 6138SOL    HW219314   4.896   0.345   3.001
 6139SOL     OW19315   2.805   5.693   3.924
 6139SOL    HW119316   2.884   5.705   3.863
 6139SOL    HW219317   2.823   5.619   3.988
 6140SOL     OW19318   1.728   5.908   1.431
 6140SOL    HW119319   1.652   5.926   1.494
 6140SOL    HW219320   1.729   5.810   1.408
 6141SOL     OW19321   6.548   5.947   5.824
 6141SOL    HW119322   6.540   5.853   5.791
 6141SOL    HW219323   6.480   5.963   5.896
 6142SOL     OW19324   0.457   3.861   2.708
 6142SOL    HW119325   0.377   3.834   2.762
 6142SOL    HW219326   0.540   3.855   2.765
 6143SOL     OW19327   6.659   4.240   6.464
 6143SOL    HW119328   6.642   4.216   6.369
 6143SOL    HW219329   6.733   4.183   6.500
 6144SOL     OW19330   0.119   4.804   4.486
 6144SOL    HW119331   0.130   4.711   4.452
 6144SOL    HW219332   0.193   4.861   4.450
 6145SOL     OW19333   5.493   5.532   3.463
 6145SOL    HW119334   5.561   5.468   3.497
 6145SOL    HW219335   5.452   5.496   3.379
 6146SOL     OW19336   5.372   1.645   3.380
 6146SOL    HW119337   5.273   1.662   3.385
 6146SOL    HW219338   5.391   1.583   3.304
 6147SOL     OW19339   1.298   3.673   3.067
 6147SOL    HW119340   1.233   3.744   3.093
 6147SOL    HW219341   1.303   3.604   3.139
 6148SOL     OW19342   6.086   5.763   3.581
 6148SOL    HW119343   6.180   5.746   3.551
 6148SOL    HW219344   6.026   5.691   3.546
 6149SOL     OW19345   2.254   0.004   4.231
 6149SOL    HW119346   2.192   6.953   4.245
 6149SOL    HW219347   2.205   0.089   4.252
 6150SOL     OW19348   4.075   5.604   5.901
 6150SOL    HW119349   4.039   5.518   5.865
 6150SOL    HW219350   4.171   5.592   5.926
 6151SOL     OW19351   4.287   0.565   5.659
 6151SOL    HW119352   4.354   0.493   5.674
 6151SOL    HW219353   4.198   0.524   5.640
 6152SOL     OW19354   6.816   4.747   5.160
 6152SOL    HW119355   6.721   4.751   5.130
 6152SOL    HW219356   6.820   4.742   5.260
 6153SOL     OW19357   5.156   4.175   6.856
 6153SOL    HW119358   5.219   4.105   6.891
 6153SOL    HW219359   5.062   4.141   6.863
 6154SOL     OW19360   5.157   2.820   3.387
 6154SOL    HW119361   5.186   2.735   3.431
 6154SOL    HW219362   5.230   2.888   3.395
 6155SOL     OW19363   2.118   3.888   3.993
 6155SOL    HW119364   2.169   3.917   4.074
 6155SOL    HW219365   2.057   3.813   4.017
 6156SOL     OW19366   6.056   0.612   4.380
 6156SOL    HW119367   6.033   0.704   4.412
 6156SOL    HW219368   6.007   0.545   4.436
 6157SOL     OW19369   1.210   1.465   3.682
 6157SOL    HW119370   1.129   1.418   3.716
 6157SOL    HW219371   1.186   1.560   3.660
 6158SOL     OW19372   4.663   0.283   0.702
 6158SOL    HW119373   4.604   0.246   0.774
 6158SOL    HW219374   4.737   0.218   0.684
 6159SOL     OW19375   5.588   3.156   6.938
 6159SOL    HW119376   5.646   3.219   6.886
 6159SOL    HW219377   5.492   3.169   6.912
 6160SOL     OW19378   6.558   4.455   1.328
 6160SOL    HW119379   6.648   4.473   1.368
 6160SOL    HW219380   6.507   4.540   1.319
 6161SOL     OW19381   5.631   0.828   6.510
 6161SOL    HW119382   5.596   0.774   6.586
 6161SOL    HW219383   5.670   0.767   6.441
 6162SOL     OW19384   5.876   4.952   4.023
 6162SOL    HW119385   5.938   5.001   3.962
 6162SOL    HW219386   5.783   4.957   3.987
 6163SOL     OW19387   6.749   3.931   2.359
 6163SOL    HW119388   6.829   3.989   2.378
 6163SOL    HW219389   6.690   3.928   2.440
 6164SOL     OW19390   4.602   2.806   0.501
 6164SOL    HW119391   4.647   2.863   0.569
 6164SOL    HW219392   4.507   2.836   0.490
 6165SOL     OW19393   4.471   6.710   0.737
 6165SOL    HW119394   4.489   6.616   0.707
 6165SOL    HW219395   4.554   6.748   0.779
 6166SOL     OW19396   3.892   1.599   0.192
 6166SOL    HW119397   3.982   1.629   0.224
 6166SOL    HW219398   3.821   1.645   0.245
 6167SOL     OW19399   6.983   5.053   2.927
 6167SOL    HW119400   6.947   4.994   2.999
 6167SOL    HW219401   0.011   5.126   2.968
 6168SOL     OW19402   0.630   2.890   1.048
 6168SOL    HW119403   0.660   2.981   1.020
 6168SOL    HW219404   0.707   2.827   1.046
 6169SOL     OW19405   1.769   4.472   1.985
 6169SOL    HW119406   1.768   4.432   1.893
 6169SOL    HW219407   1.846   4.535   1.992
 6170SOL     OW19408   6.919   2.076   3.743
 6170SOL    HW119409   6.908   2.136   3.822
 6170SOL    HW219410   6.963   2.127   3.668
 6171SOL     OW19411   6.322   0.834   6.452
 6171SOL    HW119412   6.326   0.917   6.506
 6171SOL    HW219413   6.296   0.757   6.510
 6172SOL     OW19414   1.237   4.472   3.937
 6172SOL    HW119415   1.228   4.407   4.012
 6172SOL    HW219416   1.324   4.521   3.945
 6173SOL     OW19417   5.986   6.396   3.305
 6173SOL    HW119418   6.048   6.377   3.229
 6173SOL    HW219419   5.896   6.359   3.284
 6174SOL     OW19420   6.498   2.662   2.272
 6174SOL    HW119421   6.553   2.590   2.314
 6174SOL    HW219422   6.501   2.744   2.329
 6175SOL     OW19423   3.549   2.057   6.771
 6175SOL    HW119424   3.500   2.034   6.687
 6175SOL    HW219425   3.617   2.128   6.752
 6176SOL     OW19426   3.389   3.705   6.117
 6176SOL    HW119427   3.374   3.800   6.146
 6176SOL    HW219428   3.468   3.702   6.055
 6177SOL     OW19429   5.838   6.021   1.828
 6177SOL    HW119430   5.750   5.999   1.871
 6177SOL    HW219431   5.853   5.959   1.750
 6178SOL     OW19432   4.295   4.646   1.753
 6178SOL    HW119433   4.356   4.567   1.762
 6178SOL    HW219434   4.330   4.708   1.683
 6179SOL     OW19435   5.559   4.833   4.961
 6179SOL    HW119436   5.503   4.915   4.949
 6179SOL    HW219437   5.649   4.859   4.997
 6180SOL     OW19438   2.782   4.544   6.493
 6180SOL    HW119439   2.699   4.489   6.497
 6180SOL    HW219440   2.820   4.553   6.586
 6181SOL     OW19441   6.337   6.274   6.840
 6181SOL    HW119442   6.249   6.234   6.868
 6181SOL    HW219443   6.339   6.371   6.863
 6182SOL     OW19444   2.956   2.768   0.334
 6182SOL    HW119445   2.933   2.850   0.281
 6182SOL    HW219446   3.053   2.746   0.319
 6183SOL     OW19447   7.014   0.106   0.746
 6183SOL    HW119448   6.965   0.166   0.683
 6183SOL    HW219449   6.953   0.035   0.779
 6184SOL     OW19450   3.320   6.336   5.211
 6184SOL    HW119451   3.405   6.363   5.256
 6184SOL    HW219452   3.340   6.310   5.116
 6185SOL     OW19453   3.664   3.408   5.048
 6185SOL    HW119454   3.682   3.345   5.124
 6185SOL    HW219455   3.577   3.454   5.063
 6186SOL     OW19456   0.988   1.595   2.709
 6186SOL    HW119457   0.923   1.524   2.683
 6186SOL    HW219458   1.040   1.565   2.790
 6187SOL     OW19459   3.076   1.967   6.142
 6187SOL    HW119460   3.043   1.876   6.165
 6187SOL    HW219461   3.077   1.979   6.043
 6188SOL     OW19462   2.303   1.479   5.191
 6188SOL    HW119463   2.391   1.434   5.208
 6188SOL    HW219464   2.274   1.527   5.273
 6189SOL     OW19465   6.869   5.034   0.909
 6189SOL    HW119466   6.787   4.994   0.951
 6189SOL    HW219467   6.858   5.133   0.903
 6190SOL     OW19468   0.593   3.401   3.983
 6190SOL    HW119469   0.607   3.493   3.945
 6190SOL    HW219470   0.565   3.339   3.910
 6191SOL     OW19471   2.825   4.328   0.647
 6191SOL    HW119472   2.844   4.246   0.593
 6191SOL    HW219473   2.794   4.401   0.587
 6192SOL     OW19474   3.023   1.412   1.447
 6192SOL    HW119475   2.946   1.380   1.502
 6192SOL    HW219476   3.078   1.476   1.501
 6193SOL     OW19477   4.624   5.620   6.890
 6193SOL    HW119478   4.541   5.675   6.876
 6193SOL    HW219479   4.599   5.530   6.925
 6194SOL     OW19480   5.557   6.891   6.603
 6194SOL    HW119481   5.502   6.922   6.680
 6194SOL    HW219482   5.549   6.791   6.595
 6195SOL     OW19483   5.457   6.554   6.102
 6195SOL    HW119484   5.438   6.570   6.199
 6195SOL    HW219485   5.375   6.518   6.057
 6196SOL     OW19486   5.947   3.143   3.286
 6196SOL    HW119487   6.002   3.115   3.208
 6196SOL    HW219488   5.898   3.064   3.322
 6197SOL     OW19489   0.622   5.605   1.045
 6197SOL    HW119490   0.546   5.540   1.043
 6197SOL    HW219491   0.709   5.555   1.049
 6198SOL     OW19492   5.681   1.662   6.607
 6198SOL    HW119493   5.682   1.725   6.530
 6198SOL    HW219494   5.712   1.572   6.578
 6199SOL     OW19495   2.096   6.543   6.364
 6199SOL    HW119496   2.157   6.620   6.346
 6199SOL    HW219497   2.008   6.560   6.320
 6200SOL     OW19498   1.475   0.676   0.968
 6200SOL    HW119499   1.392   0.672   1.022
 6200SOL    HW219500   1.466   0.618   0.888
 6201SOL     OW19501   0.499   4.573   3.385
 6201SOL    HW119502   0.498   4.503   3.457
 6201SOL    HW219503   0.594   4.594   3.360
 6202SOL     OW19504   5.826   0.994   2.551
 6202SOL    HW119505   5.859   0.994   2.646
 6202SOL    HW219506   5.882   1.057   2.497
 6203SOL     OW19507   5.789   0.226   1.832
 6203SOL    HW119508   5.751   0.145   1.788
 6203SOL    HW219509   5.737   0.246   1.916
 6204SOL     OW19510   1.402   5.991   4.955
 6204SOL    HW119511   1.373   6.056   5.026
 6204SOL    HW219512   1.494   5.959   4.976
 6205SOL     OW19513   5.671   4.378   3.531
 6205SOL    HW119514   5.768   4.357   3.539
 6205SOL    HW219515   5.631   4.323   3.458
 6206SOL     OW19516   5.697   1.781   3.232
 6206SOL    HW119517   5.633   1.775   3.308
 6206SOL    HW219518   5.675   1.711   3.164
 6207SOL     OW19519   0.787   6.000   3.633
 6207SOL    HW119520   0.845   6.050   3.697
 6207SOL    HW219521   0.783   6.049   3.546
 6208SOL     OW19522   4.547   3.814   5.664
 6208SOL    HW119523   4.564   3.903   5.622
 6208SOL    HW219524   4.456   3.813   5.705
 6209SOL     OW19525   3.499   1.929   1.243
 6209SOL    HW119526   3.578   1.957   1.297
 6209SOL    HW219527   3.444   1.864   1.296
 6210SOL     OW19528   5.824   1.181   4.294
 6210SOL    HW119529   5.787   1.215   4.381
 6210SOL    HW219530   5.759   1.116   4.254
 6211SOL     OW19531   5.841   3.966   4.869
 6211SOL    HW119532   5.869   3.900   4.799
 6211SOL    HW219533   5.741   3.966   4.877
 6212SOL     OW19534   5.488   4.341   4.535
 6212SOL    HW119535   5.424   4.386   4.473
 6212SOL    HW219536   5.577   4.334   4.490
 6213SOL     OW19537   4.385   5.727   0.576
 6213SOL    HW119538   4.287   5.709   0.588
 6213SOL    HW219539   4.410   5.810   0.625
 6214SOL     OW19540   6.155   0.101   0.285
 6214SOL    HW119541   6.201   0.167   0.225
 6214SOL    HW219542   6.221   0.030   0.312
 6215SOL     OW19543   5.450   2.140   4.920
 6215SOL    HW119544   5.454   2.041   4.905
 6215SOL    HW219545   5.471   2.160   5.016
 6216SOL     OW19546   4.924   1.857   4.631
 6216SOL    HW119547   4.882   1.946   4.614
 6216SOL    HW219548   5.009   1.851   4.580
 6217SOL     OW19549   1.066   4.544   2.768
 6217SOL    HW119550   1.128   4.485   2.717
 6217SOL    HW219551   0.994   4.578   2.708
 6218SOL     OW19552   4.401   6.466   0.485
 6218SOL    HW119553   4.351   6.536   0.535
 6218SOL    HW219554   4.466   6.421   0.547
 6219SOL     OW19555   2.347   0.850   6.961
 6219SOL    HW119556   2.391   0.761   6.955
 6219SOL    HW219557   2.250   0.841   6.938
 6220SOL     OW19558   3.120   6.308   1.132
 6220SOL    HW119559   3.026   6.279   1.113
 6220SOL    HW219560   3.127   6.407   1.120
 6221SOL     OW19561   4.906   5.848   5.765
 6221SOL    HW119562   4.933   5.803   5.850
 6221SOL    HW219563   4.813   5.885   5.775
 6222SOL     OW19564   6.711   1.440   2.423
 6222SOL    HW119565   6.764   1.489   2.492
 6222SOL    HW219566   6.620   1.481   2.415
 6223SOL     OW19567   6.959   4.718   4.658
 6223SOL    HW119568   0.011   4.749   4.605
 6223SOL    HW219569   6.895   4.794   4.671
 6224SOL     OW19570   3.495   6.473   7.020
 6224SOL    HW119571   3.537   6.391   0.031
 6224SOL    HW219572   3.396   6.460   7.013
 6225SOL     OW19573   4.838   6.146   6.173
 6225SOL    HW119574   4.858   6.057   6.215
 6225SOL    HW219575   4.844   6.139   6.074
 6226SOL     OW19576   0.649   0.895   3.580
 6226SOL    HW119577   0.587   0.899   3.658
 6226SOL    HW219578   0.650   0.801   3.544
 6227SOL     OW19579   2.877   4.806   5.583
 6227SOL    HW119580   2.804   4.864   5.619
 6227SOL    HW219581   2.854   4.710   5.597
 6228SOL     OW19582   1.278   2.910   3.748
 6228SOL    HW119583   1.330   2.887   3.666
 6228SOL    HW219584   1.310   2.998   3.785
 6229SOL     OW19585   0.834   3.933   4.106
 6229SOL    HW119586   0.842   3.922   4.205
 6229SOL    HW219587   0.828   3.843   4.063
 6230SOL     OW19588   0.308   0.943   1.449
 6230SOL    HW119589   0.329   1.033   1.412
 6230SOL    HW219590   0.226   0.906   1.405
 6231SOL     OW19591   2.011   5.437   5.556
 6231SOL    HW119592   1.956   5.507   5.511
 6231SOL    HW219593   2.102   5.435   5.514
 6232SOL     OW19594   4.502   0.601   6.517
 6232SOL    HW119595   4.437   0.591   6.442
 6232SOL    HW219596   4.461   0.569   6.602
 6233SOL     OW19597   6.880   3.382   1.001
 6233SOL    HW119598   6.904   3.369   1.097
 6233SOL    HW219599   6.806   3.320   0.976
 6234SOL     OW19600   5.172   5.152   4.497
 6234SOL    HW119601   5.251   5.213   4.491
 6234SOL    HW219602   5.194   5.073   4.553
 6235SOL     OW19603   0.314   0.809   2.123
 6235SOL    HW119604   0.282   0.815   2.028
 6235SOL    HW219605   0.413   0.820   2.125
 6236SOL     OW19606   6.639   5.728   1.126
 6236SOL    HW119607   6.644   5.828   1.130
 6236SOL    HW219608   6.596   5.701   1.040
 6237SOL     OW19609   3.321   1.312   2.095
 6237SOL    HW119610   3.322   1.233   2.034
 6237SOL    HW219611   3.315   1.281   2.190
 6238SOL     OW19612   2.316   1.243   3.530
 6238SOL    HW119613   2.230   1.223   3.482
 6238SOL    HW219614   2.386   1.269   3.464
 6239SOL     OW19615   4.845   1.191   4.382
 6239SOL    HW119616   4.888   1.128   4.447
 6239SOL    HW219617   4.769   1.145   4.336
 6240SOL     OW19618   4.106   3.696   3.976
 6240SOL    HW119619   4.163   3.614   3.977
 6240SOL    HW219620   4.019   3.676   4.020
 6241SOL     OW19621   3.827   0.206   3.517
 6241SOL    HW119622   3.804   0.247   3.605
 6241SOL    HW219623   3.774   0.251   3.444
 6242SOL     OW19624   3.053   1.815   4.407
 6242SOL    HW119625   3.016   1.722   4.410
 6242SOL    HW219626   2.990   1.877   4.455
 6243SOL     OW19627   4.701   1.378   6.903
 6243SOL    HW119628   4.621   1.326   6.935
 6243SOL    HW219629   4.749   1.417   6.981
 6244SOL     OW19630   4.416   2.473   1.716
 6244SOL    HW119631   4.423   2.466   1.816
 6244SOL    HW219632   4.427   2.569   1.689
 6245SOL     OW19633   0.221   5.018   2.336
 6245SOL    HW119634   0.304   5.056   2.296
 6245SOL    HW219635   0.213   5.048   2.431
 6246SOL     OW19636   0.286   6.746   4.947
 6246SOL    HW119637   0.363   6.784   4.896
 6246SOL    HW219638   0.311   6.656   4.983
 6247SOL     OW19639   6.482   5.961   3.168
 6247SOL    HW119640   6.494   5.947   3.266
 6247SOL    HW219641   6.521   5.883   3.118
 6248SOL     OW19642   3.842   3.414   5.474
 6248SOL    HW119643   3.781   3.489   5.501
 6248SOL    HW219644   3.895   3.384   5.553
 6249SOL     OW19645   5.171   3.566   3.003
 6249SOL    HW119646   5.073   3.548   3.002
 6249SOL    HW219647   5.215   3.512   2.931
 6250SOL     OW19648   5.713   6.850   6.381
 6250SOL    HW119649   5.672   6.869   6.471
 6250SOL    HW219650   5.649   6.880   6.310
 6251SOL     OW19651   2.844   1.016   4.655
 6251SOL    HW119652   2.905   1.043   4.729
 6251SOL    HW219653   2.807   1.098   4.611
 6252SOL     OW19654   2.912   5.384   0.335
 6252SOL    HW119655   2.837   5.320   0.341
 6252SOL    HW219656   2.965   5.368   0.252
 6253SOL     OW19657   4.117   6.434   4.071
 6253SOL    HW119658   4.093   6.509   4.133
 6253SOL    HW219659   4.214   6.440   4.048
 6254SOL     OW19660   0.052   0.265   1.742
 6254SOL    HW119661   0.001   0.207   1.806
 6254SOL    HW219662   0.106   0.207   1.681
 6255SOL     OW19663   1.306   1.836   0.976
 6255SOL    HW119664   1.389   1.813   0.925
 6255SOL    HW219665   1.289   1.766   1.045
 6256SOL     OW19666   6.278   5.380   1.838
 6256SOL    HW119667   6.363   5.410   1.881
 6256SOL    HW219668   6.200   5.429   1.878
 6257SOL     OW19669   3.519   4.527   1.193
 6257SOL    HW119670   3.458   4.488   1.262
 6257SOL    HW219671   3.518   4.626   1.199
 6258SOL     OW19672   4.206   5.500   4.591
 6258SOL    HW119673   4.206   5.454   4.680
 6258SOL    HW219674   4.275   5.572   4.590
 6259SOL     OW19675   4.234   0.782   5.223
 6259SOL    HW119676   4.203   0.711   5.160
 6259SOL    HW219677   4.328   0.809   5.198
 6260SOL     OW19678   2.502   1.805   0.886
 6260SOL    HW119679   2.432   1.740   0.916
 6260SOL    HW219680   2.550   1.767   0.807
 6261SOL     OW19681   3.210   6.773   0.919
 6261SOL    HW119682   3.280   6.734   0.858
 6261SOL    HW219683   3.202   6.871   0.902
 6262SOL     OW19684   6.023   1.077   2.367
 6262SOL    HW119685   6.046   1.048   2.274
 6262SOL    HW219686   6.107   1.098   2.417
 6263SOL     OW19687   6.424   6.009   6.066
 6263SOL    HW119688   6.477   6.083   6.107
 6263SOL    HW219689   6.363   5.969   6.135
 6264SOL     OW19690   1.866   5.784   0.317
 6264SOL    HW119691   1.801   5.860   0.311
 6264SOL    HW219692   1.823   5.701   0.280
 6265SOL     OW19693   4.262   6.123   6.112
 6265SOL    HW119694   4.162   6.133   6.108
 6265SOL    HW219695   4.305   6.213   6.117
 6266SOL     OW19696   3.744   5.279   2.930
 6266SOL    HW119697   3.735   5.346   3.004
 6266SOL    HW219698   3.750   5.187   2.969
 6267SOL     OW19699   0.631   6.470   4.208
 6267SOL    HW119700   0.714   6.416   4.191
 6267SOL    HW219701   0.552   6.409   4.215
 6268SOL     OW19702   3.063   1.758   0.827
 6268SOL    HW119703   3.056   1.857   0.821
 6268SOL    HW219704   3.154   1.732   0.858
 6269SOL     OW19705   6.598   5.577   6.666
 6269SOL    HW119706   6.653   5.570   6.750
 6269SOL    HW219707   6.630   5.655   6.612
 6270SOL     OW19708   1.617   6.316   0.907
 6270SOL    HW119709   1.632   6.377   0.830
 6270SOL    HW219710   1.595   6.370   0.989
 6271SOL     OW19711   6.992   2.848   6.197
 6271SOL    HW119712   7.007   2.805   6.285
 6271SOL    HW219713   6.897   2.879   6.191
 6272SOL     OW19714   0.231   1.159   6.943
 6272SOL    HW119715   0.218   1.203   6.855
 6272SOL    HW219716   0.328   1.162   6.968
 6273SOL     OW19717   0.252   6.802   2.935
 6273SOL    HW119718   0.336   6.808   2.880
 6273SOL    HW219719   0.265   6.852   3.020
 6274SOL     OW19720   3.095   5.349   3.819
 6274SOL    HW119721   3.176   5.408   3.811
 6274SOL    HW219722   3.044   5.373   3.902
 6275SOL     OW19723   2.687   5.999   6.727
 6275SOL    HW119724   2.729   5.996   6.637
 6275SOL    HW219725   2.756   5.979   6.797
 6276SOL     OW19726   1.905   5.450   2.664
 6276SOL    HW119727   1.924   5.472   2.759
 6276SOL    HW219728   1.954   5.513   2.604
 6277SOL     OW19729   4.825   2.532   1.315
 6277SOL    HW119730   4.731   2.564   1.328
 6277SOL    HW219731   4.831   2.436   1.342
 6278SOL     OW19732   4.453   2.191   0.476
 6278SOL    HW119733   4.511   2.122   0.520
 6278SOL    HW219734   4.381   2.219   0.540
 6279SOL     OW19735   2.891   6.522   1.821
 6279SOL    HW119736   2.896   6.426   1.794
 6279SOL    HW219737   2.980   6.553   1.855
 6280SOL     OW19738   4.861   2.004   6.669
 6280SOL    HW119739   4.841   2.054   6.753
 6280SOL    HW219740   4.940   2.046   6.623
 6281SOL     OW19741   4.965   4.861   5.849
 6281SOL    HW119742   4.872   4.848   5.815
 6281SOL    HW219743   4.965   4.857   5.949
 6282SOL     OW19744   0.756   3.591   6.103
 6282SOL    HW119745   0.727   3.496   6.087
 6282SOL    HW219746   0.825   3.593   6.174
 6283SOL     OW19747   2.470   6.899   4.765
 6283SOL    HW119748   2.548   6.947   4.804
 6283SOL    HW219749   2.480   6.891   4.666
 6284SOL     OW19750   1.606   2.872   5.771
 6284SOL    HW119751   1.669   2.878   5.694
 6284SOL    HW219752   1.556   2.958   5.780
 6285SOL     OW19753   1.494   3.273   2.851
 6285SOL    HW119754   1.519   3.207   2.780
 6285SOL    HW219755   1.550   3.259   2.932
 6286SOL     OW19756   0.536   2.351   6.487
 6286SOL    HW119757   0.533   2.358   6.586
 6286SOL    HW219758   0.443   2.343   6.451
 6287SOL     OW19759   4.296   4.686   4.674
 6287SOL    HW119760   4.292   4.763   4.737
 6287SOL    HW219761   4.386   4.641   4.683
 6288SOL     OW19762   2.686   3.511   5.853
 6288SOL    HW119763   2.759   3.521   5.786
 6288SOL    HW219764   2.671   3.598   5.900
 6289SOL     OW19765   2.256   4.720   4.356
 6289SOL    HW119766   2.236   4.790   4.424
 6289SOL    HW219767   2.211   4.743   4.270
 6290SOL     OW19768   6.034   7.002   3.760
 6290SOL    HW119769   5.976   0.040   3.710
 6290SOL    HW219770   6.072   6.935   3.696
 6291SOL     OW19771   3.668   3.688   2.031
 6291SOL    HW119772   3.629   3.660   2.119
 6291SOL    HW219773   3.761   3.724   2.045
 6292SOL     OW19774   1.367   4.714   4.902
 6292SOL    HW119775   1.286   4.675   4.945
 6292SOL    HW219776   1.438   4.644   4.895
 6293SOL     OW19777   2.634   1.546   6.004
 6293SOL    HW119778   2.541   1.526   6.038
 6293SOL    HW219779   2.664   1.634   6.039
 6294SOL     OW19780   2.108   1.267   2.112
 6294SOL    HW119781   2.073   1.198   2.049
 6294SOL    HW219782   2.031   1.311   2.160
 6295SOL     OW19783   4.304   3.872   6.324
 6295SOL    HW119784   4.300   3.962   6.368
 6295SOL    HW219785   4.362   3.811   6.378
 6296SOL     OW19786   0.408   2.623   6.909
 6296SOL    HW119787   0.485   2.621   6.845
 6296SOL    HW219788   0.359   2.536   6.904
 6297SOL     OW19789   6.769   1.112   3.856
 6297SOL    HW119790   6.793   1.194   3.909
 6297SOL    HW219791   6.844   1.046   3.861
 6298SOL     OW19792   6.972   6.910   0.589
 6298SOL    HW119793   6.973   7.002   0.630
 6298SOL    HW219794   0.010   6.908   0.512
 6299SOL     OW19795   3.972   1.609   4.275
 6299SOL    HW119796   3.913   1.573   4.347
 6299SOL    HW219797   4.052   1.550   4.266
 6300SOL     OW19798   3.034   2.023   0.782
 6300SOL    HW119799   2.959   2.004   0.718
 6300SOL    HW219800   3.037   2.120   0.803
 6301SOL     OW19801   3.994   6.275   6.658
 6301SOL    HW119802   3.999   6.370   6.628
 6301SOL    HW219803   3.916   6.263   6.720
 6302SOL     OW19804   1.230   3.756   0.145
 6302SOL    HW119805   1.317   3.750   0.194
 6302SOL    HW219806   1.159   3.789   0.206
 6303SOL     OW19807   6.717   4.589   4.251
 6303SOL    HW119808   6.707   4.592   4.350
 6303SOL    HW219809   6.804   4.546   4.227
 6304SOL     OW19810   3.113   1.323   4.169
 6304SOL    HW119811   3.019   1.289   4.176
 6304SOL    HW219812   3.131   1.350   4.074
 6305SOL     OW19813   0.724   5.948   5.795
 6305SOL    HW119814   0.742   6.037   5.753
 6305SOL    HW219815   0.625   5.934   5.802
 6306SOL     OW19816   0.391   4.345   4.480
 6306SOL    HW119817   0.365   4.426   4.533
 6306SOL    HW219818   0.427   4.275   4.541
 6307SOL     OW19819   3.699   3.222   2.602
 6307SOL    HW119820   3.706   3.161   2.523
 6307SOL    HW219821   3.639   3.299   2.580
 6308SOL     OW19822   0.923   2.197   0.665
 6308SOL    HW119823   0.968   2.264   0.726
 6308SOL    HW219824   0.871   2.246   0.595
 6309SOL     OW19825   1.589   6.199   4.668
 6309SOL    HW119826   1.550   6.280   4.711
 6309SOL    HW219827   1.648   6.152   4.733
 6310SOL     OW19828   0.759   6.768   3.742
 6310SOL    HW119829   0.736   6.863   3.722
 6310SOL    HW219830   0.848   6.764   3.788
 6311SOL     OW19831   6.502   1.222   6.401
 6311SOL    HW119832   6.494   1.190   6.307
 6311SOL    HW219833   6.443   1.301   6.414
 6312SOL     OW19834   2.976   5.796   0.578
 6312SOL    HW119835   2.976   5.786   0.678
 6312SOL    HW219836   3.014   5.886   0.554
 6313SOL     OW19837   5.660   4.790   3.763
 6313SOL    HW119838   5.564   4.813   3.776
 6313SOL    HW219839   5.675   4.694   3.788
 6314SOL     OW19840   1.541   6.180   2.881
 6314SOL    HW119841   1.594   6.262   2.904
 6314SOL    HW219842   1.550   6.113   2.955
 6315SOL     OW19843   2.223   1.511   3.631
 6315SOL    HW119844   2.284   1.590   3.629
 6315SOL    HW219845   2.272   1.430   3.597
 6316SOL     OW19846   4.411   0.667   5.001
 6316SOL    HW119847   4.397   0.761   4.970
 6316SOL    HW219848   4.485   0.665   5.069
 6317SOL     OW19849   4.604   4.527   3.142
 6317SOL    HW119850   4.652   4.439   3.133
 6317SOL    HW219851   4.646   4.594   3.081
 6318SOL     OW19852   6.395   6.602   0.344
 6318SOL    HW119853   6.476   6.551   0.317
 6318SOL    HW219854   6.419   6.667   0.416
 6319SOL     OW19855   4.570   2.002   4.665
 6319SOL    HW119856   4.644   1.991   4.732
 6319SOL    HW219857   4.493   1.944   4.690
 6320SOL     OW19858   6.482   1.917   5.795
 6320SOL    HW119859   6.512   1.851   5.726
 6320SOL    HW219860   6.383   1.925   5.794
 6321SOL     OW19861   0.505   3.160   0.336
 6321SOL    HW119862   0.425   3.209   0.371
 6321SOL    HW219863   0.565   3.225   0.289
 6322SOL     OW19864   1.746   1.617   3.110
 6322SOL    HW119865   1.805   1.592   3.033
 6322SOL    HW219866   1.660   1.653   3.076
 6323SOL     OW19867   2.247   5.086   0.717
 6323SOL    HW119868   2.192   5.011   0.754
 6323SOL    HW219869   2.201   5.173   0.736
 6324SOL     OW19870   4.635   3.387   1.130
 6324SOL    HW119871   4.665   3.292   1.142
 6324SOL    HW219872   4.571   3.411   1.203
 6325SOL     OW19873   1.640   2.877   3.869
 6325SOL    HW119874   1.678   2.958   3.915
 6325SOL    HW219875   1.636   2.894   3.770
 6326SOL     OW19876   5.085   5.073   4.844
 6326SOL    HW119877   5.060   5.008   4.917
 6326SOL    HW219878   5.147   5.028   4.780
 6327SOL     OW19879   0.366   1.334   3.556
 6327SOL    HW119880   0.425   1.349   3.477
 6327SOL    HW219881   0.351   1.236   3.568
 6328SOL     OW19882   4.164   3.687   5.156
 6328SOL    HW119883   4.096   3.740   5.106
 6328SOL    HW219884   4.172   3.596   5.115
 6329SOL     OW19885   0.633   2.249   5.877
 6329SOL    HW119886   0.658   2.217   5.968
 6329SOL    HW219887   0.558   2.192   5.841
 6330SOL     OW19888   4.635   1.724   3.568
 6330SOL    HW119889   4.725   1.700   3.533
 6330SOL    HW219890   4.635   1.821   3.595
 6331SOL     OW19891   1.297   3.482   3.966
 6331SOL    HW119892   1.284   3.437   3.878
 6331SOL    HW219893   1.232   3.445   4.033
 6332SOL     OW19894   3.717   1.854   6.821
 6332SOL    HW119895   3.808   1.882   6.851
 6332SOL    HW219896   3.664   1.934   6.795
 6333SOL     OW19897   5.768   0.638   0.770
 6333SOL    HW119898   5.865   0.612   0.771
 6333SOL    HW219899   5.712   0.557   0.754
 6334SOL     OW19900   2.316   1.338   1.851
 6334SOL    HW119901   2.402   1.387   1.834
 6334SOL    HW219902   2.336   1.244   1.877
 6335SOL     OW19903   6.883   3.829   5.972
 6335SOL    HW119904   6.977   3.863   5.984
 6335SOL    HW219905   6.879   3.769   5.893
 6336SOL     OW19906   0.666   4.361   5.806
 6336SOL    HW119907   0.579   4.346   5.759
 6336SOL    HW219908   0.739   4.317   5.755
 6337SOL     OW19909   6.139   0.159   4.986
 6337SOL    HW119910   6.130   0.091   4.913
 6337SOL    HW219911   6.229   0.150   5.029
 6338SOL     OW19912   0.907   0.993   3.234
 6338SOL    HW119913   0.883   0.902   3.269
 6338SOL    HW219914   0.883   0.999   3.137
 6339SOL     OW19915   6.886   3.675   3.050
 6339SOL    HW119916   6.979   3.712   3.046
 6339SOL    HW219917   6.888   3.580   3.082
 6340SOL     OW19918   2.787   5.012   0.153
 6340SOL    HW119919   2.849   5.062   0.093
 6340SOL    HW219920   2.775   5.064   0.238
 6341SOL     OW19921   7.023   5.087   2.159
 6341SOL    HW119922   7.017   5.015   2.090
 6341SOL    HW219923   0.082   5.077   2.210
 6342SOL     OW19924   2.239   1.140   1.620
 6342SOL    HW119925   2.330   1.166   1.588
 6342SOL    HW219926   2.237   1.142   1.720
 6343SOL     OW19927   1.206   5.748   0.037
 6343SOL    HW119928   1.275   5.814   0.008
 6343SOL    HW219929   1.205   5.742   0.137
 6344SOL     OW19930   1.250   1.249   4.868
 6344SOL    HW119931   1.206   1.338   4.858
 6344SOL    HW219932   1.298   1.225   4.783
 6345SOL     OW19933   5.802   2.901   2.715
 6345SOL    HW119934   5.841   2.834   2.651
 6345SOL    HW219935   5.725   2.859   2.763
 6346SOL     OW19936   0.520   4.271   4.950
 6346SOL    HW119937   0.492   4.244   4.858
 6346SOL    HW219938   0.587   4.344   4.944
 6347SOL     OW19939   1.961   2.372   3.795
 6347SOL    HW119940   1.998   2.463   3.810
 6347SOL    HW219941   1.875   2.362   3.845
 6348SOL     OW19942   0.912   2.689   6.705
 6348SOL    HW119943   0.966   2.674   6.788
 6348SOL    HW219944   0.952   2.763   6.651
 6349SOL     OW19945   5.706   0.611   1.059
 6349SOL    HW119946   5.710   0.617   0.959
 6349SOL    HW219947   5.709   0.703   1.098
 6350SOL     OW19948   0.854   6.617   1.338
 6350SOL    HW119949   0.836   6.523   1.310
 6350SOL    HW219950   0.951   6.638   1.326
 6351SOL     OW19951   5.664   3.267   1.489
 6351SOL    HW119952   5.702   3.359   1.500
 6351SOL    HW219953   5.739   3.200   1.487
 6352SOL     OW19954   3.964   0.462   4.136
 6352SOL    HW119955   3.993   0.536   4.075
 6352SOL    HW219956   3.876   0.486   4.178
 6353SOL     OW19957   3.598   6.237   5.047
 6353SOL    HW119958   3.501   6.241   5.024
 6353SOL    HW219959   3.612   6.175   5.123
 6354SOL     OW19960   4.928   4.868   2.354
 6354SOL    HW119961   4.987   4.910   2.423
 6354SOL    HW219962   4.843   4.838   2.397
 6355SOL     OW19963   3.580   5.684   0.882
 6355SOL    HW119964   3.676   5.672   0.906
 6355SOL    HW219965   3.538   5.752   0.943
 6356SOL     OW19966   0.297   6.424   6.167
 6356SOL    HW119967   0.222   6.404   6.230
 6356SOL    HW219968   0.303   6.351   6.098
 6357SOL     OW19969   4.820   1.711   3.125
 6357SOL    HW119970   4.821   1.628   3.180
 6357SOL    HW219971   4.883   1.778   3.164
 6358SOL     OW19972   1.028   1.804   4.517
 6358SOL    HW119973   0.993   1.776   4.606
 6358SOL    HW219974   1.108   1.749   4.494
 6359SOL     OW19975   5.750   5.594   1.702
 6359SOL    HW119976   5.668   5.565   1.653
 6359SOL    HW219977   5.807   5.515   1.723
 6360SOL     OW19978   2.117   2.528   1.005
 6360SOL    HW119979   2.211   2.551   0.979
 6360SOL    HW219980   2.119   2.463   1.081
 6361SOL     OW19981   0.627   1.219   1.837
 6361SOL    HW119982   0.670   1.262   1.757
 6361SOL    HW219983   0.530   1.242   1.839
 6362SOL     OW19984   1.341   5.184   0.335
 6362SOL    HW119985   1.389   5.097   0.326
 6362SOL    HW219986   1.244   5.167   0.354
 6363SOL     OW19987   1.054   3.359   1.726
 6363SOL    HW119988   1.150   3.363   1.700
 6363SOL    HW219989   1.041   3.293   1.799
 6364SOL     OW19990   2.882   1.555   4.225
 6364SOL    HW119991   2.799   1.608   4.207
 6364SOL    HW219992   2.916   1.576   4.316
 6365SOL     OW19993   5.981   7.024   2.730
 6365SOL    HW119994   5.954   6.982   2.817
 6365SOL    HW219995   6.031   6.957   2.675
 6366SOL     OW19996   5.870   0.995   5.550
 6366SOL    HW119997   5.955   0.958   5.513
 6366SOL    HW219998   5.884   1.090   5.577
 6367SOL     OW19999   1.262   2.227   3.930
 6367SOL    HW120000   1.259   2.324   3.954
 6367SOL    HW220001   1.241   2.172   4.011
 6368SOL     OW20002   4.915   3.408   4.827
 6368SOL    HW120003   4.938   3.328   4.883
 6368SOL    HW220004   4.879   3.480   4.886
 6369SOL     OW20005   4.378   4.811   0.633
 6369SOL    HW120006   4.288   4.835   0.597
 6369SOL    HW220007   4.413   4.887   0.688
 6370SOL     OW20008   5.646   4.123   4.614
 6370SOL    HW120009   5.728   4.090   4.568
 6370SOL    HW220010   5.654   4.221   4.631
 6371SOL     OW20011   5.640   4.766   0.927
 6371SOL    HW120012   5.590   4.800   0.847
 6371SOL    HW220013   5.726   4.723   0.896
 6372SOL     OW20014   6.683   1.356   1.302
 6372SOL    HW120015   6.697   1.261   1.330
 6372SOL    HW220016   6.726   1.371   1.213
 6373SOL     OW20017   4.935   3.012   1.798
 6373SOL    HW120018   4.859   3.008   1.863
 6373SOL    HW220019   4.988   2.928   1.803
 6374SOL     OW20020   4.708   3.593   5.952
 6374SOL    HW120021   4.708   3.533   5.872
 6374SOL    HW220022   4.667   3.680   5.928
 6375SOL     OW20023   4.762   1.195   1.513
 6375SOL    HW120024   4.835   1.239   1.460
 6375SOL    HW220025   4.742   1.105   1.473
 6376SOL     OW20026   2.941   0.511   0.199
 6376SOL    HW120027   2.880   0.438   0.168
 6376SOL    HW220028   3.032   0.472   0.218
 6377SOL     OW20029   0.265   0.544   6.942
 6377SOL    HW120030   0.245   0.642   6.942
 6377SOL    HW220031   0.199   0.496   6.885
 6378SOL     OW20032   5.750   4.222   2.037
 6378SOL    HW120033   5.830   4.190   2.087
 6378SOL    HW220034   5.696   4.283   2.096
 6379SOL     OW20035   1.976   5.475   6.282
 6379SOL    HW120036   2.027   5.552   6.245
 6379SOL    HW220037   1.884   5.474   6.245
 6380SOL     OW20038   1.631   2.756   5.461
 6380SOL    HW120039   1.651   2.671   5.509
 6380SOL    HW220040   1.692   2.766   5.383
 6381SOL     OW20041   3.589   4.021   0.259
 6381SOL    HW120042   3.620   3.996   0.351
 6381SOL    HW220043   3.667   4.056   0.206
 6382SOL     OW20044   1.479   1.352   0.696
 6382SOL    HW120045   1.397   1.409   0.697
 6382SOL    HW220046   1.458   1.264   0.739
 6383SOL     OW20047   2.434   2.549   2.297
 6383SOL    HW120048   2.493   2.493   2.356
 6383SOL    HW220049   2.358   2.585   2.351
 6384SOL     OW20050   6.319   2.814   2.078
 6384SOL    HW120051   6.305   2.759   1.996
 6384SOL    HW220052   6.386   2.770   2.137
 6385SOL     OW20053   6.436   3.794   0.849
 6385SOL    HW120054   6.365   3.843   0.798
 6385SOL    HW220055   6.510   3.768   0.787
 6386SOL     OW20056   3.427   3.502   0.150
 6386SOL    HW120057   3.433   3.602   0.152
 6386SOL    HW220058   3.416   3.467   0.243
 6387SOL     OW20059   6.912   0.189   6.707
 6387SOL    HW120060   6.872   0.147   6.625
 6387SOL    HW220061   6.840   0.210   6.773
 6388SOL     OW20062   5.560   5.463   2.037
 6388SOL    HW120063   5.660   5.459   2.043
 6388SOL    HW220064   5.521   5.389   2.091
 6389SOL     OW20065   6.729   6.804   0.641
 6389SOL    HW120066   6.747   6.709   0.668
 6389SOL    HW220067   6.816   6.849   0.621
 6390SOL     OW20068   5.399   0.247   6.730
 6390SOL    HW120069   5.406   0.156   6.689
 6390SOL    HW220070   5.478   0.262   6.789
 6391SOL     OW20071   1.943   1.985   4.748
 6391SOL    HW120072   1.908   1.917   4.812
 6391SOL    HW220073   1.951   2.073   4.794
 6392SOL     OW20074   4.415   6.985   3.880
 6392SOL    HW120075   4.502   7.018   3.845
 6392SOL    HW220076   4.350   0.034   3.886
 6393SOL     OW20077   1.613   4.683   0.583
 6393SOL    HW120078   1.682   4.611   0.579
 6393SOL    HW220079   1.628   4.740   0.663
 6394SOL     OW20080   2.073   4.959   1.961
 6394SOL    HW120081   2.012   5.030   1.926
 6394SOL    HW220082   2.019   4.885   2.000
 6395SOL     OW20083   1.637   4.530   4.820
 6395SOL    HW120084   1.713   4.474   4.851
 6395SOL    HW220085   1.660   4.627   4.831
 6396SOL     OW20086   2.212   2.661   5.419
 6396SOL    HW120087   2.308   2.674   5.444
 6396SOL    HW220088   2.177   2.745   5.378
 6397SOL     OW20089   6.325   3.476   4.944
 6397SOL    HW120090   6.317   3.574   4.927
 6397SOL    HW220091   6.261   3.449   5.016
 6398SOL     OW20092   2.044   0.220   2.480
 6398SOL    HW120093   2.109   0.284   2.440
 6398SOL    HW220094   1.975   0.270   2.532
 6399SOL     OW20095   3.153   0.127   0.393
 6399SOL    HW120096   3.177   0.180   0.474
 6399SOL    HW220097   3.181   0.176   0.310
 6400SOL     OW20098   0.349   6.847   2.496
 6400SOL    HW120099   0.412   6.780   2.455
 6400SOL    HW220100   0.347   6.929   2.438
 6401SOL     OW20101   3.808   5.250   2.315
 6401SOL    HW120102   3.714   5.237   2.348
 6401SOL    HW220103   3.812   5.228   2.218
 6402SOL     OW20104   3.639   4.704   5.830
 6402SOL    HW120105   3.644   4.611   5.794
 6402SOL    HW220106   3.721   4.755   5.802
 6403SOL     OW20107   5.003   5.784   5.513
 6403SOL    HW120108   4.976   5.794   5.609
 6403SOL    HW220109   5.023   5.874   5.474
 6404SOL     OW20110   4.840   5.730   7.002
 6404SOL    HW120111   4.905   5.655   6.989
 6404SOL    HW220112   4.748   5.700   6.975
 6405SOL     OW20113   4.767   1.142   2.594
 6405SOL    HW120114   4.839   1.101   2.538
 6405SOL    HW220115   4.784   1.239   2.606
 6406SOL     OW20116   0.478   3.330   2.509
 6406SOL    HW120117   0.449   3.419   2.544
 6406SOL    HW220118   0.398   3.272   2.496
 6407SOL     OW20119   0.364   0.063   2.383
 6407SOL    HW120120   0.279   0.087   2.336
 6407SOL    HW220121   0.391   0.139   2.442
 6408SOL     OW20122   0.025   1.312   1.946
 6408SOL    HW120123   7.023   1.269   2.032
 6408SOL    HW220124   0.082   1.392   1.966
 6409SOL     OW20125   5.763   4.343   3.230
 6409SOL    HW120126   5.711   4.323   3.147
 6409SOL    HW220127   5.819   4.424   3.215
 6410SOL     OW20128   2.063   1.230   0.089
 6410SOL    HW120129   1.988   1.193   0.143
 6410SOL    HW220130   2.048   1.209   7.019
 6411SOL     OW20131   0.595   2.661   2.667
 6411SOL    HW120132   0.555   2.752   2.684
 6411SOL    HW220133   0.635   2.626   2.752
 6412SOL     OW20134   3.588   0.277   6.906
 6412SOL    HW120135   3.561   0.216   6.981
 6412SOL    HW220136   3.630   0.359   6.943
 6413SOL     OW20137   4.965   6.451   3.376
 6413SOL    HW120138   4.983   6.353   3.387
 6413SOL    HW220139   4.893   6.479   3.440
 6414SOL     OW20140   2.714   0.540   0.383
 6414SOL    HW120141   2.775   0.558   0.306
 6414SOL    HW220142   2.754   0.471   0.443
 6415SOL     OW20143   0.935   1.297   3.583
 6415SOL    HW120144   0.947   1.236   3.661
 6415SOL    HW220145   0.897   1.384   3.615
 6416SOL     OW20146   3.184   4.932   0.308
 6416SOL    HW120147   3.133   4.998   0.253
 6416SOL    HW220148   3.121   4.882   0.367
 6417SOL     OW20149   4.581   3.139   6.707
 6417SOL    HW120150   4.585   3.214   6.642
 6417SOL    HW220151   4.489   3.133   6.745
 6418SOL     OW20152   4.953   5.190   0.415
 6418SOL    HW120153   4.995   5.254   0.479
 6418SOL    HW220154   5.021   5.160   0.348
 6419SOL     OW20155   0.908   6.870   6.853
 6419SOL    HW120156   1.008   6.874   6.846
 6419SOL    HW220157   0.881   6.791   6.907
 6420SOL     OW20158   2.499   4.518   3.731
 6420SOL    HW120159   2.463   4.470   3.811
 6420SOL    HW220160   2.570   4.582   3.760
 6421SOL     OW20161   4.804   0.019   1.901
 6421SOL    HW120162   4.728   0.053   1.847
 6421SOL    HW220163   4.859   0.096   1.933
 6422SOL     OW20164   0.032   2.568   4.774
 6422SOL    HW120165   0.061   2.475   4.793
 6422SOL    HW220166   0.004   2.576   4.678
 6423SOL     OW20167   1.044   4.108   5.205
 6423SOL    HW120168   1.138   4.077   5.223
 6423SOL    HW220169   0.993   4.033   5.162
 6424SOL     OW20170   6.709   4.383   6.040
 6424SOL    HW120171   6.772   4.413   6.112
 6424SOL    HW220172   6.632   4.336   6.082
 6425SOL     OW20173   0.271   6.398   4.355
 6425SOL    HW120174   0.353   6.361   4.311
 6425SOL    HW220175   0.191   6.380   4.297
 6426SOL     OW20176   4.746   5.313   4.307
 6426SOL    HW120177   4.728   5.337   4.212
 6426SOL    HW220178   4.661   5.319   4.360
 6427SOL     OW20179   4.123   3.508   3.713
 6427SOL    HW120180   4.123   3.452   3.631
 6427SOL    HW220181   4.115   3.449   3.794
 6428SOL     OW20182   5.564   3.249   0.180
 6428SOL    HW120183   5.484   3.226   0.236
 6428SOL    HW220184   5.563   3.194   0.096
 6429SOL     OW20185   2.365   1.594   5.881
 6429SOL    HW120186   2.308   1.524   5.837
 6429SOL    HW220187   2.306   1.652   5.938
 6430SOL     OW20188   5.665   1.410   4.841
 6430SOL    HW120189   5.572   1.384   4.814
 6430SOL    HW220190   5.720   1.428   4.760
 6431SOL     OW20191   3.512   5.264   2.407
 6431SOL    HW120192   3.483   5.254   2.502
 6431SOL    HW220193   3.480   5.185   2.354
 6432SOL     OW20194   4.844   2.991   5.805
 6432SOL    HW120195   4.756   2.943   5.807
 6432SOL    HW220196   4.892   2.969   5.720
 6433SOL     OW20197   3.408   5.371   6.037
 6433SOL    HW120198   3.469   5.427   6.093
 6433SOL    HW220199   3.399   5.280   6.078
 6434SOL     OW20200   5.525   5.552   5.871
 6434SOL    HW120201   5.504   5.549   5.773
 6434SOL    HW220202   5.556   5.462   5.901
 6435SOL     OW20203   4.673   1.279   0.961
 6435SOL    HW120204   4.633   1.220   0.890
 6435SOL    HW220205   4.727   1.351   0.917
 6436SOL     OW20206   0.282   3.490   3.563
 6436SOL    HW120207   0.340   3.461   3.487
 6436SOL    HW220208   0.276   3.417   3.631
 6437SOL     OW20209   1.669   2.717   6.059
 6437SOL    HW120210   1.588   2.676   6.099
 6437SOL    HW220211   1.657   2.725   5.960
 6438SOL     OW20212   0.623   5.286   0.733
 6438SOL    HW120213   0.708   5.284   0.680
 6438SOL    HW220214   0.558   5.222   0.694
 6439SOL     OW20215   5.396   6.915   2.497
 6439SOL    HW120216   5.425   6.833   2.446
 6439SOL    HW220217   5.457   6.991   2.474
 6440SOL     OW20218   2.336   1.816   6.377
 6440SOL    HW120219   2.265   1.760   6.334
 6440SOL    HW220220   2.425   1.773   6.366
 6441SOL     OW20221   0.381   2.394   1.761
 6441SOL    HW120222   0.373   2.294   1.759
 6441SOL    HW220223   0.310   2.434   1.703
 6442SOL     OW20224   2.599   1.965   4.583
 6442SOL    HW120225   2.503   1.993   4.574
 6442SOL    HW220226   2.631   1.928   4.496
 6443SOL     OW20227   3.598   3.265   6.474
 6443SOL    HW120228   3.525   3.215   6.521
 6443SOL    HW220229   3.559   3.311   6.394
 6444SOL     OW20230   0.010   3.990   4.785
 6444SOL    HW120231   7.005   3.912   4.730
 6444SOL    HW220232   0.090   4.031   4.742
 6445SOL     OW20233   3.918   3.097   3.396
 6445SOL    HW120234   3.824   3.081   3.426
 6445SOL    HW220235   3.936   3.044   3.313
 6446SOL     OW20236   1.425   0.949   0.334
 6446SOL    HW120237   1.503   0.903   0.379
 6446SOL    HW220238   1.340   0.905   0.363
 6447SOL     OW20239   5.909   3.941   1.768
 6447SOL    HW120240   5.838   3.995   1.813
 6447SOL    HW220241   5.949   3.877   1.833
 6448SOL     OW20242   4.273   4.701   1.119
 6448SOL    HW120243   4.236   4.794   1.117
 6448SOL    HW220244   4.273   4.663   1.027
 6449SOL     OW20245   3.777   5.311   0.346
 6449SOL    HW120246   3.702   5.258   0.306
 6449SOL    HW220247   3.742   5.401   0.373
 6450SOL     OW20248   6.072   3.775   7.007
 6450SOL    HW120249   6.089   3.678   6.992
 6450SOL    HW220250   6.147   3.829   6.968
 6451SOL     OW20251   4.375   2.728   1.658
 6451SOL    HW120252   4.290   2.777   1.679
 6451SOL    HW220253   4.452   2.778   1.698
 6452SOL     OW20254   4.047   1.996   5.295
 6452SOL    HW120255   4.124   2.059   5.281
 6452SOL    HW220256   3.968   2.027   5.241
 6453SOL     OW20257   2.372   0.460   2.922
 6453SOL    HW120258   2.350   0.475   3.019
 6453SOL    HW220259   2.287   0.457   2.869
 6454SOL     OW20260   5.220   2.857   4.543
 6454SOL    HW120261   5.157   2.923   4.584
 6454SOL    HW220262   5.170   2.800   4.477
 6455SOL     OW20263   0.047   2.745   4.023
 6455SOL    HW120264   0.137   2.733   3.982
 6455SOL    HW220265   0.026   2.667   4.082
 6456SOL     OW20266   6.681   2.170   2.512
 6456SOL    HW120267   6.726   2.112   2.580
 6456SOL    HW220268   6.618   2.233   2.559
 6457SOL     OW20269   2.394   6.312   2.613
 6457SOL    HW120270   2.342   6.321   2.528
 6457SOL    HW220271   2.413   6.215   2.630
 6458SOL     OW20272   0.145   0.171   4.369
 6458SOL    HW120273   0.103   0.192   4.281
 6458SOL    HW220274   0.090   0.210   4.443
 6459SOL     OW20275   0.269   3.121   3.183
 6459SOL    HW120276   0.315   3.037   3.214
 6459SOL    HW220277   0.239   3.173   3.263
 6460SOL     OW20278   1.432   5.152   6.479
 6460SOL    HW120279   1.478   5.165   6.391
 6460SOL    HW220280   1.489   5.096   6.538
 6461SOL     OW20281   0.563   6.477   1.004
 6461SOL    HW120282   0.567   6.512   0.910
 6461SOL    HW220283   0.651   6.490   1.048
 6462SOL     OW20284   1.910   3.805   5.179
 6462SOL    HW120285   1.860   3.834   5.260
 6462SOL    HW220286   1.987   3.866   5.163
 6463SOL     OW20287   4.958   2.864   0.975
 6463SOL    HW120288   4.913   2.953   0.971
 6463SOL    HW220289   4.899   2.795   0.934
 6464SOL     OW20290   0.696   3.840   3.593
 6464SOL    HW120291   0.759   3.763   3.580
 6464SOL    HW220292   0.679   3.852   3.691
 6465SOL     OW20293   2.925   0.969   3.774
 6465SOL    HW120294   3.006   0.910   3.781
 6465SOL    HW220295   2.954   1.064   3.764
 6466SOL     OW20296   6.410   5.118   6.425
 6466SOL    HW120297   6.450   5.203   6.459
 6466SOL    HW220298   6.311   5.120   6.441
 6467SOL     OW20299   2.209   2.574   6.459
 6467SOL    HW120300   2.211   2.632   6.541
 6467SOL    HW220301   2.228   2.631   6.378
 6468SOL     OW20302   1.332   0.627   1.428
 6468SOL    HW120303   1.418   0.654   1.470
 6468SOL    HW220304   1.260   0.692   1.455
 6469SOL     OW20305   1.954   1.174   1.571
 6469SOL    HW120306   2.049   1.149   1.585
 6469SOL    HW220307   1.943   1.273   1.579
 6470SOL     OW20308   6.240   1.678   6.907
 6470SOL    HW120309   6.224   1.739   6.985
 6470SOL    HW220310   6.288   1.728   6.835
 6471SOL     OW20311   0.146   6.181   5.947
 6471SOL    HW120312   0.243   6.207   5.937
 6471SOL    HW220313   0.099   6.248   6.004
 6472SOL     OW20314   6.951   6.114   2.236
 6472SOL    HW120315   7.017   6.038   2.238
 6472SOL    HW220316   6.990   6.193   2.283
 6473SOL     OW20317   2.862   0.935   3.305
 6473SOL    HW120318   2.810   1.011   3.345
 6473SOL    HW220319   2.817   0.848   3.328
 6474SOL     OW20320   3.456   6.690   3.923
 6474SOL    HW120321   3.414   6.718   3.837
 6474SOL    HW220322   3.554   6.708   3.920
 6475SOL     OW20323   5.605   5.643   3.050
 6475SOL    HW120324   5.634   5.689   3.134
 6475SOL    HW220325   5.628   5.700   2.972
 6476SOL     OW20326   4.552   3.506   6.163
 6476SOL    HW120327   4.611   3.553   6.098
 6476SOL    HW220328   4.588   3.516   6.256
 6477SOL     OW20329   0.530   6.439   0.527
 6477SOL    HW120330   0.525   6.340   0.544
 6477SOL    HW220331   0.467   6.486   0.588
 6478SOL     OW20332   1.600   6.210   1.214
 6478SOL    HW120333   1.612   6.124   1.165
 6478SOL    HW220334   1.549   6.194   1.298
 6479SOL     OW20335   4.753   6.013   3.482
 6479SOL    HW120336   4.742   6.099   3.431
 6479SOL    HW220337   4.828   5.960   3.442
 6480SOL     OW20338   3.686   1.566   5.469
 6480SOL    HW120339   3.624   1.584   5.393
 6480SOL    HW220340   3.777   1.601   5.447
 6481SOL     OW20341   4.145   3.204   2.025
 6481SOL    HW120342   4.229   3.170   1.982
 6481SOL    HW220343   4.066   3.173   1.972
 6482SOL     OW20344   4.685   3.255   5.356
 6482SOL    HW120345   4.780   3.223   5.367
 6482SOL    HW220346   4.684   3.355   5.352
 6483SOL     OW20347   2.096   5.821   5.405
 6483SOL    HW120348   2.137   5.764   5.333
 6483SOL    HW220349   2.007   5.783   5.431
 6484SOL     OW20350   4.463   1.551   3.695
 6484SOL    HW120351   4.528   1.618   3.659
 6484SOL    HW220352   4.481   1.535   3.792
 6485SOL     OW20353   2.274   5.173   5.252
 6485SOL    HW120354   2.235   5.083   5.237
 6485SOL    HW220355   2.221   5.242   5.202
 6486SOL     OW20356   6.952   4.555   2.441
 6486SOL    HW120357   6.983   4.633   2.496
 6486SOL    HW220358   0.002   4.517   2.390
 6487SOL     OW20359   6.482   5.070   3.736
 6487SOL    HW120360   6.451   5.158   3.773
 6487SOL    HW220361   6.577   5.079   3.706
 6488SOL     OW20362   3.831   5.164   3.865
 6488SOL    HW120363   3.846   5.227   3.942
 6488SOL    HW220364   3.755   5.102   3.887
 6489SOL     OW20365   6.127   3.393   5.117
 6489SOL    HW120366   6.140   3.323   5.187
 6489SOL    HW220367   6.038   3.382   5.073
 6490SOL     OW20368   2.232   2.522   0.283
 6490SOL    HW120369   2.291   2.453   0.324
 6490SOL    HW220370   2.273   2.554   0.197
 6491SOL     OW20371   1.518   0.038   1.691
 6491SOL    HW120372   1.605   0.083   1.672
 6491SOL    HW220373   1.514   0.012   1.788
 6492SOL     OW20374   4.007   3.798   4.247
 6492SOL    HW120375   4.106   3.781   4.243
 6492SOL    HW220376   3.978   3.848   4.165
 6493SOL     OW20377   1.277   4.787   3.742
 6493SOL    HW120378   1.271   4.738   3.655
 6493SOL    HW220379   1.327   4.873   3.729
 6494SOL     OW20380   6.622   0.578   1.059
 6494SOL    HW120381   6.590   0.543   1.147
 6494SOL    HW220382   6.547   0.577   0.993
 6495SOL     OW20383   6.919   0.294   3.478
 6495SOL    HW120384   6.953   0.388   3.485
 6495SOL    HW220385   6.829   0.288   3.523
 6496SOL     OW20386   3.318   2.120   1.582
 6496SOL    HW120387   3.276   2.187   1.520
 6496SOL    HW220388   3.385   2.167   1.640
 6497SOL     OW20389   0.520   1.548   0.654
 6497SOL    HW120390   0.598   1.570   0.595
 6497SOL    HW220391   0.539   1.577   0.747
 6498SOL     OW20392   2.131   4.497   4.733
 6498SOL    HW120393   2.204   4.533   4.791
 6498SOL    HW220394   2.062   4.452   4.791
 6499SOL     OW20395   4.747   2.361   3.182
 6499SOL    HW120396   4.771   2.336   3.088
 6499SOL    HW220397   4.784   2.451   3.203
 6500SOL     OW20398   1.240   3.531   3.323
 6500SOL    HW120399   1.332   3.529   3.362
 6500SOL    HW220400   1.216   3.439   3.289
 6501SOL     OW20401   6.258   0.987   2.787
 6501SOL    HW120402   6.215   0.973   2.876
 6501SOL    HW220403   6.346   1.034   2.800
 6502SOL     OW20404   0.854   3.197   1.570
 6502SOL    HW120405   0.914   3.171   1.494
 6502SOL    HW220406   0.907   3.248   1.638
 6503SOL     OW20407   0.039   2.868   5.648
 6503SOL    HW120408   7.022   2.834   5.732
 6503SOL    HW220409   7.016   2.833   5.569
 6504SOL     OW20410   3.371   6.702   6.046
 6504SOL    HW120411   3.294   6.730   6.103
 6504SOL    HW220412   3.370   6.603   6.035
 6505SOL     OW20413   0.178   6.891   1.135
 6505SOL    HW120414   0.174   6.808   1.079
 6505SOL    HW220415   0.183   6.971   1.075
 6506SOL     OW20416   0.137   3.844   1.929
 6506SOL    HW120417   0.053   3.852   1.874
 6506SOL    HW220418   0.209   3.801   1.874
 6507SOL     OW20419   3.832   5.863   0.992
 6507SOL    HW120420   3.782   5.911   1.064
 6507SOL    HW220421   3.845   5.767   1.019
 6508SOL     OW20422   6.678   0.558   3.777
 6508SOL    HW120423   6.635   0.596   3.859
 6508SOL    HW220424   6.735   0.480   3.801
 6509SOL     OW20425   2.477   1.571   0.194
 6509SOL    HW120426   2.380   1.553   0.176
 6509SOL    HW220427   2.532   1.538   0.117
 6510SOL     OW20428   3.105   5.429   4.605
 6510SOL    HW120429   3.103   5.468   4.513
 6510SOL    HW220430   3.172   5.479   4.661
 6511SOL     OW20431   3.075   2.052   0.408
 6511SOL    HW120432   3.068   1.957   0.436
 6511SOL    HW220433   3.036   2.064   0.317
 6512SOL     OW20434   5.052   0.704   0.433
 6512SOL    HW120435   5.093   0.694   0.343
 6512SOL    HW220436   4.953   0.713   0.423
 6513SOL     OW20437   2.698   4.640   2.826
 6513SOL    HW120438   2.647   4.713   2.781
 6513SOL    HW220439   2.634   4.569   2.856
 6514SOL     OW20440   5.006   6.203   5.311
 6514SOL    HW120441   5.038   6.266   5.240
 6514SOL    HW220442   4.959   6.255   5.382
 6515SOL     OW20443   0.503   4.953   2.520
 6515SOL    HW120444   0.562   4.982   2.444
 6515SOL    HW220445   0.521   5.009   2.600
 6516SOL     OW20446   6.231   2.190   2.802
 6516SOL    HW120447   6.218   2.261   2.871
 6516SOL    HW220448   6.143   2.151   2.777
 6517SOL     OW20449   6.253   3.951   0.542
 6517SOL    HW120450   6.316   4.020   0.506
 6517SOL    HW220451   6.286   3.860   0.518
 6518SOL     OW20452   0.908   0.990   2.233
 6518SOL    HW120453   0.836   1.057   2.215
 6518SOL    HW220454   0.996   1.028   2.205
 6519SOL     OW20455   1.339   0.952   3.434
 6519SOL    HW120456   1.412   0.921   3.495
 6519SOL    HW220457   1.283   1.020   3.481
 6520SOL     OW20458   6.548   5.401   6.918
 6520SOL    HW120459   6.473   5.465   6.898
 6520SOL    HW220460   6.612   5.444   6.982
 6521SOL     OW20461   1.554   4.876   4.506
 6521SOL    HW120462   1.627   4.812   4.485
 6521SOL    HW220463   1.592   4.968   4.515
 6522SOL     OW20464   2.675   2.919   5.387
 6522SOL    HW120465   2.628   2.855   5.448
 6522SOL    HW220466   2.618   2.935   5.306
 6523SOL     OW20467   6.046   6.482   0.973
 6523SOL    HW120468   6.043   6.562   0.913
 6523SOL    HW220469   6.090   6.507   1.059
 6524SOL     OW20470   3.123   2.702   1.322
 6524SOL    HW120471   3.171   2.716   1.235
 6524SOL    HW220472   3.072   2.785   1.346
 6525SOL     OW20473   1.577   5.080   3.886
 6525SOL    HW120474   1.671   5.094   3.854
 6525SOL    HW220475   1.579   5.036   3.975
 6526SOL     OW20476   6.512   6.821   0.945
 6526SOL    HW120477   6.467   6.805   0.857
 6526SOL    HW220478   6.496   6.916   0.973
 6527SOL     OW20479   5.711   1.402   0.673
 6527SOL    HW120480   5.705   1.499   0.650
 6527SOL    HW220481   5.635   1.353   0.630
 6528SOL     OW20482   4.358   6.821   0.389
 6528SOL    HW120483   4.327   6.830   0.294
 6528SOL    HW220484   4.455   6.799   0.390
 6529SOL     OW20485   4.721   0.322   1.858
 6529SOL    HW120486   4.651   0.325   1.788
 6529SOL    HW220487   4.707   0.396   1.923
 6530SOL     OW20488   0.490   2.476   3.477
 6530SOL    HW120489   0.402   2.517   3.498
 6530SOL    HW220490   0.484   2.377   3.490
 6531SOL     OW20491   3.768   3.741   3.987
 6531SOL    HW120492   3.800   3.648   4.005
 6531SOL    HW220493   3.688   3.761   4.044
 6532SOL     OW20494   0.744   6.181   0.679
 6532SOL    HW120495   0.752   6.109   0.610
 6532SOL    HW220496   0.771   6.269   0.639
 6533SOL     OW20497   4.774   4.580   1.291
 6533SOL    HW120498   4.734   4.578   1.382
 6533SOL    HW220499   4.714   4.632   1.230
 6534SOL     OW20500   0.111   4.265   3.954
 6534SOL    HW120501   0.013   4.248   3.969
 6534SOL    HW220502   0.123   4.325   3.875
 6535SOL     OW20503   5.323   4.385   5.495
 6535SOL    HW120504   5.281   4.314   5.551
 6535SOL    HW220505   5.410   4.351   5.458
 6536SOL     OW20506   0.156   4.787   5.773
 6536SOL    HW120507   0.057   4.772   5.783
 6536SOL    HW220508   0.193   4.724   5.705
 6537SOL     OW20509   0.008   5.076   4.150
 6537SOL    HW120510   6.982   5.124   4.220
 6537SOL    HW220511   6.993   5.092   4.061
 6538SOL     OW20512   0.963   2.824   4.018
 6538SOL    HW120513   0.941   2.869   3.931
 6538SOL    HW220514   0.908   2.740   4.027
 6539SOL     OW20515   4.566   6.405   6.888
 6539SOL    HW120516   4.639   6.408   6.820
 6539SOL    HW220517   4.522   6.495   6.894
 6540SOL     OW20518   0.233   2.676   5.270
 6540SOL    HW120519   0.184   2.685   5.183
 6540SOL    HW220520   0.298   2.752   5.278
 6541SOL     OW20521   4.283   1.562   5.265
 6541SOL    HW120522   4.303   1.503   5.187
 6541SOL    HW220523   4.348   1.543   5.339
 6542SOL     OW20524   1.753   4.075   2.515
 6542SOL    HW120525   1.670   4.020   2.508
 6542SOL    HW220526   1.734   4.160   2.563
 6543SOL     OW20527   4.035   1.277   4.463
 6543SOL    HW120528   4.049   1.253   4.559
 6543SOL    HW220529   4.037   1.193   4.408
 6544SOL     OW20530   0.209   0.184   0.375
 6544SOL    HW120531   0.189   0.222   0.285
 6544SOL    HW220532   0.171   0.244   0.446
 6545SOL     OW20533   4.798   6.108   1.211
 6545SOL    HW120534   4.849   6.037   1.261
 6545SOL    HW220535   4.716   6.067   1.171
 6546SOL     OW20536   4.788   5.528   5.630
 6546SOL    HW120537   4.764   5.445   5.580
 6546SOL    HW220538   4.732   5.604   5.597
 6547SOL     OW20539   0.918   6.268   5.130
 6547SOL    HW120540   0.928   6.339   5.060
 6547SOL    HW220541   0.848   6.203   5.101
 6548SOL     OW20542   1.327   1.636   6.313
 6548SOL    HW120543   1.267   1.618   6.391
 6548SOL    HW220544   1.378   1.721   6.329
 6549SOL     OW20545   3.447   1.585   2.753
 6549SOL    HW120546   3.414   1.675   2.724
 6549SOL    HW220547   3.540   1.571   2.719
 6550SOL     OW20548   6.016   6.443   2.048
 6550SOL    HW120549   5.973   6.533   2.034
 6550SOL    HW220550   5.953   6.371   2.018
 6551SOL     OW20551   3.083   4.906   0.693
 6551SOL    HW120552   3.006   4.949   0.740
 6551SOL    HW220553   3.057   4.883   0.599
 6552SOL     OW20554   2.217   4.302   0.270
 6552SOL    HW120555   2.200   4.228   0.205
 6552SOL    HW220556   2.130   4.335   0.307
 6553SOL     OW20557   0.588   1.917   3.809
 6553SOL    HW120558   0.505   1.936   3.861
 6553SOL    HW220559   0.593   1.979   3.731
 6554SOL     OW20560   1.578   2.409   4.162
 6554SOL    HW120561   1.662   2.395   4.213
 6554SOL    HW220562   1.519   2.474   4.210
 6555SOL     OW20563   1.746   3.361   4.344
 6555SOL    HW120564   1.728   3.264   4.326
 6555SOL    HW220565   1.814   3.395   4.279
 6556SOL     OW20566   4.845   3.078   2.957
 6556SOL    HW120567   4.852   3.166   3.005
 6556SOL    HW220568   4.932   3.030   2.963
 6557SOL     OW20569   2.265   0.829   2.335
 6557SOL    HW120570   2.300   0.779   2.415
 6557SOL    HW220571   2.277   0.927   2.349
 6558SOL     OW20572   5.413   6.044   1.026
 6558SOL    HW120573   5.456   6.022   1.114
 6558SOL    HW220574   5.398   5.959   0.975
 6559SOL     OW20575   6.787   2.272   6.498
 6559SOL    HW120576   6.886   2.278   6.484
 6559SOL    HW220577   6.768   2.207   6.572
 6560SOL     OW20578   6.379   4.558   6.666
 6560SOL    HW120579   6.394   4.582   6.762
 6560SOL    HW220580   6.382   4.458   6.656
 6561SOL     OW20581   2.473   4.817   0.599
 6561SOL    HW120582   2.427   4.782   0.680
 6561SOL    HW220583   2.463   4.916   0.594
 6562SOL     OW20584   4.820   2.725   1.571
 6562SOL    HW120585   4.767   2.754   1.650
 6562SOL    HW220586   4.917   2.729   1.592
 6563SOL     OW20587   6.552   4.787   5.321
 6563SOL    HW120588   6.521   4.845   5.245
 6563SOL    HW220589   6.504   4.813   5.404
 6564SOL     OW20590   5.464   3.342   2.153
 6564SOL    HW120591   5.407   3.273   2.198
 6564SOL    HW220592   5.445   3.431   2.194
 6565SOL     OW20593   5.033   6.729   2.667
 6565SOL    HW120594   5.037   6.629   2.667
 6565SOL    HW220595   5.082   6.764   2.747
 6566SOL     OW20596   5.284   5.566   3.658
 6566SOL    HW120597   5.363   5.537   3.605
 6566SOL    HW220598   5.203   5.568   3.600
 6567SOL     OW20599   3.494   0.736   2.744
 6567SOL    HW120600   3.545   0.671   2.801
 6567SOL    HW220601   3.554   0.771   2.672
 6568SOL     OW20602   4.919   1.020   0.747
 6568SOL    HW120603   4.954   1.093   0.806
 6568SOL    HW220604   4.993   0.988   0.687
 6569SOL     OW20605   1.098   4.800   3.974
 6569SOL    HW120606   1.139   4.803   3.883
 6569SOL    HW220607   1.134   4.722   4.025
 6570SOL     OW20608   4.263   0.443   2.144
 6570SOL    HW120609   4.330   0.485   2.083
 6570SOL    HW220610   4.184   0.504   2.152
 6571SOL     OW20611   2.450   6.842   3.216
 6571SOL    HW120612   2.525   6.785   3.248
 6571SOL    HW220613   2.390   6.864   3.293
 6572SOL     OW20614   1.788   6.364   4.170
 6572SOL    HW120615   1.840   6.375   4.254
 6572SOL    HW220616   1.818   6.281   4.123
 6573SOL     OW20617   0.010   2.362   3.094
 6573SOL    HW120618   0.022   2.277   3.147
 6573SOL    HW220619   0.042   2.347   3.001
 6574SOL     OW20620   1.148   4.692   2.241
 6574SOL    HW120621   1.142   4.792   2.249
 6574SOL    HW220622   1.099   4.650   2.317
 6575SOL     OW20623   6.908   1.786   3.722
 6575SOL    HW120624   6.903   1.885   3.733
 6575SOL    HW220625   6.858   1.759   3.640
 6576SOL     OW20626   3.691   0.050   1.494
 6576SOL    HW120627   3.744   0.091   1.420
 6576SOL    HW220628   3.617   7.021   1.455
 6577SOL     OW20629   3.653   0.933   4.925
 6577SOL    HW120630   3.597   0.897   4.999
 6577SOL    HW220631   3.652   1.033   4.927
 6578SOL     OW20632   1.445   4.927   0.836
 6578SOL    HW120633   1.367   4.872   0.866
 6578SOL    HW220634   1.504   4.946   0.915
 6579SOL     OW20635   1.393   1.555   3.847
 6579SOL    HW120636   1.472   1.495   3.856
 6579SOL    HW220637   1.327   1.514   3.785
 6580SOL     OW20638   2.768   2.055   0.406
 6580SOL    HW120639   2.828   2.055   0.326
 6580SOL    HW220640   2.824   2.044   0.489
 6581SOL     OW20641   0.405   1.826   1.311
 6581SOL    HW120642   0.323   1.784   1.274
 6581SOL    HW220643   0.381   1.910   1.360
 6582SOL     OW20644   5.118   0.655   3.123
 6582SOL    HW120645   5.082   0.661   3.217
 6582SOL    HW220646   5.215   0.633   3.126
 6583SOL     OW20647   3.005   4.404   0.912
 6583SOL    HW120648   3.072   4.417   0.985
 6583SOL    HW220649   2.967   4.493   0.886
 6584SOL     OW20650   4.101   2.576   6.468
 6584SOL    HW120651   4.126   2.492   6.419
 6584SOL    HW220652   4.010   2.605   6.439
 6585SOL     OW20653   5.251   0.010   1.749
 6585SOL    HW120654   5.218   7.025   1.843
 6585SOL    HW220655   5.220   6.960   1.693
 6586SOL     OW20656   6.693   0.986   6.254
 6586SOL    HW120657   6.778   1.030   6.283
 6586SOL    HW220658   6.667   0.916   6.319
 6587SOL     OW20659   3.073   5.176   4.771
 6587SOL    HW120660   2.981   5.193   4.806
 6587SOL    HW220661   3.092   5.237   4.695
 6588SOL     OW20662   1.198   2.010   0.228
 6588SOL    HW120663   1.280   2.048   0.183
 6588SOL    HW220664   1.119   2.066   0.204
 6589SOL     OW20665   6.639   6.441   1.689
 6589SOL    HW120666   6.684   6.355   1.710
 6589SOL    HW220667   6.657   6.507   1.761
 6590SOL     OW20668   1.146   6.266   4.565
 6590SOL    HW120669   1.222   6.201   4.566
 6590SOL    HW220670   1.113   6.277   4.471
 6591SOL     OW20671   6.347   3.321   3.651
 6591SOL    HW120672   6.322   3.280   3.739
 6591SOL    HW220673   6.446   3.335   3.647
 6592SOL     OW20674   6.495   0.193   4.079
 6592SOL    HW120675   6.414   0.135   4.081
 6592SOL    HW220676   6.478   0.276   4.132
 6593SOL     OW20677   2.307   1.127   2.303
 6593SOL    HW120678   2.249   1.114   2.222
 6593SOL    HW220679   2.335   1.223   2.308
 6594SOL     OW20680   5.240   0.258   0.167
 6594SOL    HW120681   5.273   0.184   0.226
 6594SOL    HW220682   5.164   0.305   0.212
 6595SOL     OW20683   0.632   1.873   5.078
 6595SOL    HW120684   0.632   1.866   4.979
 6595SOL    HW220685   0.709   1.930   5.108
 6596SOL     OW20686   5.291   1.320   2.357
 6596SOL    HW120687   5.265   1.386   2.428
 6596SOL    HW220688   5.256   1.229   2.381
 6597SOL     OW20689   0.999   4.493   1.015
 6597SOL    HW120690   1.058   4.449   1.083
 6597SOL    HW220691   0.988   4.433   0.936
 6598SOL     OW20692   1.542   5.126   3.111
 6598SOL    HW120693   1.615   5.063   3.134
 6598SOL    HW220694   1.497   5.158   3.194
 6599SOL     OW20695   0.426   5.682   6.438
 6599SOL    HW120696   0.449   5.592   6.400
 6599SOL    HW220697   0.394   5.742   6.365
 6600SOL     OW20698   4.757   6.493   4.639
 6600SOL    HW120699   4.764   6.429   4.716
 6600SOL    HW220700   4.794   6.450   4.556
 6601SOL     OW20701   1.446   2.780   1.739
 6601SOL    HW120702   1.369   2.743   1.792
 6601SOL    HW220703   1.477   2.866   1.780
 6602SOL     OW20704   6.984   5.080   1.224
 6602SOL    HW120705   0.040   5.079   1.167
 6602SOL    HW220706   7.000   5.026   1.307
 6603SOL     OW20707   0.594   4.331   2.324
 6603SOL    HW120708   0.628   4.298   2.412
 6603SOL    HW220709   0.604   4.430   2.320
 6604SOL     OW20710   1.506   5.768   3.150
 6604SOL    HW120711   1.559   5.852   3.142
 6604SOL    HW220712   1.518   5.713   3.068
 6605SOL     OW20713   0.174   5.265   1.325
 6605SOL    HW120714   0.239   5.194   1.350
 6605SOL    HW220715   0.116   5.232   1.250
 6606SOL     OW20716   1.661   4.096   2.840
 6606SOL    HW120717   1.700   4.012   2.878
 6606SOL    HW220718   1.721   4.173   2.862
 6607SOL     OW20719   6.097   3.119   4.079
 6607SOL    HW120720   6.124   3.049   4.144
 6607SOL    HW220721   5.998   3.120   4.069
 6608SOL     OW20722   1.049   0.307   5.641
 6608SOL    HW120723   0.983   0.232   5.643
 6608SOL    HW220724   1.012   0.386   5.690
 6609SOL     OW20725   3.386   2.753   0.151
 6609SOL    HW120726   3.467   2.694   0.147
 6609SOL    HW220727   3.398   2.829   0.087
 6610SOL     OW20728   2.880   6.219   1.074
 6610SOL    HW120729   2.803   6.241   1.133
 6610SOL    HW220730   2.863   6.133   1.026
 6611SOL     OW20731   3.251   1.311   4.676
 6611SOL    HW120732   3.248   1.408   4.654
 6611SOL    HW220733   3.305   1.262   4.608
 6612SOL     OW20734   0.856   0.097   0.111
 6612SOL    HW120735   0.866   0.116   0.014
 6612SOL    HW220736   0.804   0.171   0.155
 6613SOL     OW20737   4.576   6.416   0.712
 6613SOL    HW120738   4.613   6.438   0.803
 6613SOL    HW220739   4.644   6.363   0.661
 6614SOL     OW20740   4.047   4.933   0.878
 6614SOL    HW120741   3.982   4.857   0.883
 6614SOL    HW220742   4.020   4.995   0.805
 6615SOL     OW20743   3.587   5.566   6.138
 6615SOL    HW120744   3.568   5.566   6.236
 6615SOL    HW220745   3.660   5.500   6.118
 6616SOL     OW20746   4.451   1.298   0.033
 6616SOL    HW120747   4.373   1.351   0.066
 6616SOL    HW220748   4.509   1.273   0.110
 6617SOL     OW20749   3.465   0.799   3.488
 6617SOL    HW120750   3.457   0.839   3.396
 6617SOL    HW220751   3.416   0.856   3.554
 6618SOL     OW20752   5.948   2.536   4.158
 6618SOL    HW120753   5.902   2.496   4.238
 6618SOL    HW220754   5.929   2.634   4.155
 6619SOL     OW20755   4.880   5.033   3.958
 6619SOL    HW120756   4.908   4.938   3.946
 6619SOL    HW220757   4.924   5.071   4.039
 6620SOL     OW20758   0.943   2.611   3.370
 6620SOL    HW120759   0.999   2.612   3.288
 6620SOL    HW220760   0.867   2.546   3.359
 6621SOL     OW20761   3.081   3.362   3.858
 6621SOL    HW120762   3.174   3.397   3.870
 6621SOL    HW220763   3.022   3.399   3.930
 6622SOL     OW20764   0.466   4.949   1.342
 6622SOL    HW120765   0.396   4.898   1.292
 6622SOL    HW220766   0.472   5.042   1.307
 6623SOL     OW20767   2.871   3.600   3.594
 6623SOL    HW120768   2.954   3.650   3.620
 6623SOL    HW220769   2.828   3.644   3.516
 6624SOL     OW20770   2.647   2.327   2.852
 6624SOL    HW120771   2.628   2.265   2.928
 6624SOL    HW220772   2.562   2.348   2.804
 6625SOL     OW20773   6.719   3.766   5.510
 6625SOL    HW120774   6.733   3.680   5.560
 6625SOL    HW220775   6.791   3.831   5.536
 6626SOL     OW20776   3.419   5.602   5.079
 6626SOL    HW120777   3.492   5.671   5.073
 6626SOL    HW220778   3.454   5.514   5.046
 6627SOL     OW20779   2.622   5.815   4.245
 6627SOL    HW120780   2.539   5.772   4.282
 6627SOL    HW220781   2.606   5.837   4.148
 6628SOL     OW20782   3.906   7.017   3.227
 6628SOL    HW120783   3.808   7.002   3.219
 6628SOL    HW220784   3.943   0.022   3.139
 6629SOL     OW20785   4.521   5.453   4.857
 6629SOL    HW120786   4.556   5.427   4.768
 6629SOL    HW220787   4.422   5.435   4.861
 6630SOL     OW20788   1.902   0.542   0.117
 6630SOL    HW120789   1.907   0.559   0.216
 6630SOL    HW220790   1.986   0.496   0.087
 6631SOL     OW20791   2.177   2.815   5.941
 6631SOL    HW120792   2.084   2.848   5.927
 6631SOL    HW220793   2.236   2.845   5.866
 6632SOL     OW20794   1.262   0.474   6.858
 6632SOL    HW120795   1.163   0.479   6.842
 6632SOL    HW220796   1.279   0.470   6.956
 6633SOL     OW20797   4.356   5.667   5.973
 6633SOL    HW120798   4.301   5.749   5.987
 6633SOL    HW220799   4.430   5.665   6.041
 6634SOL     OW20800   3.316   2.186   4.195
 6634SOL    HW120801   3.284   2.281   4.198
 6634SOL    HW220802   3.358   2.167   4.106
 6635SOL     OW20803   4.892   5.565   5.189
 6635SOL    HW120804   4.837   5.644   5.217
 6635SOL    HW220805   4.837   5.504   5.132
 6636SOL     OW20806   4.275   1.288   0.372
 6636SOL    HW120807   4.366   1.264   0.340
 6636SOL    HW220808   4.224   1.333   0.298
 6637SOL     OW20809   6.952   1.930   0.176
 6637SOL    HW120810   6.913   1.905   0.265
 6637SOL    HW220811   6.900   2.006   0.138
 6638SOL     OW20812   3.605   3.504   3.924
 6638SOL    HW120813   3.665   3.568   3.875
 6638SOL    HW220814   3.635   3.410   3.905
 6639SOL     OW20815   4.856   2.279   1.422
 6639SOL    HW120816   4.952   2.259   1.404
 6639SOL    HW220817   4.848   2.324   1.511
 6640SOL     OW20818   1.667   4.179   5.029
 6640SOL    HW120819   1.661   4.082   5.006
 6640SOL    HW220820   1.752   4.196   5.080
 6641SOL     OW20821   6.042   2.408   0.270
 6641SOL    HW120822   6.142   2.397   0.267
 6641SOL    HW220823   6.017   2.455   0.355
 6642SOL     OW20824   0.993   5.570   6.876
 6642SOL    HW120825   0.908   5.584   6.925
 6642SOL    HW220826   0.976   5.513   6.795
 6643SOL     OW20827   3.567   5.795   5.997
 6643SOL    HW120828   3.579   5.717   6.058
 6643SOL    HW220829   3.593   5.879   6.045
 6644SOL     OW20830   2.379   0.040   3.977
 6644SOL    HW120831   2.336   0.012   4.063
 6644SOL    HW220832   2.310   0.081   3.917
 6645SOL     OW20833   4.820   2.631   6.226
 6645SOL    HW120834   4.783   2.621   6.319
 6645SOL    HW220835   4.816   2.727   6.199
 6646SOL     OW20836   4.558   0.255   5.142
 6646SOL    HW120837   4.524   0.313   5.068
 6646SOL    HW220838   4.511   0.279   5.227
 6647SOL     OW20839   4.161   4.552   0.360
 6647SOL    HW120840   4.177   4.648   0.335
 6647SOL    HW220841   4.128   4.547   0.454
 6648SOL     OW20842   3.170   5.539   5.222
 6648SOL    HW120843   3.248   5.583   5.178
 6648SOL    HW220844   3.124   5.480   5.156
 6649SOL     OW20845   4.304   2.946   6.151
 6649SOL    HW120846   4.377   2.884   6.179
 6649SOL    HW220847   4.322   3.037   6.189
 6650SOL     OW20848   2.212   1.316   5.405
 6650SOL    HW120849   2.297   1.279   5.443
 6650SOL    HW220850   2.231   1.362   5.318
 6651SOL     OW20851   0.089   1.743   5.628
 6651SOL    HW120852   0.049   1.805   5.560
 6651SOL    HW220853   0.188   1.737   5.611
 6652SOL     OW20854   0.107   4.366   0.037
 6652SOL    HW120855   0.028   4.352   7.004
 6652SOL    HW220856   0.135   4.462   0.033
 6653SOL     OW20857   5.888   4.242   6.647
 6653SOL    HW120858   5.867   4.156   6.602
 6653SOL    HW220859   5.938   4.224   6.732
 6654SOL     OW20860   6.436   2.867   2.928
 6654SOL    HW120861   6.388   2.797   2.980
 6654SOL    HW220862   6.530   2.876   2.961
 6655SOL     OW20863   0.127   6.056   1.665
 6655SOL    HW120864   0.115   6.031   1.762
 6655SOL    HW220865   0.038   6.073   1.624
 6656SOL     OW20866   4.300   0.895   2.753
 6656SOL    HW120867   4.354   0.826   2.801
 6656SOL    HW220868   4.226   0.927   2.812
 6657SOL     OW20869   5.382   1.361   4.763
 6657SOL    HW120870   5.353   1.430   4.829
 6657SOL    HW220871   5.311   1.350   4.693
 6658SOL     OW20872   6.705   5.731   5.115
 6658SOL    HW120873   6.614   5.770   5.127
 6658SOL    HW220874   6.763   5.796   5.064
 6659SOL     OW20875   0.709   5.833   1.191
 6659SOL    HW120876   0.656   5.757   1.152
 6659SOL    HW220877   0.646   5.900   1.230
 6660SOL     OW20878   0.376   0.512   4.724
 6660SOL    HW120879   0.329   0.566   4.794
 6660SOL    HW220880   0.468   0.490   4.756
 6661SOL     OW20881   4.179   5.842   3.795
 6661SOL    HW120882   4.252   5.834   3.863
 6661SOL    HW220883   4.093   5.868   3.840
 6662SOL     OW20884   3.376   6.383   2.417
 6662SOL    HW120885   3.306   6.408   2.351
 6662SOL    HW220886   3.452   6.339   2.371
 6663SOL     OW20887   1.409   4.338   5.855
 6663SOL    HW120888   1.505   4.357   5.874
 6663SOL    HW220889   1.372   4.409   5.795
 6664SOL     OW20890   3.434   0.413   1.838
 6664SOL    HW120891   3.482   0.361   1.767
 6664SOL    HW220892   3.336   0.394   1.833
 6665SOL     OW20893   2.567   0.389   6.976
 6665SOL    HW120894   2.626   0.460   6.937
 6665SOL    HW220895   2.597   0.299   6.944
 6666SOL     OW20896   3.359   6.305   5.544
 6666SOL    HW120897   3.340   6.224   5.600
 6666SOL    HW220898   3.326   6.387   5.591
 6667SOL     OW20899   1.705   5.885   6.469
 6667SOL    HW120900   1.667   5.853   6.382
 6667SOL    HW220901   1.630   5.903   6.533
 6668SOL     OW20902   6.978   4.124   0.043
 6668SOL    HW120903   6.902   4.130   7.004
 6668SOL    HW220904   6.944   4.145   0.135
 6669SOL     OW20905   1.593   2.364   3.531
 6669SOL    HW120906   1.643   2.277   3.530
 6669SOL    HW220907   1.654   2.436   3.565
 6670SOL     OW20908   3.470   3.817   0.497
 6670SOL    HW120909   3.487   3.879   0.420
 6670SOL    HW220910   3.455   3.871   0.580
 6671SOL     OW20911   4.456   4.993   0.281
 6671SOL    HW120912   4.437   5.066   0.346
 6671SOL    HW220913   4.513   4.923   0.324
 6672SOL     OW20914   1.053   2.186   1.053
 6672SOL    HW120915   1.111   2.151   0.979
 6672SOL    HW220916   1.088   2.155   1.141
 6673SOL     OW20917   6.238   2.814   4.116
 6673SOL    HW120918   6.317   2.859   4.074
 6673SOL    HW220919   6.212   2.735   4.062
 6674SOL     OW20920   6.949   0.663   0.537
 6674SOL    HW120921   6.985   0.753   0.560
 6674SOL    HW220922   6.974   0.640   0.442
 6675SOL     OW20923   5.038   0.386   0.284
 6675SOL    HW120924   5.037   0.435   0.198
 6675SOL    HW220925   4.978   0.306   0.278
 6676SOL     OW20926   0.624   3.904   4.865
 6676SOL    HW120927   0.567   3.874   4.788
 6676SOL    HW220928   0.570   3.898   4.950
 6677SOL     OW20929   0.497   1.866   6.179
 6677SOL    HW120930   0.525   1.853   6.084
 6677SOL    HW220931   0.526   1.957   6.210
 6678SOL     OW20932   2.831   4.225   6.475
 6678SOL    HW120933   2.804   4.290   6.404
 6678SOL    HW220934   2.906   4.263   6.528
 6679SOL     OW20935   1.567   0.764   3.827
 6679SOL    HW120936   1.634   0.759   3.901
 6679SOL    HW220937   1.544   0.671   3.798
 6680SOL     OW20938   6.749   5.217   1.202
 6680SOL    HW120939   6.827   5.155   1.191
 6680SOL    HW220940   6.748   5.253   1.295
 6681SOL     OW20941   2.940   5.912   1.406
 6681SOL    HW120942   2.949   5.815   1.427
 6681SOL    HW220943   2.851   5.929   1.364
 6682SOL     OW20944   3.036   5.212   6.094
 6682SOL    HW120945   2.944   5.196   6.058
 6682SOL    HW220946   3.049   5.158   6.177
 6683SOL     OW20947   6.893   5.074   5.722
 6683SOL    HW120948   6.928   5.162   5.690
 6683SOL    HW220949   6.925   5.057   5.815
 6684SOL     OW20950   2.871   5.459   6.910
 6684SOL    HW120951   2.843   5.451   6.815
 6684SOL    HW220952   2.886   5.368   6.949
 6685SOL     OW20953   4.797   2.720   0.808
 6685SOL    HW120954   4.766   2.626   0.799
 6685SOL    HW220955   4.739   2.780   0.751
 6686SOL     OW20956   5.012   4.853   5.005
 6686SOL    HW120957   4.948   4.820   5.074
 6686SOL    HW220958   5.105   4.835   5.035
 6687SOL     OW20959   0.343   1.433   1.440
 6687SOL    HW120960   0.269   1.441   1.507
 6687SOL    HW220961   0.340   1.510   1.377
 6688SOL     OW20962   4.472   5.795   0.297
 6688SOL    HW120963   4.548   5.734   0.276
 6688SOL    HW220964   4.421   5.759   0.375
 6689SOL     OW20965   3.307   4.551   5.402
 6689SOL    HW120966   3.379   4.620   5.394
 6689SOL    HW220967   3.252   4.570   5.484
 6690SOL     OW20968   0.619   1.086   0.248
 6690SOL    HW120969   0.696   1.023   0.263
 6690SOL    HW220970   0.654   1.178   0.231
 6691SOL     OW20971   2.684   1.268   2.373
 6691SOL    HW120972   2.694   1.366   2.360
 6691SOL    HW220973   2.632   1.250   2.456
 6692SOL     OW20974   4.358   5.949   2.614
 6692SOL    HW120975   4.315   6.033   2.647
 6692SOL    HW220976   4.321   5.871   2.663
 6693SOL     OW20977   3.354   0.783   5.568
 6693SOL    HW120978   3.316   0.794   5.660
 6693SOL    HW220979   3.428   0.849   5.554
 6694SOL     OW20980   4.185   4.160   1.441
 6694SOL    HW120981   4.205   4.121   1.531
 6694SOL    HW220982   4.107   4.223   1.449
 6695SOL     OW20983   2.623   2.490   0.532
 6695SOL    HW120984   2.545   2.471   0.473
 6695SOL    HW220985   2.595   2.551   0.607
 6696SOL     OW20986   3.944   3.173   4.801
 6696SOL    HW120987   3.975   3.213   4.715
 6696SOL    HW220988   3.867   3.226   4.837
 6697SOL     OW20989   4.333   2.131   1.841
 6697SOL    HW120990   4.315   2.136   1.743
 6697SOL    HW220991   4.283   2.204   1.888
 6698SOL     OW20992   3.574   4.077   1.335
 6698SOL    HW120993   3.529   4.136   1.403
 6698SOL    HW220994   3.639   4.017   1.382
 6699SOL     OW20995   1.213   3.167   5.572
 6699SOL    HW120996   1.215   3.262   5.604
 6699SOL    HW220997   1.135   3.120   5.613
 6700SOL     OW20998   5.773   6.875   1.358
 6700SOL    HW120999   5.713   6.809   1.312
 6700SOL    HW221000   5.829   6.922   1.289
 6701SOL     OW21001   5.882   6.694   1.556
 6701SOL    HW121002   5.946   6.618   1.551
 6701SOL    HW221003   5.929   6.776   1.590
 6702SOL     OW21004   3.644   3.085   1.118
 6702SOL    HW121005   3.679   2.998   1.083
 6702SOL    HW221006   3.572   3.118   1.057
 6703SOL     OW21007   0.315   1.344   0.325
 6703SOL    HW121008   0.403   1.318   0.365
 6703SOL    HW221009   0.263   1.261   0.302
 6704SOL     OW21010   3.059   0.031   5.266
 6704SOL    HW121011   3.022   0.095   5.333
 6704SOL    HW221012   3.109   6.985   5.312
 6705SOL     OW21013   0.164   4.454   2.313
 6705SOL    HW121014   0.170   4.356   2.335
 6705SOL    HW221015   0.212   4.471   2.228
 6706SOL     OW21016   0.220   0.034   0.922
 6706SOL    HW121017   0.124   0.053   0.903
 6706SOL    HW221018   0.276   0.112   0.895
 6707SOL     OW21019   4.100   1.211   2.598
 6707SOL    HW121020   4.169   1.267   2.643
 6707SOL    HW221021   4.124   1.197   2.502
 6708SOL     OW21022   0.408   3.059   6.841
 6708SOL    HW121023   0.357   3.082   6.924
 6708SOL    HW221024   0.506   3.060   6.862
 6709SOL     OW21025   2.150   4.183   2.219
 6709SOL    HW121026   2.062   4.224   2.195
 6709SOL    HW221027   2.141   4.084   2.222
 6710SOL     OW21028   4.543   1.589   0.530
 6710SOL    HW121029   4.463   1.626   0.577
 6710SOL    HW221030   4.515   1.515   0.469
 6711SOL     OW21031   3.817   6.049   5.858
 6711SOL    HW121032   3.836   5.951   5.865
 6711SOL    HW221033   3.849   6.095   5.941
 6712SOL     OW21034   5.242   4.890   1.193
 6712SOL    HW121035   5.248   4.885   1.094
 6712SOL    HW221036   5.159   4.843   1.223
 6713SOL     OW21037   1.350   4.874   4.686
 6713SOL    HW121038   1.430   4.859   4.628
 6713SOL    HW221039   1.361   4.822   4.771
 6714SOL     OW21040   5.628   1.234   1.882
 6714SOL    HW121041   5.690   1.185   1.943
 6714SOL    HW221042   5.573   1.169   1.831
 6715SOL     OW21043   1.631   0.197   6.398
 6715SOL    HW121044   1.550   0.157   6.355
 6715SOL    HW221045   1.616   0.295   6.411
 6716SOL     OW21046   0.677   5.773   1.965
 6716SOL    HW121047   0.738   5.697   1.941
 6716SOL    HW221048   0.701   5.808   2.055
 6717SOL     OW21049   5.830   2.146   5.729
 6717SOL    HW121050   5.791   2.131   5.638
 6717SOL    HW221051   5.869   2.238   5.734
 6718SOL     OW21052   4.810   1.461   0.850
 6718SOL    HW121053   4.754   1.527   0.801
 6718SOL    HW221054   4.898   1.501   0.872
 6719SOL     OW21055   1.811   1.595   6.879
 6719SOL    HW121056   1.903   1.558   6.863
 6719SOL    HW221057   1.746   1.520   6.887
 6720SOL     OW21058   1.782   0.991   6.074
 6720SOL    HW121059   1.747   1.009   6.166
 6720SOL    HW221060   1.746   1.059   6.011
 6721SOL     OW21061   6.260   6.616   1.332
 6721SOL    HW121062   6.304   6.622   1.422
 6721SOL    HW221063   6.176   6.670   1.333
 6722SOL     OW21064   5.489   3.928   0.353
 6722SOL    HW121065   5.405   3.895   0.309
 6722SOL    HW221066   5.548   3.850   0.375
 6723SOL     OW21067   1.606   3.205   5.410
 6723SOL    HW121068   1.565   3.201   5.319
 6723SOL    HW221069   1.702   3.181   5.405
 6724SOL     OW21070   2.173   3.792   4.395
 6724SOL    HW121071   2.161   3.803   4.494
 6724SOL    HW221072   2.183   3.695   4.373
 6725SOL     OW21073   5.161   3.056   3.855
 6725SOL    HW121074   5.126   2.969   3.819
 6725SOL    HW221075   5.094   3.097   3.916
 6726SOL     OW21076   0.540   1.052   6.222
 6726SOL    HW121077   0.603   1.033   6.146
 6726SOL    HW221078   0.495   1.140   6.206
 6727SOL     OW21079   1.296   5.002   5.790
 6727SOL    HW121080   1.197   5.010   5.801
 6727SOL    HW221081   1.339   5.089   5.812
 6728SOL     OW21082   3.725   1.610   3.586
 6728SOL    HW121083   3.806   1.553   3.567
 6728SOL    HW221084   3.722   1.686   3.522
 6729SOL     OW21085   4.022   0.841   2.090
 6729SOL    HW121086   4.028   0.941   2.088
 6729SOL    HW221087   3.985   0.811   2.178
 6730SOL     OW21088   6.866   1.925   0.443
 6730SOL    HW121089   6.811   1.978   0.508
 6730SOL    HW221090   6.886   1.835   0.481
 6731SOL     OW21091   4.300   0.526   6.357
 6731SOL    HW121092   4.283   0.604   6.298
 6731SOL    HW221093   4.231   0.455   6.342
 6732SOL     OW21094   6.903   4.731   5.418
 6732SOL    HW121095   6.846   4.715   5.499
 6732SOL    HW221096   6.952   4.817   5.427
 6733SOL     OW21097   4.698   4.919   5.022
 6733SOL    HW121098   4.721   4.852   4.951
 6733SOL    HW221099   4.739   5.007   4.998
 6734SOL     OW21100   5.838   1.917   4.609
 6734SOL    HW121101   5.783   1.986   4.657
 6734SOL    HW221102   5.818   1.919   4.512
 6735SOL     OW21103   5.925   2.240   3.482
 6735SOL    HW121104   5.876   2.257   3.567
 6735SOL    HW221105   5.876   2.172   3.428
 6736SOL     OW21106   3.755   3.713   0.559
 6736SOL    HW121107   3.705   3.796   0.535
 6736SOL    HW221108   3.838   3.707   0.503
 6737SOL     OW21109   6.286   3.693   0.530
 6737SOL    HW121110   6.227   3.700   0.449
 6737SOL    HW221111   6.230   3.673   0.610
 6738SOL     OW21112   2.174   6.001   4.133
 6738SOL    HW121113   2.231   6.076   4.098
 6738SOL    HW221114   2.207   5.973   4.223
 6739SOL     OW21115   0.060   0.167   5.607
 6739SOL    HW121116   6.988   0.175   5.626
 6739SOL    HW221117   0.074   0.100   5.535
 6740SOL     OW21118   6.771   6.988   2.415
 6740SOL    HW121119   6.853   6.964   2.468
 6740SOL    HW221120   6.762   0.061   2.413
 6741SOL     OW21121   3.650   1.750   0.275
 6741SOL    HW121122   3.556   1.775   0.298
 6741SOL    HW221123   3.668   1.769   0.179
 6742SOL     OW21124   6.171   4.323   3.230
 6742SOL    HW121125   6.100   4.376   3.184
 6742SOL    HW221126   6.141   4.228   3.240
 6743SOL     OW21127   3.904   3.729   6.915
 6743SOL    HW121128   3.935   3.638   6.942
 6743SOL    HW221129   3.805   3.737   6.931
 6744SOL     OW21130   6.324   6.816   5.688
 6744SOL    HW121131   6.361   6.826   5.781
 6744SOL    HW221132   6.357   6.731   5.648
 6745SOL     OW21133   7.013   4.057   5.249
 6745SOL    HW121134   6.985   4.140   5.201
 6745SOL    HW221135   6.983   4.062   5.344
 6746SOL     OW21136   1.083   1.985   2.902
 6746SOL    HW121137   1.111   2.051   2.833
 6746SOL    HW221138   1.011   1.926   2.865
 6747SOL     OW21139   0.770   6.136   5.528
 6747SOL    HW121140   0.718   6.054   5.507
 6747SOL    HW221141   0.708   6.210   5.554
 6748SOL     OW21142   1.898   0.761   5.246
 6748SOL    HW121143   1.897   0.735   5.343
 6748SOL    HW221144   1.964   0.706   5.196
 6749SOL     OW21145   4.131   4.711   2.348
 6749SOL    HW121146   4.211   4.727   2.289
 6749SOL    HW221147   4.047   4.723   2.294
 6750SOL     OW21148   3.602   0.911   5.481
 6750SOL    HW121149   3.664   0.918   5.403
 6750SOL    HW221150   3.649   0.865   5.556
 6751SOL     OW21151   4.406   0.405   4.923
 6751SOL    HW121152   4.403   0.496   4.963
 6751SOL    HW221153   4.481   0.398   4.858
 6752SOL     OW21154   2.010   4.821   2.533
 6752SOL    HW121155   2.049   4.732   2.511
 6752SOL    HW221156   2.059   4.861   2.610
 6753SOL     OW21157   3.881   3.229   6.696
 6753SOL    HW121158   3.863   3.295   6.623
 6753SOL    HW221159   3.969   3.248   6.738
 6754SOL     OW21160   6.316   1.472   0.262
 6754SOL    HW121161   6.237   1.473   0.200
 6754SOL    HW221162   6.306   1.545   0.330
 6755SOL     OW21163   3.133   6.007   6.111
 6755SOL    HW121164   3.057   5.976   6.054
 6755SOL    HW221165   3.169   5.930   6.163
 6756SOL     OW21166   3.845   3.161   6.340
 6756SOL    HW121167   3.922   3.156   6.403
 6756SOL    HW221168   3.769   3.208   6.385
 6757SOL     OW21169   3.882   0.208   1.367
 6757SOL    HW121170   3.982   0.211   1.365
 6757SOL    HW221171   3.847   0.298   1.391
 6758SOL     OW21172   5.011   2.778   3.168
 6758SOL    HW121173   5.035   2.849   3.102
 6758SOL    HW221174   5.071   2.786   3.248
 6759SOL     OW21175   0.711   1.645   2.476
 6759SOL    HW121176   0.668   1.689   2.555
 6759SOL    HW221177   0.758   1.562   2.506
 6760SOL     OW21178   5.130   1.979   4.998
 6760SOL    HW121179   5.039   1.957   5.033
 6760SOL    HW221180   5.193   1.990   5.075
 6761SOL     OW21181   3.663   1.646   5.186
 6761SOL    HW121182   3.681   1.745   5.184
 6761SOL    HW221183   3.750   1.597   5.188
 6762SOL     OW21184   6.586   5.044   4.713
 6762SOL    HW121185   6.529   4.968   4.680
 6762SOL    HW221186   6.551   5.076   4.801
 6763SOL     OW21187   5.871   6.487   4.494
 6763SOL    HW121188   5.784   6.442   4.515
 6763SOL    HW221189   5.930   6.487   4.575
 6764SOL     OW21190   0.705   5.341   1.354
 6764SOL    HW121191   0.717   5.262   1.414
 6764SOL    HW221192   0.620   5.332   1.303
 6765SOL     OW21193   0.245   3.415   2.200
 6765SOL    HW121194   0.183   3.477   2.250
 6765SOL    HW221195   0.331   3.462   2.183
 6766SOL     OW21196   5.636   0.234   1.478
 6766SOL    HW121197   5.628   0.334   1.477
 6766SOL    HW221198   5.586   0.197   1.556
 6767SOL     OW21199   3.239   0.475   1.174
 6767SOL    HW121200   3.178   0.547   1.206
 6767SOL    HW221201   3.325   0.515   1.144
 6768SOL     OW21202   1.720   0.388   6.969
 6768SOL    HW121203   1.779   0.467   6.988
 6768SOL    HW221204   1.774   0.304   6.975
 6769SOL     OW21205   4.484   2.995   1.625
 6769SOL    HW121206   4.532   2.975   1.541
 6769SOL    HW221207   4.549   3.018   1.697
 6770SOL     OW21208   0.027   0.913   1.364
 6770SOL    HW121209   7.018   0.958   1.282
 6770SOL    HW221210   0.022   0.977   1.441
 6771SOL     OW21211   4.939   2.262   2.968
 6771SOL    HW121212   4.994   2.344   2.956
 6771SOL    HW221213   4.995   2.189   3.007
 6772SOL     OW21214   3.534   1.572   3.958
 6772SOL    HW121215   3.500   1.497   4.014
 6772SOL    HW221216   3.585   1.636   4.015
 6773SOL     OW21217   0.442   3.799   0.988
 6773SOL    HW121218   0.383   3.775   1.066
 6773SOL    HW221219   0.385   3.818   0.908
 6774SOL     OW21220   0.878   2.572   6.441
 6774SOL    HW121221   0.861   2.651   6.382
 6774SOL    HW221222   0.878   2.601   6.537
 6775SOL     OW21223   1.861   4.635   0.344
 6775SOL    HW121224   1.926   4.703   0.377
 6775SOL    HW221225   1.847   4.566   0.415
 6776SOL     OW21226   5.951   5.643   6.749
 6776SOL    HW121227   5.942   5.618   6.653
 6776SOL    HW221228   5.897   5.725   6.767
 6777SOL     OW21229   4.941   5.546   6.662
 6777SOL    HW121230   4.885   5.609   6.609
 6777SOL    HW221231   5.025   5.525   6.611
 6778SOL     OW21232   7.002   5.426   3.177
 6778SOL    HW121233   7.007   5.504   3.239
 6778SOL    HW221234   0.045   5.436   3.106
 6779SOL     OW21235   6.958   4.177   6.527
 6779SOL    HW121236   6.998   4.158   6.616
 6779SOL    HW221237   6.934   4.091   6.482
 6780SOL     OW21238   0.818   2.708   1.837
 6780SOL    HW121239   0.829   2.765   1.756
 6780SOL    HW221240   0.722   2.681   1.845
 6781SOL     OW21241   5.932   4.735   5.356
 6781SOL    HW121242   6.026   4.746   5.323
 6781SOL    HW221243   5.927   4.760   5.452
 6782SOL     OW21244   5.874   1.538   2.715
 6782SOL    HW121245   5.817   1.460   2.740
 6782SOL    HW221246   5.820   1.604   2.663
 6783SOL     OW21247   0.327   6.200   6.502
 6783SOL    HW121248   0.375   6.288   6.499
 6783SOL    HW221249   0.310   6.169   6.408
 6784SOL     OW21250   3.812   3.019   0.595
 6784SOL    HW121251   3.771   3.093   0.542
 6784SOL    HW221252   3.764   2.933   0.575
 6785SOL     OW21253   5.792   5.673   1.962
 6785SOL    HW121254   5.710   5.675   2.020
 6785SOL    HW221255   5.766   5.645   1.870
 6786SOL     OW21256   1.594   3.501   6.305
 6786SOL    HW121257   1.507   3.459   6.282
 6786SOL    HW221258   1.600   3.592   6.263
 6787SOL     OW21259   1.060   3.574   2.116
 6787SOL    HW121260   1.126   3.539   2.049
 6787SOL    HW221261   1.107   3.592   2.202
 6788SOL     OW21262   2.836   5.134   0.649
 6788SOL    HW121263   2.837   5.089   0.738
 6788SOL    HW221264   2.835   5.234   0.663
 6789SOL     OW21265   0.276   6.075   3.390
 6789SOL    HW121266   0.341   6.140   3.431
 6789SOL    HW221267   0.219   6.123   3.324
 6790SOL     OW21268   1.433   3.403   0.328
 6790SOL    HW121269   1.497   3.326   0.320
 6790SOL    HW221270   1.348   3.372   0.370
 6791SOL     OW21271   3.398   3.835   6.528
 6791SOL    HW121272   3.459   3.756   6.518
 6791SOL    HW221273   3.443   3.916   6.490
 6792SOL     OW21274   0.485   4.851   0.630
 6792SOL    HW121275   0.425   4.828   0.553
 6792SOL    HW221276   0.465   4.792   0.707
 6793SOL     OW21277   6.261   1.815   1.356
 6793SOL    HW121278   6.270   1.721   1.391
 6793SOL    HW221279   6.188   1.819   1.288
 6794SOL     OW21280   4.413   0.944   4.977
 6794SOL    HW121281   4.421   1.040   5.003
 6794SOL    HW221282   4.501   0.912   4.943
 6795SOL     OW21283   2.855   5.915   6.929
 6795SOL    HW121284   2.812   5.951   7.011
 6795SOL    HW221285   2.906   5.832   6.952
 6796SOL     OW21286   4.029   2.123   2.878
 6796SOL    HW121287   3.937   2.105   2.844
 6796SOL    HW221288   4.064   2.042   2.925
 6797SOL     OW21289   0.059   3.127   2.092
 6797SOL    HW121290   0.076   3.060   2.020
 6797SOL    HW221291   0.028   3.080   2.175
 6798SOL     OW21292   6.092   0.060   1.895
 6798SOL    HW121293   6.169   0.037   1.835
 6798SOL    HW221294   6.102   0.154   1.927
 6799SOL     OW21295   5.594   6.010   1.968
 6799SOL    HW121296   5.575   5.931   2.027
 6799SOL    HW221297   5.545   6.090   2.002
 6800SOL     OW21298   2.499   4.054   0.171
 6800SOL    HW121299   2.420   3.996   0.148
 6800SOL    HW221300   2.516   4.049   0.270
 6801SOL     OW21301   1.487   1.757   3.068
 6801SOL    HW121302   1.490   1.794   3.161
 6801SOL    HW221303   1.420   1.683   3.064
 6802SOL     OW21304   2.187   5.152   2.699
 6802SOL    HW121305   2.174   5.183   2.605
 6802SOL    HW221306   2.261   5.204   2.742
 6803SOL     OW21307   5.190   2.404   0.028
 6803SOL    HW121308   5.237   2.483   7.014
 6803SOL    HW221309   5.239   2.375   0.110
 6804SOL     OW21310   1.638   6.858   4.037
 6804SOL    HW121311   1.595   6.779   3.995
 6804SOL    HW221312   1.674   6.919   3.966
 6805SOL     OW21313   5.031   0.425   4.639
 6805SOL    HW121314   4.962   0.456   4.574
 6805SOL    HW221315   5.113   0.482   4.630
 6806SOL     OW21316   5.041   0.063   5.363
 6806SOL    HW121317   4.945   0.086   5.380
 6806SOL    HW221318   5.100   0.130   5.407
 6807SOL     OW21319   3.614   3.290   0.138
 6807SOL    HW121320   3.527   3.341   0.138
 6807SOL    HW221321   3.649   3.286   0.044
 6808SOL     OW21322   1.708   2.901   4.836
 6808SOL    HW121323   1.752   2.934   4.920
 6808SOL    HW221324   1.609   2.913   4.843
 6809SOL     OW21325   2.759   4.113   6.772
 6809SOL    HW121326   2.697   4.049   6.726
 6809SOL    HW221327   2.761   4.199   6.720
 6810SOL     OW21328   5.378   2.015   2.513
 6810SOL    HW121329   5.354   2.006   2.416
 6810SOL    HW221330   5.373   2.111   2.539
 6811SOL     OW21331   5.115   5.363   1.814
 6811SOL    HW121332   5.037   5.426   1.812
 6811SOL    HW221333   5.200   5.414   1.800
 6812SOL     OW21334   3.897   2.986   2.823
 6812SOL    HW121335   3.803   3.012   2.800
 6812SOL    HW221336   3.939   2.938   2.746
 6813SOL     OW21337   4.815   3.799   1.323
 6813SOL    HW121338   4.813   3.721   1.261
 6813SOL    HW221339   4.910   3.829   1.335
 6814SOL     OW21340   2.222   3.563   0.543
 6814SOL    HW121341   2.131   3.603   0.549
 6814SOL    HW221342   2.268   3.571   0.631
 6815SOL     OW21343   2.610   6.920   1.738
 6815SOL    HW121344   2.520   6.962   1.740
 6815SOL    HW221345   2.674   6.974   1.792
 6816SOL     OW21346   6.227   4.229   1.359
 6816SOL    HW121347   6.151   4.237   1.295
 6816SOL    HW221348   6.287   4.153   1.331
 6817SOL     OW21349   0.204   2.062   6.079
 6817SOL    HW121350   0.172   1.976   6.036
 6817SOL    HW221351   0.211   2.049   6.178
 6818SOL     OW21352   3.071   5.987   2.166
 6818SOL    HW121353   3.154   5.984   2.221
 6818SOL    HW221354   3.018   5.903   2.178
 6819SOL     OW21355   3.225   1.160   3.756
 6819SOL    HW121356   3.138   1.205   3.739
 6819SOL    HW221357   3.298   1.209   3.707
 6820SOL     OW21358   1.684   4.607   3.658
 6820SOL    HW121359   1.617   4.572   3.724
 6820SOL    HW221360   1.674   4.706   3.650
 6821SOL     OW21361   2.524   2.226   4.393
 6821SOL    HW121362   2.452   2.208   4.325
 6821SOL    HW221363   2.602   2.165   4.376
 6822SOL     OW21364   5.074   2.288   5.919
 6822SOL    HW121365   5.151   2.247   5.967
 6822SOL    HW221366   5.011   2.328   5.986
 6823SOL     OW21367   3.111   3.078   1.907
 6823SOL    HW121368   3.184   3.037   1.854
 6823SOL    HW221369   3.140   3.091   2.002
 6824SOL     OW21370   1.312   4.753   6.533
 6824SOL    HW121371   1.314   4.785   6.439
 6824SOL    HW221372   1.269   4.823   6.591
 6825SOL     OW21373   4.940   0.516   4.199
 6825SOL    HW121374   4.901   0.547   4.112
 6825SOL    HW221375   5.033   0.550   4.207
 6826SOL     OW21376   1.103   2.310   2.835
 6826SOL    HW121377   1.118   2.251   2.756
 6826SOL    HW221378   1.121   2.405   2.809
 6827SOL     OW21379   5.801   6.479   5.425
 6827SOL    HW121380   5.715   6.442   5.461
 6827SOL    HW221381   5.874   6.414   5.441
 6828SOL     OW21382   1.772   2.298   1.371
 6828SOL    HW121383   1.761   2.351   1.287
 6828SOL    HW221384   1.861   2.253   1.371
 6829SOL     OW21385   5.087   5.079   3.760
 6829SOL    HW121386   5.021   5.137   3.712
 6829SOL    HW221387   5.044   5.044   3.844
 6830SOL     OW21388   5.343   2.129   3.981
 6830SOL    HW121389   5.331   2.099   4.075
 6830SOL    HW221390   5.356   2.228   3.979
 6831SOL     OW21391   0.212   1.049   5.770
 6831SOL    HW121392   0.201   1.147   5.751
 6831SOL    HW221393   0.302   1.019   5.739
 6832SOL     OW21394   3.152   4.865   2.150
 6832SOL    HW121395   3.169   4.848   2.247
 6832SOL    HW221396   3.227   4.920   2.112
 6833SOL     OW21397   4.068   5.377   0.442
 6833SOL    HW121398   4.046   5.378   0.539
 6833SOL    HW221399   3.996   5.330   0.391
 6834SOL     OW21400   3.906   5.363   2.558
 6834SOL    HW121401   3.836   5.426   2.591
 6834SOL    HW221402   3.865   5.298   2.494
 6835SOL     OW21403   4.102   6.575   4.508
 6835SOL    HW121404   4.040   6.587   4.585
 6835SOL    HW221405   4.167   6.502   4.529
 6836SOL     OW21406   3.084   5.902   6.444
 6836SOL    HW121407   3.159   5.954   6.485
 6836SOL    HW221408   3.119   5.849   6.366
 6837SOL     OW21409   0.630   2.841   2.286
 6837SOL    HW121410   0.644   2.850   2.385
 6837SOL    HW221411   0.718   2.825   2.242
 6838SOL     OW21412   2.971   1.255   0.105
 6838SOL    HW121413   2.897   1.296   0.052
 6838SOL    HW221414   3.046   1.231   0.044
 6839SOL     OW21415   4.416   0.860   1.209
 6839SOL    HW121416   4.344   0.791   1.195
 6839SOL    HW221417   4.376   0.943   1.247
 6840SOL     OW21418   1.074   1.363   6.199
 6840SOL    HW121419   1.118   1.417   6.127
 6840SOL    HW221420   1.134   1.288   6.226
 6841SOL     OW21421   6.757   3.367   6.213
 6841SOL    HW121422   6.768   3.345   6.310
 6841SOL    HW221423   6.823   3.314   6.159
 6842SOL     OW21424   2.286   4.134   3.381
 6842SOL    HW121425   2.339   4.218   3.387
 6842SOL    HW221426   2.211   4.146   3.317
 6843SOL     OW21427   4.063   6.444   0.335
 6843SOL    HW121428   4.049   6.374   0.405
 6843SOL    HW221429   4.102   6.402   0.253
 6844SOL     OW21430   5.417   0.533   5.763
 6844SOL    HW121431   5.362   0.551   5.681
 6844SOL    HW221432   5.435   0.435   5.770
 6845SOL     OW21433   4.811   2.194   2.330
 6845SOL    HW121434   4.730   2.218   2.275
 6845SOL    HW221435   4.784   2.185   2.426
 6846SOL     OW21436   2.626   3.845   6.996
 6846SOL    HW121437   2.595   3.803   6.911
 6846SOL    HW221438   2.725   3.851   6.997
 6847SOL     OW21439   0.138   2.850   4.345
 6847SOL    HW121440   0.138   2.930   4.286
 6847SOL    HW221441   0.150   2.767   4.290
 6848SOL     OW21442   6.663   4.549   3.202
 6848SOL    HW121443   6.627   4.592   3.119
 6848SOL    HW221444   6.645   4.607   3.281
 6849SOL     OW21445   3.030   3.822   6.116
 6849SOL    HW121446   3.003   3.746   6.176
 6849SOL    HW221447   3.128   3.839   6.127
 6850SOL     OW21448   4.275   1.004   4.293
 6850SOL    HW121449   4.333   0.923   4.286
 6850SOL    HW221450   4.211   1.006   4.216
 6851SOL     OW21451   2.174   3.106   3.309
 6851SOL    HW121452   2.211   3.197   3.287
 6851SOL    HW221453   2.186   3.046   3.230
 6852SOL     OW21454   3.310   4.470   0.092
 6852SOL    HW121455   3.227   4.492   0.040
 6852SOL    HW221456   3.362   4.553   0.109
 6853SOL     OW21457   4.874   3.844   6.274
 6853SOL    HW121458   4.923   3.782   6.212
 6853SOL    HW221459   4.889   3.938   6.244
 6854SOL     OW21460   5.589   6.425   6.323
 6854SOL    HW121461   5.593   6.453   6.227
 6854SOL    HW221462   5.533   6.343   6.332
 6855SOL     OW21463   4.294   4.953   3.486
 6855SOL    HW121464   4.392   4.957   3.507
 6855SOL    HW221465   4.249   4.892   3.551
 6856SOL     OW21466   0.342   2.060   6.570
 6856SOL    HW121467   0.385   2.047   6.660
 6856SOL    HW221468   0.248   2.091   6.583
 6857SOL     OW21469   0.649   3.689   5.274
 6857SOL    HW121470   0.725   3.750   5.252
 6857SOL    HW221471   0.675   3.627   5.347
 6858SOL     OW21472   1.809   3.739   2.011
 6858SOL    HW121473   1.903   3.706   2.018
 6858SOL    HW221474   1.787   3.794   2.091
 6859SOL     OW21475   1.731   1.749   2.383
 6859SOL    HW121476   1.633   1.729   2.377
 6859SOL    HW221477   1.761   1.738   2.477
 6860SOL     OW21478   0.631   6.941   1.276
 6860SOL    HW121479   0.574   7.016   1.242
 6860SOL    HW221480   0.585   6.854   1.260
 6861SOL     OW21481   6.592   3.015   6.350
 6861SOL    HW121482   6.507   2.987   6.395
 6861SOL    HW221483   6.670   2.989   6.407
 6862SOL     OW21484   0.951   4.178   4.351
 6862SOL    HW121485   0.902   4.264   4.333
 6862SOL    HW221486   1.041   4.198   4.390
 6863SOL     OW21487   5.955   1.411   5.351
 6863SOL    HW121488   5.917   1.355   5.424
 6863SOL    HW221489   5.889   1.482   5.326
 6864SOL     OW21490   1.179   3.880   6.208
 6864SOL    HW121491   1.151   3.910   6.117
 6864SOL    HW221492   1.183   3.780   6.211
 6865SOL     OW21493   2.772   0.116   3.809
 6865SOL    HW121494   2.767   0.018   3.790
 6865SOL    HW221495   2.814   0.164   3.731
 6866SOL     OW21496   1.114   4.837   0.167
 6866SOL    HW121497   1.091   4.820   0.263
 6866SOL    HW221498   1.211   4.862   0.160
 6867SOL     OW21499   1.850   3.777   6.242
 6867SOL    HW121500   1.913   3.778   6.320
 6867SOL    HW221501   1.872   3.853   6.181
 6868SOL     OW21502   2.898   5.003   3.546
 6868SOL    HW121503   2.889   5.046   3.456
 6868SOL    HW221504   2.830   5.043   3.608
 6869SOL     OW21505   3.339   0.951   6.062
 6869SOL    HW121506   3.265   0.923   6.124
 6869SOL    HW221507   3.404   1.009   6.112
 6870SOL     OW21508   5.970   2.122   0.341
 6870SOL    HW121509   6.000   2.121   0.436
 6870SOL    HW221510   6.016   2.196   0.292
 6871SOL     OW21511   0.040   3.507   2.399
 6871SOL    HW121512   6.997   3.551   2.342
 6871SOL    HW221513   0.014   3.412   2.416
 6872SOL     OW21514   1.757   3.827   1.345
 6872SOL    HW121515   1.851   3.801   1.325
 6872SOL    HW221516   1.753   3.869   1.435
 6873SOL     OW21517   0.819   4.339   3.273
 6873SOL    HW121518   0.890   4.292   3.221
 6873SOL    HW221519   0.732   4.291   3.260
 6874SOL     OW21520   5.534   6.413   3.366
 6874SOL    HW121521   5.559   6.432   3.271
 6874SOL    HW221522   5.436   6.426   3.378
 6875SOL     OW21523   2.670   1.118   0.409
 6875SOL    HW121524   2.743   1.068   0.363
 6875SOL    HW221525   2.693   1.129   0.506
 6876SOL     OW21526   5.171   5.383   3.834
 6876SOL    HW121527   5.211   5.457   3.781
 6876SOL    HW221528   5.181   5.296   3.785
 6877SOL     OW21529   0.728   3.544   1.465
 6877SOL    HW121530   0.697   3.454   1.494
 6877SOL    HW221531   0.803   3.574   1.524
 6878SOL     OW21532   2.065   0.575   5.069
 6878SOL    HW121533   2.091   0.649   5.006
 6878SOL    HW221534   2.095   0.487   5.031
 6879SOL     OW21535   1.545   1.220   1.126
 6879SOL    HW121536   1.478   1.291   1.106
 6879SOL    HW221537   1.503   1.148   1.180
 6880SOL     OW21538   1.384   5.441   0.232
 6880SOL    HW121539   1.337   5.423   0.145
 6880SOL    HW221540   1.360   5.370   0.298
 6881SOL     OW21541   0.460   2.887   0.399
 6881SOL    HW121542   0.400   2.866   0.322
 6881SOL    HW221543   0.505   2.975   0.384
 6882SOL     OW21544   2.581   6.482   6.840
 6882SOL    HW121545   2.488   6.459   6.812
 6882SOL    HW221546   2.636   6.398   6.844
 6883SOL     OW21547   4.725   0.386   1.260
 6883SOL    HW121548   4.773   0.411   1.176
 6883SOL    HW221549   4.661   0.460   1.284
 6884SOL     OW21550   1.742   3.998   3.306
 6884SOL    HW121551   1.840   3.983   3.318
 6884SOL    HW221552   1.718   3.986   3.210
 6885SOL     OW21553   6.297   5.113   4.518
 6885SOL    HW121554   6.239   5.135   4.440
 6885SOL    HW221555   6.382   5.070   4.487
 6886SOL     OW21556   4.857   2.725   0.423
 6886SOL    HW121557   4.895   2.815   0.405
 6886SOL    HW221558   4.773   2.735   0.476
 6887SOL     OW21559   5.775   5.793   5.871
 6887SOL    HW121560   5.687   5.816   5.830
 6887SOL    HW221561   5.770   5.702   5.913
 6888SOL     OW21562   6.436   4.296   6.614
 6888SOL    HW121563   6.356   4.299   6.554
 6888SOL    HW221564   6.517   4.271   6.561
 6889SOL     OW21565   6.962   2.522   6.320
 6889SOL    HW121566   6.964   2.613   6.362
 6889SOL    HW221567   0.017   2.511   6.263
 6890SOL     OW21568   4.729   4.423   3.719
 6890SOL    HW121569   4.707   4.389   3.627
 6890SOL    HW221570   4.651   4.408   3.779
 6891SOL     OW21571   1.665   1.458   1.256
 6891SOL    HW121572   1.727   1.507   1.195
 6891SOL    HW221573   1.610   1.394   1.203
 6892SOL     OW21574   3.703   1.420   4.776
 6892SOL    HW121575   3.734   1.514   4.791
 6892SOL    HW221576   3.624   1.420   4.715
 6893SOL     OW21577   6.128   3.411   0.730
 6893SOL    HW121578   6.138   3.312   0.740
 6893SOL    HW221579   6.064   3.430   0.655
 6894SOL     OW21580   6.190   5.171   0.578
 6894SOL    HW121581   6.135   5.130   0.651
 6894SOL    HW221582   6.252   5.102   0.541
 6895SOL     OW21583   0.715   6.345   2.495
 6895SOL    HW121584   0.627   6.369   2.535
 6895SOL    HW221585   0.714   6.368   2.397
 6896SOL     OW21586   5.021   0.960   4.958
 6896SOL    HW121587   5.059   0.893   5.021
 6896SOL    HW221588   5.091   0.991   4.895
 6897SOL     OW21589   4.678   2.790   5.096
 6897SOL    HW121590   4.640   2.753   5.011
 6897SOL    HW221591   4.754   2.851   5.075
 6898SOL     OW21592   1.374   6.459   1.282
 6898SOL    HW121593   1.366   6.363   1.309
 6898SOL    HW221594   1.443   6.504   1.339
 6899SOL     OW21595   6.127   6.192   2.354
 6899SOL    HW121596   6.061   6.127   2.316
 6899SOL    HW221597   6.120   6.279   2.306
 6900SOL     OW21598   6.271   3.740   4.914
 6900SOL    HW121599   6.244   3.786   4.830
 6900SOL    HW221600   6.330   3.799   4.968
 6901SOL     OW21601   5.237   5.079   6.551
 6901SOL    HW121602   5.319   5.111   6.599
 6901SOL    HW221603   5.257   4.992   6.506
 6902SOL     OW21604   0.292   5.831   6.240
 6902SOL    HW121605   0.200   5.796   6.258
 6902SOL    HW221606   0.309   5.830   6.141
 6903SOL     OW21607   1.056   6.001   4.495
 6903SOL    HW121608   0.968   5.969   4.529
 6903SOL    HW221609   1.128   5.978   4.560
 6904SOL     OW21610   0.109   0.505   6.281
 6904SOL    HW121611   0.039   0.564   6.241
 6904SOL    HW221612   0.066   0.442   6.345
 6905SOL     OW21613   5.310   6.198   5.830
 6905SOL    HW121614   5.269   6.237   5.748
 6905SOL    HW221615   5.255   6.122   5.862
 6906SOL     OW21616   3.259   0.937   3.621
 6906SOL    HW121617   3.199   0.859   3.639
 6906SOL    HW221618   3.244   1.007   3.690
 6907SOL     OW21619   5.876   1.922   0.743
 6907SOL    HW121620   5.869   1.823   0.756
 6907SOL    HW221621   5.784   1.962   0.747
 6908SOL     OW21622   2.799   5.402   0.721
 6908SOL    HW121623   2.876   5.433   0.777
 6908SOL    HW221624   2.729   5.473   0.718
 6909SOL     OW21625   5.646   5.138   2.071
 6909SOL    HW121626   5.737   5.143   2.113
 6909SOL    HW221627   5.594   5.063   2.111
 6910SOL     OW21628   1.139   2.154   2.350
 6910SOL    HW121629   1.065   2.134   2.284
 6910SOL    HW221630   1.224   2.112   2.318
 6911SOL     OW21631   2.092   6.326   5.815
 6911SOL    HW121632   2.151   6.249   5.790
 6911SOL    HW221633   1.997   6.296   5.816
 6912SOL     OW21634   2.882   3.941   6.953
 6912SOL    HW121635   2.836   4.024   6.921
 6912SOL    HW221636   2.974   3.938   6.914
 6913SOL     OW21637   4.675   6.143   5.548
 6913SOL    HW121638   4.770   6.118   5.566
 6913SOL    HW221639   4.652   6.227   5.596
 6914SOL     OW21640   5.851   2.958   2.095
 6914SOL    HW121641   5.881   2.913   2.011
 6914SOL    HW221642   5.761   2.998   2.081
 6915SOL     OW21643   6.881   3.362   3.705
 6915SOL    HW121644   6.950   3.428   3.735
 6915SOL    HW221645   6.927   3.284   3.661
 6916SOL     OW21646   4.934   6.280   6.411
 6916SOL    HW121647   4.883   6.212   6.359
 6916SOL    HW221648   4.922   6.263   6.509
 6917SOL     OW21649   3.845   6.701   1.737
 6917SOL    HW121650   3.838   6.771   1.666
 6917SOL    HW221651   3.873   6.743   1.823
 6918SOL     OW21652   2.269   3.794   0.794
 6918SOL    HW121653   2.304   3.702   0.812
 6918SOL    HW221654   2.201   3.818   0.864
 6919SOL     OW21655   5.741   5.955   3.593
 6919SOL    HW121656   5.791   5.952   3.506
 6919SOL    HW221657   5.646   5.927   3.577
 6920SOL     OW21658   6.130   1.552   6.194
 6920SOL    HW121659   6.075   1.615   6.139
 6920SOL    HW221660   6.144   1.591   6.285
 6921SOL     OW21661   4.533   0.472   4.223
 6921SOL    HW121662   4.576   0.550   4.269
 6921SOL    HW221663   4.493   0.411   4.291
 6922SOL     OW21664   1.983   4.997   6.366
 6922SOL    HW121665   1.994   4.938   6.447
 6922SOL    HW221666   1.986   5.093   6.394
 6923SOL     OW21667   5.639   7.011   2.159
 6923SOL    HW121668   5.558   0.030   2.121
 6923SOL    HW221669   5.699   0.052   2.202
 6924SOL     OW21670   3.388   5.845   1.943
 6924SOL    HW121671   3.459   5.899   1.988
 6924SOL    HW221672   3.401   5.848   1.844
 6925SOL     OW21673   5.739   6.551   5.132
 6925SOL    HW121674   5.648   6.584   5.107
 6925SOL    HW221675   5.760   6.580   5.226
 6926SOL     OW21676   3.216   2.636   0.306
 6926SOL    HW121677   3.263   2.554   0.340
 6926SOL    HW221678   3.277   2.687   0.245
 6927SOL     OW21679   4.591   0.189   0.400
 6927SOL    HW121680   4.508   0.172   0.346
 6927SOL    HW221681   4.640   0.267   0.361
 6928SOL     OW21682   3.942   5.200   6.708
 6928SOL    HW121683   3.919   5.149   6.790
 6928SOL    HW221684   3.861   5.249   6.675
 6929SOL     OW21685   5.071   4.975   2.575
 6929SOL    HW121686   5.171   4.985   2.578
 6929SOL    HW221687   5.034   4.976   2.667
 6930SOL     OW21688   0.194   6.665   1.785
 6930SOL    HW121689   0.239   6.733   1.727
 6930SOL    HW221690   0.247   6.580   1.783
 6931SOL     OW21691   3.103   3.489   1.047
 6931SOL    HW121692   3.082   3.529   1.136
 6931SOL    HW221693   3.040   3.524   0.978
 6932SOL     OW21694   3.634   6.985   6.534
 6932SOL    HW121695   3.628   0.054   6.564
 6932SOL    HW221696   3.628   6.981   6.434
 6933SOL     OW21697   3.360   5.564   6.364
 6933SOL    HW121698   3.402   5.555   6.454
 6933SOL    HW221699   3.301   5.485   6.347
 6934SOL     OW21700   4.945   5.061   6.892
 6934SOL    HW121701   5.010   4.986   6.906
 6934SOL    HW221702   4.854   5.024   6.876
 6935SOL     OW21703   3.970   6.354   1.541
 6935SOL    HW121704   4.059   6.308   1.536
 6935SOL    HW221705   3.932   6.344   1.633
 6936SOL     OW21706   0.518   1.975   5.457
 6936SOL    HW121707   0.481   2.067   5.471
 6936SOL    HW221708   0.618   1.979   5.456
 6937SOL     OW21709   5.605   5.037   6.954
 6937SOL    HW121710   5.649   4.958   6.998
 6937SOL    HW221711   5.566   5.009   6.867
 6938SOL     OW21712   2.754   1.260   4.964
 6938SOL    HW121713   2.766   1.301   5.054
 6938SOL    HW221714   2.841   1.257   4.916
 6939SOL     OW21715   5.657   3.120   3.440
 6939SOL    HW121716   5.599   3.163   3.509
 6939SOL    HW221717   5.676   3.187   3.368
 6940SOL     OW21718   2.473   6.196   0.588
 6940SOL    HW121719   2.471   6.260   0.511
 6940SOL    HW221720   2.535   6.231   0.658
 6941SOL     OW21721   3.552   3.777   2.788
 6941SOL    HW121722   3.600   3.864   2.801
 6941SOL    HW221723   3.534   3.735   2.877
 6942SOL     OW21724   6.293   5.517   2.497
 6942SOL    HW121725   6.333   5.595   2.546
 6942SOL    HW221726   6.227   5.471   2.556
 6943SOL     OW21727   4.680   4.578   6.407
 6943SOL    HW121728   4.595   4.625   6.383
 6943SOL    HW221729   4.662   4.514   6.482
 6944SOL     OW21730   1.372   4.356   5.332
 6944SOL    HW121731   1.347   4.441   5.379
 6944SOL    HW221732   1.389   4.376   5.236
 6945SOL     OW21733   5.583   1.676   1.290
 6945SOL    HW121734   5.611   1.613   1.363
 6945SOL    HW221735   5.483   1.674   1.281
 6946SOL     OW21736   5.124   6.330   2.935
 6946SOL    HW121737   5.101   6.373   3.022
 6946SOL    HW221738   5.070   6.371   2.862
 6947SOL     OW21739   6.420   4.179   5.260
 6947SOL    HW121740   6.355   4.185   5.184
 6947SOL    HW221741   6.510   4.152   5.225
 6948SOL     OW21742   6.922   4.438   6.892
 6948SOL    HW121743   6.831   4.421   6.855
 6948SOL    HW221744   6.970   4.505   6.836
 6949SOL     OW21745   2.424   1.640   3.075
 6949SOL    HW121746   2.412   1.718   3.136
 6949SOL    HW221747   2.350   1.639   3.008
 6950SOL     OW21748   0.955   1.230   4.464
 6950SOL    HW121749   0.993   1.138   4.458
 6950SOL    HW221750   0.859   1.227   4.436
 6951SOL     OW21751   0.877   4.313   6.648
 6951SOL    HW121752   0.834   4.298   6.738
 6951SOL    HW221753   0.913   4.226   6.614
 6952SOL     OW21754   5.466   5.386   4.191
 6952SOL    HW121755   5.548   5.331   4.211
 6952SOL    HW221756   5.454   5.455   4.262
 6953SOL     OW21757   6.423   1.808   1.030
 6953SOL    HW121758   6.323   1.806   1.032
 6953SOL    HW221759   6.456   1.870   1.101
 6954SOL     OW21760   0.007   4.573   6.675
 6954SOL    HW121761   0.057   4.655   6.646
 6954SOL    HW221762   6.938   4.580   6.646
 6955SOL     OW21763   4.739   6.181   3.075
 6955SOL    HW121764   4.810   6.123   3.115
 6955SOL    HW221765   4.650   6.135   3.082
 6956SOL     OW21766   5.281   5.175   2.498
 6956SOL    HW121767   5.320   5.221   2.577
 6956SOL    HW221768   5.184   5.198   2.490
 6957SOL     OW21769   6.361   5.329   4.985
 6957SOL    HW121770   6.415   5.388   5.045
 6957SOL    HW221771   6.268   5.323   5.020
 6958SOL     OW21772   3.677   3.551   2.587
 6958SOL    HW121773   3.582   3.573   2.605
 6958SOL    HW221774   3.725   3.534   2.673
 6959SOL     OW21775   1.480   4.125   3.188
 6959SOL    HW121776   1.489   4.039   3.238
 6959SOL    HW221777   1.428   4.111   3.104
 6960SOL     OW21778   3.768   4.448   6.845
 6960SOL    HW121779   3.794   4.378   6.911
 6960SOL    HW221780   3.691   4.415   6.790
 6961SOL     OW21781   4.537   2.489   5.446
 6961SOL    HW121782   4.629   2.487   5.486
 6961SOL    HW221783   4.543   2.505   5.347
 6962SOL     OW21784   2.707   6.218   6.885
 6962SOL    HW121785   2.713   6.177   6.976
 6962SOL    HW221786   2.680   6.148   6.819
 6963SOL     OW21787   6.381   5.913   0.236
 6963SOL    HW121788   6.342   5.916   0.144
 6963SOL    HW221789   6.308   5.923   0.304
 6964SOL     OW21790   2.200   1.446   5.721
 6964SOL    HW121791   2.165   1.353   5.709
 6964SOL    HW221792   2.199   1.494   5.633
 6965SOL     OW21793   1.408   1.208   6.496
 6965SOL    HW121794   1.331   1.271   6.494
 6965SOL    HW221795   1.493   1.259   6.508
 6966SOL     OW21796   1.091   6.697   1.251
 6966SOL    HW121797   1.170   6.757   1.239
 6966SOL    HW221798   1.092   6.627   1.180
 6967SOL     OW21799   3.833   1.281   6.888
 6967SOL    HW121800   3.818   1.205   6.826
 6967SOL    HW221801   3.886   1.353   6.842
 6968SOL     OW21802   3.865   0.041   2.765
 6968SOL    HW121803   3.875   0.075   2.858
 6968SOL    HW221804   3.770   0.016   2.748
 6969SOL     OW21805   2.157   2.571   2.143
 6969SOL    HW121806   2.222   2.608   2.077
 6969SOL    HW221807   2.103   2.645   2.182
 6970SOL     OW21808   3.853   5.217   5.421
 6970SOL    HW121809   3.782   5.215   5.351
 6970SOL    HW221810   3.835   5.291   5.486
 6971SOL     OW21811   6.254   4.334   0.132
 6971SOL    HW121812   6.285   4.328   0.226
 6971SOL    HW221813   6.319   4.287   0.072
 6972SOL     OW21814   5.329   4.231   1.456
 6972SOL    HW121815   5.391   4.301   1.422
 6972SOL    HW221816   5.238   4.270   1.468
 6973SOL     OW21817   1.603   1.900   2.829
 6973SOL    HW121818   1.682   1.962   2.831
 6973SOL    HW221819   1.594   1.854   2.917
 6974SOL     OW21820   3.845   4.053   3.174
 6974SOL    HW121821   3.927   4.088   3.128
 6974SOL    HW221822   3.859   3.956   3.195
 6975SOL     OW21823   2.957   5.734   4.335
 6975SOL    HW121824   2.986   5.754   4.429
 6975SOL    HW221825   2.943   5.820   4.286
 6976SOL     OW21826   4.567   4.622   5.895
 6976SOL    HW121827   4.587   4.696   5.830
 6976SOL    HW221828   4.632   4.625   5.971
 6977SOL     OW21829   4.708   4.713   2.403
 6977SOL    HW121830   4.721   4.726   2.305
 6977SOL    HW221831   4.687   4.617   2.421
 6978SOL     OW21832   0.274   3.476   0.855
 6978SOL    HW121833   0.369   3.503   0.842
 6978SOL    HW221834   0.223   3.552   0.895
 6979SOL     OW21835   0.892   3.792   2.786
 6979SOL    HW121836   0.947   3.712   2.812
 6979SOL    HW221837   0.952   3.869   2.764
 6980SOL     OW21838   1.975   5.234   3.319
 6980SOL    HW121839   2.068   5.198   3.318
 6980SOL    HW221840   1.933   5.214   3.407
 6981SOL     OW21841   4.596   2.774   6.793
 6981SOL    HW121842   4.596   2.745   6.889
 6981SOL    HW221843   4.687   2.762   6.754
 6982SOL     OW21844   0.604   0.815   2.206
 6982SOL    HW121845   0.600   0.914   2.221
 6982SOL    HW221846   0.678   0.794   2.142
 6983SOL     OW21847   6.312   0.636   4.329
 6983SOL    HW121848   6.215   0.610   4.335
 6983SOL    HW221849   6.332   0.704   4.400
 6984SOL     OW21850   1.444   2.712   3.143
 6984SOL    HW121851   1.441   2.656   3.226
 6984SOL    HW221852   1.425   2.807   3.166
 6985SOL     OW21853   5.308   3.246   6.255
 6985SOL    HW121854   5.332   3.250   6.158
 6985SOL    HW221855   5.381   3.199   6.306
 6986SOL     OW21856   4.875   4.641   5.204
 6986SOL    HW121857   4.808   4.594   5.260
 6986SOL    HW221858   4.910   4.578   5.134
 6987SOL     OW21859   0.012   1.005   6.693
 6987SOL    HW121860   7.014   1.079   6.631
 6987SOL    HW221861   0.112   0.997   6.698
 6988SOL     OW21862   2.873   1.469   6.460
 6988SOL    HW121863   2.893   1.559   6.500
 6988SOL    HW221864   2.814   1.481   6.380
 6989SOL     OW21865   0.868   3.742   2.510
 6989SOL    HW121866   0.864   3.842   2.515
 6989SOL    HW221867   0.877   3.705   2.602
 6990SOL     OW21868   4.081   3.759   0.109
 6990SOL    HW121869   3.996   3.745   0.058
 6990SOL    HW221870   4.159   3.745   0.048
 6991SOL     OW21871   5.684   3.440   2.537
 6991SOL    HW121872   5.688   3.360   2.596
 6991SOL    HW221873   5.589   3.469   2.525
 6992SOL     OW21874   0.721   5.343   0.373
 6992SOL    HW121875   0.694   5.248   0.357
 6992SOL    HW221876   0.782   5.347   0.453
 6993SOL     OW21877   3.787   2.236   1.456
 6993SOL    HW121878   3.811   2.304   1.526
 6993SOL    HW221879   3.809   2.272   1.366
 6994SOL     OW21880   3.160   1.299   2.927
 6994SOL    HW121881   3.123   1.261   3.013
 6994SOL    HW221882   3.097   1.279   2.852
 6995SOL     OW21883   0.234   4.299   0.923
 6995SOL    HW121884   0.153   4.241   0.926
 6995SOL    HW221885   0.315   4.243   0.907
 6996SOL     OW21886   0.929   1.028   6.841
 6996SOL    HW121887   0.853   0.972   6.808
 6996SOL    HW221888   0.938   1.110   6.784
 6997SOL     OW21889   6.568   6.265   6.099
 6997SOL    HW121890   6.535   6.360   6.101
 6997SOL    HW221891   6.637   6.256   6.027
 6998SOL     OW21892   0.084   0.601   0.294
 6998SOL    HW121893   0.179   0.574   0.281
 6998SOL    HW221894   0.068   0.691   0.253
 6999SOL     OW21895   6.794   2.888   6.891
 6999SOL    HW121896   6.800   2.937   6.978
 6999SOL    HW221897   6.701   2.895   6.855
 7000SOL     OW21898   6.977   5.242   3.627
 7000SOL    HW121899   6.945   5.249   3.533
 7000SOL    HW221900   0.043   5.281   3.633
 7001SOL     OW21901   6.361   1.952   4.594
 7001SOL    HW121902   6.278   1.962   4.538
 7001SOL    HW221903   6.377   1.856   4.614
 7002SOL     OW21904   1.031   5.423   2.991
 7002SOL    HW121905   0.957   5.385   2.937
 7002SOL    HW221906   1.119   5.390   2.956
 7003SOL     OW21907   0.737   4.094   0.523
 7003SOL    HW121908   0.739   4.001   0.560
 7003SOL    HW221909   0.686   4.095   0.438
 7004SOL     OW21910   1.728   0.106   0.472
 7004SOL    HW121911   1.703   0.010   0.461
 7004SOL    HW221912   1.783   0.117   0.554
 7005SOL     OW21913   1.219   5.725   0.311
 7005SOL    HW121914   1.197   5.631   0.338
 7005SOL    HW221915   1.260   5.773   0.388
 7006SOL     OW21916   0.530   0.216   3.877
 7006SOL    HW121917   0.629   0.198   3.884
 7006SOL    HW221918   0.513   0.312   3.897
 7007SOL     OW21919   2.114   0.133   5.964
 7007SOL    HW121920   2.037   0.072   5.983
 7007SOL    HW221921   2.085   0.228   5.974
 7008SOL     OW21922   5.796   3.476   3.509
 7008SOL    HW121923   5.748   3.542   3.451
 7008SOL    HW221924   5.879   3.518   3.547
 7009SOL     OW21925   5.147   6.199   2.460
 7009SOL    HW121926   5.053   6.165   2.469
 7009SOL    HW221927   5.211   6.123   2.471
 7010SOL     OW21928   4.893   3.353   2.729
 7010SOL    HW121929   4.884   3.393   2.638
 7010SOL    HW221930   4.894   3.253   2.723
 7011SOL     OW21931   2.667   6.551   6.118
 7011SOL    HW121932   2.652   6.457   6.088
 7011SOL    HW221933   2.581   6.602   6.112
 7012SOL     OW21934   6.878   2.773   0.449
 7012SOL    HW121935   6.849   2.792   0.355
 7012SOL    HW221936   6.914   2.857   0.490
 7013SOL     OW21937   3.425   2.876   0.568
 7013SOL    HW121938   3.510   2.881   0.516
 7013SOL    HW221939   3.415   2.785   0.609
 7014SOL     OW21940   5.132   3.432   0.733
 7014SOL    HW121941   5.161   3.336   0.730
 7014SOL    HW221942   5.188   3.482   0.798
 7015SOL     OW21943   5.951   6.232   1.692
 7015SOL    HW121944   5.884   6.299   1.660
 7015SOL    HW221945   5.913   6.180   1.768
 7016SOL     OW21946   3.600   5.131   0.705
 7016SOL    HW121947   3.629   5.165   0.615
 7016SOL    HW221948   3.542   5.051   0.694
 7017SOL     OW21949   5.882   4.407   5.562
 7017SOL    HW121950   5.926   4.496   5.564
 7017SOL    HW221951   5.888   4.368   5.470
 7018SOL     OW21952   5.075   3.790   5.090
 7018SOL    HW121953   5.060   3.697   5.123
 7018SOL    HW221954   5.039   3.799   4.997
 7019SOL     OW21955   4.239   5.105   2.118
 7019SOL    HW121956   4.248   5.203   2.098
 7019SOL    HW221957   4.311   5.077   2.181
 7020SOL     OW21958   0.878   2.303   6.410
 7020SOL    HW121959   0.851   2.399   6.418
 7020SOL    HW221960   0.853   2.268   6.320
 7021SOL     OW21961   0.695   1.832   4.612
 7021SOL    HW121962   0.714   1.920   4.654
 7021SOL    HW221963   0.660   1.846   4.519
 7022SOL     OW21964   2.855   2.876   0.784
 7022SOL    HW121965   2.859   2.941   0.708
 7022SOL    HW221966   2.947   2.845   0.806
 7023SOL     OW21967   0.539   1.599   0.924
 7023SOL    HW121968   0.499   1.691   0.933
 7023SOL    HW221969   0.484   1.534   0.977
 7024SOL     OW21970   2.959   3.671   4.693
 7024SOL    HW121971   3.025   3.664   4.768
 7024SOL    HW221972   2.992   3.737   4.625
 7025SOL     OW21973   3.058   0.695   1.228
 7025SOL    HW121974   3.061   0.741   1.139
 7025SOL    HW221975   3.088   0.758   1.299
 7026SOL     OW21976   3.267   2.925   0.996
 7026SOL    HW121977   3.312   2.845   1.037
 7026SOL    HW221978   3.219   2.977   1.066
 7027SOL     OW21979   3.376   4.958   1.977
 7027SOL    HW121980   3.458   4.902   1.968
 7027SOL    HW221981   3.307   4.928   1.910
 7028SOL     OW21982   3.410   0.062   3.360
 7028SOL    HW121983   3.386   0.157   3.340
 7028SOL    HW221984   3.416   0.049   3.459
 7029SOL     OW21985   3.247   3.604   3.391
 7029SOL    HW121986   3.234   3.529   3.327
 7029SOL    HW221987   3.336   3.646   3.375
 7030SOL     OW21988   6.522   0.222   4.841
 7030SOL    HW121989   6.486   0.220   4.934
 7030SOL    HW221990   6.499   0.136   4.794
 7031SOL     OW21991   5.104   6.312   0.404
 7031SOL    HW121992   5.194   6.272   0.420
 7031SOL    HW221993   5.095   6.395   0.458
 7032SOL     OW21994   4.589   4.809   3.945
 7032SOL    HW121995   4.492   4.793   3.966
 7032SOL    HW221996   4.639   4.822   4.030
 7033SOL     OW21997   1.484   1.472   5.518
 7033SOL    HW121998   1.572   1.508   5.549
 7033SOL    HW221999   1.491   1.373   5.506
 7034SOL     OW22000   6.126   0.796   2.397
 7034SOL    HW122001   6.136   0.752   2.487
 7034SOL    HW222002   6.081   0.884   2.408
 7035SOL     OW22003   2.738   1.187   1.302
 7035SOL    HW122004   2.653   1.230   1.332
 7035SOL    HW222005   2.751   1.203   1.204
 7036SOL     OW22006   6.456   1.442   1.442
 7036SOL    HW122007   6.420   1.360   1.486
 7036SOL    HW222008   6.546   1.422   1.402
 7037SOL     OW22009   1.273   0.504   5.924
 7037SOL    HW122010   1.298   0.467   5.835
 7037SOL    HW222011   1.352   0.549   5.966
 7038SOL     OW22012   1.476   3.870   0.229
 7038SOL    HW122013   1.446   3.960   0.198
 7038SOL    HW222014   1.524   3.879   0.316
 7039SOL     OW22015   7.008   6.481   1.983
 7039SOL    HW122016   0.059   6.529   1.942
 7039SOL    HW222017   6.953   6.545   2.036
 7040SOL     OW22018   5.607   2.449   4.597
 7040SOL    HW122019   5.639   2.482   4.686
 7040SOL    HW222020   5.537   2.379   4.610
 7041SOL     OW22021   1.471   7.016   4.221
 7041SOL    HW122022   1.458   6.994   4.318
 7041SOL    HW222023   1.536   6.951   4.181
 7042SOL     OW22024   5.629   5.674   5.497
 7042SOL    HW122025   5.607   5.701   5.404
 7042SOL    HW222026   5.545   5.649   5.545
 7043SOL     OW22027   1.830   5.976   1.069
 7043SOL    HW122028   1.871   5.887   1.092
 7043SOL    HW222029   1.863   6.045   1.134
 7044SOL     OW22030   5.441   6.116   4.974
 7044SOL    HW122031   5.512   6.163   5.028
 7044SOL    HW222032   5.351   6.153   4.998
 7045SOL     OW22033   6.393   5.781   1.574
 7045SOL    HW122034   6.480   5.743   1.540
 7045SOL    HW222035   6.412   5.850   1.644
 7046SOL     OW22036   1.869   1.434   3.776
 7046SOL    HW122037   1.835   1.480   3.858
 7046SOL    HW222038   1.915   1.501   3.716
 7047SOL     OW22039   1.181   6.267   0.581
 7047SOL    HW122040   1.249   6.195   0.589
 7047SOL    HW222041   1.220   6.354   0.611
 7048SOL     OW22042   0.783   6.384   3.596
 7048SOL    HW122043   0.744   6.475   3.581
 7048SOL    HW222044   0.882   6.392   3.610
 7049SOL     OW22045   3.767   1.296   3.966
 7049SOL    HW122046   3.822   1.213   3.973
 7049SOL    HW222047   3.695   1.293   4.035
 7050SOL     OW22048   3.976   4.378   0.226
 7050SOL    HW122049   3.941   4.470   0.206
 7050SOL    HW222050   4.057   4.385   0.284
 7051SOL     OW22051   1.115   1.832   1.556
 7051SOL    HW122052   1.105   1.743   1.600
 7051SOL    HW222053   1.197   1.832   1.499
 7052SOL     OW22054   4.420   1.901   2.511
 7052SOL    HW122055   4.413   1.945   2.601
 7052SOL    HW222056   4.402   1.803   2.520
 7053SOL     OW22057   1.519   3.721   3.347
 7053SOL    HW122058   1.593   3.753   3.406
 7053SOL    HW222059   1.558   3.676   3.266
 7054SOL     OW22060   5.358   0.419   0.002
 7054SOL    HW122061   5.315   0.364   0.074
 7054SOL    HW222062   5.453   0.389   7.017
 7055SOL     OW22063   2.285   0.608   0.467
 7055SOL    HW122064   2.354   0.596   0.396
 7055SOL    HW222065   2.273   0.705   0.486
 7056SOL     OW22066   0.090   4.652   1.220
 7056SOL    HW122067   0.138   4.616   1.140
 7056SOL    HW222068   0.006   4.600   1.235
 7057SOL     OW22069   3.279   5.564   4.777
 7057SOL    HW122070   3.378   5.549   4.772
 7057SOL    HW222071   3.259   5.626   4.853
 7058SOL     OW22072   6.191   2.644   6.373
 7058SOL    HW122073   6.286   2.654   6.342
 7058SOL    HW222074   6.155   2.734   6.398
 7059SOL     OW22075   1.691   6.988   5.033
 7059SOL    HW122076   1.663   6.907   4.981
 7059SOL    HW222077   1.631   6.999   5.112
 7060SOL     OW22078   3.308   2.432   1.129
 7060SOL    HW122079   3.252   2.474   1.201
 7060SOL    HW222080   3.307   2.333   1.139
 7061SOL     OW22081   1.083   1.232   1.179
 7061SOL    HW122082   1.060   1.308   1.119
 7061SOL    HW222083   1.173   1.196   1.154
 7062SOL     OW22084   3.166   0.634   4.172
 7062SOL    HW122085   3.246   0.671   4.217
 7062SOL    HW222086   3.108   0.708   4.139
 7063SOL     OW22087   6.868   1.367   1.102
 7063SOL    HW122088   6.912   1.322   1.024
 7063SOL    HW222089   6.935   1.379   1.176
 7064SOL     OW22090   2.924   1.468   5.450
 7064SOL    HW122091   2.971   1.384   5.478
 7064SOL    HW222092   2.973   1.547   5.487
 7065SOL     OW22093   3.975   5.579   5.432
 7065SOL    HW122094   3.876   5.590   5.417
 7065SOL    HW222095   4.019   5.669   5.431
 7066SOL     OW22096   3.253   6.983   1.110
 7066SOL    HW122097   3.202   0.023   1.164
 7066SOL    HW222098   3.190   6.926   1.057
 7067SOL     OW22099   2.031   3.845   6.462
 7067SOL    HW122100   2.093   3.787   6.409
 7067SOL    HW222101   2.027   3.811   6.556
 7068SOL     OW22102   5.045   4.246   4.337
 7068SOL    HW122103   4.995   4.178   4.390
 7068SOL    HW222104   5.068   4.209   4.247
 7069SOL     OW22105   5.109   0.669   6.071
 7069SOL    HW122106   5.154   0.720   5.997
 7069SOL    HW222107   5.032   0.722   6.106
 7070SOL     OW22108   0.420   0.466   5.710
 7070SOL    HW122109   0.412   0.366   5.710
 7070SOL    HW222110   0.500   0.493   5.763
 7071SOL     OW22111   4.656   6.277   6.626
 7071SOL    HW122112   4.703   6.359   6.594
 7071SOL    HW222113   4.567   6.270   6.582
 7072SOL     OW22114   0.904   3.756   6.356
 7072SOL    HW122115   0.821   3.776   6.408
 7072SOL    HW222116   0.963   3.836   6.357
 7073SOL     OW22117   4.776   1.700   3.934
 7073SOL    HW122118   4.822   1.693   3.846
 7073SOL    HW222119   4.765   1.797   3.958
 7074SOL     OW22120   5.684   4.077   2.892
 7074SOL    HW122121   5.587   4.100   2.882
 7074SOL    HW222122   5.738   4.160   2.890
 7075SOL     OW22123   2.690   5.478   3.503
 7075SOL    HW122124   2.625   5.441   3.569
 7075SOL    HW222125   2.706   5.411   3.431
 7076SOL     OW22126   5.618   2.176   1.222
 7076SOL    HW122127   5.579   2.268   1.230
 7076SOL    HW222128   5.547   2.108   1.238
 7077SOL     OW22129   3.446   6.200   1.495
 7077SOL    HW122130   3.452   6.300   1.487
 7077SOL    HW222131   3.362   6.168   1.452
 7078SOL     OW22132   6.682   0.878   6.759
 7078SOL    HW122133   6.765   0.879   6.702
 7078SOL    HW222134   6.707   0.892   6.854
 7079SOL     OW22135   1.950   5.645   4.813
 7079SOL    HW122136   1.957   5.611   4.720
 7079SOL    HW222137   1.864   5.613   4.854
 7080SOL     OW22138   4.002   2.120   6.360
 7080SOL    HW122139   4.100   2.114   6.344
 7080SOL    HW222140   3.958   2.034   6.334
 7081SOL     OW22141   2.544   0.065   0.629
 7081SOL    HW122142   2.472   0.105   0.573
 7081SOL    HW222143   2.599   0.003   0.573
 7082SOL     OW22144   0.472   3.678   2.221
 7082SOL    HW122145   0.477   3.612   2.147
 7082SOL    HW222146   0.542   3.657   2.290
 7083SOL     OW22147   4.935   2.466   3.463
 7083SOL    HW122148   4.949   2.416   3.548
 7083SOL    HW222149   4.838   2.490   3.454
 7084SOL     OW22150   0.885   5.070   0.465
 7084SOL    HW122151   0.816   5.002   0.441
 7084SOL    HW222152   0.940   5.036   0.541
 7085SOL     OW22153   0.846   4.166   2.292
 7085SOL    HW122154   0.752   4.196   2.279
 7085SOL    HW222155   0.908   4.243   2.280
 7086SOL     OW22156   5.368   0.570   3.620
 7086SOL    HW122157   5.293   0.558   3.685
 7086SOL    HW222158   5.455   0.573   3.670
 7087SOL     OW22159   4.711   2.704   3.694
 7087SOL    HW122160   4.687   2.800   3.685
 7087SOL    HW222161   4.688   2.655   3.610
 7088SOL     OW22162   6.655   2.324   5.345
 7088SOL    HW122163   6.643   2.396   5.276
 7088SOL    HW222164   6.572   2.316   5.400
 7089SOL     OW22165   2.625   5.493   1.255
 7089SOL    HW122166   2.624   5.478   1.354
 7089SOL    HW222167   2.608   5.589   1.235
 7090SOL     OW22168   4.273   3.312   0.936
 7090SOL    HW122169   4.302   3.292   1.030
 7090SOL    HW222170   4.181   3.275   0.921
 7091SOL     OW22171   0.201   6.795   0.115
 7091SOL    HW122172   0.295   6.765   0.127
 7091SOL    HW222173   0.190   6.886   0.155
 7092SOL     OW22174   4.482   6.846   6.880
 7092SOL    HW122175   4.401   6.903   6.897
 7092SOL    HW222176   4.458   6.749   6.890
 7093SOL     OW22177   3.501   3.230   0.903
 7093SOL    HW122178   3.479   3.313   0.954
 7093SOL    HW222179   3.417   3.189   0.867
 7094SOL     OW22180   4.180   0.765   5.493
 7094SOL    HW122181   4.213   0.759   5.399
 7094SOL    HW222182   4.238   0.709   5.552
 7095SOL     OW22183   2.631   4.898   4.582
 7095SOL    HW122184   2.710   4.921   4.524
 7095SOL    HW222185   2.659   4.831   4.650
 7096SOL     OW22186   6.345   6.648   1.060
 7096SOL    HW122187   6.348   6.626   1.158
 7096SOL    HW222188   6.420   6.710   1.038
 7097SOL     OW22189   4.650   1.577   2.794
 7097SOL    HW122190   4.653   1.666   2.748
 7097SOL    HW222191   4.555   1.551   2.812
 7098SOL     OW22192   0.998   1.254   3.325
 7098SOL    HW122193   0.973   1.274   3.420
 7098SOL    HW222194   0.982   1.157   3.306
 7099SOL     OW22195   3.646   1.897   4.534
 7099SOL    HW122196   3.659   1.803   4.566
 7099SOL    HW222197   3.735   1.939   4.516
 7100SOL     OW22198   0.068   3.978   1.151
 7100SOL    HW122199   0.133   4.048   1.179
 7100SOL    HW222200   0.025   3.937   1.232
 7101SOL     OW22201   2.563   5.511   4.406
 7101SOL    HW122202   2.511   5.454   4.469
 7101SOL    HW222203   2.617   5.578   4.459
 7102SOL     OW22204   5.481   1.535   3.160
 7102SOL    HW122205   5.421   1.468   3.117
 7102SOL    HW222206   5.447   1.627   3.141
 7103SOL     OW22207   5.191   3.658   3.790
 7103SOL    HW122208   5.107   3.693   3.830
 7103SOL    HW222209   5.220   3.576   3.839
 7104SOL     OW22210   5.145   3.092   4.675
 7104SOL    HW122211   5.165   3.078   4.772
 7104SOL    HW222212   5.066   3.153   4.666
 7105SOL     OW22213   2.970   3.762   3.055
 7105SOL    HW122214   3.054   3.790   3.010
 7105SOL    HW222215   2.907   3.840   3.059
 7106SOL     OW22216   3.075   1.582   2.327
 7106SOL    HW122217   3.138   1.629   2.265
 7106SOL    HW222218   3.127   1.534   2.398
 7107SOL     OW22219   3.626   0.873   6.559
 7107SOL    HW122220   3.611   0.867   6.460
 7107SOL    HW222221   3.539   0.893   6.604
 7108SOL     OW22222   4.132   0.162   2.155
 7108SOL    HW122223   4.212   0.186   2.100
 7108SOL    HW222224   4.062   0.232   2.144
 7109SOL     OW22225   3.162   5.401   6.297
 7109SOL    HW122226   3.141   5.377   6.392
 7109SOL    HW222227   3.116   5.337   6.235
 7110SOL     OW22228   2.582   6.511   4.812
 7110SOL    HW122229   2.567   6.430   4.869
 7110SOL    HW222230   2.658   6.564   4.849
 7111SOL     OW22231   6.464   0.815   4.975
 7111SOL    HW122232   6.383   0.759   4.991
 7111SOL    HW222233   6.514   0.828   5.060
 7112SOL     OW22234   1.135   4.893   5.042
 7112SOL    HW122235   1.108   4.802   5.074
 7112SOL    HW222236   1.230   4.892   5.012
 7113SOL     OW22237   3.203   6.645   4.647
 7113SOL    HW122238   3.266   6.626   4.722
 7113SOL    HW222239   3.255   6.662   4.563
 7114SOL     OW22240   5.805   4.065   1.375
 7114SOL    HW122241   5.747   4.067   1.456
 7114SOL    HW222242   5.798   3.976   1.331
 7115SOL     OW22243   5.537   3.051   5.727
 7115SOL    HW122244   5.474   3.109   5.676
 7115SOL    HW222245   5.494   3.024   5.813
 7116SOL     OW22246   0.134   3.950   4.529
 7116SOL    HW122247   0.226   3.988   4.516
 7116SOL    HW222248   0.140   3.850   4.531
 7117SOL     OW22249   5.073   6.917   2.876
 7117SOL    HW122250   4.978   6.893   2.894
 7117SOL    HW222251   5.080   7.015   2.859
 7118SOL     OW22252   4.458   4.643   6.254
 7118SOL    HW122253   4.522   4.714   6.226
 7118SOL    HW222254   4.401   4.618   6.175
 7119SOL     OW22255   3.115   6.712   5.491
 7119SOL    HW122256   3.101   6.671   5.581
 7119SOL    HW222257   3.036   6.770   5.469
 7120SOL     OW22258   4.355   1.231   0.917
 7120SOL    HW122259   4.407   1.299   0.864
 7120SOL    HW222260   4.382   1.237   1.014
 7121SOL     OW22261   1.076   6.098   2.529
 7121SOL    HW122262   1.003   6.033   2.550
 7121SOL    HW222263   1.037   6.180   2.486
 7122SOL     OW22264   3.652   2.295   6.750
 7122SOL    HW122265   3.750   2.305   6.734
 7122SOL    HW222266   3.615   2.381   6.786
 7123SOL     OW22267   5.562   5.266   5.876
 7123SOL    HW122268   5.486   5.202   5.862
 7123SOL    HW222269   5.635   5.245   5.811
 7124SOL     OW22270   1.911   3.182   1.132
 7124SOL    HW122271   1.883   3.151   1.223
 7124SOL    HW222272   1.942   3.104   1.078
 7125SOL     OW22273   0.733   6.377   2.208
 7125SOL    HW122274   0.760   6.464   2.166
 7125SOL    HW222275   0.656   6.338   2.157
 7126SOL     OW22276   3.755   5.315   1.523
 7126SOL    HW122277   3.789   5.223   1.506
 7126SOL    HW222278   3.687   5.313   1.596
 7127SOL     OW22279   2.970   6.247   6.532
 7127SOL    HW122280   2.878   6.238   6.494
 7127SOL    HW222281   2.993   6.163   6.582
 7128SOL     OW22282   3.015   4.219   0.154
 7128SOL    HW122283   2.962   4.136   0.175
 7128SOL    HW222284   3.088   4.196   0.090
 7129SOL     OW22285   0.471   0.060   0.159
 7129SOL    HW122286   0.372   0.074   0.161
 7129SOL    HW222287   0.517   0.130   0.213
 7130SOL     OW22288   3.104   0.025   3.994
 7130SOL    HW122289   3.039   0.056   4.064
 7130SOL    HW222290   3.131   6.957   4.013
 7131SOL     OW22291   2.531   1.495   1.770
 7131SOL    HW122292   2.605   1.427   1.775
 7131SOL    HW222293   2.540   1.547   1.685
 7132SOL     OW22294   4.712   4.352   1.124
 7132SOL    HW122295   4.664   4.282   1.178
 7132SOL    HW222296   4.731   4.431   1.182
 7133SOL     OW22297   4.763   6.041   2.829
 7133SOL    HW122298   4.747   6.112   2.897
 7133SOL    HW222299   4.861   6.038   2.806
 7134SOL     OW22300   5.177   5.128   0.275
 7134SOL    HW122301   5.213   5.038   0.299
 7134SOL    HW222302   5.241   5.174   0.214
 7135SOL     OW22303   1.843   3.547   1.685
 7135SOL    HW122304   1.936   3.517   1.705
 7135SOL    HW222305   1.842   3.647   1.678
 7136SOL     OW22306   0.950   2.293   1.890
 7136SOL    HW122307   1.023   2.272   1.825
 7136SOL    HW222308   0.868   2.242   1.865
 7137SOL     OW22309   3.145   0.643   2.354
 7137SOL    HW122310   3.056   0.682   2.379
 7137SOL    HW222311   3.140   0.543   2.358
 7138SOL     OW22312   0.295   3.334   0.387
 7138SOL    HW122313   0.314   3.430   0.365
 7138SOL    HW222314   0.290   3.323   0.486
 7139SOL     OW22315   5.765   6.079   0.909
 7139SOL    HW122316   5.763   6.032   0.997
 7139SOL    HW222317   5.772   6.178   0.924
 7140SOL     OW22318   6.798   4.581   0.067
 7140SOL    HW122319   6.733   4.516   0.106
 7140SOL    HW222320   6.865   4.532   0.011
 7141SOL     OW22321   3.136   0.825   0.994
 7141SOL    HW122322   3.115   0.850   0.900
 7141SOL    HW222323   3.225   0.862   1.020
 7142SOL     OW22324   4.636   0.432   4.769
 7142SOL    HW122325   4.604   0.471   4.683
 7142SOL    HW222326   4.694   0.498   4.816
 7143SOL     OW22327   2.688   2.983   6.544
 7143SOL    HW122328   2.688   3.079   6.572
 7143SOL    HW222329   2.684   2.924   6.624
 7144SOL     OW22330   0.083   0.722   6.054
 7144SOL    HW122331   0.146   0.726   5.976
 7144SOL    HW222332   0.010   0.656   6.034
 7145SOL     OW22333   5.635   1.751   6.168
 7145SOL    HW122334   5.585   1.799   6.096
 7145SOL    HW222335   5.612   1.790   6.257
 7146SOL     OW22336   0.680   2.462   5.302
 7146SOL    HW122337   0.762   2.406   5.314
 7146SOL    HW222338   0.662   2.512   5.387
 7147SOL     OW22339   6.520   6.662   2.037
 7147SOL    HW122340   6.448   6.689   1.973
 7147SOL    HW222341   6.480   6.640   2.126
 7148SOL     OW22342   6.777   6.710   1.294
 7148SOL    HW122343   6.695   6.657   1.317
 7148SOL    HW222344   6.853   6.680   1.352
 7149SOL     OW22345   5.276   4.600   5.673
 7149SOL    HW122346   5.281   4.674   5.606
 7149SOL    HW222347   5.271   4.512   5.624
 7150SOL     OW22348   3.021   2.599   0.072
 7150SOL    HW122349   2.981   2.508   0.071
 7150SOL    HW222350   3.099   2.601   0.135
 7151SOL     OW22351   5.239   1.487   6.942
 7151SOL    HW122352   5.167   1.548   6.908
 7151SOL    HW222353   5.326   1.512   6.901
 7152SOL     OW22354   4.778   0.611   5.703
 7152SOL    HW122355   4.858   0.576   5.752
 7152SOL    HW222356   4.694   0.583   5.751
 7153SOL     OW22357   3.274   5.788   0.471
 7153SOL    HW122358   3.291   5.819   0.564
 7153SOL    HW222359   3.286   5.689   0.466
 7154SOL     OW22360   4.569   0.854   2.102
 7154SOL    HW122361   4.638   0.866   2.031
 7154SOL    HW222362   4.480   0.884   2.067
 7155SOL     OW22363   1.409   0.279   2.086
 7155SOL    HW122364   1.500   0.311   2.111
 7155SOL    HW222365   1.361   0.248   2.168
 7156SOL     OW22366   6.504   3.825   5.647
 7156SOL    HW122367   6.459   3.904   5.605
 7156SOL    HW222368   6.577   3.793   5.587
 7157SOL     OW22369   0.299   4.396   5.875
 7157SOL    HW122370   0.245   4.330   5.928
 7157SOL    HW222371   0.344   4.349   5.799
 7158SOL     OW22372   5.194   0.277   4.076
 7158SOL    HW122373   5.235   0.316   3.993
 7158SOL    HW222374   5.169   0.350   4.138
 7159SOL     OW22375   0.768   6.505   3.114
 7159SOL    HW122376   0.859   6.467   3.097
 7159SOL    HW222377   0.708   6.432   3.147
 7160SOL     OW22378   5.931   6.938   2.972
 7160SOL    HW122379   5.921   6.839   2.980
 7160SOL    HW222380   6.017   6.967   3.015
 7161SOL     OW22381   3.760   4.032   2.305
 7161SOL    HW122382   3.805   3.953   2.264
 7161SOL    HW222383   3.798   4.048   2.396
 7162SOL     OW22384   0.462   6.218   1.121
 7162SOL    HW122385   0.442   6.316   1.115
 7162SOL    HW222386   0.504   6.187   1.036
 7163SOL     OW22387   6.612   0.784   1.303
 7163SOL    HW122388   6.666   0.703   1.323
 7163SOL    HW222389   6.639   0.822   1.214
 7164SOL     OW22390   1.259   1.107   6.900
 7164SOL    HW122391   1.204   1.034   6.858
 7164SOL    HW222392   1.348   1.113   6.853
 7165SOL     OW22393   5.748   2.379   0.196
 7165SOL    HW122394   5.826   2.419   0.244
 7165SOL    HW222395   5.689   2.332   0.262
 7166SOL     OW22396   0.180   5.496   5.633
 7166SOL    HW122397   0.174   5.556   5.712
 7166SOL    HW222398   0.214   5.406   5.661
 7167SOL     OW22399   0.039   2.947   5.316
 7167SOL    HW122400   0.035   2.958   5.217
 7167SOL    HW222401   6.984   2.900   5.348
 7168SOL     OW22402   1.969   1.828   2.245
 7168SOL    HW122403   1.940   1.889   2.172
 7168SOL    HW222404   1.888   1.791   2.292
 7169SOL     OW22405   1.629   4.642   5.617
 7169SOL    HW122406   1.541   4.660   5.661
 7169SOL    HW222407   1.679   4.727   5.608
 7170SOL     OW22408   3.393   1.364   1.254
 7170SOL    HW122409   3.337   1.301   1.308
 7170SOL    HW222410   3.490   1.342   1.267
 7171SOL     OW22411   6.615   3.724   0.680
 7171SOL    HW122412   6.627   3.770   0.592
 7171SOL    HW222413   6.702   3.723   0.729
 7172SOL     OW22414   0.660   2.101   3.607
 7172SOL    HW122415   0.704   2.140   3.688
 7172SOL    HW222416   0.696   2.146   3.525
 7173SOL     OW22417   4.404   5.807   5.699
 7173SOL    HW122418   4.351   5.886   5.728
 7173SOL    HW222419   4.377   5.727   5.753
 7174SOL     OW22420   6.541   4.180   2.179
 7174SOL    HW122421   6.497   4.112   2.238
 7174SOL    HW222422   6.473   4.224   2.122
 7175SOL     OW22423   6.370   4.184   5.701
 7175SOL    HW122424   6.346   4.281   5.689
 7175SOL    HW222425   6.327   4.130   5.629
 7176SOL     OW22426   0.077   1.060   6.020
 7176SOL    HW122427   0.009   1.129   5.998
 7176SOL    HW222428   0.143   1.053   5.946
 7177SOL     OW22429   1.406   6.149   3.723
 7177SOL    HW122430   1.407   6.132   3.625
 7177SOL    HW222431   1.341   6.223   3.743
 7178SOL     OW22432   1.345   6.944   4.976
 7178SOL    HW122433   1.270   6.974   4.917
 7178SOL    HW222434   1.354   7.008   5.053
 7179SOL     OW22435   4.436   5.020   5.911
 7179SOL    HW122436   4.384   4.946   5.954
 7179SOL    HW222437   4.381   5.062   5.839
 7180SOL     OW22438   1.840   3.014   1.814
 7180SOL    HW122439   1.914   3.011   1.881
 7180SOL    HW222440   1.805   3.108   1.808
 7181SOL     OW22441   2.094   1.193   6.848
 7181SOL    HW122442   2.179   1.147   6.825
 7181SOL    HW222443   2.017   1.131   6.834
 7182SOL     OW22444   1.860   1.178   3.829
 7182SOL    HW122445   1.854   1.275   3.809
 7182SOL    HW222446   1.885   1.165   3.925
 7183SOL     OW22447   1.729   6.946   2.006
 7183SOL    HW122448   1.766   0.010   2.024
 7183SOL    HW222449   1.633   6.953   1.979
 7184SOL     OW22450   6.537   0.812   3.927
 7184SOL    HW122451   6.575   0.900   3.953
 7184SOL    HW222452   6.562   0.743   3.995
 7185SOL     OW22453   4.169   0.606   3.951
 7185SOL    HW122454   4.234   0.533   3.931
 7185SOL    HW222455   4.166   0.623   4.049
 7186SOL     OW22456   6.395   0.862   6.830
 7186SOL    HW122457   6.391   0.956   6.863
 7186SOL    HW222458   6.487   0.843   6.795
 7187SOL     OW22459   3.899   3.500   4.016
 7187SOL    HW122460   3.986   3.452   4.003
 7187SOL    HW222461   3.849   3.457   4.092
 7188SOL     OW22462   4.661   4.626   0.169
 7188SOL    HW122463   4.590   4.615   0.100
 7188SOL    HW222464   4.636   4.699   0.233
 7189SOL     OW22465   6.797   2.598   5.881
 7189SOL    HW122466   6.781   2.512   5.931
 7189SOL    HW222467   6.765   2.588   5.787
 7190SOL     OW22468   6.102   5.222   6.840
 7190SOL    HW122469   6.122   5.256   6.932
 7190SOL    HW222470   6.006   5.196   6.834
 7191SOL     OW22471   6.429   4.771   2.436
 7191SOL    HW122472   6.520   4.779   2.477
 7191SOL    HW222473   6.407   4.675   2.422
 7192SOL     OW22474   2.281   4.059   5.430
 7192SOL    HW122475   2.352   4.072   5.499
 7192SOL    HW222476   2.323   4.043   5.341
 7193SOL     OW22477   3.297   1.700   3.232
 7193SOL    HW122478   3.223   1.634   3.226
 7193SOL    HW222479   3.379   1.663   3.187
 7194SOL     OW22480   2.867   2.672   6.251
 7194SOL    HW122481   2.898   2.675   6.156
 7194SOL    HW222482   2.780   2.721   6.259
 7195SOL     OW22483   0.982   4.125   5.763
 7195SOL    HW122484   0.936   4.201   5.716
 7195SOL    HW222485   1.081   4.139   5.759
 7196SOL     OW22486   3.345   4.172   1.632
 7196SOL    HW122487   3.352   4.092   1.691
 7196SOL    HW222488   3.268   4.229   1.662
 7197SOL     OW22489   3.347   4.781   6.802
 7197SOL    HW122490   3.403   4.717   6.854
 7197SOL    HW222491   3.385   4.793   6.710
 7198SOL     OW22492   0.728   0.300   1.828
 7198SOL    HW122493   0.659   0.287   1.756
 7198SOL    HW222494   0.754   0.212   1.866
 7199SOL     OW22495   5.956   1.581   2.977
 7199SOL    HW122496   5.969   1.507   3.042
 7199SOL    HW222497   5.936   1.542   2.886
 7200SOL     OW22498   1.006   2.857   6.980
 7200SOL    HW122499   1.050   2.774   6.946
 7200SOL    HW222500   0.944   2.834   0.029
 7201SOL     OW22501   5.955   5.638   4.109
 7201SOL    HW122502   6.011   5.687   4.176
 7201SOL    HW222503   5.995   5.650   4.018
 7202SOL     OW22504   4.624   6.738   5.776
 7202SOL    HW122505   4.569   6.655   5.772
 7202SOL    HW222506   4.671   6.742   5.864
 7203SOL     OW22507   0.120   1.622   0.952
 7203SOL    HW122508   0.177   1.659   0.878
 7203SOL    HW222509   0.103   1.525   0.935
 7204SOL     OW22510   6.430   0.938   2.474
 7204SOL    HW122511   6.354   0.998   2.450
 7204SOL    HW222512   6.397   0.866   2.534
 7205SOL     OW22513   3.294   1.866   4.576
 7205SOL    HW122514   3.355   1.937   4.541
 7205SOL    HW222515   3.223   1.845   4.508
 7206SOL     OW22516   2.141   3.963   6.808
 7206SOL    HW122517   2.048   4.000   6.809
 7206SOL    HW222518   2.141   3.872   6.848
 7207SOL     OW22519   2.035   1.213   3.507
 7207SOL    HW122520   1.971   1.233   3.581
 7207SOL    HW222521   2.045   1.294   3.449
 7208SOL     OW22522   3.914   1.013   4.044
 7208SOL    HW122523   3.934   0.920   4.013
 7208SOL    HW222524   3.927   1.020   4.143
 7209SOL     OW22525   3.634   0.991   1.752
 7209SOL    HW122526   3.731   0.974   1.765
 7209SOL    HW222527   3.596   0.923   1.689
 7210SOL     OW22528   3.452   1.283   3.670
 7210SOL    HW122529   3.452   1.282   3.570
 7210SOL    HW222530   3.498   1.365   3.703
 7211SOL     OW22531   4.492   6.567   5.522
 7211SOL    HW122532   4.429   6.489   5.529
 7211SOL    HW222533   4.447   6.649   5.556
 7212SOL     OW22534   0.654   5.113   5.059
 7212SOL    HW122535   0.636   5.015   5.047
 7212SOL    HW222536   0.655   5.134   5.157
 7213SOL     OW22537   4.195   2.353   0.094
 7213SOL    HW122538   4.195   2.297   0.011
 7213SOL    HW222539   4.204   2.293   0.174
 7214SOL     OW22540   6.301   6.953   6.210
 7214SOL    HW122541   6.339   0.019   6.212
 7214SOL    HW222542   6.203   6.958   6.191
 7215SOL     OW22543   6.448   1.281   2.586
 7215SOL    HW122544   6.463   1.375   2.555
 7215SOL    HW222545   6.536   1.233   2.591
 7216SOL     OW22546   4.533   0.220   3.308
 7216SOL    HW122547   4.597   0.249   3.236
 7216SOL    HW222548   4.454   0.175   3.266
 7217SOL     OW22549   1.072   2.518   3.110
 7217SOL    HW122550   1.138   2.494   3.182
 7217SOL    HW222551   1.029   2.434   3.076
 7218SOL     OW22552   6.299   2.633   4.818
 7218SOL    HW122553   6.203   2.621   4.842
 7218SOL    HW222554   6.336   2.546   4.785
 7219SOL     OW22555   2.933   6.075   2.800
 7219SOL    HW122556   2.866   6.094   2.728
 7219SOL    HW222557   2.885   6.046   2.883
 7220SOL     OW22558   6.262   4.255   3.547
 7220SOL    HW122559   6.292   4.194   3.474
 7220SOL    HW222560   6.340   4.277   3.606
 7221SOL     OW22561   3.939   5.407   3.449
 7221SOL    HW122562   3.890   5.409   3.362
 7221SOL    HW222563   4.033   5.439   3.434
 7222SOL     OW22564   0.022   5.972   4.204
 7222SOL    HW122565   0.011   5.973   4.105
 7222SOL    HW222566   7.026   6.061   4.242
 7223SOL     OW22567   0.185   4.209   1.730
 7223SOL    HW122568   0.219   4.261   1.652
 7223SOL    HW222569   0.250   4.136   1.752
 7224SOL     OW22570   4.189   2.188   2.395
 7224SOL    HW122571   4.202   2.122   2.321
 7224SOL    HW222572   4.091   2.195   2.416
 7225SOL     OW22573   1.412   6.140   0.836
 7225SOL    HW122574   1.482   6.211   0.848
 7225SOL    HW222575   1.331   6.164   0.889
 7226SOL     OW22576   6.799   6.254   0.194
 7226SOL    HW122577   6.850   6.222   0.114
 7226SOL    HW222578   6.848   6.332   0.235
 7227SOL     OW22579   2.028   1.365   2.525
 7227SOL    HW122580   1.945   1.314   2.506
 7227SOL    HW222581   2.097   1.304   2.563
 7228SOL     OW22582   6.297   3.403   2.211
 7228SOL    HW122583   6.273   3.374   2.119
 7228SOL    HW222584   6.391   3.375   2.231
 7229SOL     OW22585   6.204   1.054   5.101
 7229SOL    HW122586   6.256   1.050   5.015
 7229SOL    HW222587   6.112   1.088   5.083
 7230SOL     OW22588   2.420   5.053   4.486
 7230SOL    HW122589   2.502   4.996   4.498
 7230SOL    HW222590   2.340   5.004   4.520
 7231SOL     OW22591   4.221   2.949   5.894
 7231SOL    HW122592   4.301   2.947   5.835
 7231SOL    HW222593   4.250   2.944   5.990
 7232SOL     OW22594   4.645   6.291   3.458
 7232SOL    HW122595   4.590   6.283   3.540
 7232SOL    HW222596   4.635   6.382   3.419
 7233SOL     OW22597   0.274   1.439   5.380
 7233SOL    HW122598   0.223   1.523   5.360
 7233SOL    HW222599   0.284   1.386   5.296
 7234SOL     OW22600   5.268   4.389   3.463
 7234SOL    HW122601   5.176   4.363   3.493
 7234SOL    HW222602   5.333   4.377   3.539
 7235SOL     OW22603   6.142   6.476   1.815
 7235SOL    HW122604   6.199   6.394   1.813
 7235SOL    HW222605   6.076   6.469   1.890
 7236SOL     OW22606   1.854   3.471   2.629
 7236SOL    HW122607   1.820   3.515   2.546
 7236SOL    HW222608   1.931   3.523   2.665
 7237SOL     OW22609   5.760   1.055   0.438
 7237SOL    HW122610   5.742   0.957   0.424
 7237SOL    HW222611   5.828   1.066   0.510
 7238SOL     OW22612   4.322   3.741   7.009
 7238SOL    HW122613   4.359   3.648   7.015
 7238SOL    HW222614   4.395   3.804   6.983
 7239SOL     OW22615   5.946   2.511   2.236
 7239SOL    HW122616   5.890   2.525   2.318
 7239SOL    HW222617   6.038   2.546   2.252
 7240SOL     OW22618   6.982   1.773   0.683
 7240SOL    HW122619   0.037   1.830   0.697
 7240SOL    HW222620   6.920   1.784   0.761
 7241SOL     OW22621   1.902   0.821   2.389
 7241SOL    HW122622   1.867   0.891   2.326
 7241SOL    HW222623   1.828   0.761   2.417
 7242SOL     OW22624   6.915   4.397   4.836
 7242SOL    HW122625   6.998   4.450   4.854
 7242SOL    HW222626   6.925   4.347   4.750
 7243SOL     OW22627   5.714   4.883   6.327
 7243SOL    HW122628   5.710   4.789   6.293
 7243SOL    HW222629   5.671   4.945   6.261
 7244SOL     OW22630   6.940   5.990   0.144
 7244SOL    HW122631   6.851   5.998   0.187
 7244SOL    HW222632   7.012   6.007   0.211
 7245SOL     OW22633   1.176   3.277   0.392
 7245SOL    HW122634   1.188   3.270   0.491
 7245SOL    HW222635   1.126   3.361   0.371
 7246SOL     OW22636   4.163   6.727   3.036
 7246SOL    HW122637   4.101   6.681   2.972
 7246SOL    HW222638   4.165   6.677   3.122
 7247SOL     OW22639   3.060   3.966   4.658
 7247SOL    HW122640   3.083   4.061   4.675
 7247SOL    HW222641   3.036   3.954   4.561
 7248SOL     OW22642   3.005   1.781   5.313
 7248SOL    HW122643   3.024   1.813   5.220
 7248SOL    HW222644   3.040   1.688   5.324
 7249SOL     OW22645   4.163   5.301   2.658
 7249SOL    HW122646   4.229   5.271   2.589
 7249SOL    HW222647   4.075   5.320   2.613
 7250SOL     OW22648   5.664   5.130   5.102
 7250SOL    HW122649   5.675   5.181   5.187
 7250SOL    HW222650   5.703   5.039   5.112
 7251SOL     OW22651   0.449   5.805   5.295
 7251SOL    HW122652   0.420   5.821   5.201
 7251SOL    HW222653   0.378   5.837   5.358
 7252SOL     OW22654   3.625   4.178   2.114
 7252SOL    HW122655   3.690   4.247   2.085
 7252SOL    HW222656   3.669   4.115   2.178
 7253SOL     OW22657   2.550   5.573   4.812
 7253SOL    HW122658   2.470   5.590   4.753
 7253SOL    HW222659   2.567   5.475   4.816
 7254SOL     OW22660   5.912   2.894   4.453
 7254SOL    HW122661   5.923   2.970   4.517
 7254SOL    HW222662   5.852   2.825   4.494
 7255SOL     OW22663   5.121   3.785   6.811
 7255SOL    HW122664   5.047   3.723   6.839
 7255SOL    HW222665   5.146   3.843   6.889
 7256SOL     OW22666   3.201   6.934   5.037
 7256SOL    HW122667   3.129   6.989   5.080
 7256SOL    HW222668   3.176   6.837   5.041
 7257SOL     OW22669   1.011   1.498   4.553
 7257SOL    HW122670   0.979   1.544   4.470
 7257SOL    HW222671   0.951   1.421   4.574
 7258SOL     OW22672   5.563   3.040   2.537
 7258SOL    HW122673   5.489   3.034   2.469
 7258SOL    HW222674   5.648   3.008   2.495
 7259SOL     OW22675   1.421   4.151   2.717
 7259SOL    HW122676   1.400   4.095   2.637
 7259SOL    HW222677   1.519   4.147   2.736
 7260SOL     OW22678   5.492   3.313   0.661
 7260SOL    HW122679   5.584   3.341   0.635
 7260SOL    HW222680   5.461   3.366   0.740
 7261SOL     OW22681   6.642   4.413   0.184
 7261SOL    HW122682   6.583   4.359   0.123
 7261SOL    HW222683   6.588   4.486   0.225
 7262SOL     OW22684   5.958   1.172   5.096
 7262SOL    HW122685   5.870   1.157   5.141
 7262SOL    HW222686   5.971   1.270   5.079
 7263SOL     OW22687   6.828   5.681   6.839
 7263SOL    HW122688   6.903   5.691   6.904
 7263SOL    HW222689   6.795   5.771   6.811
 7264SOL     OW22690   5.941   1.104   0.973
 7264SOL    HW122691   5.922   1.186   1.026
 7264SOL    HW222692   6.039   1.096   0.958
 7265SOL     OW22693   3.736   0.053   5.615
 7265SOL    HW122694   3.789   0.105   5.549
 7265SOL    HW222695   3.792   0.031   5.694
 7266SOL     OW22696   0.453   0.892   3.775
 7266SOL    HW122697   0.443   0.961   3.847
 7266SOL    HW222698   0.390   0.816   3.793
 7267SOL     OW22699   6.344   4.465   4.792
 7267SOL    HW122700   6.411   4.427   4.856
 7267SOL    HW222701   6.390   4.485   4.705
 7268SOL     OW22702   6.067   6.676   4.390
 7268SOL    HW122703   5.997   6.604   4.384
 7268SOL    HW222704   6.025   6.765   4.371
 7269SOL     OW22705   2.752   4.720   4.722
 7269SOL    HW122706   2.764   4.701   4.819
 7269SOL    HW222707   2.835   4.763   4.686
 7270SOL     OW22708   0.934   1.254   4.778
 7270SOL    HW122709   0.920   1.155   4.777
 7270SOL    HW222710   1.022   1.276   4.737
 7271SOL     OW22711   0.827   4.675   2.959
 7271SOL    HW122712   0.743   4.624   2.937
 7271SOL    HW222713   0.899   4.649   2.894
 7272SOL     OW22714   6.459   4.316   1.576
 7272SOL    HW122715   6.503   4.328   1.487
 7272SOL    HW222716   6.361   4.302   1.563
 7273SOL     OW22717   0.616   2.598   5.563
 7273SOL    HW122718   0.523   2.619   5.535
 7273SOL    HW222719   0.616   2.561   5.656
 7274SOL     OW22720   0.597   4.751   6.879
 7274SOL    HW122721   0.574   4.827   6.941
 7274SOL    HW222722   0.537   4.674   6.898
 7275SOL     OW22723   0.350   6.547   3.435
 7275SOL    HW122724   0.324   6.631   3.483
 7275SOL    HW222725   0.400   6.570   3.352
 7276SOL     OW22726   5.453   6.626   4.391
 7276SOL    HW122727   5.548   6.644   4.363
 7276SOL    HW222728   5.444   6.642   4.489
 7277SOL     OW22729   4.560   0.562   6.833
 7277SOL    HW122730   4.481   0.584   6.890
 7277SOL    HW222731   4.590   0.644   6.784
 7278SOL     OW22732   3.667   2.951   2.149
 7278SOL    HW122733   3.609   2.978   2.072
 7278SOL    HW222734   3.628   2.870   2.193
 7279SOL     OW22735   3.331   6.281   6.017
 7279SOL    HW122736   3.339   6.194   5.969
 7279SOL    HW222737   3.400   6.345   5.982
 7280SOL     OW22738   4.768   1.237   5.934
 7280SOL    HW122739   4.845   1.299   5.944
 7280SOL    HW222740   4.715   1.262   5.853
 7281SOL     OW22741   4.861   1.141   6.187
 7281SOL    HW122742   4.935   1.207   6.196
 7281SOL    HW222743   4.807   1.161   6.105
 7282SOL     OW22744   5.764   5.272   2.363
 7282SOL    HW122745   5.832   5.227   2.305
 7282SOL    HW222746   5.792   5.265   2.459
 7283SOL     OW22747   2.143   0.980   3.879
 7283SOL    HW122748   2.133   0.884   3.905
 7283SOL    HW222749   2.160   0.987   3.781
 7284SOL     OW22750   0.445   2.779   5.041
 7284SOL    HW122751   0.445   2.679   5.037
 7284SOL    HW222752   0.457   2.809   5.136
 7285SOL     OW22753   5.403   5.278   2.261
 7285SOL    HW122754   5.360   5.246   2.346
 7285SOL    HW222755   5.482   5.221   2.241
 7286SOL     OW22756   2.351   3.819   1.486
 7286SOL    HW122757   2.276   3.800   1.422
 7286SOL    HW222758   2.418   3.879   1.443
 7287SOL     OW22759   6.059   1.846   6.540
 7287SOL    HW122760   6.025   1.861   6.447
 7287SOL    HW222761   5.992   1.880   6.606
 7288SOL     OW22762   3.420   6.426   6.746
 7288SOL    HW122763   3.323   6.447   6.755
 7288SOL    HW222764   3.472   6.511   6.748
 7289SOL     OW22765   4.970   1.905   3.735
 7289SOL    HW122766   5.026   1.824   3.714
 7289SOL    HW222767   5.008   1.952   3.814
 7290SOL     OW22768   2.839   4.872   3.940
 7290SOL    HW122769   2.855   4.842   4.034
 7290SOL    HW222770   2.903   4.945   3.916
 7291SOL     OW22771   2.866   5.198   2.193
 7291SOL    HW122772   2.794   5.143   2.150
 7291SOL    HW222773   2.912   5.253   2.124
 7292SOL     OW22774   2.614   0.112   4.499
 7292SOL    HW122775   2.603   0.014   4.482
 7292SOL    HW222776   2.710   0.138   4.485
 7293SOL     OW22777   1.340   2.216   5.825
 7293SOL    HW122778   1.331   2.313   5.844
 7293SOL    HW222779   1.284   2.163   5.889
 7294SOL     OW22780   3.634   5.527   0.390
 7294SOL    HW122781   3.617   5.569   0.479
 7294SOL    HW222782   3.685   5.591   0.333
 7295SOL     OW22783   5.485   0.116   1.675
 7295SOL    HW122784   5.390   0.085   1.679
 7295SOL    HW222785   5.538   0.069   1.746
 7296SOL     OW22786   4.281   4.925   1.920
 7296SOL    HW122787   4.271   4.991   1.995
 7296SOL    HW222788   4.318   4.972   1.840
 7297SOL     OW22789   5.119   7.000   1.991
 7297SOL    HW122790   5.089   6.907   2.014
 7297SOL    HW222791   5.074   0.038   2.053
 7298SOL     OW22792   6.208   3.532   4.017
 7298SOL    HW122793   6.235   3.557   3.924
 7298SOL    HW222794   6.265   3.456   4.048
 7299SOL     OW22795   6.167   3.583   6.429
 7299SOL    HW122796   6.197   3.567   6.523
 7299SOL    HW222797   6.223   3.529   6.367
 7300SOL     OW22798   4.612   4.740   1.133
 7300SOL    HW122799   4.613   4.688   1.048
 7300SOL    HW222800   4.566   4.828   1.117
 7301SOL     OW22801   6.853   0.686   6.412
 7301SOL    HW122802   6.758   0.711   6.431
 7301SOL    HW222803   6.856   0.622   6.335
 7302SOL     OW22804   4.937   0.864   6.220
 7302SOL    HW122805   4.905   0.955   6.247
 7302SOL    HW222806   5.017   0.839   6.275
 7303SOL     OW22807   3.587   1.148   0.405
 7303SOL    HW122808   3.505   1.091   0.399
 7303SOL    HW222809   3.564   1.242   0.379
 7304SOL     OW22810   3.562   4.717   5.337
 7304SOL    HW122811   3.578   4.805   5.382
 7304SOL    HW222812   3.632   4.651   5.365
 7305SOL     OW22813   5.397   1.205   0.325
 7305SOL    HW122814   5.469   1.211   0.256
 7305SOL    HW222815   5.311   1.239   0.288
 7306SOL     OW22816   4.820   4.782   1.563
 7306SOL    HW122817   4.802   4.868   1.514
 7306SOL    HW222818   4.852   4.803   1.656
 7307SOL     OW22819   3.981   6.660   2.514
 7307SOL    HW122820   4.005   6.685   2.608
 7307SOL    HW222821   3.996   6.738   2.454
 7308SOL     OW22822   6.298   1.307   4.699
 7308SOL    HW122823   6.281   1.393   4.747
 7308SOL    HW222824   6.318   1.326   4.603
 7309SOL     OW22825   4.723   6.240   1.535
 7309SOL    HW122826   4.798   6.176   1.515
 7309SOL    HW222827   4.638   6.205   1.497
 7310SOL     OW22828   2.640   4.949   1.360
 7310SOL    HW122829   2.553   4.930   1.407
 7310SOL    HW222830   2.707   4.880   1.386
 7311SOL     OW22831   2.671   2.152   2.114
 7311SOL    HW122832   2.761   2.191   2.094
 7311SOL    HW222833   2.600   2.209   2.074
 7312SOL     OW22834   6.745   1.685   6.011
 7312SOL    HW122835   6.708   1.592   6.007
 7312SOL    HW222836   6.831   1.689   5.961
 7313SOL     OW22837   4.422   2.869   6.608
 7313SOL    HW122838   4.395   2.963   6.629
 7313SOL    HW222839   4.484   2.835   6.679
 7314SOL     OW22840   0.177   3.004   4.549
 7314SOL    HW122841   0.127   2.949   4.483
 7314SOL    HW222842   0.271   2.971   4.556
 7315SOL     OW22843   0.155   0.676   4.835
 7315SOL    HW122844   0.115   0.748   4.779
 7315SOL    HW222845   0.094   0.655   4.912
 7316SOL     OW22846   3.603   4.153   5.363
 7316SOL    HW122847   3.526   4.157   5.426
 7316SOL    HW222848   3.570   4.169   5.270
 7317SOL     OW22849   3.315   1.327   3.962
 7317SOL    HW122850   3.383   1.312   4.034
 7317SOL    HW222851   3.300   1.242   3.912
 7318SOL     OW22852   1.656   1.768   1.514
 7318SOL    HW122853   1.626   1.678   1.546
 7318SOL    HW222854   1.699   1.758   1.424
 7319SOL     OW22855   6.526   4.596   6.323
 7319SOL    HW122856   6.465   4.524   6.290
 7319SOL    HW222857   6.498   4.684   6.285
 7320SOL     OW22858   6.810   2.776   2.008
 7320SOL    HW122859   6.869   2.729   2.073
 7320SOL    HW222860   6.807   2.725   1.922
 7321SOL     OW22861   2.998   1.237   4.772
 7321SOL    HW122862   3.091   1.258   4.742
 7321SOL    HW222863   2.935   1.306   4.737
 7322SOL     OW22864   0.423   3.603   2.654
 7322SOL    HW122865   0.414   3.700   2.680
 7322SOL    HW222866   0.338   3.555   2.676
 7323SOL     OW22867   2.096   3.360   3.166
 7323SOL    HW122868   2.006   3.365   3.209
 7323SOL    HW222869   2.155   3.431   3.204
 7324SOL     OW22870   5.541   6.383   3.096
 7324SOL    HW122871   5.569   6.299   3.051
 7324SOL    HW222872   5.470   6.428   3.041
 7325SOL     OW22873   3.013   6.295   6.894
 7325SOL    HW122874   2.937   6.304   6.958
 7325SOL    HW222875   3.094   6.341   6.931
 7326SOL     OW22876   2.592   6.722   5.406
 7326SOL    HW122877   2.550   6.663   5.475
 7326SOL    HW222878   2.622   6.667   5.328
 7327SOL     OW22879   1.412   2.702   5.748
 7327SOL    HW122880   1.502   2.745   5.754
 7327SOL    HW222881   1.385   2.694   5.652
 7328SOL     OW22882   2.801   0.273   0.171
 7328SOL    HW122883   2.713   0.242   0.208
 7328SOL    HW222884   2.869   0.201   0.185
 7329SOL     OW22885   4.448   3.398   1.383
 7329SOL    HW122886   4.369   3.348   1.347
 7329SOL    HW222887   4.431   3.496   1.379
 7330SOL     OW22888   4.136   1.687   0.256
 7330SOL    HW122889   4.169   1.772   0.214
 7330SOL    HW222890   4.128   1.700   0.355
 7331SOL     OW22891   5.383   0.575   1.330
 7331SOL    HW122892   5.411   0.503   1.266
 7331SOL    HW222893   5.423   0.662   1.302
 7332SOL     OW22894   3.742   5.519   1.323
 7332SOL    HW122895   3.648   5.538   1.294
 7332SOL    HW222896   3.742   5.445   1.391
 7333SOL     OW22897   1.091   5.023   3.164
 7333SOL    HW122898   1.150   5.013   3.083
 7333SOL    HW222899   1.148   5.037   3.245
 7334SOL     OW22900   3.904   6.836   4.138
 7334SOL    HW122901   3.975   6.779   4.179
 7334SOL    HW222902   3.880   6.910   4.202
 7335SOL     OW22903   1.708   2.445   2.800
 7335SOL    HW122904   1.705   2.521   2.865
 7335SOL    HW222905   1.615   2.418   2.776
 7336SOL     OW22906   2.040   6.889   3.632
 7336SOL    HW122907   2.040   6.981   3.592
 7336SOL    HW222908   2.056   6.895   3.730
 7337SOL     OW22909   5.769   2.919   2.342
 7337SOL    HW122910   5.838   2.862   2.387
 7337SOL    HW222911   5.803   2.947   2.252
 7338SOL     OW22912   6.200   3.160   0.171
 7338SOL    HW122913   6.239   3.103   0.244
 7338SOL    HW222914   6.116   3.202   0.203
 7339SOL     OW22915   0.746   5.403   4.684
 7339SOL    HW122916   0.797   5.471   4.737
 7339SOL    HW222917   0.671   5.367   4.740
 7340SOL     OW22918   1.862   6.972   6.364
 7340SOL    HW122919   1.934   0.006   6.396
 7340SOL    HW222920   1.793   6.962   6.436
 7341SOL     OW22921   6.491   2.571   0.168
 7341SOL    HW122922   6.571   2.554   0.226
 7341SOL    HW222923   6.504   2.527   0.079
 7342SOL     OW22924   6.616   6.981   2.727
 7342SOL    HW122925   6.698   0.006   2.702
 7342SOL    HW222926   6.543   0.018   2.751
 7343SOL     OW22927   5.180   2.916   0.500
 7343SOL    HW122928   5.095   2.954   0.463
 7343SOL    HW222929   5.159   2.855   0.576
 7344SOL     OW22930   1.293   6.545   5.782
 7344SOL    HW122931   1.237   6.614   5.829
 7344SOL    HW222932   1.373   6.523   5.839
 7345SOL     OW22933   3.089   5.097   6.317
 7345SOL    HW122934   3.151   5.123   6.391
 7345SOL    HW222935   3.058   5.003   6.332
 7346SOL     OW22936   4.656   4.703   2.693
 7346SOL    HW122937   4.672   4.704   2.594
 7346SOL    HW222938   4.743   4.696   2.741
 7347SOL     OW22939   6.061   2.235   6.491
 7347SOL    HW122940   5.965   2.209   6.498
 7347SOL    HW222941   6.115   2.157   6.459
 7348SOL     OW22942   0.058   4.105   1.517
 7348SOL    HW122943   0.099   4.131   1.605
 7348SOL    HW222944   0.119   4.132   1.443
 7349SOL     OW22945   3.877   1.815   2.150
 7349SOL    HW122946   3.798   1.831   2.091
 7349SOL    HW222947   3.903   1.901   2.194
 7350SOL     OW22948   3.663   1.110   4.374
 7350SOL    HW122949   3.633   1.070   4.287
 7350SOL    HW222950   3.675   1.038   4.442
 7351SOL     OW22951   3.179   4.870   3.870
 7351SOL    HW122952   3.244   4.910   3.806
 7351SOL    HW222953   3.114   4.813   3.820
 7352SOL     OW22954   6.454   2.793   3.712
 7352SOL    HW122955   6.427   2.699   3.736
 7352SOL    HW222956   6.554   2.799   3.709
 7353SOL     OW22957   6.264   0.132   6.600
 7353SOL    HW122958   6.165   0.149   6.598
 7353SOL    HW222959   6.310   0.201   6.544
 7354SOL     OW22960   0.185   1.582   3.058
 7354SOL    HW122961   0.105   1.608   3.112
 7354SOL    HW222962   0.204   1.653   2.990
 7355SOL     OW22963   2.580   1.874   0.133
 7355SOL    HW122964   2.562   1.777   0.153
 7355SOL    HW222965   2.556   1.929   0.214
 7356SOL     OW22966   4.117   4.124   6.139
 7356SOL    HW122967   4.114   4.026   6.118
 7356SOL    HW222968   4.068   4.174   6.068
 7357SOL     OW22969   5.132   5.804   2.268
 7357SOL    HW122970   5.172   5.894   2.251
 7357SOL    HW222971   5.102   5.764   2.182
 7358SOL     OW22972   5.570   1.232   3.070
 7358SOL    HW122973   5.588   1.330   3.077
 7358SOL    HW222974   5.521   1.202   3.152
 7359SOL     OW22975   4.859   0.337   1.508
 7359SOL    HW122976   4.811   0.339   1.421
 7359SOL    HW222977   4.869   0.431   1.542
 7360SOL     OW22978   3.061   3.468   5.104
 7360SOL    HW122979   3.012   3.445   5.020
 7360SOL    HW222980   3.112   3.387   5.135
 7361SOL     OW22981   5.958   0.375   3.406
 7361SOL    HW122982   5.979   0.411   3.315
 7361SOL    HW222983   6.019   0.297   3.425
 7362SOL     OW22984   3.244   5.028   6.922
 7362SOL    HW122985   3.283   4.943   6.888
 7362SOL    HW222986   3.318   5.094   6.939
 7363SOL     OW22987   3.884   0.827   0.566
 7363SOL    HW122988   3.960   0.874   0.612
 7363SOL    HW222989   3.805   0.823   0.628
 7364SOL     OW22990   5.673   6.705   1.716
 7364SOL    HW122991   5.660   6.802   1.735
 7364SOL    HW222992   5.743   6.694   1.646
 7365SOL     OW22993   5.336   4.866   2.662
 7365SOL    HW122994   5.428   4.876   2.624
 7365SOL    HW222995   5.330   4.919   2.747
 7366SOL     OW22996   1.672   0.484   4.015
 7366SOL    HW122997   1.734   0.559   3.990
 7366SOL    HW222998   1.725   0.401   4.028
 7367SOL     OW22999   4.086   0.220   7.013
 7367SOL    HW123000   4.006   0.195   6.958
 7367SOL    HW223001   4.060   0.225   0.083
 7368SOL     OW23002   3.711   3.669   3.607
 7368SOL    HW123003   3.771   3.731   3.658
 7368SOL    HW223004   3.616   3.688   3.630
 7369SOL     OW23005   5.213   1.897   0.434
 7369SOL    HW123006   5.225   1.868   0.339
 7369SOL    HW223007   5.201   1.996   0.437
 7370SOL     OW23008   1.666   0.978   4.448
 7370SOL    HW123009   1.624   0.990   4.358
 7370SOL    HW223010   1.595   0.956   4.515
 7371SOL     OW23011   3.844   1.241   3.685
 7371SOL    HW123012   3.806   1.289   3.764
 7371SOL    HW223013   3.856   1.305   3.609
 7372SOL     OW23014   5.887   1.262   5.591
 7372SOL    HW123015   5.836   1.282   5.674
 7372SOL    HW223016   5.976   1.309   5.594
 7373SOL     OW23017   5.956   3.427   4.535
 7373SOL    HW123018   5.998   3.382   4.457
 7373SOL    HW223019   5.881   3.486   4.504
 7374SOL     OW23020   6.475   2.602   5.471
 7374SOL    HW123021   6.412   2.550   5.528
 7374SOL    HW223022   6.453   2.586   5.374
 7375SOL     OW23023   1.359   3.459   2.177
 7375SOL    HW123024   1.333   3.390   2.110
 7375SOL    HW223025   1.412   3.531   2.132
 7376SOL     OW23026   6.517   3.619   0.410
 7376SOL    HW123027   6.452   3.642   0.482
 7376SOL    HW223028   6.535   3.700   0.354
 7377SOL     OW23029   2.292   6.284   1.088
 7377SOL    HW123030   2.209   6.257   1.039
 7377SOL    HW223031   2.301   6.228   1.171
 7378SOL     OW23032   1.271   5.570   4.462
 7378SOL    HW123033   1.242   5.652   4.413
 7378SOL    HW223034   1.208   5.553   4.538
 7379SOL     OW23035   4.053   1.254   1.673
 7379SOL    HW123036   4.149   1.230   1.678
 7379SOL    HW223037   4.005   1.192   1.612
 7380SOL     OW23038   5.079   4.238   1.795
 7380SOL    HW123039   5.003   4.247   1.859
 7380SOL    HW223040   5.085   4.320   1.738
 7381SOL     OW23041   3.546   0.281   1.177
 7381SOL    HW123042   3.539   0.204   1.240
 7381SOL    HW223043   3.518   0.365   1.224
 7382SOL     OW23044   6.273   1.026   6.240
 7382SOL    HW123045   6.285   0.948   6.302
 7382SOL    HW223046   6.358   1.042   6.190
 7383SOL     OW23047   2.135   0.397   0.884
 7383SOL    HW123048   2.174   0.333   0.950
 7383SOL    HW223049   2.133   0.489   0.923
 7384SOL     OW23050   6.918   6.388   1.082
 7384SOL    HW123051   6.960   6.452   1.146
 7384SOL    HW223052   6.953   6.296   1.098
 7385SOL     OW23053   6.188   4.163   2.957
 7385SOL    HW123054   6.175   4.117   3.045
 7385SOL    HW223055   6.277   4.138   2.919
 7386SOL     OW23056   5.260   3.178   6.985
 7386SOL    HW123057   5.297   3.271   6.993
 7386SOL    HW223058   5.276   3.128   0.044
 7387SOL     OW23059   6.538   5.931   5.023
 7387SOL    HW123060   6.507   6.009   5.078
 7387SOL    HW223061   6.467   5.861   5.021
 7388SOL     OW23062   2.126   4.784   3.248
 7388SOL    HW123063   2.144   4.802   3.345
 7388SOL    HW223064   2.205   4.811   3.193
 7389SOL     OW23065   6.026   2.673   0.077
 7389SOL    HW123066   6.120   2.697   0.103
 7389SOL    HW223067   5.985   2.617   0.148
 7390SOL     OW23068   2.005   2.412   3.498
 7390SOL    HW123069   1.986   2.456   3.586
 7390SOL    HW223070   2.061   2.331   3.513
 7391SOL     OW23071   3.207   3.404   3.205
 7391SOL    HW123072   3.110   3.385   3.215
 7391SOL    HW223073   3.221   3.460   3.123
 7392SOL     OW23074   3.466   6.777   6.668
 7392SOL    HW123075   3.385   6.762   6.610
 7392SOL    HW223076   3.474   6.874   6.690
 7393SOL     OW23077   5.573   4.975   4.022
 7393SOL    HW123078   5.529   5.053   3.978
 7393SOL    HW223079   5.520   4.892   4.004
 7394SOL     OW23080   2.551   2.053   5.896
 7394SOL    HW123081   2.644   2.059   5.932
 7394SOL    HW223082   2.494   1.997   5.957
 7395SOL     OW23083   2.545   6.344   0.927
 7395SOL    HW123084   2.592   6.387   1.004
 7395SOL    HW223085   2.458   6.305   0.958
 7396SOL     OW23086   2.135   5.164   2.261
 7396SOL    HW123087   2.194   5.099   2.213
 7396SOL    HW223088   2.164   5.257   2.238
 7397SOL     OW23089   6.035   4.108   3.845
 7397SOL    HW123090   6.055   4.021   3.800
 7397SOL    HW223091   6.014   4.177   3.777
 7398SOL     OW23092   2.741   4.981   2.440
 7398SOL    HW123093   2.772   4.897   2.485
 7398SOL    HW223094   2.771   5.060   2.493
 7399SOL     OW23095   5.320   1.830   6.212
 7399SOL    HW123096   5.225   1.861   6.209
 7399SOL    HW223097   5.378   1.895   6.164
 7400SOL     OW23098   5.150   3.275   5.861
 7400SOL    HW123099   5.113   3.331   5.787
 7400SOL    HW223100   5.074   3.233   5.912
 7401SOL     OW23101   1.364   2.673   4.282
 7401SOL    HW123102   1.391   2.706   4.192
 7401SOL    HW223103   1.341   2.752   4.340
 7402SOL     OW23104   3.961   5.723   4.299
 7402SOL    HW123105   3.889   5.791   4.287
 7402SOL    HW223106   3.998   5.696   4.210
 7403SOL     OW23107   1.698   3.750   4.440
 7403SOL    HW123108   1.651   3.808   4.374
 7403SOL    HW223109   1.797   3.755   4.424
 7404SOL     OW23110   3.426   3.422   1.123
 7404SOL    HW123111   3.402   3.498   1.184
 7404SOL    HW223112   3.350   3.356   1.122
 7405SOL     OW23113   3.739   6.718   3.646
 7405SOL    HW123114   3.748   6.664   3.563
 7405SOL    HW223115   3.738   6.815   3.623
 7406SOL     OW23116   1.056   1.831   5.004
 7406SOL    HW123117   0.995   1.784   4.940
 7406SOL    HW223118   1.095   1.911   4.960
 7407SOL     OW23119   0.920   5.729   5.352
 7407SOL    HW123120   0.930   5.822   5.388
 7407SOL    HW223121   0.870   5.673   5.417
 7408SOL     OW23122   4.219   5.172   5.321
 7408SOL    HW123123   4.193   5.264   5.351
 7408SOL    HW223124   4.193   5.106   5.392
 7409SOL     OW23125   6.723   3.857   1.190
 7409SOL    HW123126   6.731   3.794   1.113
 7409SOL    HW223127   6.735   3.806   1.275
 7410SOL     OW23128   0.254   0.755   1.182
 7410SOL    HW123129   0.343   0.767   1.226
 7410SOL    HW223130   0.262   0.777   1.084
 7411SOL     OW23131   2.480   1.947   5.043
 7411SOL    HW123132   2.565   1.943   4.990
 7411SOL    HW223133   2.483   1.879   5.116
 7412SOL     OW23134   3.889   6.743   0.159
 7412SOL    HW123135   3.841   6.821   0.119
 7412SOL    HW223136   3.887   6.666   0.095
 7413SOL     OW23137   4.910   0.351   2.792
 7413SOL    HW123138   4.956   0.282   2.735
 7413SOL    HW223139   4.966   0.433   2.796
 7414SOL     OW23140   2.842   1.279   3.921
 7414SOL    HW123141   2.882   1.266   3.831
 7414SOL    HW223142   2.744   1.293   3.913
 7415SOL     OW23143   4.109   6.752   6.010
 7415SOL    HW123144   4.089   6.770   5.913
 7415SOL    HW223145   4.129   6.838   6.056
 7416SOL     OW23146   1.491   0.948   1.910
 7416SOL    HW123147   1.565   1.014   1.926
 7416SOL    HW223148   1.531   0.860   1.884
 7417SOL     OW23149   0.554   1.076   2.824
 7417SOL    HW123150   0.468   1.031   2.800
 7417SOL    HW223151   0.537   1.142   2.897
 7418SOL     OW23152   1.654   4.366   5.938
 7418SOL    HW123153   1.693   4.377   5.847
 7418SOL    HW223154   1.699   4.290   5.985
 7419SOL     OW23155   6.827   3.929   3.996
 7419SOL    HW123156   6.820   3.955   4.092
 7419SOL    HW223157   6.736   3.909   3.960
 7420SOL     OW23158   0.366   6.799   1.636
 7420SOL    HW123159   0.397   6.893   1.649
 7420SOL    HW223160   0.370   6.775   1.539
 7421SOL     OW23161   5.796   3.844   1.220
 7421SOL    HW123162   5.782   3.761   1.273
 7421SOL    HW223163   5.837   3.822   1.132
 7422SOL     OW23164   5.548   2.770   2.393
 7422SOL    HW123165   5.620   2.835   2.367
 7422SOL    HW223166   5.474   2.819   2.438
 7423SOL     OW23167   4.933   2.035   5.833
 7423SOL    HW123168   5.011   2.088   5.867
 7423SOL    HW223169   4.848   2.080   5.858
 7424SOL     OW23170   0.038   2.305   3.579
 7424SOL    HW123171   6.967   2.325   3.566
 7424SOL    HW223172   0.093   2.362   3.519
 7425SOL     OW23173   5.761   0.858   1.145
 7425SOL    HW123174   5.737   0.941   1.094
 7425SOL    HW223175   5.858   0.859   1.167
 7426SOL     OW23176   3.877   3.069   5.724
 7426SOL    HW123177   3.947   3.129   5.685
 7426SOL    HW223178   3.833   3.115   5.801
 7427SOL     OW23179   3.424   0.550   3.384
 7427SOL    HW123180   3.463   0.639   3.361
 7427SOL    HW223181   3.492   0.478   3.367
 7428SOL     OW23182   4.198   6.373   4.850
 7428SOL    HW123183   4.291   6.384   4.815
 7428SOL    HW223184   4.164   6.282   4.825
 7429SOL     OW23185   0.925   6.995   2.671
 7429SOL    HW123186   0.908   0.065   2.650
 7429SOL    HW223187   0.876   6.970   2.754
 7430SOL     OW23188   6.692   5.536   2.834
 7430SOL    HW123189   6.653   5.451   2.868
 7430SOL    HW223190   6.792   5.528   2.831
 7431SOL     OW23191   1.259   1.408   3.266
 7431SOL    HW123192   1.166   1.433   3.294
 7431SOL    HW223193   1.317   1.397   3.347
 7432SOL     OW23194   2.465   1.200   3.294
 7432SOL    HW123195   2.551   1.150   3.307
 7432SOL    HW223196   2.417   1.163   3.215
 7433SOL     OW23197   2.818   6.754   6.843
 7433SOL    HW123198   2.727   6.784   6.870
 7433SOL    HW223199   2.810   6.682   6.773
 7434SOL     OW23200   3.724   6.696   3.914
 7434SOL    HW123201   3.742   6.710   3.817
 7434SOL    HW223202   3.793   6.744   3.968
 7435SOL     OW23203   5.159   4.236   2.815
 7435SOL    HW123204   5.163   4.181   2.732
 7435SOL    HW223205   5.153   4.177   2.895
 7436SOL     OW23206   5.388   3.030   5.952
 7436SOL    HW123207   5.443   2.982   6.021
 7436SOL    HW223208   5.291   3.011   5.969
 7437SOL     OW23209   3.146   0.231   1.039
 7437SOL    HW123210   3.048   0.213   1.047
 7437SOL    HW223211   3.170   0.311   1.094
 7438SOL     OW23212   2.073   0.256   0.264
 7438SOL    HW123213   2.057   0.344   0.309
 7438SOL    HW223214   2.100   0.272   0.169
 7439SOL     OW23215   1.283   4.522   6.695
 7439SOL    HW123216   1.296   4.576   6.612
 7439SOL    HW223217   1.205   4.558   6.746
 7440SOL     OW23218   5.531   3.524   3.859
 7440SOL    HW123219   5.452   3.485   3.906
 7440SOL    HW223220   5.579   3.587   3.919
 7441SOL     OW23221   5.686   5.687   0.718
 7441SOL    HW123222   5.622   5.764   0.706
 7441SOL    HW223223   5.655   5.629   0.793
 7442SOL     OW23224   5.604   0.704   5.829
 7442SOL    HW123225   5.574   0.793   5.793
 7442SOL    HW223226   5.536   0.634   5.806
 7443SOL     OW23227   0.412   1.232   2.108
 7443SOL    HW123228   0.478   1.262   2.177
 7443SOL    HW223229   0.347   1.169   2.149
 7444SOL     OW23230   1.769   6.804   6.971
 7444SOL    HW123231   1.709   6.734   7.010
 7444SOL    HW223232   1.794   6.778   6.878
 7445SOL     OW23233   3.862   5.919   1.495
 7445SOL    HW123234   3.881   5.859   1.572
 7445SOL    HW223235   3.795   5.988   1.522
 7446SOL     OW23236   5.320   4.616   6.836
 7446SOL    HW123237   5.258   4.562   6.892
 7446SOL    HW223238   5.314   4.585   6.741
 7447SOL     OW23239   0.179   4.604   0.301
 7447SOL    HW123240   0.195   4.549   0.382
 7447SOL    HW223241   0.243   4.577   0.229
 7448SOL     OW23242   4.746   6.064   6.777
 7448SOL    HW123243   4.675   5.994   6.784
 7448SOL    HW223244   4.710   6.144   6.728
 7449SOL     OW23245   6.750   4.622   5.679
 7449SOL    HW123246   6.832   4.566   5.689
 7449SOL    HW223247   6.708   4.635   5.769
 7450SOL     OW23248   5.462   2.146   5.637
 7450SOL    HW123249   5.403   2.081   5.685
 7450SOL    HW223250   5.525   2.096   5.578
 7451SOL     OW23251   4.514   4.465   3.444
 7451SOL    HW123252   4.581   4.391   3.452
 7451SOL    HW223253   4.521   4.506   3.353
 7452SOL     OW23254   6.310   5.567   5.944
 7452SOL    HW123255   6.247   5.622   5.889
 7452SOL    HW223256   6.399   5.562   5.899
 7453SOL     OW23257   3.991   5.658   6.169
 7453SOL    HW123258   4.001   5.680   6.072
 7453SOL    HW223259   3.951   5.737   6.217
 7454SOL     OW23260   3.944   2.151   0.878
 7454SOL    HW123261   3.887   2.231   0.895
 7454SOL    HW223262   4.040   2.178   0.879
 7455SOL     OW23263   6.612   1.816   3.006
 7455SOL    HW123264   6.545   1.871   2.957
 7455SOL    HW223265   6.667   1.764   2.940
 7456SOL     OW23266   2.716   2.110   6.642
 7456SOL    HW123267   2.713   2.015   6.612
 7456SOL    HW223268   2.626   2.152   6.628
 7457SOL     OW23269   1.494   1.114   2.229
 7457SOL    HW123270   1.430   1.191   2.238
 7457SOL    HW223271   1.533   1.114   2.137
 7458SOL     OW23272   1.586   5.409   5.496
 7458SOL    HW123273   1.502   5.381   5.449
 7458SOL    HW223274   1.574   5.501   5.534
 7459SOL     OW23275   5.699   0.379   2.586
 7459SOL    HW123276   5.728   0.283   2.593
 7459SOL    HW223277   5.779   0.438   2.580
 7460SOL     OW23278   1.918   6.575   1.293
 7460SOL    HW123279   1.893   6.496   1.349
 7460SOL    HW223280   1.847   6.590   1.223
 7461SOL     OW23281   2.632   4.310   5.549
 7461SOL    HW123282   2.682   4.396   5.540
 7461SOL    HW223283   2.567   4.318   5.626
 7462SOL     OW23284   1.405   3.847   0.877
 7462SOL    HW123285   1.397   3.868   0.779
 7462SOL    HW223286   1.461   3.916   0.922
 7463SOL     OW23287   4.200   4.979   1.089
 7463SOL    HW123288   4.156   4.979   1.000
 7463SOL    HW223289   4.150   5.040   1.151
 7464SOL     OW23290   5.960   6.697   5.448
 7464SOL    HW123291   5.908   6.612   5.439
 7464SOL    HW223292   5.968   6.722   5.544
 7465SOL     OW23293   1.750   4.832   0.034
 7465SOL    HW123294   1.799   4.753   0.071
 7465SOL    HW223295   1.786   4.855   6.970
 7466SOL     OW23296   0.428   0.216   5.328
 7466SOL    HW123297   0.447   0.266   5.244
 7466SOL    HW223298   0.355   0.262   5.378
 7467SOL     OW23299   1.039   3.699   5.052
 7467SOL    HW123300   1.095   3.705   4.968
 7467SOL    HW223301   1.099   3.702   5.132
 7468SOL     OW23302   5.807   3.078   5.721
 7468SOL    HW123303   5.832   3.165   5.765
 7468SOL    HW223304   5.707   3.067   5.724
 7469SOL     OW23305   0.460   1.825   0.516
 7469SOL    HW123306   0.515   1.908   0.504
 7469SOL    HW223307   0.507   1.762   0.578
 7470SOL     OW23308   5.812   2.474   3.411
 7470SOL    HW123309   5.727   2.425   3.429
 7470SOL    HW223310   5.890   2.415   3.436
 7471SOL     OW23311   4.055   6.552   6.669
 7471SOL    HW123312   4.033   6.630   6.610
 7471SOL    HW223313   3.999   6.556   6.752
 7472SOL     OW23314   6.632   0.077   6.328
 7472SOL    HW123315   6.542   0.118   6.314
 7472SOL    HW223316   6.647   0.063   6.426
 7473SOL     OW23317   3.449   5.965   3.877
 7473SOL    HW123318   3.493   5.878   3.854
 7473SOL    HW223319   3.478   6.036   3.813
 7474SOL     OW23320   6.021   2.103   6.883
 7474SOL    HW123321   6.103   2.088   6.826
 7474SOL    HW223322   6.037   2.180   6.945
 7475SOL     OW23323   4.867   2.002   1.049
 7475SOL    HW123324   4.911   2.072   0.993
 7475SOL    HW223325   4.815   2.046   1.122
 7476SOL     OW23326   2.286   0.266   3.357
 7476SOL    HW123327   2.201   0.258   3.304
 7476SOL    HW223328   2.324   0.174   3.373
 7477SOL     OW23329   1.474   3.027   5.562
 7477SOL    HW123330   1.389   3.076   5.581
 7477SOL    HW223331   1.534   3.084   5.506
 7478SOL     OW23332   0.260   1.371   5.663
 7478SOL    HW123333   0.346   1.413   5.693
 7478SOL    HW223334   0.256   1.370   5.563
 7479SOL     OW23335   5.173   2.588   0.936
 7479SOL    HW123336   5.134   2.527   1.006
 7479SOL    HW223337   5.272   2.591   0.946
 7480SOL     OW23338   3.560   4.879   2.517
 7480SOL    HW123339   3.638   4.912   2.570
 7480SOL    HW223340   3.580   4.888   2.419
 7481SOL     OW23341   0.273   3.770   6.885
 7481SOL    HW123342   0.178   3.801   6.884
 7481SOL    HW223343   0.301   3.745   6.792
 7482SOL     OW23344   5.287   2.213   2.920
 7482SOL    HW123345   5.237   2.151   2.859
 7482SOL    HW223346   5.299   2.169   3.009
 7483SOL     OW23347   4.478   1.987   5.649
 7483SOL    HW123348   4.451   2.016   5.557
 7483SOL    HW223349   4.457   2.059   5.714
 7484SOL     OW23350   3.096   0.106   3.724
 7484SOL    HW123351   3.126   0.067   3.811
 7484SOL    HW223352   3.176   0.128   3.668
 7485SOL     OW23353   3.732   6.513   6.123
 7485SOL    HW123354   3.734   6.587   6.191
 7485SOL    HW223355   3.789   6.438   6.154
 7486SOL     OW23356   2.599   6.463   0.641
 7486SOL    HW123357   2.628   6.559   0.642
 7486SOL    HW223358   2.580   6.433   0.734
 7487SOL     OW23359   3.576   6.518   4.661
 7487SOL    HW123360   3.663   6.471   4.647
 7487SOL    HW223361   3.543   6.554   4.574
 7488SOL     OW23362   0.618   5.677   3.900
 7488SOL    HW123363   0.561   5.737   3.843
 7488SOL    HW223364   0.710   5.673   3.862
 7489SOL     OW23365   5.213   3.419   6.421
 7489SOL    HW123366   5.121   3.389   6.446
 7489SOL    HW223367   5.258   3.347   6.369
 7490SOL     OW23368   1.237   2.611   2.488
 7490SOL    HW123369   1.202   2.627   2.580
 7490SOL    HW223370   1.251   2.512   2.474
 7491SOL     OW23371   4.206   4.087   7.010
 7491SOL    HW123372   4.187   3.992   6.988
 7491SOL    HW223373   4.305   4.103   7.008
 7492SOL     OW23374   1.177   0.449   4.185
 7492SOL    HW123375   1.116   0.457   4.105
 7492SOL    HW223376   1.262   0.405   4.157
 7493SOL     OW23377   6.274   4.218   5.038
 7493SOL    HW123378   6.360   4.205   4.987
 7493SOL    HW223379   6.232   4.304   5.011
 7494SOL     OW23380   6.457   1.554   1.953
 7494SOL    HW123381   6.539   1.497   1.945
 7494SOL    HW223382   6.397   1.538   1.875
 7495SOL     OW23383   1.365   3.201   4.904
 7495SOL    HW123384   1.377   3.267   4.829
 7495SOL    HW223385   1.268   3.199   4.930
 7496SOL     OW23386   5.853   3.997   2.685
 7496SOL    HW123387   5.814   4.024   2.773
 7496SOL    HW223388   5.782   3.956   2.628
 7497SOL     OW23389   6.589   6.761   1.593
 7497SOL    HW123390   6.625   6.722   1.678
 7497SOL    HW223391   6.648   6.836   1.563
 7498SOL     OW23392   2.921   6.173   3.218
 7498SOL    HW123393   2.826   6.203   3.211
 7498SOL    HW223394   2.977   6.224   3.153
 7499SOL     OW23395   2.518   1.504   3.806
 7499SOL    HW123396   2.464   1.588   3.815
 7499SOL    HW223397   2.463   1.426   3.835
 7500SOL     OW23398   4.173   1.076   3.237
 7500SOL    HW123399   4.185   1.156   3.297
 7500SOL    HW223400   4.249   1.072   3.172
 7501SOL     OW23401   6.697   2.640   5.631
 7501SOL    HW123402   6.764   2.695   5.582
 7501SOL    HW223403   6.616   2.627   5.574
 7502SOL     OW23404   4.454   0.815   4.179
 7502SOL    HW123405   4.529   0.794   4.241
 7502SOL    HW223406   4.487   0.810   4.084
 7503SOL     OW23407   1.874   5.487   1.996
 7503SOL    HW123408   1.904   5.580   2.016
 7503SOL    HW223409   1.863   5.437   2.082
 7504SOL     OW23410   5.968   6.137   4.882
 7504SOL    HW123411   5.970   6.231   4.915
 7504SOL    HW223412   5.895   6.127   4.814
 7505SOL     OW23413   0.062   6.564   4.758
 7505SOL    HW123414   0.066   6.647   4.703
 7505SOL    HW223415   0.151   6.520   4.760
 7506SOL     OW23416   3.756   1.790   3.901
 7506SOL    HW123417   3.848   1.797   3.862
 7506SOL    HW223418   3.697   1.859   3.859
 7507SOL     OW23419   5.684   4.342   5.742
 7507SOL    HW123420   5.597   4.384   5.716
 7507SOL    HW223421   5.750   4.353   5.667
 7508SOL     OW23422   2.467   5.723   0.074
 7508SOL    HW123423   2.562   5.699   0.095
 7508SOL    HW223424   2.418   5.642   0.045
 7509SOL     OW23425   6.035   4.868   2.267
 7509SOL    HW123426   6.083   4.864   2.180
 7509SOL    HW223427   6.102   4.876   2.341
 7510SOL     OW23428   3.094   4.026   2.479
 7510SOL    HW123429   3.162   4.089   2.441
 7510SOL    HW223430   3.086   3.946   2.419
 7511SOL     OW23431   5.165   6.902   4.267
 7511SOL    HW123432   5.073   6.902   4.307
 7511SOL    HW223433   5.162   6.854   4.179
 7512SOL     OW23434   3.684   1.123   0.675
 7512SOL    HW123435   3.691   1.043   0.734
 7512SOL    HW223436   3.654   1.095   0.584
 7513SOL     OW23437   1.568   1.818   2.083
 7513SOL    HW123438   1.536   1.802   2.176
 7513SOL    HW223439   1.622   1.903   2.080
 7514SOL     OW23440   1.330   6.335   1.630
 7514SOL    HW123441   1.383   6.364   1.710
 7514SOL    HW223442   1.273   6.412   1.599
 7515SOL     OW23443   0.508   4.627   5.110
 7515SOL    HW123444   0.425   4.644   5.056
 7515SOL    HW223445   0.561   4.553   5.067
 7516SOL     OW23446   1.594   6.714   5.168
 7516SOL    HW123447   1.604   6.623   5.208
 7516SOL    HW223448   1.674   6.770   5.190
 7517SOL     OW23449   1.276   1.545   6.074
 7517SOL    HW123450   1.357   1.551   6.015
 7517SOL    HW223451   1.292   1.597   6.158
 7518SOL     OW23452   5.021   2.022   4.330
 7518SOL    HW123453   4.933   2.068   4.323
 7518SOL    HW223454   5.025   1.946   4.265
 7519SOL     OW23455   3.764   6.319   3.954
 7519SOL    HW123456   3.742   6.371   4.037
 7519SOL    HW223457   3.845   6.263   3.971
 7520SOL     OW23458   1.532   1.936   0.418
 7520SOL    HW123459   1.545   1.962   0.322
 7520SOL    HW223460   1.576   2.004   0.477
 7521SOL     OW23461   4.197   1.213   4.728
 7521SOL    HW123462   4.213   1.118   4.756
 7521SOL    HW223463   4.128   1.253   4.787
 7522SOL     OW23464   2.110   0.136   3.618
 7522SOL    HW123465   2.172   0.189   3.675
 7522SOL    HW223466   2.024   0.187   3.607
 7523SOL     OW23467   5.567   0.990   0.933
 7523SOL    HW123468   5.613   0.934   0.864
 7523SOL    HW223469   5.473   1.009   0.903
 7524SOL     OW23470   0.666   3.416   4.273
 7524SOL    HW123471   0.764   3.395   4.279
 7524SOL    HW223472   0.632   3.390   4.182
 7525SOL     OW23473   3.643   5.182   6.133
 7525SOL    HW123474   3.683   5.126   6.206
 7525SOL    HW223475   3.686   5.272   6.133
 7526SOL     OW23476   2.626   3.813   1.312
 7526SOL    HW123477   2.600   3.906   1.335
 7526SOL    HW223478   2.697   3.814   1.241
 7527SOL     OW23479   3.884   5.101   3.394
 7527SOL    HW123480   3.983   5.118   3.387
 7527SOL    HW223481   3.868   5.005   3.415
 7528SOL     OW23482   6.616   2.753   6.021
 7528SOL    HW123483   6.658   2.842   6.033
 7528SOL    HW223484   6.687   2.684   6.008
 7529SOL     OW23485   6.279   3.566   3.744
 7529SOL    HW123486   6.278   3.474   3.705
 7529SOL    HW223487   6.336   3.626   3.688
 7530SOL     OW23488   0.637   2.187   1.926
 7530SOL    HW123489   0.553   2.198   1.872
 7530SOL    HW223490   0.639   2.256   1.998
 7531SOL     OW23491   3.999   1.995   3.770
 7531SOL    HW123492   4.005   1.899   3.743
 7531SOL    HW223493   3.967   2.001   3.865
 7532SOL     OW23494   4.883   5.549   6.123
 7532SOL    HW123495   4.909   5.456   6.098
 7532SOL    HW223496   4.839   5.549   6.212
 7533SOL     OW23497   4.369   4.377   1.605
 7533SOL    HW123498   4.314   4.311   1.555
 7533SOL    HW223499   4.400   4.336   1.691
 7534SOL     OW23500   4.355   0.011   5.183
 7534SOL    HW123501   4.397   6.949   5.163
 7534SOL    HW223502   4.335   0.017   5.280
 7535SOL     OW23503   0.628   6.606   3.593
 7535SOL    HW123504   0.676   6.671   3.652
 7535SOL    HW223505   0.531   6.627   3.592
 7536SOL     OW23506   6.049   6.163   4.158
 7536SOL    HW123507   6.028   6.084   4.100
 7536SOL    HW223508   6.080   6.131   4.248
 7537SOL     OW23509   2.066   6.347   2.983
 7537SOL    HW123510   2.128   6.368   2.907
 7537SOL    HW223511   1.975   6.381   2.962
 7538SOL     OW23512   1.013   3.942   0.625
 7538SOL    HW123513   1.045   3.988   0.707
 7538SOL    HW223514   1.068   3.972   0.546
 7539SOL     OW23515   6.724   0.213   4.595
 7539SOL    HW123516   6.688   0.229   4.687
 7539SOL    HW223517   6.707   0.117   4.569
 7540SOL     OW23518   5.673   5.088   3.052
 7540SOL    HW123519   5.711   5.170   3.095
 7540SOL    HW223520   5.730   5.009   3.076
 7541SOL     OW23521   2.750   4.196   5.346
 7541SOL    HW123522   2.693   4.234   5.419
 7541SOL    HW223523   2.846   4.204   5.372
 7542SOL     OW23524   6.109   5.455   4.351
 7542SOL    HW123525   6.029   5.504   4.386
 7542SOL    HW223526   6.173   5.439   4.426
 7543SOL     OW23527   2.764   0.964   6.881
 7543SOL    HW123528   2.731   1.039   6.939
 7543SOL    HW223529   2.686   0.915   6.842
 7544SOL     OW23530   6.456   1.703   4.632
 7544SOL    HW123531   6.552   1.716   4.606
 7544SOL    HW223532   6.452   1.654   4.719
 7545SOL     OW23533   1.665   5.817   5.904
 7545SOL    HW123534   1.759   5.852   5.903
 7545SOL    HW223535   1.664   5.723   5.871
 7546SOL     OW23536   2.394   2.646   2.012
 7546SOL    HW123537   2.418   2.608   2.101
 7546SOL    HW223538   2.474   2.689   1.971
 7547SOL     OW23539   4.101   0.419   1.640
 7547SOL    HW123540   4.072   0.378   1.553
 7547SOL    HW223541   4.146   0.349   1.696
 7548SOL     OW23542   3.410   3.047   6.366
 7548SOL    HW123543   3.486   3.055   6.301
 7548SOL    HW223544   3.400   2.952   6.394
 7549SOL     OW23545   5.372   1.005   4.262
 7549SOL    HW123546   5.414   1.038   4.177
 7549SOL    HW223547   5.417   0.920   4.290
 7550SOL     OW23548   2.632   5.318   4.802
 7550SOL    HW123549   2.572   5.280   4.872
 7550SOL    HW223550   2.727   5.296   4.824
 7551SOL     OW23551   6.411   2.365   6.272
 7551SOL    HW123552   6.499   2.318   6.271
 7551SOL    HW223553   6.423   2.460   6.245
 7552SOL     OW23554   2.332   0.086   5.069
 7552SOL    HW123555   2.268   0.135   5.129
 7552SOL    HW223556   2.331   0.128   4.979
 7553SOL     OW23557   5.562   6.444   5.547
 7553SOL    HW123558   5.474   6.442   5.499
 7553SOL    HW223559   5.562   6.517   5.615
 7554SOL     OW23560   4.477   1.414   0.768
 7554SOL    HW123561   4.558   1.432   0.712
 7554SOL    HW223562   4.402   1.474   0.738
 7555SOL     OW23563   4.512   5.144   4.144
 7555SOL    HW123564   4.467   5.083   4.078
 7555SOL    HW223565   4.533   5.231   4.099
 7556SOL     OW23566   0.566   6.685   1.815
 7556SOL    HW123567   0.516   6.696   1.901
 7556SOL    HW223568   0.505   6.705   1.738
 7557SOL     OW23569   4.900   6.985   1.258
 7557SOL    HW123570   4.941   6.899   1.231
 7557SOL    HW223571   4.826   7.009   1.195
 7558SOL     OW23572   0.610   1.619   3.881
 7558SOL    HW123573   0.573   1.700   3.836
 7558SOL    HW223574   0.561   1.538   3.849
 7559SOL     OW23575   2.839   1.858   5.011
 7559SOL    HW123576   2.930   1.881   5.046
 7559SOL    HW223577   2.800   1.938   4.965
 7560SOL     OW23578   1.342   1.127   5.907
 7560SOL    HW123579   1.280   1.202   5.886
 7560SOL    HW223580   1.418   1.162   5.963
 7561SOL     OW23581   5.981   1.794   5.774
 7561SOL    HW123582   5.994   1.729   5.699
 7561SOL    HW223583   5.928   1.752   5.847
 7562SOL     OW23584   1.874   5.476   3.554
 7562SOL    HW123585   1.846   5.390   3.511
 7562SOL    HW223586   1.829   5.553   3.508
 7563SOL     OW23587   4.037   6.082   1.928
 7563SOL    HW123588   3.963   6.015   1.922
 7563SOL    HW223589   4.108   6.047   1.989
 7564SOL     OW23590   3.885   1.794   5.409
 7564SOL    HW123591   3.939   1.878   5.401
 7564SOL    HW223592   3.788   1.817   5.404
 7565SOL     OW23593   6.616   3.497   5.938
 7565SOL    HW123594   6.573   3.585   5.956
 7565SOL    HW223595   6.673   3.504   5.856
 7566SOL     OW23596   4.449   4.853   1.342
 7566SOL    HW123597   4.483   4.796   1.417
 7566SOL    HW223598   4.449   4.800   1.257
 7567SOL     OW23599   0.803   6.910   4.045
 7567SOL    HW123600   0.880   6.862   4.004
 7567SOL    HW223601   0.730   6.845   4.066
 7568SOL     OW23602   6.071   5.510   1.575
 7568SOL    HW123603   6.150   5.469   1.528
 7568SOL    HW223604   6.079   5.609   1.573
 7569SOL     OW23605   4.996   3.691   0.202
 7569SOL    HW123606   5.032   3.604   0.170
 7569SOL    HW223607   4.900   3.700   0.174
 7570SOL     OW23608   0.636   3.397   2.275
 7570SOL    HW123609   0.662   3.483   2.320
 7570SOL    HW223610   0.570   3.348   2.331
 7571SOL     OW23611   4.591   2.229   2.193
 7571SOL    HW123612   4.589   2.214   2.095
 7571SOL    HW223613   4.546   2.316   2.215
 7572SOL     OW23614   4.455   0.166   3.549
 7572SOL    HW123615   4.481   0.195   3.457
 7572SOL    HW223616   4.537   0.154   3.605
 7573SOL     OW23617   4.317   6.626   6.145
 7573SOL    HW123618   4.371   6.707   6.125
 7573SOL    HW223619   4.235   6.625   6.088
 7574SOL     OW23620   0.731   2.316   3.812
 7574SOL    HW123621   0.802   2.341   3.878
 7574SOL    HW223622   0.701   2.398   3.763
 7575SOL     OW23623   0.306   6.578   2.684
 7575SOL    HW123624   0.212   6.596   2.712
 7575SOL    HW223625   0.348   6.663   2.652
 7576SOL     OW23626   5.152   2.790   0.117
 7576SOL    HW123627   5.066   2.739   0.111
 7576SOL    HW223628   5.164   2.843   0.033
 7577SOL     OW23629   0.913   0.513   0.357
 7577SOL    HW123630   0.936   0.503   0.260
 7577SOL    HW223631   0.894   0.422   0.396
 7578SOL     OW23632   6.453   5.891   3.478
 7578SOL    HW123633   6.377   5.955   3.491
 7578SOL    HW223634   6.419   5.806   3.439
 7579SOL     OW23635   0.717   1.524   6.659
 7579SOL    HW123636   0.634   1.572   6.689
 7579SOL    HW223637   0.708   1.501   6.562
 7580SOL     OW23638   1.982   4.925   3.953
 7580SOL    HW123639   1.931   5.006   3.925
 7580SOL    HW223640   1.952   4.846   3.900
 7581SOL     OW23641   6.928   0.912   2.345
 7581SOL    HW123642   6.939   1.011   2.355
 7581SOL    HW223643   6.831   0.891   2.332
 7582SOL     OW23644   2.659   1.663   6.779
 7582SOL    HW123645   2.607   1.601   6.720
 7582SOL    HW223646   2.640   1.758   6.754
 7583SOL     OW23647   5.112   2.987   3.012
 7583SOL    HW123648   5.162   3.004   3.097
 7583SOL    HW223649   5.155   3.038   2.937
 7584SOL     OW23650   0.537   1.041   3.259
 7584SOL    HW123651   0.597   0.977   3.212
 7584SOL    HW223652   0.587   1.086   3.333
 7585SOL     OW23653   0.806   1.361   6.146
 7585SOL    HW123654   0.807   1.314   6.058
 7585SOL    HW223655   0.897   1.395   6.167
 7586SOL     OW23656   2.035   0.223   2.906
 7586SOL    HW123657   2.117   0.166   2.913
 7586SOL    HW223658   1.957   0.165   2.883
 7587SOL     OW23659   3.958   0.118   0.928
 7587SOL    HW123660   3.976   0.084   1.021
 7587SOL    HW223661   3.872   0.080   0.895
 7588SOL     OW23662   2.343   2.503   4.739
 7588SOL    HW123663   2.411   2.532   4.671
 7588SOL    HW223664   2.364   2.545   4.827
 7589SOL     OW23665   0.618   0.258   2.798
 7589SOL    HW123666   0.601   0.315   2.717
 7589SOL    HW223667   0.577   0.301   2.878
 7590SOL     OW23668   6.740   0.937   0.072
 7590SOL    HW123669   6.793   0.986   0.002
 7590SOL    HW223670   6.702   1.003   0.137
 7591SOL     OW23671   3.548   2.893   4.590
 7591SOL    HW123672   3.641   2.920   4.616
 7591SOL    HW223673   3.493   2.878   4.673
 7592SOL     OW23674   6.669   6.745   4.242
 7592SOL    HW123675   6.752   6.796   4.219
 7592SOL    HW223676   6.589   6.794   4.209
 7593SOL     OW23677   0.582   1.244   5.569
 7593SOL    HW123678   0.568   1.327   5.514
 7593SOL    HW223679   0.518   1.173   5.540
 7594SOL     OW23680   0.062   3.957   6.881
 7594SOL    HW123681   0.035   3.998   6.968
 7594SOL    HW223682   0.072   4.029   6.812
 7595SOL     OW23683   1.152   3.503   6.972
 7595SOL    HW123684   1.199   3.586   7.001
 7595SOL    HW223685   1.085   3.476   0.014
 7596SOL     OW23686   2.785   1.608   5.738
 7596SOL    HW123687   2.835   1.690   5.711
 7596SOL    HW223688   2.719   1.632   5.809
 7597SOL     OW23689   1.529   4.932   1.618
 7597SOL    HW123690   1.502   4.867   1.689
 7597SOL    HW223691   1.476   5.016   1.627
 7598SOL     OW23692   6.155   0.709   2.116
 7598SOL    HW123693   6.242   0.741   2.079
 7598SOL    HW223694   6.152   0.724   2.214
 7599SOL     OW23695   3.207   3.854   1.145
 7599SOL    HW123696   3.213   3.887   1.240
 7599SOL    HW223697   3.120   3.883   1.105
 7600SOL     OW23698   1.459   6.639   3.925
 7600SOL    HW123699   1.361   6.630   3.939
 7600SOL    HW223700   1.478   6.675   3.834
 7601SOL     OW23701   3.156   6.623   2.228
 7601SOL    HW123702   3.127   6.694   2.163
 7601SOL    HW223703   3.245   6.648   2.265
 7602SOL     OW23704   0.495   1.214   0.935
 7602SOL    HW123705   0.492   1.269   0.851
 7602SOL    HW223706   0.590   1.202   0.964
 7603SOL     OW23707   3.781   0.713   6.118
 7603SOL    HW123708   3.798   0.619   6.146
 7603SOL    HW223709   3.850   0.773   6.158
 7604SOL     OW23710   0.765   2.485   5.042
 7604SOL    HW123711   0.716   2.484   5.129
 7604SOL    HW223712   0.839   2.417   5.045
 7605SOL     OW23713   1.995   6.064   0.039
 7605SOL    HW123714   2.054   6.124   7.011
 7605SOL    HW223715   1.931   6.119   0.092
 7606SOL     OW23716   6.896   0.909   3.267
 7606SOL    HW123717   6.868   0.989   3.213
 7606SOL    HW223718   6.962   0.938   3.337
 7607SOL     OW23719   1.861   6.110   5.585
 7607SOL    HW123720   1.832   6.144   5.674
 7607SOL    HW223721   1.956   6.080   5.590
 7608SOL     OW23722   6.147   2.482   6.616
 7608SOL    HW123723   6.098   2.397   6.599
 7608SOL    HW223724   6.170   2.526   6.529
 7609SOL     OW23725   2.039   1.656   4.666
 7609SOL    HW123726   1.964   1.710   4.628
 7609SOL    HW223727   2.009   1.610   4.750
 7610SOL     OW23728   4.261   5.097   4.534
 7610SOL    HW123729   4.196   5.173   4.535
 7610SOL    HW223730   4.212   5.011   4.525
 7611SOL     OW23731   4.716   2.980   0.688
 7611SOL    HW123732   4.681   3.067   0.652
 7611SOL    HW223733   4.751   2.993   0.781
 7612SOL     OW23734   4.041   1.902   2.659
 7612SOL    HW123735   4.063   1.872   2.752
 7612SOL    HW223736   3.979   1.836   2.617
 7613SOL     OW23737   0.919   0.609   1.355
 7613SOL    HW123738   0.908   0.595   1.256
 7613SOL    HW223739   0.993   0.674   1.370
 7614SOL     OW23740   5.515   3.962   6.767
 7614SOL    HW123741   5.601   3.928   6.806
 7614SOL    HW223742   5.517   3.953   6.668
 7615SOL     OW23743   6.222   2.974   4.975
 7615SOL    HW123744   6.299   2.986   4.911
 7615SOL    HW223745   6.253   2.994   5.068
 7616SOL     OW23746   6.501   0.150   3.211
 7616SOL    HW123747   6.588   0.118   3.176
 7616SOL    HW223748   6.480   0.103   3.297
 7617SOL     OW23749   6.358   4.062   3.383
 7617SOL    HW123750   6.455   4.047   3.365
 7617SOL    HW223751   6.304   4.024   3.308
 7618SOL     OW23752   2.214   2.829   0.335
 7618SOL    HW123753   2.184   2.874   0.419
 7618SOL    HW223754   2.220   2.730   0.350
 7619SOL     OW23755   1.738   1.521   4.481
 7619SOL    HW123756   1.805   1.506   4.553
 7619SOL    HW223757   1.737   1.442   4.419
 7620SOL     OW23758   3.396   5.001   1.227
 7620SOL    HW123759   3.475   5.057   1.251
 7620SOL    HW223760   3.355   5.034   1.142
 7621SOL     OW23761   6.243   4.005   0.243
 7621SOL    HW123762   6.149   3.970   0.243
 7621SOL    HW223763   6.252   4.076   0.313
 7622SOL     OW23764   3.195   3.781   1.646
 7622SOL    HW123765   3.225   3.695   1.688
 7622SOL    HW223766   3.128   3.826   1.704
 7623SOL     OW23767   4.912   4.038   1.581
 7623SOL    HW123768   4.982   4.024   1.651
 7623SOL    HW223769   4.823   4.012   1.616
 7624SOL     OW23770   1.178   3.516   2.596
 7624SOL    HW123771   1.236   3.535   2.675
 7624SOL    HW223772   1.171   3.417   2.583
 7625SOL     OW23773   5.132   0.656   1.742
 7625SOL    HW123774   5.192   0.634   1.666
 7625SOL    HW223775   5.047   0.605   1.733
 7626SOL     OW23776   4.716   0.480   6.353
 7626SOL    HW123777   4.658   0.505   6.430
 7626SOL    HW223778   4.735   0.382   6.355
 7627SOL     OW23779   4.326   3.414   6.417
 7627SOL    HW123780   4.348   3.487   6.482
 7627SOL    HW223781   4.240   3.437   6.370
 7628SOL     OW23782   3.366   2.399   0.314
 7628SOL    HW123783   3.450   2.450   0.331
 7628SOL    HW223784   3.351   2.390   0.216
 7629SOL     OW23785   5.769   2.379   2.978
 7629SOL    HW123786   5.793   2.438   2.900
 7629SOL    HW223787   5.707   2.307   2.947
 7630SOL     OW23788   1.216   6.531   4.045
 7630SOL    HW123789   1.121   6.520   4.013
 7630SOL    HW223790   1.246   6.447   4.091
 7631SOL     OW23791   0.605   0.259   5.542
 7631SOL    HW123792   0.573   0.221   5.455
 7631SOL    HW223793   0.631   0.355   5.528
 7632SOL     OW23794   4.899   5.620   0.432
 7632SOL    HW123795   4.904   5.692   0.362
 7632SOL    HW223796   4.899   5.530   0.387
 7633SOL     OW23797   6.567   1.023   1.083
 7633SOL    HW123798   6.643   0.958   1.094
 7633SOL    HW223799   6.481   0.972   1.077
 7634SOL     OW23800   6.797   2.069   7.007
 7634SOL    HW123801   6.708   2.025   6.998
 7634SOL    HW223802   6.866   2.016   6.958
 7635SOL     OW23803   2.114   2.971   5.563
 7635SOL    HW123804   2.021   2.943   5.537
 7635SOL    HW223805   2.180   2.924   5.505
 7636SOL     OW23806   6.974   3.644   4.421
 7636SOL    HW123807   0.030   3.587   4.423
 7636SOL    HW223808   6.898   3.592   4.382
 7637SOL     OW23809   0.796   4.672   4.784
 7637SOL    HW123810   0.854   4.750   4.761
 7637SOL    HW223811   0.811   4.599   4.717
 7638SOL     OW23812   0.501   6.028   1.286
 7638SOL    HW123813   0.450   6.035   1.373
 7638SOL    HW223814   0.483   6.109   1.230
 7639SOL     OW23815   1.831   1.125   0.209
 7639SOL    HW123816   1.820   1.124   0.308
 7639SOL    HW223817   1.742   1.110   0.165
 7640SOL     OW23818   3.191   1.414   0.693
 7640SOL    HW123819   3.102   1.371   0.707
 7640SOL    HW223820   3.179   1.513   0.684
 7641SOL     OW23821   0.425   3.992   4.124
 7641SOL    HW123822   0.375   3.960   4.044
 7641SOL    HW223823   0.396   4.085   4.147
 7642SOL     OW23824   5.385   0.601   3.126
 7642SOL    HW123825   5.385   0.542   3.207
 7642SOL    HW223826   5.459   0.574   3.065
 7643SOL     OW23827   5.555   3.334   4.155
 7643SOL    HW123828   5.549   3.352   4.253
 7643SOL    HW223829   5.519   3.242   4.136
 7644SOL     OW23830   5.063   3.363   1.049
 7644SOL    HW123831   5.146   3.419   1.055
 7644SOL    HW223832   5.072   3.284   1.109
 7645SOL     OW23833   3.564   5.040   6.847
 7645SOL    HW123834   3.544   4.966   6.912
 7645SOL    HW223835   3.663   5.044   6.831
 7646SOL     OW23836   6.435   1.869   0.405
 7646SOL    HW123837   6.464   1.893   0.313
 7646SOL    HW223838   6.501   1.804   0.445
 7647SOL     OW23839   0.139   2.477   3.819
 7647SOL    HW123840   0.182   2.392   3.787
 7647SOL    HW223841   0.040   2.466   3.820
 7648SOL     OW23842   2.249   2.071   2.047
 7648SOL    HW123843   2.333   2.080   1.994
 7648SOL    HW223844   2.271   2.068   2.145
 7649SOL     OW23845   3.511   1.231   6.386
 7649SOL    HW123846   3.465   1.206   6.472
 7649SOL    HW223847   3.477   1.320   6.355
 7650SOL     OW23848   4.308   2.607   0.220
 7650SOL    HW123849   4.255   2.577   0.141
 7650SOL    HW223850   4.261   2.682   0.266
 7651SOL     OW23851   3.249   5.076   6.606
 7651SOL    HW123852   3.206   5.051   6.693
 7651SOL    HW223853   3.270   5.174   6.607
 7652SOL     OW23854   1.152   0.768   4.016
 7652SOL    HW123855   1.204   0.819   3.947
 7652SOL    HW223856   1.191   0.787   4.107
 7653SOL     OW23857   2.260   0.540   6.670
 7653SOL    HW123858   2.322   0.614   6.645
 7653SOL    HW223859   2.184   0.536   6.605
 7654SOL     OW23860   6.267   1.959   6.122
 7654SOL    HW123861   6.303   2.011   6.200
 7654SOL    HW223862   6.255   2.019   6.044
 7655SOL     OW23863   3.479   1.603   3.697
 7655SOL    HW123864   3.513   1.609   3.791
 7655SOL    HW223865   3.557   1.586   3.636
 7656SOL     OW23866   6.514   4.240   7.026
 7656SOL    HW123867   6.598   4.187   7.013
 7656SOL    HW223868   6.449   4.217   6.953
 7657SOL     OW23869   1.316   3.947   5.159
 7657SOL    HW123870   1.414   3.953   5.180
 7657SOL    HW223871   1.281   3.858   5.189
 7658SOL     OW23872   2.840   0.769   0.940
 7658SOL    HW123873   2.898   0.758   0.859
 7658SOL    HW223874   2.878   0.840   0.999
 7659SOL     OW23875   4.962   4.194   5.831
 7659SOL    HW123876   4.923   4.107   5.862
 7659SOL    HW223877   4.953   4.262   5.903
 7660SOL     OW23878   6.705   5.315   5.439
 7660SOL    HW123879   6.667   5.250   5.505
 7660SOL    HW223880   6.767   5.268   5.376
 7661SOL     OW23881   3.875   1.476   5.114
 7661SOL    HW123882   3.878   1.551   5.048
 7661SOL    HW223883   3.966   1.434   5.121
 7662SOL     OW23884   6.832   6.107   1.291
 7662SOL    HW123885   6.744   6.060   1.289
 7662SOL    HW223886   6.840   6.159   1.377
 7663SOL     OW23887   0.485   5.540   5.095
 7663SOL    HW123888   0.415   5.518   5.163
 7663SOL    HW223889   0.485   5.639   5.078
 7664SOL     OW23890   3.658   2.005   2.500
 7664SOL    HW123891   3.709   1.933   2.452
 7664SOL    HW223892   3.613   2.064   2.432
 7665SOL     OW23893   3.752   0.373   5.889
 7665SOL    HW123894   3.679   0.379   5.821
 7665SOL    HW223895   3.756   0.457   5.942
 7666SOL     OW23896   5.488   4.114   3.810
 7666SOL    HW123897   5.470   4.191   3.749
 7666SOL    HW223898   5.453   4.134   3.901
 7667SOL     OW23899   4.292   6.281   2.645
 7667SOL    HW123900   4.227   6.341   2.598
 7667SOL    HW223901   4.275   6.285   2.743
 7668SOL     OW23902   1.879   5.724   0.821
 7668SOL    HW123903   1.847   5.759   0.909
 7668SOL    HW223904   1.819   5.757   0.748
 7669SOL     OW23905   2.263   1.094   6.521
 7669SOL    HW123906   2.166   1.119   6.532
 7669SOL    HW223907   2.300   1.068   6.610
 7670SOL     OW23908   0.902   0.491   1.103
 7670SOL    HW123909   0.896   0.558   1.030
 7670SOL    HW223910   0.816   0.440   1.109
 7671SOL     OW23911   3.147   6.606   1.136
 7671SOL    HW123912   3.059   6.647   1.160
 7671SOL    HW223913   3.190   6.660   1.062
 7672SOL     OW23914   4.955   4.238   2.116
 7672SOL    HW123915   4.913   4.320   2.154
 7672SOL    HW223916   5.022   4.201   2.182
 7673SOL     OW23917   1.703   6.611   4.736
 7673SOL    HW123918   1.784   6.624   4.678
 7673SOL    HW223919   1.732   6.580   4.827
 7674SOL     OW23920   4.650   5.976   4.764
 7674SOL    HW123921   4.612   5.975   4.671
 7674SOL    HW223922   4.696   5.889   4.782
 7675SOL     OW23923   5.067   6.191   3.369
 7675SOL    HW123924   4.995   6.135   3.328
 7675SOL    HW223925   5.137   6.209   3.300
 7676SOL     OW23926   3.762   2.941   5.475
 7676SOL    HW123927   3.809   2.988   5.550
 7676SOL    HW223928   3.677   2.990   5.454
 7677SOL     OW23929   6.397   4.939   7.026
 7677SOL    HW123930   6.354   4.940   6.936
 7677SOL    HW223931   6.464   4.865   0.004
 7678SOL     OW23932   2.831   1.413   5.185
 7678SOL    HW123933   2.853   1.410   5.283
 7678SOL    HW223934   2.876   1.491   5.143
 7679SOL     OW23935   3.787   5.939   4.661
 7679SOL    HW123936   3.783   6.009   4.590
 7679SOL    HW223937   3.848   5.865   4.631
 7680SOL     OW23938   2.083   6.879   4.642
 7680SOL    HW123939   1.999   6.910   4.598
 7680SOL    HW223940   2.060   6.818   4.719
 7681SOL     OW23941   2.297   2.731   6.223
 7681SOL    HW123942   2.358   2.791   6.275
 7681SOL    HW223943   2.244   2.785   6.158
 7682SOL     OW23944   3.122   0.935   2.898
 7682SOL    HW123945   3.217   0.905   2.889
 7682SOL    HW223946   3.078   0.887   2.973
 7683SOL     OW23947   0.546   4.492   4.310
 7683SOL    HW123948   0.500   4.542   4.237
 7683SOL    HW223949   0.478   4.455   4.373
 7684SOL     OW23950   5.013   3.390   1.408
 7684SOL    HW123951   5.033   3.317   1.343
 7684SOL    HW223952   4.914   3.399   1.418
 7685SOL     OW23953   2.524   0.487   0.711
 7685SOL    HW123954   2.434   0.512   0.673
 7685SOL    HW223955   2.542   0.543   0.792
 7686SOL     OW23956   6.706   6.743   4.857
 7686SOL    HW123957   6.730   6.824   4.911
 7686SOL    HW223958   6.750   6.662   4.897
 7687SOL     OW23959   5.359   3.614   5.906
 7687SOL    HW123960   5.284   3.678   5.919
 7687SOL    HW223961   5.387   3.576   5.994
 7688SOL     OW23962   6.901   3.588   6.335
 7688SOL    HW123963   6.831   3.529   6.295
 7688SOL    HW223964   6.864   3.631   6.418
 7689SOL     OW23965   4.877   0.986   2.017
 7689SOL    HW123966   4.958   0.931   1.996
 7689SOL    HW223967   4.877   1.067   1.958
 7690SOL     OW23968   6.139   5.258   2.126
 7690SOL    HW123969   6.144   5.225   2.031
 7690SOL    HW223970   6.219   5.226   2.176
 7691SOL     OW23971   4.951   3.138   4.056
 7691SOL    HW123972   4.968   3.166   4.150
 7691SOL    HW223973   4.925   3.218   4.002
 7692SOL     OW23974   2.884   6.484   2.540
 7692SOL    HW123975   2.954   6.414   2.529
 7692SOL    HW223976   2.813   6.451   2.602
 7693SOL     OW23977   3.093   0.553   1.910
 7693SOL    HW123978   3.163   0.613   1.947
 7693SOL    HW223979   3.065   0.487   1.979
 7694SOL     OW23980   4.504   1.578   6.329
 7694SOL    HW123981   4.471   1.496   6.376
 7694SOL    HW223982   4.597   1.599   6.359
 7695SOL     OW23983   4.747   0.037   3.492
 7695SOL    HW123984   4.756   0.096   3.412
 7695SOL    HW223985   4.836   7.023   3.514
 7696SOL     OW23986   2.144   2.555   6.073
 7696SOL    HW123987   2.216   2.589   6.132
 7696SOL    HW223988   2.126   2.622   6.000
 7697SOL     OW23989   5.787   6.855   3.501
 7697SOL    HW123990   5.819   6.940   3.458
 7697SOL    HW223991   5.687   6.857   3.508
 7698SOL     OW23992   6.243   3.239   1.086
 7698SOL    HW123993   6.336   3.273   1.094
 7698SOL    HW223994   6.182   3.314   1.059
 7699SOL     OW23995   4.550   6.333   5.257
 7699SOL    HW123996   4.597   6.290   5.334
 7699SOL    HW223997   4.607   6.407   5.219
 7700SOL     OW23998   5.276   5.682   2.005
 7700SOL    HW123999   5.293   5.624   2.085
 7700SOL    HW224000   5.319   5.642   1.925
 7701SOL     OW24001   1.322   2.276   6.381
 7701SOL    HW124002   1.242   2.217   6.390
 7701SOL    HW224003   1.302   2.365   6.421
 7702SOL     OW24004   5.025   0.052   4.901
 7702SOL    HW124005   5.052   0.002   4.818
 7702SOL    HW224006   4.967   0.129   4.875
 7703SOL     OW24007   7.026   6.830   5.487
 7703SOL    HW124008   0.046   6.754   5.443
 7703SOL    HW224009   0.033   6.916   5.448
 7704SOL     OW24010   0.894   1.763   4.782
 7704SOL    HW124011   0.907   1.664   4.778
 7704SOL    HW224012   0.810   1.788   4.733
 7705SOL     OW24013   1.124   5.227   0.012
 7705SOL    HW124014   1.169   5.316   0.004
 7705SOL    HW224015   1.101   5.210   0.108
 7706SOL     OW24016   3.617   3.272   2.851
 7706SOL    HW124017   3.646   3.216   2.773
 7706SOL    HW224018   3.597   3.212   2.928
 7707SOL     OW24019   6.742   4.123   6.878
 7707SOL    HW124020   6.735   4.054   6.805
 7707SOL    HW224021   6.757   4.213   6.837
 7708SOL     OW24022   1.999   0.548   4.308
 7708SOL    HW124023   2.082   0.552   4.364
 7708SOL    HW224024   1.960   0.456   4.313
 7709SOL     OW24025   0.123   4.925   1.661
 7709SOL    HW124026   0.095   4.837   1.699
 7709SOL    HW224027   0.080   4.999   1.712
 7710SOL     OW24028   6.579   2.916   0.930
 7710SOL    HW124029   6.645   2.952   0.997
 7710SOL    HW224030   6.493   2.966   0.938
 7711SOL     OW24031   0.216   4.464   4.825
 7711SOL    HW124032   0.230   4.538   4.891
 7711SOL    HW224033   0.267   4.484   4.741
 7712SOL     OW24034   0.003   4.974   5.499
 7712SOL    HW124035   0.096   5.010   5.493
 7712SOL    HW224036   6.991   4.996   5.589
 7713SOL     OW24037   1.312   4.536   0.174
 7713SOL    HW124038   1.359   4.489   0.248
 7713SOL    HW224039   1.375   4.598   0.128
 7714SOL     OW24040   6.076   1.838   4.705
 7714SOL    HW124041   6.120   1.910   4.759
 7714SOL    HW224042   5.997   1.876   4.657
 7715SOL     OW24043   3.667   3.283   5.268
 7715SOL    HW124044   3.610   3.227   5.328
 7715SOL    HW224045   3.741   3.325   5.322
 7716SOL     OW24046   0.988   6.731   6.199
 7716SOL    HW124047   0.902   6.781   6.204
 7716SOL    HW224048   1.014   6.719   6.103
 7717SOL     OW24049   0.037   2.369   6.539
 7717SOL    HW124050   0.020   2.451   6.483
 7717SOL    HW224051   0.029   2.393   6.635
 7718SOL     OW24052   0.373   3.290   2.980
 7718SOL    HW124053   0.376   3.350   2.900
 7718SOL    HW224054   0.316   3.332   3.051
 7719SOL     OW24055   1.855   5.385   5.254
 7719SOL    HW124056   1.768   5.383   5.205
 7719SOL    HW224057   1.866   5.300   5.306
 7720SOL     OW24058   4.332   1.243   6.660
 7720SOL    HW124059   4.391   1.255   6.580
 7720SOL    HW224060   4.291   1.331   6.684
 7721SOL     OW24061   6.856   6.778   2.584
 7721SOL    HW124062   6.847   6.690   2.536
 7721SOL    HW224063   6.767   6.805   2.619
 7722SOL     OW24064   1.122   5.943   3.702
 7722SOL    HW124065   1.219   5.945   3.675
 7722SOL    HW224066   1.092   5.848   3.712
 7723SOL     OW24067   4.789   3.897   6.755
 7723SOL    HW124068   4.860   3.916   6.688
 7723SOL    HW224069   4.803   3.954   6.836
 7724SOL     OW24070   2.159   3.609   1.199
 7724SOL    HW124071   2.125   3.641   1.287
 7724SOL    HW224072   2.249   3.567   1.210
 7725SOL     OW24073   5.204   2.620   4.682
 7725SOL    HW124074   5.248   2.628   4.771
 7725SOL    HW224075   5.200   2.710   4.638
 7726SOL     OW24076   1.485   3.463   6.669
 7726SOL    HW124077   1.436   3.426   6.748
 7726SOL    HW224078   1.430   3.535   6.627
 7727SOL     OW24079   4.325   0.950   2.484
 7727SOL    HW124080   4.375   1.037   2.486
 7727SOL    HW224081   4.312   0.917   2.577
 7728SOL     OW24082   1.897   3.982   4.750
 7728SOL    HW124083   1.935   4.046   4.683
 7728SOL    HW224084   1.968   3.956   4.815
 7729SOL     OW24085   6.846   1.161   2.830
 7729SOL    HW124086   6.897   1.084   2.868
 7729SOL    HW224087   6.756   1.129   2.800
 7730SOL     OW24088   6.611   4.552   5.437
 7730SOL    HW124089   6.594   4.647   5.411
 7730SOL    HW224090   6.666   4.550   5.521
 7731SOL     OW24091   6.667   0.317   5.808
 7731SOL    HW124092   6.754   0.352   5.842
 7731SOL    HW224093   6.682   0.229   5.762
 7732SOL     OW24094   3.958   0.129   6.373
 7732SOL    HW124095   3.951   0.050   6.312
 7732SOL    HW224096   3.956   0.098   6.468
 7733SOL     OW24097   0.019   5.332   1.554
 7733SOL    HW124098   0.012   5.428   1.583
 7733SOL    HW224099   0.091   5.324   1.485
 7734SOL     OW24100   3.350   4.156   3.964
 7734SOL    HW124101   3.440   4.158   3.920
 7734SOL    HW224102   3.315   4.250   3.971
 7735SOL     OW24103   0.612   6.674   1.205
 7735SOL    HW124104   0.707   6.648   1.220
 7735SOL    HW224105   0.584   6.644   1.113
 7736SOL     OW24106   1.516   2.374   0.148
 7736SOL    HW124107   1.470   2.381   0.237
 7736SOL    HW224108   1.575   2.454   0.135
 7737SOL     OW24109   4.549   4.579   6.957
 7737SOL    HW124110   4.646   4.568   6.934
 7737SOL    HW224111   4.510   4.653   6.903
 7738SOL     OW24112   1.910   0.626   5.508
 7738SOL    HW124113   1.864   0.683   5.576
 7738SOL    HW224114   1.844   0.561   5.469
 7739SOL     OW24115   1.915   2.287   0.489
 7739SOL    HW124116   1.956   2.373   0.459
 7739SOL    HW224117   1.987   2.222   0.513
 7740SOL     OW24118   2.341   0.432   5.034
 7740SOL    HW124119   2.265   0.380   5.073
 7740SOL    HW224120   2.409   0.369   4.996
 7741SOL     OW24121   0.693   4.811   6.092
 7741SOL    HW124122   0.679   4.724   6.140
 7741SOL    HW224123   0.609   4.865   6.095
 7742SOL     OW24124   4.581   2.197   4.072
 7742SOL    HW124125   4.591   2.255   3.992
 7742SOL    HW224126   4.514   2.238   4.135
 7743SOL     OW24127   4.229   1.716   6.072
 7743SOL    HW124128   4.187   1.738   5.984
 7743SOL    HW224129   4.272   1.627   6.067
 7744SOL     OW24130   1.234   6.915   4.543
 7744SOL    HW124131   1.333   6.906   4.550
 7744SOL    HW224132   1.192   6.825   4.534
 7745SOL     OW24133   3.095   0.070   1.327
 7745SOL    HW124134   3.019   0.121   1.365
 7745SOL    HW224135   3.101   7.007   1.371
 7746SOL     OW24136   0.719   5.580   2.369
 7746SOL    HW124137   0.756   5.603   2.279
 7746SOL    HW224138   0.739   5.653   2.434
 7747SOL     OW24139   6.840   5.830   0.891
 7747SOL    HW124140   6.761   5.772   0.871
 7747SOL    HW224141   6.810   5.918   0.927
 7748SOL     OW24142   4.454   1.644   5.703
 7748SOL    HW124143   4.472   1.721   5.642
 7748SOL    HW224144   4.524   1.642   5.774
 7749SOL     OW24145   4.035   3.845   3.271
 7749SOL    HW124146   4.057   3.753   3.301
 7749SOL    HW224147   4.119   3.899   3.264
 7750SOL     OW24148   5.150   5.126   5.595
 7750SOL    HW124149   5.180   5.219   5.576
 7750SOL    HW224150   5.129   5.079   5.509
 7751SOL     OW24151   6.732   1.748   4.608
 7751SOL    HW124152   6.816   1.788   4.573
 7751SOL    HW224153   6.747   1.715   4.702
 7752SOL     OW24154   6.328   5.019   5.198
 7752SOL    HW124155   6.238   4.980   5.178
 7752SOL    HW224156   6.378   5.032   5.113
 7753SOL     OW24157   2.761   0.894   5.315
 7753SOL    HW124158   2.691   0.955   5.353
 7753SOL    HW224159   2.726   0.853   5.231
 7754SOL     OW24160   6.708   1.092   1.347
 7754SOL    HW124161   6.684   1.068   1.441
 7754SOL    HW224162   6.642   1.052   1.285
 7755SOL     OW24163   1.318   5.945   5.312
 7755SOL    HW124164   1.258   6.016   5.276
 7755SOL    HW224165   1.399   5.988   5.353
 7756SOL     OW24166   3.791   5.450   3.227
 7756SOL    HW124167   3.742   5.525   3.271
 7756SOL    HW224168   3.729   5.373   3.212
 7757SOL     OW24169   3.280   6.469   5.750
 7757SOL    HW124170   3.236   6.559   5.756
 7757SOL    HW224171   3.372   6.474   5.788
 7758SOL     OW24172   3.088   2.783   6.330
 7758SOL    HW124173   3.006   2.731   6.306
 7758SOL    HW224174   3.063   2.876   6.356
 7759SOL     OW24175   2.204   1.252   5.047
 7759SOL    HW124176   2.191   1.164   5.093
 7759SOL    HW224177   2.230   1.321   5.115
 7760SOL     OW24178   4.566   1.603   3.334
 7760SOL    HW124179   4.618   1.518   3.331
 7760SOL    HW224180   4.580   1.648   3.423
 7761SOL     OW24181   4.237   0.495   6.668
 7761SOL    HW124182   4.182   0.529   6.591
 7761SOL    HW224183   4.209   0.542   6.752
 7762SOL     OW24184   1.592   2.362   0.655
 7762SOL    HW124185   1.552   2.367   0.746
 7762SOL    HW224186   1.602   2.266   0.628
 7763SOL     OW24187   2.094   2.409   1.252
 7763SOL    HW124188   2.111   2.336   1.318
 7763SOL    HW224189   2.058   2.489   1.300
 7764SOL     OW24190   4.041   3.573   2.322
 7764SOL    HW124191   4.038   3.476   2.346
 7764SOL    HW224192   4.070   3.627   2.401
 7765SOL     OW24193   0.252   2.050   2.265
 7765SOL    HW124194   0.280   2.125   2.324
 7765SOL    HW224195   0.154   2.031   2.279
 7766SOL     OW24196   6.896   3.572   0.059
 7766SOL    HW124197   6.892   3.488   0.113
 7766SOL    HW224198   6.804   3.608   0.044
 7767SOL     OW24199   5.784   4.093   5.414
 7767SOL    HW124200   5.846   4.098   5.335
 7767SOL    HW224201   5.828   4.041   5.487
 7768SOL     OW24202   4.421   5.422   1.894
 7768SOL    HW124203   4.387   5.400   1.803
 7768SOL    HW224204   4.350   5.402   1.962
 7769SOL     OW24205   6.704   1.945   2.129
 7769SOL    HW124206   6.781   1.881   2.125
 7769SOL    HW224207   6.650   1.937   2.045
 7770SOL     OW24208   3.658   5.775   1.795
 7770SOL    HW124209   3.588   5.812   1.733
 7770SOL    HW224210   3.680   5.682   1.767
 7771SOL     OW24211   2.286   1.171   4.731
 7771SOL    HW124212   2.351   1.233   4.774
 7771SOL    HW224213   2.331   1.084   4.711
 7772SOL     OW24214   5.449   0.788   5.238
 7772SOL    HW124215   5.411   0.775   5.147
 7772SOL    HW224216   5.439   0.883   5.266
 7773SOL     OW24217   4.226   4.564   5.395
 7773SOL    HW124218   4.264   4.522   5.313
 7773SOL    HW224219   4.295   4.564   5.468
 7774SOL     OW24220   5.028   1.580   6.734
 7774SOL    HW124221   5.085   1.565   6.653
 7774SOL    HW224222   4.992   1.493   6.766
 7775SOL     OW24223   2.660   6.542   2.012
 7775SOL    HW124224   2.734   6.525   1.947
 7775SOL    HW224225   2.662   6.473   2.084
 7776SOL     OW24226   3.671   4.184   0.732
 7776SOL    HW124227   3.674   4.106   0.794
 7776SOL    HW224228   3.756   4.236   0.741
 7777SOL     OW24229   1.555   0.400   6.752
 7777SOL    HW124230   1.608   0.425   6.833
 7777SOL    HW224231   1.485   0.333   6.776
 7778SOL     OW24232   5.076   1.063   1.193
 7778SOL    HW124233   5.027   1.014   1.121
 7778SOL    HW224234   5.108   0.999   1.262
 7779SOL     OW24235   4.032   3.406   0.156
 7779SOL    HW124236   3.996   3.414   0.063
 7779SOL    HW224237   3.956   3.396   0.221
 7780SOL     OW24238   0.948   0.153   4.835
 7780SOL    HW124239   0.885   0.173   4.911
 7780SOL    HW224240   0.916   0.199   4.753
 7781SOL     OW24241   1.100   4.973   5.507
 7781SOL    HW124242   1.053   4.910   5.445
 7781SOL    HW224243   1.185   5.003   5.465
 7782SOL     OW24244   3.763   4.925   6.682
 7782SOL    HW124245   3.804   4.873   6.757
 7782SOL    HW224246   3.725   4.862   6.614
 7783SOL     OW24247   2.849   5.084   6.768
 7783SOL    HW124248   2.895   5.029   6.699
 7783SOL    HW224249   2.753   5.097   6.742
 7784SOL     OW24250   7.020   2.731   6.961
 7784SOL    HW124251   6.964   2.806   6.925
 7784SOL    HW224252   0.082   2.730   6.915
 7785SOL     OW24253   1.922   5.847   4.550
 7785SOL    HW124254   1.952   5.942   4.561
 7785SOL    HW224255   1.993   5.785   4.583
 7786SOL     OW24256   3.227   4.131   4.785
 7786SOL    HW124257   3.163   4.194   4.829
 7786SOL    HW224258   3.278   4.082   4.855
 7787SOL     OW24259   2.999   2.365   5.346
 7787SOL    HW124260   2.938   2.438   5.315
 7787SOL    HW224261   3.066   2.345   5.274
 7788SOL     OW24262   0.450   1.509   0.148
 7788SOL    HW124263   0.387   1.472   0.217
 7788SOL    HW224264   0.538   1.463   0.155
 7789SOL     OW24265   1.827   0.514   1.418
 7789SOL    HW124266   1.734   0.526   1.384
 7789SOL    HW224267   1.865   0.429   1.383
 7790SOL     OW24268   6.524   3.527   2.729
 7790SOL    HW124269   6.507   3.431   2.751
 7790SOL    HW224270   6.622   3.541   2.714
 7791SOL     OW24271   0.939   4.334   5.059
 7791SOL    HW124272   0.948   4.259   5.125
 7791SOL    HW224273   0.983   4.307   4.973
 7792SOL     OW24274   2.322   5.712   5.974
 7792SOL    HW124275   2.334   5.712   5.875
 7792SOL    HW224276   2.291   5.622   6.004
 7793SOL     OW24277   1.437   0.672   6.728
 7793SOL    HW124278   1.411   0.579   6.755
 7793SOL    HW224279   1.537   0.681   6.735
 7794SOL     OW24280   5.502   5.838   3.514
 7794SOL    HW124281   5.403   5.857   3.509
 7794SOL    HW224282   5.516   5.745   3.548
 7795SOL     OW24283   1.802   5.318   5.646
 7795SOL    HW124284   1.729   5.375   5.609
 7795SOL    HW224285   1.891   5.357   5.620
 7796SOL     OW24286   3.958   3.103   4.185
 7796SOL    HW124287   4.005   3.183   4.222
 7796SOL    HW224288   3.916   3.051   4.259
 7797SOL     OW24289   0.988   0.188   3.279
 7797SOL    HW124290   1.060   0.257   3.278
 7797SOL    HW224291   0.958   0.170   3.185
 7798SOL     OW24292   4.008   6.037   6.456
 7798SOL    HW124293   4.083   6.086   6.498
 7798SOL    HW224294   3.927   6.042   6.514
 7799SOL     OW24295   6.404   4.682   1.297
 7799SOL    HW124296   6.395   4.779   1.319
 7799SOL    HW224297   6.332   4.630   1.345
 7800SOL     OW24298   0.681   5.940   2.188
 7800SOL    HW124299   0.636   5.999   2.121
 7800SOL    HW224300   0.692   5.991   2.274
 7801SOL     OW24301   3.644   2.468   6.185
 7801SOL    HW124302   3.649   2.486   6.086
 7801SOL    HW224303   3.550   2.443   6.209
 7802SOL     OW24304   5.719   2.110   0.954
 7802SOL    HW124305   5.804   2.059   0.965
 7802SOL    HW224306   5.683   2.135   1.044
 7803SOL     OW24307   3.495   4.375   6.141
 7803SOL    HW124308   3.505   4.311   6.065
 7803SOL    HW224309   3.406   4.361   6.185
 7804SOL     OW24310   5.200   1.450   6.530
 7804SOL    HW124311   5.297   1.427   6.536
 7804SOL    HW224312   5.180   1.488   6.440
 7805SOL     OW24313   5.410   3.610   2.243
 7805SOL    HW124314   5.485   3.676   2.234
 7805SOL    HW224315   5.355   3.612   2.159
 7806SOL     OW24316   4.839   3.009   6.846
 7806SOL    HW124317   4.812   2.913   6.851
 7806SOL    HW224318   4.773   3.060   6.792
 7807SOL     OW24319   7.007   3.430   6.802
 7807SOL    HW124320   0.061   3.397   6.753
 7807SOL    HW224321   7.005   3.530   6.801
 7808SOL     OW24322   0.756   1.457   5.249
 7808SOL    HW124323   0.673   1.510   5.268
 7808SOL    HW224324   0.814   1.508   5.186
 7809SOL     OW24325   1.612   5.577   5.808
 7809SOL    HW124326   1.513   5.563   5.816
 7809SOL    HW224327   1.659   5.498   5.847
 7810SOL     OW24328   2.358   1.068   6.790
 7810SOL    HW124329   2.365   1.012   6.873
 7810SOL    HW224330   2.419   1.147   6.798
 7811SOL     OW24331   0.250   4.217   4.961
 7811SOL    HW124332   0.225   4.287   4.894
 7811SOL    HW224333   0.350   4.214   4.970
 7812SOL     OW24334   0.365   1.952   3.943
 7812SOL    HW124335   0.285   1.955   3.883
 7812SOL    HW224336   0.386   1.857   3.967
 7813SOL     OW24337   6.301   2.455   0.964
 7813SOL    HW124338   6.228   2.390   0.986
 7813SOL    HW224339   6.267   2.549   0.975
 7814SOL     OW24340   1.864   3.399   3.909
 7814SOL    HW124341   1.940   3.398   3.843
 7814SOL    HW224342   1.802   3.474   3.886
 7815SOL     OW24343   6.959   1.344   6.092
 7815SOL    HW124344   6.952   1.391   6.180
 7815SOL    HW224345   0.002   1.388   6.035
 7816SOL     OW24346   1.188   3.737   5.262
 7816SOL    HW124347   1.148   3.806   5.322
 7816SOL    HW224348   1.252   3.680   5.313
 7817SOL     OW24349   5.377   3.705   5.089
 7817SOL    HW124350   5.385   3.619   5.138
 7817SOL    HW224351   5.288   3.747   5.107
 7818SOL     OW24352   4.982   5.318   2.719
 7818SOL    HW124353   4.883   5.309   2.714
 7818SOL    HW224354   5.020   5.240   2.768
 7819SOL     OW24355   0.103   1.490   1.580
 7819SOL    HW124356   0.073   1.580   1.548
 7819SOL    HW224357   0.023   1.436   1.608
 7820SOL     OW24358   2.096   6.928   6.214
 7820SOL    HW124359   1.996   6.923   6.220
 7820SOL    HW224360   2.134   6.948   6.304
 7821SOL     OW24361   2.760   5.538   0.994
 7821SOL    HW124362   2.787   5.601   1.066
 7821SOL    HW224363   2.698   5.468   1.031
 7822SOL     OW24364   1.385   6.148   5.853
 7822SOL    HW124365   1.462   6.196   5.895
 7822SOL    HW224366   1.384   6.168   5.755
 7823SOL     OW24367   1.869   4.307   5.170
 7823SOL    HW124368   1.908   4.250   5.242
 7823SOL    HW224369   1.808   4.375   5.211
 7824SOL     OW24370   0.796   3.703   5.841
 7824SOL    HW124371   0.810   3.625   5.780
 7824SOL    HW224372   0.770   3.670   5.932
 7825SOL     OW24373   3.132   0.845   6.623
 7825SOL    HW124374   3.052   0.905   6.617
 7825SOL    HW224375   3.104   0.750   6.608
 7826SOL     OW24376   0.724   3.096   5.763
 7826SOL    HW124377   0.680   3.016   5.722
 7826SOL    HW224378   0.820   3.074   5.784
 7827SOL     OW24379   6.717   5.268   4.694
 7827SOL    HW124380   6.666   5.183   4.681
 7827SOL    HW224381   6.797   5.268   4.634
 7828SOL     OW24382   0.380   5.175   0.341
 7828SOL    HW124383   0.411   5.191   0.434
 7828SOL    HW224384   0.455   5.139   0.286
 7829SOL     OW24385   3.623   3.498   0.481
 7829SOL    HW124386   3.678   3.565   0.531
 7829SOL    HW224387   3.526   3.524   0.486
 7830SOL     OW24388   2.260   5.802   3.945
 7830SOL    HW124389   2.223   5.868   4.010
 7830SOL    HW224390   2.356   5.784   3.966
 7831SOL     OW24391   1.760   0.085   6.992
 7831SOL    HW124392   1.768   7.012   6.997
 7831SOL    HW224393   1.767   0.124   0.057
 7832SOL     OW24394   6.312   0.849   4.516
 7832SOL    HW124395   6.298   0.787   4.593
 7832SOL    HW224396   6.359   0.932   4.548
 7833SOL     OW24397   1.334   0.724   3.239
 7833SOL    HW124398   1.243   0.718   3.199
 7833SOL    HW224399   1.339   0.804   3.300
 7834SOL     OW24400   6.274   3.275   5.705
 7834SOL    HW124401   6.267   3.292   5.804
 7834SOL    HW224402   6.304   3.359   5.659
 7835SOL     OW24403   4.126   2.399   5.571
 7835SOL    HW124404   4.206   2.456   5.552
 7835SOL    HW224405   4.067   2.445   5.638
 7836SOL     OW24406   3.319   3.571   3.913
 7836SOL    HW124407   3.287   3.517   3.990
 7836SOL    HW224408   3.418   3.560   3.903
 7837SOL     OW24409   0.323   5.801   7.020
 7837SOL    HW124410   0.338   5.880   0.053
 7837SOL    HW224411   0.239   5.754   0.021
 7838SOL     OW24412   4.606   5.701   2.494
 7838SOL    HW124413   4.558   5.686   2.580
 7838SOL    HW224414   4.641   5.795   2.491
 7839SOL     OW24415   6.282   2.709   4.367
 7839SOL    HW124416   6.266   2.736   4.272
 7839SOL    HW224417   6.253   2.782   4.428
 7840SOL     OW24418   1.714   2.775   4.375
 7840SOL    HW124419   1.787   2.775   4.443
 7840SOL    HW224420   1.739   2.713   4.300
 7841SOL     OW24421   3.572   1.837   6.345
 7841SOL    HW124422   3.602   1.889   6.265
 7841SOL    HW224423   3.652   1.815   6.402
 7842SOL     OW24424   1.133   0.800   1.837
 7842SOL    HW124425   1.176   0.835   1.920
 7842SOL    HW224426   1.194   0.815   1.759
 7843SOL     OW24427   0.158   6.275   3.271
 7843SOL    HW124428   0.134   6.355   3.216
 7843SOL    HW224429   0.137   6.293   3.367
 7844SOL     OW24430   3.721   0.442   2.283
 7844SOL    HW124431   3.650   0.438   2.213
 7844SOL    HW224432   3.680   0.424   2.373
 7845SOL     OW24433   6.711   2.824   0.712
 7845SOL    HW124434   6.656   2.878   0.776
 7845SOL    HW224435   6.711   2.729   0.741
 7846SOL     OW24436   0.968   1.332   0.266
 7846SOL    HW124437   1.014   1.269   0.204
 7846SOL    HW224438   1.020   1.417   0.272
 7847SOL     OW24439   5.740   4.570   6.390
 7847SOL    HW124440   5.654   4.540   6.433
 7847SOL    HW224441   5.817   4.526   6.436
 7848SOL     OW24442   3.406   4.506   0.380
 7848SOL    HW124443   3.356   4.426   0.413
 7848SOL    HW224444   3.371   4.533   0.290
 7849SOL     OW24445   4.363   5.452   0.140
 7849SOL    HW124446   4.391   5.387   0.070
 7849SOL    HW224447   4.343   5.403   0.225
 7850SOL     OW24448   0.131   1.549   4.239
 7850SOL    HW124449   0.218   1.539   4.191
 7850SOL    HW224450   0.135   1.499   4.326
 7851SOL     OW24451   0.233   4.375   1.182
 7851SOL    HW124452   0.179   4.458   1.165
 7851SOL    HW224453   0.269   4.341   1.096
 7852SOL     OW24454   1.438   2.931   6.876
 7852SOL    HW124455   1.414   2.937   6.973
 7852SOL    HW224456   1.466   2.838   6.854
 7853SOL     OW24457   4.111   2.976   1.683
 7853SOL    HW124458   4.043   3.045   1.661
 7853SOL    HW224459   4.196   3.021   1.710
 7854SOL     OW24460   4.834   1.495   0.087
 7854SOL    HW124461   4.859   1.574   0.143
 7854SOL    HW224462   4.862   1.411   0.133
 7855SOL     OW24463   5.258   7.000   3.927
 7855SOL    HW124464   5.344   6.998   3.979
 7855SOL    HW224465   5.215   0.063   3.937
 7856SOL     OW24466   2.084   6.675   4.868
 7856SOL    HW124467   2.063   6.581   4.892
 7856SOL    HW224468   2.181   6.682   4.843
 7857SOL     OW24469   5.797   4.387   1.006
 7857SOL    HW124470   5.742   4.316   1.050
 7857SOL    HW224471   5.815   4.461   1.071
 7858SOL     OW24472   0.040   4.225   6.285
 7858SOL    HW124473   0.118   4.164   6.271
 7858SOL    HW224474   0.002   4.210   6.376
 7859SOL     OW24475   5.162   1.815   0.666
 7859SOL    HW124476   5.116   1.892   0.710
 7859SOL    HW224477   5.172   1.833   0.568
 7860SOL     OW24478   2.737   1.236   4.530
 7860SOL    HW124479   2.780   1.239   4.440
 7860SOL    HW224480   2.719   1.329   4.562
 7861SOL     OW24481   2.127   6.546   0.542
 7861SOL    HW124482   2.138   6.488   0.461
 7861SOL    HW224483   2.215   6.558   0.586
 7862SOL     OW24484   1.580   6.245   6.976
 7862SOL    HW124485   1.584   6.302   6.894
 7862SOL    HW224486   1.647   6.171   6.968
 7863SOL     OW24487   1.565   3.948   3.840
 7863SOL    HW124488   1.622   4.005   3.899
 7863SOL    HW224489   1.477   3.993   3.824
 7864SOL     OW24490   2.448   5.750   5.211
 7864SOL    HW124491   2.373   5.686   5.227
 7864SOL    HW224492   2.432   5.800   5.126
 7865SOL     OW24493   5.956   3.818   3.339
 7865SOL    HW124494   6.047   3.801   3.378
 7865SOL    HW224495   5.887   3.808   3.411
 7866SOL     OW24496   0.926   1.204   5.906
 7866SOL    HW124497   1.002   1.268   5.917
 7866SOL    HW224498   0.905   1.195   5.808
 7867SOL     OW24499   4.590   5.072   3.510
 7867SOL    HW124500   4.551   5.129   3.582
 7867SOL    HW224501   4.619   4.985   3.548
 7868SOL     OW24502   2.702   6.274   1.280
 7868SOL    HW124503   2.791   6.293   1.321
 7868SOL    HW224504   2.642   6.232   1.348
 7869SOL     OW24505   6.034   4.556   7.009
 7869SOL    HW124506   6.039   4.607   6.924
 7869SOL    HW224507   6.040   4.620   0.060
 7870SOL     OW24508   5.794   6.102   3.906
 7870SOL    HW124509   5.794   6.055   3.994
 7870SOL    HW224510   5.723   6.172   3.906
 7871SOL     OW24511   4.770   1.354   0.398
 7871SOL    HW124512   4.799   1.438   0.446
 7871SOL    HW224513   4.836   1.281   0.416
 7872SOL     OW24514   1.353   5.543   3.230
 7872SOL    HW124515   1.433   5.484   3.231
 7872SOL    HW224516   1.376   5.630   3.186
 7873SOL     OW24517   4.992   2.121   0.215
 7873SOL    HW124518   4.979   2.216   0.242
 7873SOL    HW224519   5.067   2.114   0.149
 7874SOL     OW24520   5.922   2.611   0.716
 7874SOL    HW124521   5.858   2.558   0.772
 7874SOL    HW224522   5.871   2.672   0.656
 7875SOL     OW24523   5.862   4.470   5.927
 7875SOL    HW124524   5.830   4.412   5.852
 7875SOL    HW224525   5.783   4.504   5.979
 7876SOL     OW24526   1.085   0.198   3.925
 7876SOL    HW124527   1.173   0.163   3.956
 7876SOL    HW224528   1.080   0.297   3.939
 7877SOL     OW24529   6.946   2.905   3.357
 7877SOL    HW124530   6.945   2.871   3.263
 7877SOL    HW224531   6.915   3.000   3.358
 7878SOL     OW24532   4.242   5.573   3.151
 7878SOL    HW124533   4.320   5.630   3.177
 7878SOL    HW224534   4.252   5.546   3.056
 7879SOL     OW24535   2.892   4.787   2.955
 7879SOL    HW124536   2.894   4.811   3.052
 7879SOL    HW224537   2.824   4.716   2.939
 7880SOL     OW24538   1.195   5.001   2.642
 7880SOL    HW124539   1.279   4.997   2.696
 7880SOL    HW224540   1.206   5.068   2.568
 7881SOL     OW24541   4.842   3.961   3.581
 7881SOL    HW124542   4.818   3.864   3.590
 7881SOL    HW224543   4.866   3.998   3.671
 7882SOL     OW24544   0.660   3.135   6.993
 7882SOL    HW124545   0.688   3.043   6.964
 7882SOL    HW224546   0.711   3.203   6.942
 7883SOL     OW24547   0.631   0.813   5.313
 7883SOL    HW124548   0.622   0.743   5.242
 7883SOL    HW224549   0.724   0.812   5.349
 7884SOL     OW24550   0.904   2.724   4.470
 7884SOL    HW124551   0.818   2.733   4.420
 7884SOL    HW224552   0.972   2.785   4.430
 7885SOL     OW24553   6.888   6.123   6.511
 7885SOL    HW124554   6.819   6.111   6.439
 7885SOL    HW224555   6.950   6.197   6.484
 7886SOL     OW24556   5.158   4.640   0.961
 7886SOL    HW124557   5.077   4.618   0.906
 7886SOL    HW224558   5.183   4.736   0.945
 7887SOL     OW24559   4.606   2.995   5.943
 7887SOL    HW124560   4.573   3.081   5.979
 7887SOL    HW224561   4.546   2.964   5.869
 7888SOL     OW24562   5.420   6.237   4.625
 7888SOL    HW124563   5.404   6.142   4.653
 7888SOL    HW224564   5.369   6.299   4.686
 7889SOL     OW24565   6.921   4.725   2.807
 7889SOL    HW124566   6.938   4.627   2.802
 7889SOL    HW224567   7.003   4.772   2.839
 7890SOL     OW24568   1.923   3.066   2.433
 7890SOL    HW124569   1.890   3.021   2.350
 7890SOL    HW224570   1.865   3.144   2.454
 7891SOL     OW24571   1.106   4.680   3.135
 7891SOL    HW124572   1.204   4.698   3.126
 7891SOL    HW224573   1.093   4.589   3.173
 7892SOL     OW24574   2.102   2.234   5.627
 7892SOL    HW124575   2.191   2.219   5.585
 7892SOL    HW224576   2.110   2.223   5.726
 7893SOL     OW24577   6.061   6.486   1.557
 7893SOL    HW124578   6.060   6.473   1.656
 7893SOL    HW224579   6.156   6.496   1.526
 7894SOL     OW24580   3.007   6.985   1.918
 7894SOL    HW124581   2.912   7.014   1.920
 7894SOL    HW224582   3.026   6.937   1.832
 7895SOL     OW24583   6.749   1.290   3.282
 7895SOL    HW124584   6.760   1.338   3.369
 7895SOL    HW224585   6.717   1.354   3.212
 7896SOL     OW24586   4.329   1.786   6.346
 7896SOL    HW124587   4.391   1.708   6.350
 7896SOL    HW224588   4.282   1.786   6.258
 7897SOL     OW24589   3.065   3.242   6.467
 7897SOL    HW124590   3.159   3.212   6.483
 7897SOL    HW224591   3.011   3.166   6.432
 7898SOL     OW24592   4.736   2.005   3.418
 7898SOL    HW124593   4.782   1.985   3.504
 7898SOL    HW224594   4.741   2.103   3.399
 7899SOL     OW24595   4.706   1.871   2.791
 7899SOL    HW124596   4.616   1.913   2.804
 7899SOL    HW224597   4.738   1.833   2.878
 7900SOL     OW24598   1.267   5.203   0.863
 7900SOL    HW124599   1.340   5.224   0.797
 7900SOL    HW224600   1.183   5.179   0.813
 7901SOL     OW24601   6.120   5.535   0.917
 7901SOL    HW124602   6.165   5.614   0.958
 7901SOL    HW224603   6.158   5.518   0.826
 7902SOL     OW24604   5.100   5.087   5.866
 7902SOL    HW124605   5.141   5.117   5.780
 7902SOL    HW224606   5.050   5.001   5.852
 7903SOL     OW24607   0.062   2.473   0.023
 7903SOL    HW124608   0.049   2.571   0.040
 7903SOL    HW224609   0.057   2.423   0.110
 7904SOL     OW24610   6.391   1.718   2.152
 7904SOL    HW124611   6.464   1.780   2.182
 7904SOL    HW224612   6.425   1.661   2.077
 7905SOL     OW24613   2.611   2.142   1.424
 7905SOL    HW124614   2.671   2.076   1.469
 7905SOL    HW224615   2.605   2.225   1.478
 7906SOL     OW24616   0.836   4.661   0.334
 7906SOL    HW124617   0.869   4.577   0.291
 7906SOL    HW224618   0.914   4.714   0.368
 7907SOL     OW24619   6.160   3.012   1.821
 7907SOL    HW124620   6.118   3.098   1.850
 7907SOL    HW224621   6.111   2.935   1.861
 7908SOL     OW24622   6.332   1.102   3.122
 7908SOL    HW124623   6.401   1.077   3.190
 7908SOL    HW224624   6.284   1.020   3.092
 7909SOL     OW24625   4.477   6.310   4.820
 7909SOL    HW124626   4.528   6.242   4.872
 7909SOL    HW224627   4.511   6.402   4.844
 7910SOL     OW24628   6.153   3.674   6.159
 7910SOL    HW124629   6.204   3.759   6.170
 7910SOL    HW224630   6.115   3.646   6.247
 7911SOL     OW24631   0.004   4.916   0.029
 7911SOL    HW124632   7.024   4.937   6.958
 7911SOL    HW224633   0.073   4.975   0.071
 7912SOL     OW24634   6.985   5.296   5.628
 7912SOL    HW124635   0.040   5.350   5.651
 7912SOL    HW224636   6.937   5.339   5.551
 7913SOL     OW24637   0.974   5.969   6.595
 7913SOL    HW124638   1.057   6.023   6.578
 7913SOL    HW224639   0.948   5.978   6.691
 7914SOL     OW24640   6.793   3.684   2.012
 7914SOL    HW124641   6.713   3.639   1.973
 7914SOL    HW224642   6.767   3.772   2.053
 7915SOL     OW24643   4.387   1.221   1.972
 7915SOL    HW124644   4.292   1.236   1.947
 7915SOL    HW224645   4.447   1.264   1.905
 7916SOL     OW24646   4.823   3.797   5.646
 7916SOL    HW124647   4.723   3.790   5.646
 7916SOL    HW224648   4.849   3.893   5.638
 7917SOL     OW24649   3.577   4.051   3.833
 7917SOL    HW124650   3.623   4.054   3.744
 7917SOL    HW224651   3.640   4.080   3.904
 7918SOL     OW24652   6.604   2.520   2.622
 7918SOL    HW124653   6.642   2.500   2.712
 7918SOL    HW224654   6.678   2.538   2.558
 7919SOL     OW24655   5.907   4.773   1.959
 7919SOL    HW124656   5.868   4.687   1.991
 7919SOL    HW224657   5.951   4.821   2.035
 7920SOL     OW24658   0.477   6.621   2.391
 7920SOL    HW124659   0.472   6.525   2.364
 7920SOL    HW224660   0.557   6.636   2.449
 7921SOL     OW24661   2.885   6.025   1.879
 7921SOL    HW124662   2.796   6.037   1.923
 7921SOL    HW224663   2.930   5.943   1.914
 7922SOL     OW24664   0.972   4.686   5.895
 7922SOL    HW124665   0.982   4.755   5.967
 7922SOL    HW224666   0.881   4.646   5.900
 7923SOL     OW24667   0.692   1.656   3.023
 7923SOL    HW124668   0.777   1.709   3.033
 7923SOL    HW224669   0.629   1.680   3.097
 7924SOL     OW24670   2.425   1.013   3.874
 7924SOL    HW124671   2.439   0.954   3.795
 7924SOL    HW224672   2.327   1.018   3.896
 7925SOL     OW24673   0.517   1.310   6.503
 7925SOL    HW124674   0.592   1.288   6.441
 7925SOL    HW224675   0.503   1.235   6.567
 7926SOL     OW24676   3.566   6.687   1.686
 7926SOL    HW124677   3.660   6.661   1.664
 7926SOL    HW224678   3.566   6.768   1.745
 7927SOL     OW24679   4.715   4.116   4.358
 7927SOL    HW124680   4.797   4.090   4.409
 7927SOL    HW224681   4.740   4.138   4.263
 7928SOL     OW24682   0.838   4.593   6.818
 7928SOL    HW124683   0.778   4.649   6.874
 7928SOL    HW224684   0.831   4.622   6.722
 7929SOL     OW24685   3.793   3.782   4.413
 7929SOL    HW124686   3.881   3.786   4.366
 7929SOL    HW224687   3.783   3.694   4.460
 7930SOL     OW24688   5.785   6.212   3.620
 7930SOL    HW124689   5.741   6.241   3.704
 7930SOL    HW224690   5.754   6.120   3.597
 7931SOL     OW24691   2.192   3.321   0.091
 7931SOL    HW124692   2.120   3.251   0.082
 7931SOL    HW224693   2.220   3.327   0.187
 7932SOL     OW24694   2.928   6.804   0.872
 7932SOL    HW124695   2.943   6.814   0.774
 7932SOL    HW224696   3.011   6.771   0.916
 7933SOL     OW24697   1.672   1.015   6.367
 7933SOL    HW124698   1.677   1.110   6.396
 7933SOL    HW224699   1.614   0.964   6.431
 7934SOL     OW24700   4.009   2.718   5.525
 7934SOL    HW124701   4.015   2.776   5.606
 7934SOL    HW224702   4.101   2.692   5.495
 7935SOL     OW24703   4.926   6.055   1.541
 7935SOL    HW124704   4.943   5.996   1.462
 7935SOL    HW224705   4.953   6.008   1.625
 7936SOL     OW24706   4.203   5.775   2.817
 7936SOL    HW124707   4.118   5.751   2.863
 7936SOL    HW224708   4.221   5.709   2.744
 7937SOL     OW24709   6.591   0.537   6.041
 7937SOL    HW124710   6.661   0.573   5.980
 7937SOL    HW224711   6.533   0.473   5.992
 7938SOL     OW24712   6.276   5.021   4.113
 7938SOL    HW124713   6.331   4.995   4.192
 7938SOL    HW224714   6.225   5.104   4.134
 7939SOL     OW24715   0.377   6.799   4.174
 7939SOL    HW124716   0.458   6.759   4.131
 7939SOL    HW224717   0.352   6.883   4.127
 7940SOL     OW24718   2.137   6.206   0.712
 7940SOL    HW124719   2.104   6.118   0.679
 7940SOL    HW224720   2.221   6.230   0.665
 7941SOL     OW24721   0.161   0.383   0.570
 7941SOL    HW124722   0.073   0.363   0.613
 7941SOL    HW224723   0.174   0.483   0.566
 7942SOL     OW24724   1.336   1.359   1.035
 7942SOL    HW124725   1.268   1.415   0.986
 7942SOL    HW224726   1.349   1.273   0.986
 7943SOL     OW24727   6.042   2.367   7.010
 7943SOL    HW124728   6.039   2.465   6.992
 7943SOL    HW224729   6.050   2.351   0.082
 7944SOL     OW24730   6.978   3.258   2.385
 7944SOL    HW124731   0.003   3.180   2.348
 7944SOL    HW224732   6.942   3.313   2.309
 7945SOL     OW24733   5.477   6.625   1.393
 7945SOL    HW124734   5.530   6.671   1.322
 7945SOL    HW224735   5.399   6.578   1.352
 7946SOL     OW24736   1.580   1.637   6.053
 7946SOL    HW124737   1.625   1.627   6.142
 7946SOL    HW224738   1.539   1.728   6.047
 7947SOL     OW24739   4.662   5.082   5.710
 7947SOL    HW124740   4.712   5.151   5.762
 7947SOL    HW224741   4.566   5.080   5.741
 7948SOL     OW24742   0.429   4.867   6.069
 7948SOL    HW124743   0.397   4.794   6.009
 7948SOL    HW224744   0.355   4.932   6.084
 7949SOL     OW24745   6.590   3.873   3.873
 7949SOL    HW124746   6.509   3.850   3.926
 7949SOL    HW224747   6.570   3.951   3.814
 7950SOL     OW24748   3.906   5.328   4.491
 7950SOL    HW124749   3.886   5.245   4.439
 7950SOL    HW224750   3.891   5.408   4.433
 7951SOL     OW24751   3.313   3.641   0.888
 7951SOL    HW124752   3.385   3.572   0.882
 7951SOL    HW224753   3.256   3.623   0.968
 7952SOL     OW24754   4.734   5.054   0.137
 7952SOL    HW124755   4.656   5.064   0.075
 7952SOL    HW224756   4.811   5.107   0.102
 7953SOL     OW24757   2.105   3.195   2.942
 7953SOL    HW124758   2.131   3.109   2.985
 7953SOL    HW224759   2.120   3.271   3.006
 7954SOL     OW24760   5.364   5.676   4.579
 7954SOL    HW124761   5.451   5.645   4.540
 7954SOL    HW224762   5.301   5.697   4.505
 7955SOL     OW24763   1.435   0.078   6.271
 7955SOL    HW124764   1.462   7.015   6.306
 7955SOL    HW224765   1.359   0.067   6.207
 7956SOL     OW24766   6.178   6.929   3.098
 7956SOL    HW124767   6.217   6.860   3.159
 7956SOL    HW224768   6.251   6.978   3.052
 7957SOL     OW24769   0.730   2.439   1.082
 7957SOL    HW124770   0.644   2.484   1.058
 7957SOL    HW224771   0.711   2.352   1.127
 7958SOL     OW24772   2.091   5.379   3.797
 7958SOL    HW124773   1.999   5.416   3.782
 7958SOL    HW224774   2.114   5.385   3.894
 7959SOL     OW24775   4.982   5.593   0.695
 7959SOL    HW124776   4.912   5.638   0.750
 7959SOL    HW224777   4.961   5.602   0.598
 7960SOL     OW24778   2.431   2.434   0.972
 7960SOL    HW124779   2.429   2.496   1.050
 7960SOL    HW224780   2.507   2.369   0.983
 7961SOL     OW24781   1.735   5.695   0.093
 7961SOL    HW124782   1.679   5.756   0.036
 7961SOL    HW224783   1.832   5.715   0.077
 7962SOL     OW24784   1.867   6.561   2.138
 7962SOL    HW124785   1.943   6.588   2.079
 7962SOL    HW224786   1.808   6.640   2.156
 7963SOL     OW24787   0.651   6.405   4.886
 7963SOL    HW124788   0.636   6.314   4.850
 7963SOL    HW224789   0.599   6.417   4.971
 7964SOL     OW24790   6.303   5.646   3.407
 7964SOL    HW124791   6.311   5.589   3.325
 7964SOL    HW224792   6.332   5.592   3.487
 7965SOL     OW24793   5.674   1.704   0.425
 7965SOL    HW124794   5.631   1.617   0.402
 7965SOL    HW224795   5.671   1.765   0.345
 7966SOL     OW24796   6.793   6.477   3.553
 7966SOL    HW124797   6.786   6.383   3.520
 7966SOL    HW224798   6.820   6.476   3.650
 7967SOL     OW24799   2.883   6.897   3.306
 7967SOL    HW124800   2.915   6.990   3.288
 7967SOL    HW224801   2.961   6.835   3.308
 7968SOL     OW24802   2.050   0.836   1.663
 7968SOL    HW124803   2.079   0.932   1.667
 7968SOL    HW224804   2.102   0.789   1.592
 7969SOL     OW24805   3.408   1.763   3.486
 7969SOL    HW124806   3.421   1.692   3.555
 7969SOL    HW224807   3.382   1.721   3.399
 7970SOL     OW24808   0.438   5.082   3.135
 7970SOL    HW124809   0.482   5.116   3.218
 7970SOL    HW224810   0.364   5.020   3.160
 7971SOL     OW24811   2.772   1.441   1.946
 7971SOL    HW124812   2.721   1.526   1.928
 7971SOL    HW224813   2.868   1.464   1.964
 7972SOL     OW24814   0.358   5.487   1.708
 7972SOL    HW124815   0.405   5.554   1.650
 7972SOL    HW224816   0.262   5.514   1.719
 7973SOL     OW24817   4.429   2.282   2.521
 7973SOL    HW124818   4.493   2.205   2.525
 7973SOL    HW224819   4.337   2.248   2.504
 7974SOL     OW24820   5.806   6.738   3.982
 7974SOL    HW124821   5.741   6.686   4.038
 7974SOL    HW224822   5.880   6.678   3.953
 7975SOL     OW24823   2.360   0.830   2.950
 7975SOL    HW124824   2.446   0.811   2.998
 7975SOL    HW224825   2.300   0.750   2.955
 7976SOL     OW24826   0.806   6.355   6.296
 7976SOL    HW124827   0.737   6.409   6.248
 7976SOL    HW224828   0.761   6.303   6.369
 7977SOL     OW24829   4.885   6.514   1.711
 7977SOL    HW124830   4.798   6.502   1.663
 7977SOL    HW224831   4.945   6.435   1.692
 7978SOL     OW24832   3.619   2.564   5.920
 7978SOL    HW124833   3.630   2.651   5.872
 7978SOL    HW224834   3.549   2.509   5.874
 7979SOL     OW24835   4.942   0.120   4.578
 7979SOL    HW124836   5.005   0.197   4.566
 7979SOL    HW224837   4.949   0.058   4.500
 7980SOL     OW24838   2.762   0.516   2.298
 7980SOL    HW124839   2.739   0.475   2.386
 7980SOL    HW224840   2.775   0.614   2.309
 7981SOL     OW24841   0.889   5.928   2.722
 7981SOL    HW124842   0.904   6.002   2.788
 7981SOL    HW224843   0.840   5.853   2.767
 7982SOL     OW24844   0.468   2.264   0.462
 7982SOL    HW124845   0.404   2.201   0.419
 7982SOL    HW224846   0.479   2.345   0.405
 7983SOL     OW24847   4.656   2.628   2.287
 7983SOL    HW124848   4.679   2.706   2.344
 7983SOL    HW224849   4.739   2.579   2.262
 7984SOL     OW24850   0.059   0.319   0.183
 7984SOL    HW124851   6.998   0.272   0.167
 7984SOL    HW224852   0.041   0.409   0.223
 7985SOL     OW24853   0.222   0.997   0.861
 7985SOL    HW124854   0.274   1.070   0.816
 7985SOL    HW224855   0.286   0.933   0.904
 7986SOL     OW24856   4.782   3.255   6.988
 7986SOL    HW124857   4.803   3.170   6.940
 7986SOL    HW224858   4.695   3.247   0.009
 7987SOL     OW24859   0.892   2.228   4.612
 7987SOL    HW124860   0.903   2.306   4.674
 7987SOL    HW224861   0.833   2.254   4.536
 7988SOL     OW24862   2.596   2.268   5.706
 7988SOL    HW124863   2.601   2.194   5.774
 7988SOL    HW224864   2.675   2.263   5.645
 7989SOL     OW24865   3.607   3.584   5.581
 7989SOL    HW124866   3.575   3.673   5.611
 7989SOL    HW224867   3.573   3.513   5.643
 7990SOL     OW24868   2.144   2.677   4.645
 7990SOL    HW124869   2.197   2.724   4.716
 7990SOL    HW224870   2.190   2.591   4.620
 7991SOL     OW24871   0.691   3.110   5.141
 7991SOL    HW124872   0.669   3.078   5.049
 7991SOL    HW224873   0.775   3.065   5.173
 7992SOL     OW24874   2.345   0.994   0.770
 7992SOL    HW124875   2.292   1.064   0.721
 7992SOL    HW224876   2.430   1.035   0.804
 7993SOL     OW24877   2.311   6.357   6.343
 7993SOL    HW124878   2.314   6.334   6.440
 7993SOL    HW224879   2.239   6.424   6.327
 7994SOL     OW24880   6.000   0.859   4.452
 7994SOL    HW124881   6.053   0.944   4.445
 7994SOL    HW224882   6.004   0.825   4.546
 7995SOL     OW24883   4.539   5.916   3.629
 7995SOL    HW124884   4.599   5.960   3.562
 7995SOL    HW224885   4.581   5.831   3.661
 7996SOL     OW24886   3.943   0.904   5.368
 7996SOL    HW124887   4.033   0.881   5.407
 7996SOL    HW224888   3.937   0.870   5.275
 7997SOL     OW24889   5.589   2.741   2.071
 7997SOL    HW124890   5.563   2.836   2.055
 7997SOL    HW224891   5.601   2.726   2.169
 7998SOL     OW24892   5.892   4.831   6.519
 7998SOL    HW124893   5.819   4.859   6.457
 7998SOL    HW224894   5.963   4.783   6.468
 7999SOL     OW24895   1.737   0.550   5.753
 7999SOL    HW124896   1.710   0.457   5.730
 7999SOL    HW224897   1.803   0.549   5.828
 8000SOL     OW24898   5.962   0.227   5.893
 8000SOL    HW124899   5.948   0.313   5.941
 8000SOL    HW224900   5.875   0.195   5.855
 8001SOL     OW24901   2.358   6.134   1.308
 8001SOL    HW124902   2.370   6.035   1.302
 8001SOL    HW224903   2.438   6.174   1.353
 8002SOL     OW24904   4.905   2.848   5.570
 8002SOL    HW124905   4.818   2.808   5.600
 8002SOL    HW224906   4.913   2.838   5.471
 8003SOL     OW24907   3.920   5.928   3.882
 8003SOL    HW124908   3.954   5.990   3.952
 8003SOL    HW224909   3.928   5.971   3.792
 8004SOL     OW24910   1.144   3.981   2.777
 8004SOL    HW124911   1.158   4.025   2.688
 8004SOL    HW224912   1.228   3.986   2.831
 8005SOL     OW24913   2.706   0.442   2.608
 8005SOL    HW124914   2.706   0.349   2.646
 8005SOL    HW224915   2.627   0.492   2.643
 8006SOL     OW24916   3.587   6.257   1.123
 8006SOL    HW124917   3.617   6.279   1.030
 8006SOL    HW224918   3.647   6.303   1.189
 8007SOL     OW24919   0.422   1.441   4.079
 8007SOL    HW124920   0.445   1.413   3.986
 8007SOL    HW224921   0.460   1.374   4.144
 8008SOL     OW24922   6.165   5.437   0.551
 8008SOL    HW124923   6.161   5.339   0.568
 8008SOL    HW224924   6.081   5.480   0.582
 8009SOL     OW24925   6.858   6.859   4.045
 8009SOL    HW124926   6.824   6.786   3.986
 8009SOL    HW224927   6.953   6.842   4.069
 8010SOL     OW24928   1.832   3.046   6.536
 8010SOL    HW124929   1.769   3.119   6.559
 8010SOL    HW224930   1.866   3.060   6.443
 8011SOL     OW24931   2.333   2.234   0.760
 8011SOL    HW124932   2.352   2.159   0.823
 8011SOL    HW224933   2.338   2.321   0.811
 8012SOL     OW24934   2.926   0.519   3.704
 8012SOL    HW124935   2.961   0.573   3.628
 8012SOL    HW224936   2.963   0.426   3.700
 8013SOL     OW24937   6.096   5.430   4.660
 8013SOL    HW124938   6.146   5.382   4.732
 8013SOL    HW224939   6.103   5.529   4.675
 8014SOL     OW24940   2.054   0.082   6.837
 8014SOL    HW124941   1.955   0.099   6.837
 8014SOL    HW224942   2.082   0.055   6.929
 8015SOL     OW24943   1.799   2.033   6.550
 8015SOL    HW124944   1.792   1.960   6.617
 8015SOL    HW224945   1.719   2.093   6.558
 8016SOL     OW24946   3.813   6.576   1.466
 8016SOL    HW124947   3.856   6.660   1.500
 8016SOL    HW224948   3.875   6.499   1.481
 8017SOL     OW24949   5.971   3.980   5.118
 8017SOL    HW124950   5.934   3.906   5.174
 8017SOL    HW224951   5.958   3.958   5.021
 8018SOL     OW24952   5.457   2.914   4.621
 8018SOL    HW124953   5.510   2.920   4.536
 8018SOL    HW224954   5.360   2.904   4.599
 8019SOL     OW24955   2.123   4.914   1.462
 8019SOL    HW124956   2.170   4.971   1.530
 8019SOL    HW224957   2.043   4.872   1.505
 8020SOL     OW24958   5.867   6.366   6.321
 8020SOL    HW124959   5.775   6.388   6.354
 8020SOL    HW224960   5.864   6.280   6.270
 8021SOL     OW24961   0.400   0.790   0.921
 8021SOL    HW124962   0.419   0.692   0.932
 8021SOL    HW224963   0.486   0.841   0.919
 8022SOL     OW24964   4.509   5.549   3.435
 8022SOL    HW124965   4.524   5.621   3.367
 8022SOL    HW224966   4.518   5.588   3.527
 8023SOL     OW24967   6.470   6.626   3.743
 8023SOL    HW124968   6.445   6.533   3.719
 8023SOL    HW224969   6.568   6.630   3.762
 8024SOL     OW24970   4.986   5.570   4.581
 8024SOL    HW124971   5.057   5.532   4.522
 8024SOL    HW224972   4.899   5.570   4.533
 8025SOL     OW24973   3.098   6.083   0.572
 8025SOL    HW124974   3.189   6.070   0.534
 8025SOL    HW224975   3.100   6.155   0.641
 8026SOL     OW24976   1.800   2.823   0.742
 8026SOL    HW124977   1.797   2.724   0.750
 8026SOL    HW224978   1.721   2.863   0.790
 8027SOL     OW24979   5.055   3.591   5.778
 8027SOL    HW124980   5.068   3.535   5.860
 8027SOL    HW224981   4.962   3.628   5.778
 8028SOL     OW24982   5.493   5.675   0.490
 8028SOL    HW124983   5.561   5.601   0.490
 8028SOL    HW224984   5.438   5.669   0.573
 8029SOL     OW24985   3.370   4.739   0.199
 8029SOL    HW124986   3.315   4.799   0.257
 8029SOL    HW224987   3.464   4.774   0.195
 8030SOL     OW24988   6.037   3.753   0.301
 8030SOL    HW124989   6.026   3.793   0.209
 8030SOL    HW224990   6.091   3.669   0.294
 8031SOL     OW24991   3.253   5.841   1.262
 8031SOL    HW124992   3.329   5.857   1.199
 8031SOL    HW224993   3.174   5.896   1.233
 8032SOL     OW24994   4.762   4.844   5.417
 8032SOL    HW124995   4.836   4.811   5.477
 8032SOL    HW224996   4.784   4.936   5.386
 8033SOL     OW24997   6.074   2.341   0.768
 8033SOL    HW124998   6.120   2.320   0.853
 8033SOL    HW224999   5.996   2.401   0.786
 8034SOL     OW25000   6.069   1.108   4.706
 8034SOL    HW125001   6.071   1.109   4.606
 8034SOL    HW225002   6.163   1.114   4.741
 8035SOL     OW25003   5.540   6.261   0.038
 8035SOL    HW125004   5.471   6.332   0.054
 8035SOL    HW225005   5.607   6.261   0.112
 8036SOL     OW25006   1.727   4.687   1.403
 8036SOL    HW125007   1.672   4.738   1.337
 8036SOL    HW225008   1.680   4.602   1.426
 8037SOL     OW25009   2.100   3.192   1.647
 8037SOL    HW125010   2.099   3.139   1.732
 8037SOL    HW225011   2.009   3.191   1.606
 8038SOL     OW25012   6.531   1.541   3.769
 8038SOL    HW125013   6.623   1.515   3.798
 8038SOL    HW225014   6.509   1.630   3.809
 8039SOL     OW25015   3.146   6.948   4.348
 8039SOL    HW125016   3.073   6.978   4.286
 8039SOL    HW225017   3.157   6.849   4.340
 8040SOL     OW25018   6.151   5.962   0.942
 8040SOL    HW125019   6.063   5.917   0.930
 8040SOL    HW225020   6.204   5.955   0.857
 8041SOL     OW25021   4.099   1.886   0.553
 8041SOL    HW125022   4.071   1.981   0.560
 8041SOL    HW225023   4.191   1.881   0.514
 8042SOL     OW25024   2.688   4.336   0.888
 8042SOL    HW125025   2.719   4.305   0.978
 8042SOL    HW225026   2.763   4.328   0.822
 8043SOL     OW25027   2.329   0.279   1.448
 8043SOL    HW125028   2.255   0.214   1.464
 8043SOL    HW225029   2.417   0.233   1.463
 8044SOL     OW25030   3.261   3.982   1.428
 8044SOL    HW125031   3.217   3.918   1.491
 8044SOL    HW225032   3.292   4.063   1.478
 8045SOL     OW25033   6.274   2.857   3.501
 8045SOL    HW125034   6.251   2.952   3.525
 8045SOL    HW225035   6.340   2.822   3.567
 8046SOL     OW25036   7.022   5.147   5.973
 8046SOL    HW125037   0.029   5.078   6.037
 8046SOL    HW225038   6.990   5.227   6.024
 8047SOL     OW25039   2.632   6.253   4.052
 8047SOL    HW125040   2.607   6.335   4.002
 8047SOL    HW225041   2.707   6.273   4.114
 8048SOL     OW25042   6.291   0.590   6.153
 8048SOL    HW125043   6.387   0.612   6.137
 8048SOL    HW225044   6.234   0.667   6.126
 8049SOL     OW25045   1.382   6.313   0.226
 8049SOL    HW125046   1.408   6.253   0.151
 8049SOL    HW225047   1.332   6.392   0.190
 8050SOL     OW25048   0.855   3.299   0.649
 8050SOL    HW125049   0.832   3.362   0.575
 8050SOL    HW225050   0.778   3.239   0.668
 8051SOL     OW25051   3.627   2.078   3.749
 8051SOL    HW125052   3.719   2.107   3.721
 8051SOL    HW225053   3.564   2.085   3.672
 8052SOL     OW25054   3.483   2.115   2.963
 8052SOL    HW125055   3.567   2.112   3.017
 8052SOL    HW225056   3.407   2.080   3.017
 8053SOL     OW25057   3.881   3.352   1.953
 8053SOL    HW125058   3.945   3.427   1.968
 8053SOL    HW225059   3.843   3.321   2.040
 8054SOL     OW25060   4.529   6.015   4.314
 8054SOL    HW125061   4.573   6.093   4.359
 8054SOL    HW225062   4.483   5.958   4.382
 8055SOL     OW25063   0.968   6.953   5.041
 8055SOL    HW125064   1.038   6.947   4.970
 8055SOL    HW225065   0.994   6.896   5.119
 8056SOL     OW25066   4.306   1.654   2.545
 8056SOL    HW125067   4.297   1.671   2.643
 8056SOL    HW225068   4.340   1.561   2.530
 8057SOL     OW25069   3.644   6.974   3.241
 8057SOL    HW125070   3.562   7.003   3.290
 8057SOL    HW225071   3.621   6.896   3.182
 8058SOL     OW25072   2.491   0.133   3.681
 8058SOL    HW125073   2.541   0.073   3.743
 8058SOL    HW225074   2.555   0.170   3.613
 8059SOL     OW25075   2.530   1.324   4.158
 8059SOL    HW125076   2.536   1.415   4.117
 8059SOL    HW225077   2.533   1.332   4.258
 8060SOL     OW25078   0.850   1.983   5.175
 8060SOL    HW125079   0.923   1.924   5.139
 8060SOL    HW225080   0.849   1.977   5.275
 8061SOL     OW25081   6.794   5.883   1.714
 8061SOL    HW125082   6.701   5.906   1.744
 8061SOL    HW225083   6.840   5.831   1.786
 8062SOL     OW25084   2.104   3.252   2.119
 8062SOL    HW125085   2.175   3.216   2.180
 8062SOL    HW225086   2.145   3.322   2.060
 8063SOL     OW25087   2.555   3.390   6.806
 8063SOL    HW125088   2.483   3.331   6.842
 8063SOL    HW225089   2.645   3.349   6.825
 8064SOL     OW25090   6.363   3.262   6.988
 8064SOL    HW125091   6.326   3.268   6.895
 8064SOL    HW225092   6.294   3.224   0.022
 8065SOL     OW25093   4.507   6.730   6.470
 8065SOL    HW125094   4.549   6.655   6.418
 8065SOL    HW225095   4.431   6.693   6.523
 8066SOL     OW25096   2.724   7.019   1.976
 8066SOL    HW125097   2.695   6.940   2.030
 8066SOL    HW225098   2.731   0.073   2.036
 8067SOL     OW25099   4.828   2.058   2.092
 8067SOL    HW125100   4.742   2.075   2.045
 8067SOL    HW225101   4.823   2.091   2.186
 8068SOL     OW25102   6.409   4.730   4.277
 8068SOL    HW125103   6.324   4.678   4.268
 8068SOL    HW225104   6.479   4.691   4.217
 8069SOL     OW25105   0.991   6.312   2.326
 8069SOL    HW125106   0.898   6.320   2.290
 8069SOL    HW225107   1.032   6.403   2.333
 8070SOL     OW25108   3.796   6.979   2.258
 8070SOL    HW125109   3.748   0.022   2.206
 8070SOL    HW225110   3.872   7.021   2.308
 8071SOL     OW25111   3.769   6.501   0.620
 8071SOL    HW125112   3.685   6.447   0.608
 8071SOL    HW225113   3.805   6.526   0.530
 8072SOL     OW25114   5.242   1.045   2.475
 8072SOL    HW125115   5.276   0.973   2.415
 8072SOL    HW225116   5.295   1.045   2.560
 8073SOL     OW25117   4.643   0.100   6.314
 8073SOL    HW125118   4.656   0.018   6.260
 8073SOL    HW225119   4.546   0.110   6.338
 8074SOL     OW25120   3.207   4.166   7.015
 8074SOL    HW125121   3.264   4.165   0.071
 8074SOL    HW225122   3.194   4.072   6.983
 8075SOL     OW25123   5.575   2.192   2.862
 8075SOL    HW125124   5.585   2.106   2.812
 8075SOL    HW225125   5.484   2.197   2.903
 8076SOL     OW25126   4.778   2.891   6.159
 8076SOL    HW125127   4.720   2.929   6.086
 8076SOL    HW225128   4.732   2.901   6.247
 8077SOL     OW25129   1.221   0.753   0.372
 8077SOL    HW125130   1.153   0.715   0.309
 8077SOL    HW225131   1.272   0.679   0.416
 8078SOL     OW25132   5.872   3.185   0.584
 8078SOL    HW125133   5.787   3.160   0.538
 8078SOL    HW225134   5.851   3.248   0.660
 8079SOL     OW25135   0.805   1.661   1.543
 8079SOL    HW125136   0.780   1.732   1.478
 8079SOL    HW225137   0.798   1.571   1.498
 8080SOL     OW25138   3.126   5.366   0.510
 8080SOL    HW125139   3.197   5.340   0.445
 8080SOL    HW225140   3.040   5.379   0.462
 8081SOL     OW25141   6.122   1.766   5.295
 8081SOL    HW125142   6.050   1.744   5.228
 8081SOL    HW225143   6.106   1.714   5.379
 8082SOL     OW25144   6.432   3.411   4.143
 8082SOL    HW125145   6.449   3.472   4.220
 8082SOL    HW225146   6.391   3.326   4.176
 8083SOL     OW25147   5.748   2.217   4.375
 8083SOL    HW125148   5.847   2.231   4.377
 8083SOL    HW225149   5.706   2.286   4.317
 8084SOL     OW25150   6.862   6.953   0.891
 8084SOL    HW125151   6.800   6.915   0.822
 8084SOL    HW225152   6.818   6.949   0.981
 8085SOL     OW25153   6.053   2.105   0.623
 8085SOL    HW125154   6.058   2.191   0.673
 8085SOL    HW225155   6.009   2.035   0.680
 8086SOL     OW25156   3.031   6.360   5.685
 8086SOL    HW125157   3.070   6.268   5.671
 8086SOL    HW225158   3.103   6.423   5.713
 8087SOL     OW25159   2.696   3.808   0.680
 8087SOL    HW125160   2.604   3.844   0.668
 8087SOL    HW225161   2.701   3.758   0.767
 8088SOL     OW25162   4.328   0.367   2.649
 8088SOL    HW125163   4.292   0.320   2.729
 8088SOL    HW225164   4.425   0.388   2.664
 8089SOL     OW25165   5.902   2.972   0.346
 8089SOL    HW125166   5.988   2.965   0.398
 8089SOL    HW225167   5.843   3.040   0.389
 8090SOL     OW25168   4.451   2.385   5.199
 8090SOL    HW125169   4.370   2.429   5.160
 8090SOL    HW225170   4.474   2.304   5.145
 8091SOL     OW25171   2.678   4.967   5.686
 8091SOL    HW125172   2.688   5.065   5.672
 8091SOL    HW225173   2.600   4.950   5.746
 8092SOL     OW25174   6.752   2.106   4.053
 8092SOL    HW125175   6.695   2.132   4.131
 8092SOL    HW225176   6.840   2.072   4.086
 8093SOL     OW25177   5.483   5.660   1.349
 8093SOL    HW125178   5.416   5.720   1.394
 8093SOL    HW225179   5.439   5.610   1.275
 8094SOL     OW25180   1.264   3.962   4.589
 8094SOL    HW125181   1.347   3.973   4.643
 8094SOL    HW225182   1.283   3.905   4.509
 8095SOL     OW25183   6.062   3.385   4.765
 8095SOL    HW125184   6.035   3.418   4.674
 8095SOL    HW225185   6.139   3.322   4.756
 8096SOL     OW25186   3.818   0.477   0.164
 8096SOL    HW125187   3.888   0.408   0.182
 8096SOL    HW225188   3.761   0.488   0.246
 8097SOL     OW25189   4.588   0.991   4.540
 8097SOL    HW125190   4.584   1.037   4.451
 8097SOL    HW225191   4.652   1.040   4.599
 8098SOL     OW25192   2.835   1.276   4.266
 8098SOL    HW125193   2.849   1.373   4.250
 8098SOL    HW225194   2.756   1.244   4.215
 8099SOL     OW25195   4.819   6.332   4.870
 8099SOL    HW125196   4.908   6.293   4.847
 8099SOL    HW225197   4.759   6.260   4.905
 8100SOL     OW25198   0.017   6.206   0.826
 8100SOL    HW125199   0.002   6.138   0.897
 8100SOL    HW225200   6.960   6.216   0.771
 8101SOL     OW25201   0.763   5.348   2.931
 8101SOL    HW125202   0.665   5.340   2.914
 8101SOL    HW225203   0.780   5.346   3.030
 8102SOL     OW25204   0.176   0.157   6.319
 8102SOL    HW125205   0.212   0.250   6.330
 8102SOL    HW225206   0.232   0.093   6.371
 8103SOL     OW25207   2.638   1.679   2.375
 8103SOL    HW125208   2.611   1.775   2.377
 8103SOL    HW225209   2.732   1.670   2.407
 8104SOL     OW25210   2.888   6.274   5.983
 8104SOL    HW125211   2.858   6.246   5.892
 8104SOL    HW225212   2.964   6.216   6.012
 8105SOL     OW25213   2.241   2.800   2.574
 8105SOL    HW125214   2.268   2.893   2.550
 8105SOL    HW225215   2.149   2.801   2.613
 8106SOL     OW25216   0.248   4.044   5.199
 8106SOL    HW125217   0.245   4.081   5.106
 8106SOL    HW225218   0.155   4.034   5.234
 8107SOL     OW25219   1.232   5.628   6.742
 8107SOL    HW125220   1.247   5.550   6.681
 8107SOL    HW225221   1.171   5.601   6.816
 8108SOL     OW25222   2.124   3.584   5.101
 8108SOL    HW125223   2.040   3.603   5.152
 8108SOL    HW225224   2.199   3.567   5.165
 8109SOL     OW25225   1.174   5.685   5.205
 8109SOL    HW125226   1.248   5.739   5.245
 8109SOL    HW225227   1.094   5.688   5.265
 8110SOL     OW25228   1.414   4.507   0.696
 8110SOL    HW125229   1.462   4.581   0.649
 8110SOL    HW225230   1.399   4.533   0.792
 8111SOL     OW25231   3.179   6.016   4.293
 8111SOL    HW125232   3.266   6.054   4.262
 8111SOL    HW225233   3.138   5.961   4.220
 8112SOL     OW25234   4.200   0.951   4.809
 8112SOL    HW125235   4.184   0.858   4.776
 8112SOL    HW225236   4.265   0.949   4.885
 8113SOL     OW25237   3.809   3.194   5.969
 8113SOL    HW125238   3.856   3.126   6.025
 8113SOL    HW225239   3.752   3.251   6.028
 8114SOL     OW25240   3.316   3.570   1.756
 8114SOL    HW125241   3.276   3.483   1.783
 8114SOL    HW225242   3.413   3.570   1.777
 8115SOL     OW25243   3.792   2.010   0.701
 8115SOL    HW125244   3.819   1.917   0.676
 8115SOL    HW225245   3.856   2.046   0.769
 8116SOL     OW25246   4.888   1.260   5.591
 8116SOL    HW125247   4.804   1.272   5.644
 8116SOL    HW225248   4.939   1.346   5.590
 8117SOL     OW25249   2.432   1.874   6.076
 8117SOL    HW125250   2.475   1.845   6.162
 8117SOL    HW225251   2.345   1.827   6.065
 8118SOL     OW25252   1.147   2.313   4.273
 8118SOL    HW125253   1.165   2.216   4.256
 8118SOL    HW225254   1.209   2.369   4.217
 8119SOL     OW25255   1.200   6.070   1.726
 8119SOL    HW125256   1.207   6.000   1.655
 8119SOL    HW225257   1.228   6.158   1.689
 8120SOL     OW25258   4.575   4.111   1.653
 8120SOL    HW125259   4.507   4.152   1.714
 8120SOL    HW225260   4.560   4.013   1.648
 8121SOL     OW25261   6.793   6.704   3.174
 8121SOL    HW125262   6.748   6.763   3.107
 8121SOL    HW225263   6.780   6.741   3.266
 8122SOL     OW25264   0.761   5.700   1.502
 8122SOL    HW125265   0.850   5.672   1.468
 8122SOL    HW225266   0.744   5.795   1.476
 8123SOL     OW25267   0.618   5.590   0.328
 8123SOL    HW125268   0.665   5.502   0.329
 8123SOL    HW225269   0.659   5.651   0.396
 8124SOL     OW25270   1.030   6.430   3.143
 8124SOL    HW125271   1.103   6.367   3.116
 8124SOL    HW225272   1.069   6.503   3.200
 8125SOL     OW25273   5.921   5.444   3.010
 8125SOL    HW125274   5.862   5.395   3.074
 8125SOL    HW225275   5.871   5.519   2.968
 8126SOL     OW25276   6.707   4.465   2.551
 8126SOL    HW125277   6.790   4.496   2.505
 8126SOL    HW225278   6.628   4.477   2.491
 8127SOL     OW25279   3.825   4.720   1.059
 8127SOL    HW125280   3.742   4.770   1.085
 8127SOL    HW225281   3.903   4.755   1.112
 8128SOL     OW25282   3.411   2.292   5.334
 8128SOL    HW125283   3.347   2.358   5.296
 8128SOL    HW225284   3.411   2.209   5.279
 8129SOL     OW25285   5.000   6.182   6.659
 8129SOL    HW125286   4.990   6.256   6.727
 8129SOL    HW225287   4.948   6.102   6.689
 8130SOL     OW25288   0.667   6.582   0.336
 8130SOL    HW125289   0.640   6.513   0.404
 8130SOL    HW225290   0.741   6.546   0.279
 8131SOL     OW25291   1.815   1.473   0.396
 8131SOL    HW125292   1.885   1.499   0.330
 8131SOL    HW225293   1.735   1.533   0.385
 8132SOL     OW25294   6.437   4.512   2.843
 8132SOL    HW125295   6.374   4.507   2.765
 8132SOL    HW225296   6.415   4.439   2.908
 8133SOL     OW25297   0.334   5.952   2.185
 8133SOL    HW125298   0.387   5.905   2.115
 8133SOL    HW225299   0.390   5.965   2.266
 8134SOL     OW25300   1.746   2.813   2.192
 8134SOL    HW125301   1.655   2.854   2.193
 8134SOL    HW225302   1.815   2.885   2.180
 8135SOL     OW25303   4.058   6.168   2.429
 8135SOL    HW125304   4.068   6.253   2.481
 8135SOL    HW225305   4.134   6.160   2.364
 8136SOL     OW25306   2.484   5.806   1.668
 8136SOL    HW125307   2.432   5.884   1.633
 8136SOL    HW225308   2.426   5.753   1.730
 8137SOL     OW25309   3.191   3.485   4.862
 8137SOL    HW125310   3.274   3.524   4.821
 8137SOL    HW225311   3.216   3.420   4.933
 8138SOL     OW25312   5.087   0.922   3.843
 8138SOL    HW125313   5.139   0.972   3.773
 8138SOL    HW225314   5.044   0.988   3.904
 8139SOL     OW25315   1.747   3.286   5.023
 8139SOL    HW125316   1.664   3.332   4.991
 8139SOL    HW225317   1.814   3.283   4.949
 8140SOL     OW25318   4.498   0.869   0.935
 8140SOL    HW125319   4.555   0.936   0.889
 8140SOL    HW225320   4.507   0.880   1.034
 8141SOL     OW25321   6.346   0.153   5.892
 8141SOL    HW125322   6.289   0.180   5.971
 8141SOL    HW225323   6.370   0.234   5.840
 8142SOL     OW25324   2.459   5.444   0.545
 8142SOL    HW125325   2.512   5.446   0.460
 8142SOL    HW225326   2.506   5.498   0.615
 8143SOL     OW25327   5.542   4.895   0.708
 8143SOL    HW125328   5.629   4.857   0.678
 8143SOL    HW225329   5.554   4.992   0.730
 8144SOL     OW25330   0.864   6.124   0.329
 8144SOL    HW125331   0.771   6.108   0.297
 8144SOL    HW225332   0.881   6.068   0.411
 8145SOL     OW25333   5.659   5.968   6.902
 8145SOL    HW125334   5.715   6.024   6.963
 8145SOL    HW225335   5.580   5.933   6.952
 8146SOL     OW25336   6.743   6.261   4.887
 8146SOL    HW125337   6.801   6.342   4.894
 8146SOL    HW225338   6.647   6.289   4.883
 8147SOL     OW25339   2.017   1.008   5.935
 8147SOL    HW125340   2.023   0.919   5.889
 8147SOL    HW225341   1.935   1.011   5.992
 8148SOL     OW25342   4.784   3.773   0.514
 8148SOL    HW125343   4.776   3.859   0.564
 8148SOL    HW225344   4.820   3.790   0.422
 8149SOL     OW25345   1.084   0.301   5.352
 8149SOL    HW125346   1.114   0.295   5.447
 8149SOL    HW225347   1.041   0.390   5.336
 8150SOL     OW25348   0.769   3.868   0.697
 8150SOL    HW125349   0.751   3.894   0.792
 8150SOL    HW225350   0.866   3.879   0.677
 8151SOL     OW25351   6.325   5.492   3.177
 8151SOL    HW125352   6.424   5.487   3.164
 8151SOL    HW225353   6.281   5.500   3.087
 8152SOL     OW25354   5.093   1.462   2.795
 8152SOL    HW125355   5.131   1.498   2.711
 8152SOL    HW225356   5.165   1.450   2.863
 8153SOL     OW25357   0.380   1.854   2.462
 8153SOL    HW125358   0.389   1.758   2.438
 8153SOL    HW225359   0.354   1.907   2.380
 8154SOL     OW25360   1.919   0.610   3.105
 8154SOL    HW125361   2.010   0.623   3.067
 8154SOL    HW225362   1.918   0.640   3.200
 8155SOL     OW25363   1.677   4.743   4.116
 8155SOL    HW125364   1.768   4.736   4.076
 8155SOL    HW225365   1.611   4.695   4.058
 8156SOL     OW25366   1.158   4.082   0.435
 8156SOL    HW125367   1.244   4.056   0.392
 8156SOL    HW225368   1.125   4.167   0.394
 8157SOL     OW25369   6.709   4.091   5.199
 8157SOL    HW125370   6.747   4.112   5.108
 8157SOL    HW225371   6.721   3.994   5.218
 8158SOL     OW25372   5.873   5.606   6.488
 8158SOL    HW125373   5.883   5.704   6.507
 8158SOL    HW225374   5.779   5.586   6.460
 8159SOL     OW25375   2.534   0.245   5.193
 8159SOL    HW125376   2.477   0.195   5.259
 8159SOL    HW225377   2.492   0.334   5.175
 8160SOL     OW25378   6.001   1.628   2.338
 8160SOL    HW125379   5.961   1.719   2.340
 8160SOL    HW225380   5.937   1.562   2.378
 8161SOL     OW25381   6.202   2.618   2.233
 8161SOL    HW125382   6.200   2.668   2.147
 8161SOL    HW225383   6.297   2.603   2.261
 8162SOL     OW25384   0.864   5.532   4.923
 8162SOL    HW125385   0.962   5.516   4.931
 8162SOL    HW225386   0.820   5.515   5.011
 8163SOL     OW25387   4.384   4.824   5.596
 8163SOL    HW125388   4.409   4.740   5.645
 8163SOL    HW225389   4.297   4.811   5.549
 8164SOL     OW25390   5.699   1.671   0.690
 8164SOL    HW125391   5.706   1.709   0.598
 8164SOL    HW225392   5.622   1.714   0.738
 8165SOL     OW25393   0.674   1.723   6.378
 8165SOL    HW125394   0.651   1.778   6.458
 8165SOL    HW225395   0.706   1.784   6.305
 8166SOL     OW25396   1.965   1.584   4.940
 8166SOL    HW125397   2.032   1.639   4.989
 8166SOL    HW225398   1.881   1.577   4.994
 8167SOL     OW25399   1.664   2.953   3.581
 8167SOL    HW125400   1.688   3.041   3.622
 8167SOL    HW225401   1.717   2.939   3.497
 8168SOL     OW25402   1.886   7.024   2.574
 8168SOL    HW125403   1.906   6.933   2.537
 8168SOL    HW225404   1.965   0.057   2.559
 8169SOL     OW25405   4.903   3.782   0.933
 8169SOL    HW125406   4.940   3.758   0.843
 8169SOL    HW225407   4.839   3.711   0.963
 8170SOL     OW25408   6.727   4.833   2.540
 8170SOL    HW125409   6.781   4.782   2.607
 8170SOL    HW225410   6.784   4.904   2.498
 8171SOL     OW25411   2.402   1.825   1.221
 8171SOL    HW125412   2.448   1.914   1.220
 8171SOL    HW225413   2.421   1.776   1.136
 8172SOL     OW25414   1.220   2.782   0.778
 8172SOL    HW125415   1.186   2.728   0.855
 8172SOL    HW225416   1.208   2.730   0.693
 8173SOL     OW25417   5.687   0.509   1.485
 8173SOL    HW125418   5.750   0.569   1.436
 8173SOL    HW225419   5.659   0.551   1.571
 8174SOL     OW25420   2.423   6.211   3.676
 8174SOL    HW125421   2.382   6.243   3.591
 8174SOL    HW225422   2.475   6.285   3.718
 8175SOL     OW25423   0.962   2.229   5.983
 8175SOL    HW125424   0.900   2.260   6.055
 8175SOL    HW225425   0.988   2.307   5.926
 8176SOL     OW25426   2.868   4.555   0.370
 8176SOL    HW125427   2.783   4.561   0.423
 8176SOL    HW225428   2.927   4.484   0.409
 8177SOL     OW25429   2.931   1.212   3.677
 8177SOL    HW125430   2.975   1.196   3.589
 8177SOL    HW225431   2.832   1.216   3.666
 8178SOL     OW25432   2.662   6.479   1.123
 8178SOL    HW125433   2.655   6.568   1.168
 8178SOL    HW225434   2.667   6.407   1.193
 8179SOL     OW25435   5.681   0.442   3.479
 8179SOL    HW125436   5.692   0.533   3.518
 8179SOL    HW225437   5.770   0.408   3.448
 8180SOL     OW25438   5.116   6.004   0.297
 8180SOL    HW125439   5.071   6.093   0.301
 8180SOL    HW225440   5.215   6.017   0.303
 8181SOL     OW25441   0.258   0.457   6.633
 8181SOL    HW125442   0.158   0.459   6.646
 8181SOL    HW225443   0.286   0.537   6.580
 8182SOL     OW25444   3.214   3.743   3.718
 8182SOL    HW125445   3.190   3.676   3.788
 8182SOL    HW225446   3.312   3.762   3.723
 8183SOL     OW25447   6.707   0.493   5.576
 8183SOL    HW125448   6.658   0.439   5.644
 8183SOL    HW225449   6.773   0.552   5.623
 8184SOL     OW25450   7.017   5.724   6.350
 8184SOL    HW125451   6.973   5.773   6.425
 8184SOL    HW225452   0.064   5.667   6.386
 8185SOL     OW25453   0.007   5.951   5.883
 8185SOL    HW125454   6.969   5.913   5.949
 8185SOL    HW225455   0.052   6.031   5.922
 8186SOL     OW25456   1.655   5.473   0.402
 8186SOL    HW125457   1.666   5.377   0.428
 8186SOL    HW225458   1.672   5.530   0.482
 8187SOL     OW25459   1.441   0.015   5.197
 8187SOL    HW125460   1.368   0.081   5.218
 8187SOL    HW225461   1.489   7.017   5.281
 8188SOL     OW25462   1.910   2.860   2.620
 8188SOL    HW125463   1.915   2.927   2.546
 8188SOL    HW225464   1.857   2.781   2.590
 8189SOL     OW25465   5.678   5.147   3.370
 8189SOL    HW125466   5.580   5.153   3.386
 8189SOL    HW225467   5.713   5.061   3.409
 8190SOL     OW25468   6.472   4.114   2.916
 8190SOL    HW125469   6.457   4.193   2.975
 8190SOL    HW225470   6.569   4.105   2.895
 8191SOL     OW25471   4.149   5.368   1.033
 8191SOL    HW125472   4.122   5.306   1.108
 8191SOL    HW225473   4.206   5.441   1.070
 8192SOL     OW25474   0.104   5.879   3.283
 8192SOL    HW125475   0.185   5.909   3.334
 8192SOL    HW225476   0.130   5.863   3.187
 8193SOL     OW25477   0.863   4.630   4.105
 8193SOL    HW125478   0.765   4.646   4.104
 8193SOL    HW225479   0.910   4.706   4.060
 8194SOL     OW25480   4.453   0.374   1.741
 8194SOL    HW125481   4.423   0.420   1.657
 8194SOL    HW225482   4.406   0.285   1.748
 8195SOL     OW25483   6.275   0.047   4.052
 8195SOL    HW125484   6.269   0.109   3.974
 8195SOL    HW225485   6.217   0.081   4.127
 8196SOL     OW25486   4.801   1.177   1.802
 8196SOL    HW125487   4.740   1.219   1.870
 8196SOL    HW225488   4.770   1.201   1.710
 8197SOL     OW25489   3.730   2.054   3.045
 8197SOL    HW125490   3.794   2.119   3.085
 8197SOL    HW225491   3.731   1.970   3.100
 8198SOL     OW25492   1.461   5.908   1.547
 8198SOL    HW125493   1.439   5.887   1.642
 8198SOL    HW225494   1.420   5.839   1.487
 8199SOL     OW25495   5.890   2.695   0.301
 8199SOL    HW125496   5.942   2.663   0.380
 8199SOL    HW225497   5.885   2.794   0.302
 8200SOL     OW25498   4.798   3.594   0.711
 8200SOL    HW125499   4.713   3.600   0.763
 8200SOL    HW225500   4.797   3.661   0.637
 8201SOL     OW25501   6.148   6.995   5.373
 8201SOL    HW125502   6.113   6.904   5.393
 8201SOL    HW225503   6.246   6.998   5.394
 8202SOL     OW25504   1.168   6.556   1.583
 8202SOL    HW125505   1.207   6.648   1.577
 8202SOL    HW225506   1.083   6.552   1.532
 8203SOL     OW25507   1.886   3.505   1.362
 8203SOL    HW125508   1.950   3.564   1.413
 8203SOL    HW225509   1.891   3.412   1.398
 8204SOL     OW25510   2.912   3.560   0.866
 8204SOL    HW125511   2.931   3.609   0.781
 8204SOL    HW225512   2.843   3.490   0.848
 8205SOL     OW25513   1.068   4.407   6.858
 8205SOL    HW125514   0.987   4.457   6.825
 8205SOL    HW225515   1.108   4.457   6.935
 8206SOL     OW25516   2.956   0.969   1.143
 8206SOL    HW125517   3.031   0.923   1.094
 8206SOL    HW225518   2.993   1.047   1.194
 8207SOL     OW25519   3.624   3.999   4.296
 8207SOL    HW125520   3.684   3.925   4.328
 8207SOL    HW225521   3.593   4.052   4.375
 8208SOL     OW25522   2.052   0.513   0.372
 8208SOL    HW125523   1.975   0.569   0.402
 8208SOL    HW225524   2.138   0.557   0.399
 8209SOL     OW25525   6.155   1.579   4.787
 8209SOL    HW125526   6.226   1.618   4.846
 8209SOL    HW225527   6.093   1.651   4.758
 8210SOL     OW25528   2.305   2.595   0.022
 8210SOL    HW125529   2.403   2.580   0.009
 8210SOL    HW225530   2.265   2.632   6.965
 8211SOL     OW25531   4.031   4.734   1.253
 8211SOL    HW125532   4.047   4.661   1.320
 8211SOL    HW225533   4.116   4.752   1.202
 8212SOL     OW25534   1.708   2.715   2.907
 8212SOL    HW125535   1.763   2.781   2.959
 8212SOL    HW225536   1.647   2.764   2.845
 8213SOL     OW25537   6.575   4.987   1.313
 8213SOL    HW125538   6.630   5.070   1.305
 8213SOL    HW225539   6.625   4.919   1.367
 8214SOL     OW25540   5.593   3.534   3.309
 8214SOL    HW125541   5.623   3.441   3.286
 8214SOL    HW225542   5.500   3.548   3.274
 8215SOL     OW25543   3.419   4.886   2.940
 8215SOL    HW125544   3.472   4.897   3.025
 8215SOL    HW225545   3.322   4.879   2.963
 8216SOL     OW25546   5.791   3.811   3.550
 8216SOL    HW125547   5.779   3.900   3.592
 8216SOL    HW225548   5.702   3.766   3.542
 8217SOL     OW25549   2.046   6.191   0.985
 8217SOL    HW125550   2.050   6.227   0.892
 8217SOL    HW225551   1.958   6.215   1.026
 8218SOL     OW25552   6.293   2.659   6.903
 8218SOL    HW125553   6.336   2.701   6.983
 8218SOL    HW225554   6.344   2.578   6.876
 8219SOL     OW25555   5.540   1.737   0.023
 8219SOL    HW125556   5.485   1.807   7.005
 8219SOL    HW225557   5.480   1.666   0.060
 8220SOL     OW25558   4.235   3.843   1.716
 8220SOL    HW125559   4.167   3.781   1.754
 8220SOL    HW225560   4.200   3.936   1.719
 8221SOL     OW25561   5.214   5.450   2.760
 8221SOL    HW125562   5.145   5.378   2.753
 8221SOL    HW225563   5.296   5.423   2.709
 8222SOL     OW25564   6.653   2.201   2.233
 8222SOL    HW125565   6.650   2.107   2.197
 8222SOL    HW225566   6.647   2.198   2.333
 8223SOL     OW25567   0.247   5.253   5.761
 8223SOL    HW125568   0.169   5.210   5.807
 8223SOL    HW225569   0.307   5.182   5.724
 8224SOL     OW25570   1.327   2.936   3.329
 8224SOL    HW125571   1.229   2.922   3.343
 8224SOL    HW225572   1.345   2.946   3.231
 8225SOL     OW25573   5.022   1.544   0.481
 8225SOL    HW125574   5.070   1.485   0.545
 8225SOL    HW225575   4.937   1.578   0.523
 8226SOL     OW25576   4.065   0.105   0.405
 8226SOL    HW125577   3.969   0.084   0.384
 8226SOL    HW225578   4.085   0.082   0.500
 8227SOL     OW25579   6.165   3.343   2.716
 8227SOL    HW125580   6.115   3.427   2.739
 8227SOL    HW225581   6.163   3.329   2.617
 8228SOL     OW25582   0.184   2.343   4.761
 8228SOL    HW125583   0.173   2.275   4.833
 8228SOL    HW225584   0.273   2.388   4.771
 8229SOL     OW25585   3.572   5.630   0.637
 8229SOL    HW125586   3.478   5.607   0.613
 8229SOL    HW225587   3.577   5.654   0.734
 8230SOL     OW25588   5.132   0.210   4.371
 8230SOL    HW125589   5.191   0.131   4.387
 8230SOL    HW225590   5.143   0.241   4.276
 8231SOL     OW25591   4.493   6.116   1.574
 8231SOL    HW125592   4.406   6.166   1.573
 8231SOL    HW225593   4.505   6.072   1.663
 8232SOL     OW25594   3.188   1.811   6.746
 8232SOL    HW125595   3.249   1.779   6.673
 8232SOL    HW225596   3.166   1.907   6.731
 8233SOL     OW25597   0.300   4.960   6.468
 8233SOL    HW125598   0.353   4.875   6.470
 8233SOL    HW225599   0.342   5.027   6.528
 8234SOL     OW25600   3.459   2.938   6.962
 8234SOL    HW125601   3.514   2.900   6.888
 8234SOL    HW225602   3.433   3.032   6.939
 8235SOL     OW25603   4.483   2.456   6.988
 8235SOL    HW125604   4.487   2.556   6.996
 8235SOL    HW225605   4.422   2.420   0.032
 8236SOL     OW25606   5.771   2.450   0.862
 8236SOL    HW125607   5.799   2.450   0.958
 8236SOL    HW225608   5.734   2.360   0.838
 8237SOL     OW25609   4.024   5.857   5.416
 8237SOL    HW125610   3.936   5.900   5.435
 8237SOL    HW225611   4.098   5.917   5.444
 8238SOL     OW25612   1.955   0.816   6.568
 8238SOL    HW125613   1.990   0.889   6.509
 8238SOL    HW225614   1.898   0.754   6.514
 8239SOL     OW25615   7.015   1.220   6.517
 8239SOL    HW125616   0.061   1.257   6.575
 8239SOL    HW225617   6.929   1.268   6.537
 8240SOL     OW25618   3.719   4.101   3.600
 8240SOL    HW125619   3.786   4.029   3.582
 8240SOL    HW225620   3.684   4.136   3.513
 8241SOL     OW25621   4.557   6.688   1.017
 8241SOL    HW125622   4.635   6.656   1.070
 8241SOL    HW225623   4.567   6.786   0.999
 8242SOL     OW25624   1.092   3.921   5.454
 8242SOL    HW125625   1.022   3.983   5.419
 8242SOL    HW225626   1.176   3.972   5.471
 8243SOL     OW25627   0.907   3.532   4.709
 8243SOL    HW125628   0.831   3.476   4.744
 8243SOL    HW225629   0.894   3.627   4.738
 8244SOL     OW25630   1.258   5.929   4.697
 8244SOL    HW125631   1.301   5.956   4.782
 8244SOL    HW225632   1.328   5.905   4.629
 8245SOL     OW25633   3.984   3.562   0.665
 8245SOL    HW125634   4.077   3.583   0.637
 8245SOL    HW225635   3.926   3.550   0.585
 8246SOL     OW25636   5.205   4.217   5.674
 8246SOL    HW125637   5.122   4.208   5.729
 8246SOL    HW225638   5.225   4.130   5.628
 8247SOL     OW25639   1.110   0.011   1.953
 8247SOL    HW125640   1.106   0.105   1.921
 8247SOL    HW225641   1.055   6.979   1.894
 8248SOL     OW25642   0.457   4.448   3.638
 8248SOL    HW125643   0.410   4.367   3.674
 8248SOL    HW225644   0.543   4.460   3.686
 8249SOL     OW25645   1.644   5.585   3.364
 8249SOL    HW125646   1.665   5.561   3.269
 8249SOL    HW225647   1.622   5.683   3.369
 8250SOL     OW25648   3.893   3.763   2.156
 8250SOL    HW125649   3.945   3.693   2.204
 8250SOL    HW225650   3.956   3.825   2.109
 8251SOL     OW25651   6.167   1.441   5.168
 8251SOL    HW125652   6.098   1.419   5.098
 8251SOL    HW225653   6.123   1.447   5.257
 8252SOL     OW25654   1.171   3.215   4.648
 8252SOL    HW125655   1.227   3.268   4.585
 8252SOL    HW225656   1.204   3.120   4.649
 8253SOL     OW25657   2.707   2.690   5.609
 8253SOL    HW125658   2.734   2.769   5.665
 8253SOL    HW225659   2.781   2.667   5.546
 8254SOL     OW25660   4.172   6.230   3.662
 8254SOL    HW125661   4.144   6.159   3.597
 8254SOL    HW225662   4.107   6.305   3.660
 8255SOL     OW25663   4.526   5.229   3.703
 8255SOL    HW125664   4.610   5.218   3.756
 8255SOL    HW225665   4.447   5.217   3.763
 8256SOL     OW25666   6.504   2.144   4.242
 8256SOL    HW125667   6.490   2.136   4.341
 8256SOL    HW225668   6.459   2.068   4.196
 8257SOL     OW25669   6.385   4.292   4.466
 8257SOL    HW125670   6.423   4.216   4.413
 8257SOL    HW225671   6.306   4.260   4.517
 8258SOL     OW25672   4.681   1.876   6.914
 8258SOL    HW125673   4.717   1.836   6.830
 8258SOL    HW225674   4.754   1.921   6.964
 8259SOL     OW25675   3.733   1.335   1.767
 8259SOL    HW125676   3.825   1.318   1.732
 8259SOL    HW225677   3.672   1.358   1.691
 8260SOL     OW25678   2.734   6.071   0.098
 8260SOL    HW125679   2.792   6.041   0.174
 8260SOL    HW225680   2.639   6.072   0.127
 8261SOL     OW25681   5.516   1.328   1.369
 8261SOL    HW125682   5.418   1.307   1.365
 8261SOL    HW225683   5.565   1.268   1.305
 8262SOL     OW25684   1.067   1.998   0.594
 8262SOL    HW125685   1.164   2.023   0.604
 8262SOL    HW225686   1.010   2.078   0.613
 8263SOL     OW25687   5.977   0.846   0.342
 8263SOL    HW125688   6.048   0.898   0.294
 8263SOL    HW225689   5.999   0.842   0.439
 8264SOL     OW25690   2.058   4.256   2.693
 8264SOL    HW125691   2.113   4.253   2.610
 8264SOL    HW225692   2.077   4.340   2.743
 8265SOL     OW25693   1.908   1.186   1.863
 8265SOL    HW125694   1.905   1.281   1.893
 8265SOL    HW225695   1.910   1.183   1.763
 8266SOL     OW25696   3.274   0.288   3.246
 8266SOL    HW125697   3.277   0.261   3.150
 8266SOL    HW225698   3.198   0.351   3.260
 8267SOL     OW25699   0.535   3.528   0.572
 8267SOL    HW125700   0.451   3.476   0.556
 8267SOL    HW225701   0.540   3.556   0.668
 8268SOL     OW25702   3.322   5.976   5.907
 8268SOL    HW125703   3.369   5.888   5.914
 8268SOL    HW225704   3.247   5.979   5.972
 8269SOL     OW25705   5.930   2.007   1.123
 8269SOL    HW125706   6.004   2.032   1.187
 8269SOL    HW225707   5.864   1.949   1.169
 8270SOL     OW25708   3.205   6.355   4.018
 8270SOL    HW125709   3.109   6.356   3.993
 8270SOL    HW225710   3.258   6.406   3.950
 8271SOL     OW25711   6.885   2.241   1.835
 8271SOL    HW125712   6.961   2.175   1.838
 8271SOL    HW225713   6.901   2.306   1.761
 8272SOL     OW25714   3.509   1.077   3.865
 8272SOL    HW125715   3.478   1.139   3.793
 8272SOL    HW225716   3.599   1.041   3.842
 8273SOL     OW25717   2.171   6.685   1.348
 8273SOL    HW125718   2.186   6.679   1.446
 8273SOL    HW225719   2.073   6.675   1.328
 8274SOL     OW25720   5.146   4.612   3.256
 8274SOL    HW125721   5.074   4.602   3.324
 8274SOL    HW225722   5.232   4.575   3.291
 8275SOL     OW25723   4.870   2.291   6.422
 8275SOL    HW125724   4.790   2.277   6.480
 8275SOL    HW225725   4.951   2.253   6.468
 8276SOL     OW25726   0.643   2.057   3.092
 8276SOL    HW125727   0.556   2.023   3.128
 8276SOL    HW225728   0.718   2.023   3.149
 8277SOL     OW25729   6.376   0.510   6.816
 8277SOL    HW125730   6.443   0.449   6.772
 8277SOL    HW225731   6.415   0.602   6.823
 8278SOL     OW25732   1.588   2.705   6.826
 8278SOL    HW125733   1.648   2.763   6.771
 8278SOL    HW225734   1.625   2.696   6.918
 8279SOL     OW25735   6.787   6.185   4.071
 8279SOL    HW125736   6.799   6.167   3.973
 8279SOL    HW225737   6.724   6.117   4.109
 8280SOL     OW25738   2.840   2.254   6.184
 8280SOL    HW125739   2.783   2.308   6.246
 8280SOL    HW225740   2.912   2.312   6.145
 8281SOL     OW25741   6.097   5.511   2.264
 8281SOL    HW125742   6.119   5.429   2.212
 8281SOL    HW225743   6.169   5.530   2.330
 8282SOL     OW25744   5.487   2.347   5.819
 8282SOL    HW125745   5.559   2.407   5.784
 8282SOL    HW225746   5.484   2.264   5.763
 8283SOL     OW25747   1.754   3.679   5.662
 8283SOL    HW125748   1.840   3.725   5.641
 8283SOL    HW225749   1.741   3.678   5.761
 8284SOL     OW25750   6.197   4.514   1.400
 8284SOL    HW125751   6.213   4.415   1.393
 8284SOL    HW225752   6.110   4.536   1.355
 8285SOL     OW25753   3.758   3.394   4.262
 8285SOL    HW125754   3.695   3.463   4.298
 8285SOL    HW225755   3.732   3.304   4.297
 8286SOL     OW25756   6.876   1.934   6.567
 8286SOL    HW125757   6.792   1.881   6.554
 8286SOL    HW225758   6.933   1.927   6.486
 8287SOL     OW25759   0.901   5.678   4.476
 8287SOL    HW125760   0.989   5.662   4.519
 8287SOL    HW225761   0.862   5.764   4.510
 8288SOL     OW25762   2.786   2.351   3.092
 8288SOL    HW125763   2.859   2.283   3.090
 8288SOL    HW225764   2.781   2.398   3.004
 8289SOL     OW25765   0.157   6.251   0.147
 8289SOL    HW125766   0.109   6.172   0.186
 8289SOL    HW225767   0.090   6.323   0.128
 8290SOL     OW25768   6.708   2.530   0.773
 8290SOL    HW125769   6.698   2.498   0.867
 8290SOL    HW225770   6.804   2.546   0.753
 8291SOL     OW25771   4.162   6.870   1.118
 8291SOL    HW125772   4.133   6.819   1.036
 8291SOL    HW225773   4.084   6.922   1.153
 8292SOL     OW25774   3.244   6.686   6.456
 8292SOL    HW125775   3.186   6.676   6.376
 8292SOL    HW225776   3.208   6.759   6.515
 8293SOL     OW25777   5.445   5.493   4.795
 8293SOL    HW125778   5.427   5.541   4.709
 8293SOL    HW225779   5.376   5.421   4.809
 8294SOL     OW25780   5.559   2.740   0.340
 8294SOL    HW125781   5.597   2.771   0.253
 8294SOL    HW225782   5.621   2.673   0.381
 8295SOL     OW25783   4.891   4.046   0.382
 8295SOL    HW125784   4.852   4.123   0.432
 8295SOL    HW225785   4.975   4.075   0.337
 8296SOL     OW25786   1.270   5.442   7.016
 8296SOL    HW125787   1.214   5.525   7.014
 8296SOL    HW225788   1.361   5.461   6.980
 8297SOL     OW25789   0.711   2.476   3.304
 8297SOL    HW125790   0.631   2.501   3.359
 8297SOL    HW225791   0.681   2.443   3.215
 8298SOL     OW25792   4.723   1.640   1.604
 8298SOL    HW125793   4.821   1.639   1.624
 8298SOL    HW225794   4.671   1.651   1.688
 8299SOL     OW25795   6.743   2.341   1.535
 8299SOL    HW125796   6.663   2.371   1.587
 8299SOL    HW225797   6.785   2.262   1.581
 8300SOL     OW25798   0.776   4.740   3.542
 8300SOL    HW125799   0.840   4.816   3.546
 8300SOL    HW225800   0.773   4.704   3.449
 8301SOL     OW25801   3.413   3.205   6.887
 8301SOL    HW125802   3.349   3.276   6.917
 8301SOL    HW225803   3.405   3.193   6.788
 8302SOL     OW25804   5.491   5.934   6.282
 8302SOL    HW125805   5.516   5.881   6.201
 8302SOL    HW225806   5.393   5.954   6.280
 8303SOL     OW25807   0.238   0.466   5.433
 8303SOL    HW125808   0.227   0.449   5.530
 8303SOL    HW225809   0.307   0.537   5.419
 8304SOL     OW25810   0.256   3.388   6.667
 8304SOL    HW125811   0.324   3.452   6.703
 8304SOL    HW225812   0.302   3.310   6.625
 8305SOL     OW25813   3.119   6.166   3.822
 8305SOL    HW125814   3.137   6.067   3.822
 8305SOL    HW225815   3.052   6.188   3.892
 8306SOL     OW25816   0.945   3.392   4.042
 8306SOL    HW125817   1.023   3.371   4.101
 8306SOL    HW225818   0.938   3.322   3.971
 8307SOL     OW25819   2.855   5.722   1.177
 8307SOL    HW125820   2.926   5.791   1.186
 8307SOL    HW225821   2.882   5.639   1.226
 8308SOL     OW25822   3.850   6.478   3.025
 8308SOL    HW125823   3.779   6.417   2.991
 8308SOL    HW225824   3.849   6.563   2.973
 8309SOL     OW25825   5.171   6.053   2.198
 8309SOL    HW125826   5.138   6.110   2.273
 8309SOL    HW225827   5.099   6.045   2.129
 8310SOL     OW25828   6.988   4.274   0.271
 8310SOL    HW125829   0.023   4.255   0.348
 8310SOL    HW225830   7.006   4.366   0.236
 8311SOL     OW25831   6.480   0.155   0.562
 8311SOL    HW125832   6.463   0.071   0.614
 8311SOL    HW225833   6.408   0.168   0.494
 8312SOL     OW25834   5.396   6.473   1.669
 8312SOL    HW125835   5.338   6.410   1.720
 8312SOL    HW225836   5.444   6.424   1.597
 8313SOL     OW25837   3.365   1.034   2.991
 8313SOL    HW125838   3.268   1.051   2.978
 8313SOL    HW225839   3.418   1.090   2.927
 8314SOL     OW25840   6.542   6.837   3.547
 8314SOL    HW125841   6.482   6.762   3.578
 8314SOL    HW225842   6.627   6.799   3.511
 8315SOL     OW25843   4.891   4.436   6.315
 8315SOL    HW125844   4.809   4.488   6.338
 8315SOL    HW225845   4.960   4.447   6.387
 8316SOL     OW25846   2.030   5.357   6.718
 8316SOL    HW125847   2.107   5.408   6.755
 8316SOL    HW225848   1.944   5.401   6.745
 8317SOL     OW25849   2.137   4.649   2.139
 8317SOL    HW125850   2.134   4.616   2.044
 8317SOL    HW225851   2.055   4.621   2.187
 8318SOL     OW25852   3.575   1.329   5.590
 8318SOL    HW125853   3.605   1.404   5.532
 8318SOL    HW225854   3.541   1.254   5.532
 8319SOL     OW25855   3.634   0.678   4.776
 8319SOL    HW125856   3.612   0.752   4.840
 8319SOL    HW225857   3.571   0.682   4.699
 8320SOL     OW25858   3.557   4.489   1.672
 8320SOL    HW125859   3.543   4.399   1.714
 8320SOL    HW225860   3.587   4.553   1.742
 8321SOL     OW25861   0.530   0.785   1.518
 8321SOL    HW125862   0.466   0.858   1.494
 8321SOL    HW225863   0.484   0.718   1.576
 8322SOL     OW25864   6.280   6.663   0.097
 8322SOL    HW125865   6.320   6.633   0.184
 8322SOL    HW225866   6.180   6.660   0.103
 8323SOL     OW25867   1.638   1.982   1.714
 8323SOL    HW125868   1.653   1.904   1.654
 8323SOL    HW225869   1.703   2.055   1.691
 8324SOL     OW25870   6.905   1.262   1.706
 8324SOL    HW125871   6.948   1.308   1.783
 8324SOL    HW225872   6.870   1.330   1.641
 8325SOL     OW25873   3.391   2.886   3.665
 8325SOL    HW125874   3.314   2.949   3.671
 8325SOL    HW225875   3.443   2.887   3.750
 8326SOL     OW25876   3.650   3.444   5.830
 8326SOL    HW125877   3.746   3.460   5.809
 8326SOL    HW225878   3.615   3.370   5.772
 8327SOL     OW25879   5.039   1.865   6.180
 8327SOL    HW125880   5.059   1.843   6.084
 8327SOL    HW225881   4.965   1.931   6.185
 8328SOL     OW25882   2.753   2.503   5.279
 8328SOL    HW125883   2.697   2.577   5.241
 8328SOL    HW225884   2.708   2.415   5.265
 8329SOL     OW25885   6.982   2.931   5.056
 8329SOL    HW125886   6.997   3.011   5.000
 8329SOL    HW225887   7.009   2.849   5.006
 8330SOL     OW25888   2.995   6.641   7.013
 8330SOL    HW125889   2.933   6.691   6.953
 8330SOL    HW225890   3.043   6.704   0.047
 8331SOL     OW25891   2.591   0.244   0.825
 8331SOL    HW125892   2.527   0.314   0.796
 8331SOL    HW225893   2.603   0.177   0.752
 8332SOL     OW25894   5.049   6.088   2.773
 8332SOL    HW125895   5.062   6.185   2.793
 8332SOL    HW225896   5.071   6.034   2.854
 8333SOL     OW25897   0.753   5.670   6.175
 8333SOL    HW125898   0.712   5.737   6.113
 8333SOL    HW225899   0.802   5.717   6.248
 8334SOL     OW25900   6.018   1.129   3.673
 8334SOL    HW125901   6.103   1.097   3.714
 8334SOL    HW225902   5.982   1.205   3.727
 8335SOL     OW25903   5.794   6.860   5.649
 8335SOL    HW125904   5.883   6.846   5.692
 8335SOL    HW225905   5.798   6.941   5.590
 8336SOL     OW25906   0.363   2.321   2.166
 8336SOL    HW125907   0.390   2.318   2.262
 8336SOL    HW225908   0.441   2.350   2.110
 8337SOL     OW25909   0.428   6.351   2.600
 8337SOL    HW125910   0.357   6.289   2.566
 8337SOL    HW225911   0.386   6.433   2.638
 8338SOL     OW25912   1.619   4.702   0.295
 8338SOL    HW125913   1.591   4.687   0.390
 8338SOL    HW225914   1.717   4.683   0.286
 8339SOL     OW25915   5.488   1.267   2.725
 8339SOL    HW125916   5.427   1.188   2.724
 8339SOL    HW225917   5.538   1.272   2.638
 8340SOL     OW25918   5.098   3.314   0.329
 8340SOL    HW125919   5.054   3.231   0.295
 8340SOL    HW225920   5.095   3.385   0.258
 8341SOL     OW25921   2.243   6.715   1.084
 8341SOL    HW125922   2.284   6.649   1.021
 8341SOL    HW225923   2.231   6.672   1.173
 8342SOL     OW25924   4.229   0.994   0.923
 8342SOL    HW125925   4.261   1.089   0.911
 8342SOL    HW225926   4.305   0.931   0.909
 8343SOL     OW25927   1.721   5.352   5.993
 8343SOL    HW125928   1.679   5.299   5.920
 8343SOL    HW225929   1.654   5.366   6.067
 8344SOL     OW25930   3.760   6.884   5.430
 8344SOL    HW125931   3.835   6.863   5.492
 8344SOL    HW225932   3.708   6.962   5.466
 8345SOL     OW25933   6.221   1.118   2.556
 8345SOL    HW125934   6.218   1.087   2.651
 8345SOL    HW225935   6.298   1.181   2.543
 8346SOL     OW25936   3.392   5.428   1.916
 8346SOL    HW125937   3.364   5.415   1.821
 8346SOL    HW225938   3.320   5.395   1.977
 8347SOL     OW25939   3.865   5.409   4.011
 8347SOL    HW125940   3.767   5.418   4.026
 8347SOL    HW225941   3.903   5.498   3.984
 8348SOL     OW25942   1.557   0.376   0.449
 8348SOL    HW125943   1.603   0.308   0.505
 8348SOL    HW225944   1.539   0.339   0.358
 8349SOL     OW25945   5.854   5.414   2.019
 8349SOL    HW125946   5.846   5.513   2.014
 8349SOL    HW225947   5.878   5.378   1.928
 8350SOL     OW25948   6.518   0.656   4.745
 8350SOL    HW125949   6.536   0.697   4.834
 8350SOL    HW225950   6.438   0.596   4.752
 8351SOL     OW25951   3.169   6.173   2.725
 8351SOL    HW125952   3.149   6.218   2.638
 8351SOL    HW225953   3.086   6.131   2.761
 8352SOL     OW25954   6.948   6.570   1.687
 8352SOL    HW125955   6.859   6.609   1.711
 8352SOL    HW225956   7.012   6.584   1.762
 8353SOL     OW25957   0.291   3.893   2.272
 8353SOL    HW125958   0.330   3.803   2.257
 8353SOL    HW225959   0.203   3.900   2.226
 8354SOL     OW25960   2.414   1.070   0.350
 8354SOL    HW125961   2.506   1.097   0.379
 8354SOL    HW225962   2.421   0.993   0.286
 8355SOL     OW25963   3.201   0.945   0.256
 8355SOL    HW125964   3.235   0.979   0.169
 8355SOL    HW225965   3.112   0.903   0.243
 8356SOL     OW25966   2.059   5.098   6.821
 8356SOL    HW125967   2.046   5.186   6.774
 8356SOL    HW225968   2.151   5.095   6.861
 8357SOL     OW25969   5.175   5.485   4.417
 8357SOL    HW125970   5.258   5.445   4.456
 8357SOL    HW225971   5.173   5.468   4.318
 8358SOL     OW25972   2.295   2.431   5.836
 8358SOL    HW125973   2.270   2.492   5.911
 8358SOL    HW225974   2.380   2.462   5.794
 8359SOL     OW25975   4.367   4.985   3.980
 8359SOL    HW125976   4.362   5.019   3.886
 8359SOL    HW225977   4.288   4.927   3.999
 8360SOL     OW25978   4.665   0.680   3.207
 8360SOL    HW125979   4.729   0.685   3.131
 8360SOL    HW225980   4.578   0.723   3.181
 8361SOL     OW25981   2.181   0.453   2.734
 8361SOL    HW125982   2.179   0.460   2.635
 8361SOL    HW225983   2.110   0.390   2.765
 8362SOL     OW25984   2.586   2.887   0.392
 8362SOL    HW125985   2.640   2.808   0.364
 8362SOL    HW225986   2.535   2.923   0.314
 8363SOL     OW25987   0.029   3.126   0.664
 8363SOL    HW125988   0.038   3.177   0.749
 8363SOL    HW225989   0.117   3.083   0.641
 8364SOL     OW25990   6.549   4.284   3.532
 8364SOL    HW125991   6.638   4.280   3.487
 8364SOL    HW225992   6.513   4.377   3.527
 8365SOL     OW25993   2.018   3.259   5.904
 8365SOL    HW125994   1.943   3.228   5.846
 8365SOL    HW225995   1.991   3.341   5.953
 8366SOL     OW25996   2.976   6.387   3.058
 8366SOL    HW125997   2.884   6.400   3.019
 8366SOL    HW225998   3.044   6.426   2.996
 8367SOL     OW25999   5.486   5.456   3.838
 8367SOL    HW126000   5.429   5.507   3.773
 8367SOL    HW226001   5.430   5.392   3.889
 8368SOL     OW26002   2.996   5.124   6.986
 8368SOL    HW126003   2.924   5.123   6.916
 8368SOL    HW226004   3.081   5.090   6.946
 8369SOL     OW26005   2.468   1.296   1.317
 8369SOL    HW126006   2.440   1.353   1.394
 8369SOL    HW226007   2.412   1.214   1.314
 8370SOL     OW26008   1.161   1.608   6.535
 8370SOL    HW126009   1.151   1.615   6.634
 8370SOL    HW226010   1.127   1.519   6.505
 8371SOL     OW26011   2.018   3.418   1.041
 8371SOL    HW126012   2.033   3.497   1.100
 8371SOL    HW226013   1.972   3.345   1.092
 8372SOL     OW26014   0.197   0.462   1.869
 8372SOL    HW126015   0.150   0.394   1.814
 8372SOL    HW226016   0.296   0.452   1.858
 8373SOL     OW26017   1.317   6.715   5.136
 8373SOL    HW126018   1.298   6.810   5.113
 8373SOL    HW226019   1.416   6.700   5.134
 8374SOL     OW26020   6.699   0.020   6.581
 8374SOL    HW126021   6.751   6.961   6.579
 8374SOL    HW226022   6.615   0.006   6.634
 8375SOL     OW26023   3.458   0.591   6.764
 8375SOL    HW126024   3.388   0.616   6.831
 8375SOL    HW226025   3.537   0.552   6.811
 8376SOL     OW26026   3.602   0.154   4.773
 8376SOL    HW126027   3.609   0.222   4.846
 8376SOL    HW226028   3.530   0.089   4.796
 8377SOL     OW26029   5.675   4.497   0.759
 8377SOL    HW126030   5.721   4.451   0.836
 8377SOL    HW226031   5.577   4.501   0.776
 8378SOL     OW26032   5.024   2.845   3.744
 8378SOL    HW126033   4.967   2.898   3.681
 8378SOL    HW226034   5.030   2.751   3.712
 8379SOL     OW26035   5.858   2.546   1.964
 8379SOL    HW126036   5.767   2.509   1.982
 8379SOL    HW226037   5.903   2.569   2.050
 8380SOL     OW26038   4.565   1.971   3.210
 8380SOL    HW126039   4.622   1.960   3.291
 8380SOL    HW226040   4.503   1.893   3.202
 8381SOL     OW26041   1.596   5.376   4.522
 8381SOL    HW126042   1.619   5.399   4.427
 8381SOL    HW226043   1.543   5.451   4.562
 8382SOL     OW26044   1.019   3.029   2.283
 8382SOL    HW126045   0.971   3.117   2.283
 8382SOL    HW226046   0.956   2.957   2.313
 8383SOL     OW26047   3.439   2.030   6.513
 8383SOL    HW126048   3.479   1.960   6.453
 8383SOL    HW226049   3.339   2.021   6.512
 8384SOL     OW26050   0.748   6.319   1.822
 8384SOL    HW126051   0.803   6.240   1.793
 8384SOL    HW226052   0.807   6.399   1.831
 8385SOL     OW26053   4.737   2.379   1.032
 8385SOL    HW126054   4.754   2.381   0.933
 8385SOL    HW226055   4.659   2.437   1.054
 8386SOL     OW26056   1.407   4.869   2.805
 8386SOL    HW126057   1.501   4.903   2.797
 8386SOL    HW226058   1.407   4.769   2.795
 8387SOL     OW26059   0.303   2.076   1.394
 8387SOL    HW126060   0.256   2.062   1.307
 8387SOL    HW226061   0.359   2.158   1.389
 8388SOL     OW26062   1.092   0.152   2.333
 8388SOL    HW126063   1.016   0.212   2.310
 8388SOL    HW226064   1.162   0.204   2.381
 8389SOL     OW26065   5.158   2.668   2.327
 8389SOL    HW126066   5.219   2.589   2.334
 8389SOL    HW226067   5.064   2.637   2.311
 8390SOL     OW26068   5.002   1.431   5.828
 8390SOL    HW126069   5.073   1.472   5.771
 8390SOL    HW226070   4.948   1.504   5.870
 8391SOL     OW26071   6.736   7.016   1.570
 8391SOL    HW126072   6.801   6.998   1.644
 8391SOL    HW226073   6.737   0.087   1.547
 8392SOL     OW26074   5.042   2.607   5.180
 8392SOL    HW126075   5.133   2.582   5.213
 8392SOL    HW226076   4.998   2.527   5.140
 8393SOL     OW26077   5.209   0.296   1.679
 8393SOL    HW126078   5.127   0.337   1.720
 8393SOL    HW226079   5.256   0.240   1.748
 8394SOL     OW26080   5.737   3.329   2.134
 8394SOL    HW126081   5.802   3.344   2.208
 8394SOL    HW226082   5.644   3.328   2.172
 8395SOL     OW26083   1.879   1.338   4.672
 8395SOL    HW126084   1.893   1.249   4.628
 8395SOL    HW226085   1.938   1.344   4.753
 8396SOL     OW26086   4.543   5.643   4.354
 8396SOL    HW126087   4.461   5.586   4.359
 8396SOL    HW226088   4.522   5.735   4.389
 8397SOL     OW26089   5.898   1.177   3.042
 8397SOL    HW126090   5.849   1.210   2.961
 8397SOL    HW226091   5.848   1.202   3.124
 8398SOL     OW26092   4.701   2.269   6.216
 8398SOL    HW126093   4.764   2.276   6.293
 8398SOL    HW226094   4.607   2.268   6.251
 8399SOL     OW26095   0.347   4.784   1.164
 8399SOL    HW126096   0.254   4.751   1.183
 8399SOL    HW226097   0.377   4.750   1.075
 8400SOL     OW26098   1.528   1.781   4.848
 8400SOL    HW126099   1.595   1.797   4.775
 8400SOL    HW226100   1.548   1.695   4.894
 8401SOL     OW26101   2.501   6.765   5.847
 8401SOL    HW126102   2.481   6.827   5.922
 8401SOL    HW226103   2.600   6.746   5.844
 8402SOL     OW26104   3.532   0.444   6.275
 8402SOL    HW126105   3.589   0.369   6.309
 8402SOL    HW226106   3.497   0.497   6.353
 8403SOL     OW26107   5.735   4.378   4.414
 8403SOL    HW126108   5.707   4.375   4.318
 8403SOL    HW226109   5.830   4.347   4.422
 8404SOL     OW26110   1.044   1.839   6.404
 8404SOL    HW126111   1.073   1.754   6.449
 8404SOL    HW226112   0.952   1.826   6.366
 8405SOL     OW26113   4.154   0.379   6.006
 8405SOL    HW126114   4.167   0.478   5.994
 8405SOL    HW226115   4.104   0.343   5.927
 8406SOL     OW26116   5.574   0.299   6.067
 8406SOL    HW126117   5.593   0.303   6.165
 8406SOL    HW226118   5.484   0.340   6.049
 8407SOL     OW26119   3.428   0.028   4.341
 8407SOL    HW126120   3.483   0.029   4.425
 8407SOL    HW226121   3.332   0.014   4.365
 8408SOL     OW26122   3.542   1.444   1.504
 8408SOL    HW126123   3.568   1.523   1.448
 8408SOL    HW226124   3.510   1.475   1.594
 8409SOL     OW26125   4.392   2.441   1.978
 8409SOL    HW126126   4.409   2.463   2.075
 8409SOL    HW226127   4.295   2.426   1.964
 8410SOL     OW26128   6.783   1.672   1.807
 8410SOL    HW126129   6.713   1.730   1.848
 8410SOL    HW226130   6.816   1.606   1.874
 8411SOL     OW26131   1.442   5.908   0.706
 8411SOL    HW126132   1.361   5.914   0.648
 8411SOL    HW226133   1.449   5.990   0.763
 8412SOL     OW26134   2.935   2.254   6.730
 8412SOL    HW126135   2.860   2.190   6.718
 8412SOL    HW226136   2.900   2.348   6.722
 8413SOL     OW26137   4.272   5.512   4.304
 8413SOL    HW126138   4.215   5.486   4.382
 8413SOL    HW226139   4.215   5.553   4.233
 8414SOL     OW26140   0.898   0.454   1.633
 8414SOL    HW126141   0.804   0.453   1.597
 8414SOL    HW226142   0.915   0.542   1.677
 8415SOL     OW26143   2.455   1.644   5.618
 8415SOL    HW126144   2.433   1.613   5.710
 8415SOL    HW226145   2.533   1.591   5.583
 8416SOL     OW26146   6.515   1.709   5.600
 8416SOL    HW126147   6.489   1.613   5.592
 8416SOL    HW226148   6.459   1.764   5.538
 8417SOL     OW26149   1.258   3.403   5.688
 8417SOL    HW126150   1.219   3.476   5.743
 8417SOL    HW226151   1.357   3.418   5.677
 8418SOL     OW26152   0.496   6.115   2.379
 8418SOL    HW126153   0.447   6.101   2.464
 8418SOL    HW226154   0.474   6.205   2.342
 8419SOL     OW26155   4.403   1.875   4.278
 8419SOL    HW126156   4.429   1.787   4.241
 8419SOL    HW226157   4.468   1.945   4.248
 8420SOL     OW26158   3.175   0.191   1.954
 8420SOL    HW126159   3.133   0.101   1.947
 8420SOL    HW226160   3.176   0.234   1.863
 8421SOL     OW26161   4.589   6.512   6.321
 8421SOL    HW126162   4.676   6.530   6.366
 8421SOL    HW226163   4.607   6.480   6.227
 8422SOL     OW26164   5.036   2.501   3.185
 8422SOL    HW126165   5.014   2.597   3.168
 8422SOL    HW226166   5.039   2.485   3.284
 8423SOL     OW26167   6.837   4.805   6.404
 8423SOL    HW126168   6.757   4.860   6.429
 8423SOL    HW226169   6.827   4.713   6.440
 8424SOL     OW26170   3.075   0.506   4.613
 8424SOL    HW126171   3.148   0.518   4.680
 8424SOL    HW226172   3.114   0.499   4.521
 8425SOL     OW26173   3.382   4.042   2.082
 8425SOL    HW126174   3.363   3.993   2.167
 8425SOL    HW226175   3.466   4.096   2.093
 8426SOL     OW26176   3.950   3.031   1.963
 8426SOL    HW126177   3.891   2.997   2.037
 8426SOL    HW226178   4.021   2.963   1.944
 8427SOL     OW26179   3.479   3.813   3.694
 8427SOL    HW126180   3.524   3.883   3.749
 8427SOL    HW226181   3.467   3.846   3.601
 8428SOL     OW26182   5.972   6.649   1.295
 8428SOL    HW126183   5.912   6.662   1.374
 8428SOL    HW226184   5.986   6.551   1.279
 8429SOL     OW26185   2.753   5.762   5.178
 8429SOL    HW126186   2.693   5.713   5.241
 8429SOL    HW226187   2.840   5.712   5.169
 8430SOL     OW26188   4.605   0.035   4.952
 8430SOL    HW126189   4.558   0.113   4.994
 8430SOL    HW226190   4.648   0.064   4.867
 8431SOL     OW26191   2.409   3.430   6.213
 8431SOL    HW126192   2.416   3.529   6.224
 8431SOL    HW226193   2.350   3.410   6.134
 8432SOL     OW26194   6.196   4.897   5.809
 8432SOL    HW126195   6.292   4.875   5.821
 8432SOL    HW226196   6.143   4.862   5.886
 8433SOL     OW26197   5.366   2.344   1.115
 8433SOL    HW126198   5.395   2.248   1.109
 8433SOL    HW226199   5.289   2.351   1.178
 8434SOL     OW26200   2.620   5.786   4.919
 8434SOL    HW126201   2.597   5.696   4.882
 8434SOL    HW226202   2.687   5.776   4.993
 8435SOL     OW26203   5.378   1.748   2.630
 8435SOL    HW126204   5.367   1.831   2.575
 8435SOL    HW226205   5.474   1.722   2.632
 8436SOL     OW26206   2.017   5.794   2.379
 8436SOL    HW126207   2.037   5.883   2.419
 8436SOL    HW226208   2.077   5.725   2.420
 8437SOL     OW26209   1.259   5.184   2.418
 8437SOL    HW126210   1.212   5.247   2.356
 8437SOL    HW226211   1.330   5.134   2.369
 8438SOL     OW26212   0.885   4.006   2.526
 8438SOL    HW126213   0.865   4.061   2.445
 8438SOL    HW226214   0.872   4.062   2.608
 8439SOL     OW26215   5.724   4.624   2.765
 8439SOL    HW126216   5.648   4.562   2.748
 8439SOL    HW226217   5.798   4.606   2.701
 8440SOL     OW26218   1.948   1.980   2.649
 8440SOL    HW126219   1.879   2.005   2.581
 8440SOL    HW226220   1.905   1.970   2.739
 8441SOL     OW26221   6.816   1.630   5.423
 8441SOL    HW126222   6.761   1.607   5.343
 8441SOL    HW226223   6.793   1.722   5.455
 8442SOL     OW26224   3.515   1.551   6.288
 8442SOL    HW126225   3.494   1.529   6.192
 8442SOL    HW226226   3.508   1.649   6.302
 8443SOL     OW26227   1.312   3.880   3.469
 8443SOL    HW126228   1.345   3.844   3.382
 8443SOL    HW226229   1.357   3.831   3.544
 8444SOL     OW26230   5.433   5.088   4.953
 8444SOL    HW126231   5.506   5.121   5.013
 8444SOL    HW226232   5.383   5.166   4.915
 8445SOL     OW26233   4.434   5.940   6.225
 8445SOL    HW126234   4.372   6.005   6.181
 8445SOL    HW226235   4.466   5.979   6.312
 8446SOL     OW26236   6.982   5.130   4.928
 8446SOL    HW126237   7.016   5.073   5.002
 8446SOL    HW226238   6.934   5.209   4.965
 8447SOL     OW26239   4.200   2.257   3.428
 8447SOL    HW126240   4.169   2.164   3.413
 8447SOL    HW226241   4.132   2.308   3.481
 8448SOL     OW26242   3.056   6.076   3.430
 8448SOL    HW126243   3.107   6.126   3.499
 8448SOL    HW226244   3.017   6.140   3.364
 8449SOL     OW26245   1.958   2.143   3.199
 8449SOL    HW126246   1.913   2.054   3.209
 8449SOL    HW226247   1.904   2.200   3.137
 8450SOL     OW26248   0.139   1.306   6.715
 8450SOL    HW126249   0.223   1.342   6.675
 8450SOL    HW226250   0.094   1.377   6.770
 8451SOL     OW26251   4.322   2.740   0.608
 8451SOL    HW126252   4.330   2.837   0.583
 8451SOL    HW226253   4.374   2.723   0.691
 8452SOL     OW26254   4.992   1.802   5.545
 8452SOL    HW126255   4.997   1.871   5.473
 8452SOL    HW226256   4.896   1.788   5.570
 8453SOL     OW26257   6.787   5.979   0.540
 8453SOL    HW126258   6.886   5.991   0.533
 8453SOL    HW226259   6.747   5.980   0.448
 8454SOL     OW26260   6.420   3.817   6.928
 8454SOL    HW126261   6.490   3.828   6.998
 8454SOL    HW226262   6.402   3.720   6.912
 8455SOL     OW26263   6.764   1.707   2.795
 8455SOL    HW126264   6.800   1.629   2.744
 8455SOL    HW226265   6.683   1.742   2.750
 8456SOL     OW26266   6.546   0.415   3.455
 8456SOL    HW126267   6.510   0.335   3.408
 8456SOL    HW226268   6.610   0.386   3.526
 8457SOL     OW26269   6.596   6.871   5.425
 8457SOL    HW126270   6.623   6.850   5.519
 8457SOL    HW226271   6.538   6.797   5.390
 8458SOL     OW26272   0.666   6.926   6.648
 8458SOL    HW126273   0.654   6.854   6.716
 8458SOL    HW226274   0.589   6.989   6.652
 8459SOL     OW26275   1.656   6.441   3.639
 8459SOL    HW126276   1.694   6.366   3.692
 8459SOL    HW226277   1.725   6.512   3.627
 8460SOL     OW26278   3.337   4.047   3.299
 8460SOL    HW126279   3.406   3.977   3.280
 8460SOL    HW226280   3.301   4.035   3.391
 8461SOL     OW26281   6.741   3.613   4.069
 8461SOL    HW126282   6.794   3.528   4.072
 8461SOL    HW226283   6.766   3.665   3.988
 8462SOL     OW26284   2.312   3.000   1.510
 8462SOL    HW126285   2.347   3.075   1.567
 8462SOL    HW226286   2.289   2.922   1.567
 8463SOL     OW26287   5.364   0.908   2.037
 8463SOL    HW126288   5.345   1.006   2.029
 8463SOL    HW226289   5.283   0.856   2.008
 8464SOL     OW26290   6.280   1.720   4.990
 8464SOL    HW126291   6.226   1.672   5.060
 8464SOL    HW226292   6.283   1.817   5.011
 8465SOL     OW26293   2.056   1.872   6.744
 8465SOL    HW126294   2.071   1.971   6.753
 8465SOL    HW226295   1.971   1.847   6.789
 8466SOL     OW26296   0.402   0.018   4.052
 8466SOL    HW126297   0.470   0.062   3.993
 8466SOL    HW226298   0.310   0.044   4.021
 8467SOL     OW26299   3.386   5.523   1.042
 8467SOL    HW126300   3.318   5.595   1.028
 8467SOL    HW226301   3.461   5.536   0.977
 8468SOL     OW26302   4.501   2.436   0.326
 8468SOL    HW126303   4.465   2.352   0.366
 8468SOL    HW226304   4.426   2.495   0.298
 8469SOL     OW26305   4.167   2.551   6.912
 8469SOL    HW126306   4.161   2.466   6.964
 8469SOL    HW226307   4.234   2.541   6.839
 8470SOL     OW26308   1.410   3.108   6.651
 8470SOL    HW126309   1.323   3.151   6.674
 8470SOL    HW226310   1.440   3.050   6.727
 8471SOL     OW26311   4.649   1.065   4.268
 8471SOL    HW126312   4.674   0.986   4.211
 8471SOL    HW226313   4.598   1.130   4.212
 8472SOL     OW26314   1.470   6.981   2.759
 8472SOL    HW126315   1.494   7.007   2.853
 8472SOL    HW226316   1.379   7.014   2.737
 8473SOL     OW26317   6.200   5.429   6.611
 8473SOL    HW126318   6.252   5.363   6.557
 8473SOL    HW226319   6.125   5.382   6.658
 8474SOL     OW26320   3.934   5.150   0.696
 8474SOL    HW126321   3.860   5.186   0.753
 8474SOL    HW226322   4.023   5.175   0.737
 8475SOL     OW26323   4.623   1.417   3.032
 8475SOL    HW126324   4.644   1.498   2.977
 8475SOL    HW226325   4.692   1.406   3.103
 8476SOL     OW26326   4.695   0.595   2.759
 8476SOL    HW126327   4.643   0.534   2.819
 8476SOL    HW226328   4.764   0.542   2.710
 8477SOL     OW26329   2.514   0.827   2.118
 8477SOL    HW126330   2.519   0.728   2.135
 8477SOL    HW226331   2.420   0.858   2.133
 8478SOL     OW26332   1.587   0.333   5.747
 8478SOL    HW126333   1.574   0.281   5.832
 8478SOL    HW226334   1.511   0.397   5.735
 8479SOL     OW26335   4.700   1.379   2.216
 8479SOL    HW126336   4.714   1.438   2.136
 8479SOL    HW226337   4.783   1.380   2.272
 8480SOL     OW26338   1.219   1.409   1.359
 8480SOL    HW126339   1.232   1.464   1.277
 8480SOL    HW226340   1.184   1.319   1.333
 8481SOL     OW26341   4.402   7.011   4.720
 8481SOL    HW126342   4.306   0.004   4.743
 8481SOL    HW226343   4.430   6.926   4.764
 8482SOL     OW26344   0.449   0.315   2.128
 8482SOL    HW126345   0.456   0.369   2.044
 8482SOL    HW226346   0.496   0.363   2.202
 8483SOL     OW26347   4.698   6.221   2.192
 8483SOL    HW126348   4.714   6.301   2.250
 8483SOL    HW226349   4.728   6.240   2.099
 8484SOL     OW26350   0.747   4.146   4.627
 8484SOL    HW126351   0.754   4.081   4.551
 8484SOL    HW226352   0.838   4.176   4.655
 8485SOL     OW26353   2.472   3.333   5.819
 8485SOL    HW126354   2.453   3.293   5.730
 8485SOL    HW226355   2.561   3.379   5.816
 8486SOL     OW26356   3.875   0.302   2.590
 8486SOL    HW126357   3.955   0.349   2.554
 8486SOL    HW226358   3.871   0.312   2.689
 8487SOL     OW26359   4.520   0.182   1.256
 8487SOL    HW126360   4.470   0.266   1.236
 8487SOL    HW226361   4.607   0.182   1.206
 8488SOL     OW26362   5.562   3.246   4.932
 8488SOL    HW126363   5.476   3.297   4.931
 8488SOL    HW226364   5.554   3.169   4.995
 8489SOL     OW26365   4.405   5.203   2.989
 8489SOL    HW126366   4.482   5.185   2.927
 8489SOL    HW226367   4.440   5.232   3.078
 8490SOL     OW26368   3.520   5.523   2.302
 8490SOL    HW126369   3.505   5.432   2.341
 8490SOL    HW226370   3.571   5.515   2.216
 8491SOL     OW26371   1.669   1.140   1.989
 8491SOL    HW126372   1.605   1.196   1.936
 8491SOL    HW226373   1.761   1.149   1.951
 8492SOL     OW26374   5.453   3.959   4.522
 8492SOL    HW126375   5.436   3.899   4.600
 8492SOL    HW226376   5.513   4.035   4.550
 8493SOL     OW26377   3.319   2.139   0.813
 8493SOL    HW126378   3.285   2.048   0.790
 8493SOL    HW226379   3.319   2.197   0.731
 8494SOL     OW26380   3.775   5.721   6.970
 8494SOL    HW126381   3.687   5.763   6.991
 8494SOL    HW226382   3.816   5.766   6.891
 8495SOL     OW26383   0.592   2.640   0.076
 8495SOL    HW126384   0.671   2.582   0.055
 8495SOL    HW226385   0.521   2.626   0.008
 8496SOL     OW26386   6.515   2.405   2.929
 8496SOL    HW126387   6.555   2.496   2.944
 8496SOL    HW226388   6.424   2.415   2.889
 8497SOL     OW26389   5.997   5.051   3.476
 8497SOL    HW126390   6.056   4.970   3.478
 8497SOL    HW226391   6.047   5.129   3.513
 8498SOL     OW26392   6.545   0.991   0.530
 8498SOL    HW126393   6.563   0.940   0.614
 8498SOL    HW226394   6.631   1.025   0.493
 8499SOL     OW26395   3.039   4.151   6.243
 8499SOL    HW126396   2.951   4.102   6.242
 8499SOL    HW226397   3.034   4.230   6.182
 8500SOL     OW26398   3.308   0.282   6.240
 8500SOL    HW126399   3.395   0.326   6.218
 8500SOL    HW226400   3.289   0.293   6.338
 8501SOL     OW26401   2.569   4.649   5.901
 8501SOL    HW126402   2.521   4.729   5.865
 8501SOL    HW226403   2.545   4.568   5.847
 8502SOL     OW26404   0.338   0.081   1.987
 8502SOL    HW126405   0.349   0.171   2.031
 8502SOL    HW226406   0.388   0.013   2.040
 8503SOL     OW26407   3.307   6.141   2.966
 8503SOL    HW126408   3.261   6.147   2.877
 8503SOL    HW226409   3.311   6.232   3.007
 8504SOL     OW26410   0.974   5.815   3.481
 8504SOL    HW126411   0.991   5.895   3.539
 8504SOL    HW226412   1.029   5.738   3.513
 8505SOL     OW26413   4.782   2.852   4.061
 8505SOL    HW126414   4.854   2.921   4.058
 8505SOL    HW226415   4.800   2.782   3.992
 8506SOL     OW26416   0.988   6.401   0.802
 8506SOL    HW126417   0.994   6.304   0.824
 8506SOL    HW226418   0.969   6.411   0.704
 8507SOL     OW26419   1.743   0.577   4.676
 8507SOL    HW126420   1.843   0.584   4.682
 8507SOL    HW226421   1.702   0.662   4.710
 8508SOL     OW26422   1.088   2.912   6.291
 8508SOL    HW126423   1.047   3.002   6.277
 8508SOL    HW226424   1.187   2.917   6.276
 8509SOL     OW26425   5.975   2.253   4.605
 8509SOL    HW126426   6.013   2.191   4.537
 8509SOL    HW226427   5.896   2.209   4.649
 8510SOL     OW26428   4.619   0.337   2.591
 8510SOL    HW126429   4.604   0.290   2.504
 8510SOL    HW226430   4.686   0.410   2.578
 8511SOL     OW26431   0.093   4.676   2.159
 8511SOL    HW126432   0.144   4.638   2.237
 8511SOL    HW226433   0.135   4.644   2.074
 8512SOL     OW26434   4.099   2.880   0.269
 8512SOL    HW126435   4.104   2.927   0.358
 8512SOL    HW226436   4.003   2.872   0.242
 8513SOL     OW26437   0.625   4.648   1.597
 8513SOL    HW126438   0.556   4.587   1.635
 8513SOL    HW226439   0.595   4.743   1.608
 8514SOL     OW26440   2.454   2.263   6.018
 8514SOL    HW126441   2.481   2.188   5.958
 8514SOL    HW226442   2.385   2.319   5.972
 8515SOL     OW26443   1.724   0.536   0.920
 8515SOL    HW126444   1.715   0.631   0.949
 8515SOL    HW226445   1.649   0.514   0.857
 8516SOL     OW26446   5.289   2.448   4.287
 8516SOL    HW126447   5.208   2.408   4.246
 8516SOL    HW226448   5.368   2.389   4.270
 8517SOL     OW26449   2.095   1.619   6.330
 8517SOL    HW126450   2.071   1.580   6.420
 8517SOL    HW226451   2.134   1.548   6.272
 8518SOL     OW26452   5.529   4.897   6.516
 8518SOL    HW126453   5.605   4.904   6.451
 8518SOL    HW226454   5.450   4.855   6.469
 8519SOL     OW26455   0.970   3.052   0.668
 8519SOL    HW126456   0.928   3.142   0.659
 8519SOL    HW226457   1.014   3.045   0.758
 8520SOL     OW26458   3.823   4.097   6.091
 8520SOL    HW126459   3.757   4.104   6.016
 8520SOL    HW226460   3.887   4.023   6.071
 8521SOL     OW26461   2.090   6.471   5.268
 8521SOL    HW126462   2.187   6.487   5.246
 8521SOL    HW226463   2.083   6.433   5.360
 8522SOL     OW26464   0.686   6.798   0.494
 8522SOL    HW126465   0.696   6.741   0.412
 8522SOL    HW226466   0.776   6.834   0.521
 8523SOL     OW26467   3.611   1.458   0.371
 8523SOL    HW126468   3.633   1.546   0.329
 8523SOL    HW226469   3.513   1.456   0.394
 8524SOL     OW26470   2.160   5.227   4.591
 8524SOL    HW126471   2.132   5.268   4.504
 8524SOL    HW226472   2.092   5.159   4.619
 8525SOL     OW26473   6.102   4.379   1.667
 8525SOL    HW126474   6.123   4.450   1.600
 8525SOL    HW226475   6.071   4.296   1.620
 8526SOL     OW26476   0.585   4.733   0.991
 8526SOL    HW126477   0.604   4.721   1.089
 8526SOL    HW226478   0.667   4.764   0.944
 8527SOL     OW26479   2.844   0.655   5.464
 8527SOL    HW126480   2.794   0.660   5.550
 8527SOL    HW226481   2.829   0.738   5.411
 8528SOL     OW26482   5.398   0.912   0.455
 8528SOL    HW126483   5.464   0.855   0.404
 8528SOL    HW226484   5.413   1.008   0.431
 8529SOL     OW26485   0.709   6.176   6.475
 8529SOL    HW126486   0.627   6.163   6.531
 8529SOL    HW226487   0.770   6.098   6.486
 8530SOL     OW26488   3.152   3.992   3.567
 8530SOL    HW126489   3.176   3.913   3.623
 8530SOL    HW226490   3.225   4.060   3.573
 8531SOL     OW26491   6.943   4.986   4.517
 8531SOL    HW126492   6.969   5.064   4.573
 8531SOL    HW226493   7.021   4.923   4.510
 8532SOL     OW26494   2.804   4.685   6.265
 8532SOL    HW126495   2.832   4.646   6.353
 8532SOL    HW226496   2.718   4.735   6.277
 8533SOL     OW26497   2.357   6.503   5.386
 8533SOL    HW126498   2.413   6.423   5.409
 8533SOL    HW226499   2.341   6.558   5.468
 8534SOL     OW26500   2.357   2.291   3.377
 8534SOL    HW126501   2.356   2.343   3.462
 8534SOL    HW226502   2.282   2.225   3.377
 8535SOL     OW26503   6.428   0.156   2.770
 8535SOL    HW126504   6.333   0.173   2.745
 8535SOL    HW226505   6.486   0.230   2.734
 8536SOL     OW26506   0.625   1.546   4.614
 8536SOL    HW126507   0.634   1.633   4.662
 8536SOL    HW226508   0.694   1.540   4.542
 8537SOL     OW26509   6.791   1.131   2.485
 8537SOL    HW126510   6.875   1.166   2.528
 8537SOL    HW226511   6.763   1.047   2.531
 8538SOL     OW26512   0.834   2.397   6.942
 8538SOL    HW126513   0.896   2.322   6.920
 8538SOL    HW226514   0.791   2.381   0.004
 8539SOL     OW26515   5.479   2.722   2.735
 8539SOL    HW126516   5.386   2.728   2.771
 8539SOL    HW226517   5.482   2.657   2.660
 8540SOL     OW26518   3.796   0.120   0.345
 8540SOL    HW126519   3.746   0.067   0.276
 8540SOL    HW226520   3.752   0.208   0.359
 8541SOL     OW26521   1.894   2.758   4.581
 8541SOL    HW126522   1.885   2.822   4.657
 8541SOL    HW226523   1.987   2.721   4.579
 8542SOL     OW26524   3.403   4.912   0.656
 8542SOL    HW126525   3.307   4.941   0.659
 8542SOL    HW226526   3.407   4.812   0.652
 8543SOL     OW26527   2.476   2.231   6.609
 8543SOL    HW126528   2.470   2.318   6.559
 8543SOL    HW226529   2.405   2.169   6.575
 8544SOL     OW26530   6.116   2.657   3.380
 8544SOL    HW126531   6.185   2.723   3.410
 8544SOL    HW226532   6.069   2.620   3.459
 8545SOL     OW26533   4.236   6.601   5.007
 8545SOL    HW126534   4.214   6.518   4.955
 8545SOL    HW226535   4.175   6.675   4.980
 8546SOL     OW26536   4.598   2.239   6.506
 8546SOL    HW126537   4.605   2.265   6.602
 8546SOL    HW226538   4.512   2.192   6.491
 8547SOL     OW26539   1.016   4.369   3.019
 8547SOL    HW126540   0.937   4.318   2.985
 8547SOL    HW226541   1.034   4.447   2.960
 8548SOL     OW26542   6.076   1.643   5.529
 8548SOL    HW126543   6.149   1.610   5.589
 8548SOL    HW226544   6.029   1.565   5.488
 8549SOL     OW26545   5.353   2.912   5.067
 8549SOL    HW126546   5.451   2.933   5.058
 8549SOL    HW226547   5.335   2.878   5.159
 8550SOL     OW26548   0.815   4.473   6.254
 8550SOL    HW126549   0.908   4.509   6.267
 8550SOL    HW226550   0.820   4.376   6.233
 8551SOL     OW26551   3.098   4.326   1.387
 8551SOL    HW126552   3.096   4.402   1.452
 8551SOL    HW226553   3.102   4.239   1.437
 8552SOL     OW26554   3.008   6.653   4.262
 8552SOL    HW126555   3.040   6.716   4.191
 8552SOL    HW226556   3.068   6.573   4.264
 8553SOL     OW26557   6.030   4.764   6.797
 8553SOL    HW126558   6.109   4.818   6.769
 8553SOL    HW226559   5.961   4.766   6.725
 8554SOL     OW26560   6.280   3.921   6.628
 8554SOL    HW126561   6.267   3.823   6.638
 8554SOL    HW226562   6.258   3.967   6.714
 8555SOL     OW26563   1.438   6.416   4.367
 8555SOL    HW126564   1.481   6.435   4.455
 8555SOL    HW226565   1.469   6.482   4.299
 8556SOL     OW26566   6.000   0.354   4.138
 8556SOL    HW126567   5.958   0.298   4.067
 8556SOL    HW226568   5.978   0.317   4.228
 8557SOL     OW26569   0.057   0.807   6.911
 8557SOL    HW126570   0.046   0.839   6.817
 8557SOL    HW226571   0.127   0.861   6.957
 8558SOL     OW26572   0.973   5.716   1.941
 8558SOL    HW126573   0.936   5.643   1.998
 8558SOL    HW226574   1.058   5.685   1.898
 8559SOL     OW26575   0.467   1.541   5.754
 8559SOL    HW126576   0.557   1.499   5.749
 8559SOL    HW226577   0.450   1.593   5.670
 8560SOL     OW26578   6.504   2.629   6.253
 8560SOL    HW126579   6.490   2.668   6.162
 8560SOL    HW226580   6.582   2.674   6.297
 8561SOL     OW26581   5.047   6.697   5.543
 8561SOL    HW126582   4.960   6.735   5.574
 8561SOL    HW226583   5.098   6.767   5.494
 8562SOL     OW26584   3.618   0.049   4.158
 8562SOL    HW126585   3.684   0.098   4.216
 8562SOL    HW226586   3.532   0.038   4.208
 8563SOL     OW26587   2.920   3.020   6.372
 8563SOL    HW126588   2.886   3.007   6.279
 8563SOL    HW226589   2.846   3.004   6.438
 8564SOL     OW26590   6.995   6.579   4.077
 8564SOL    HW126591   0.041   6.537   4.024
 8564SOL    HW226592   6.907   6.537   4.053
 8565SOL     OW26593   3.983   0.580   2.014
 8565SOL    HW126594   3.987   0.510   2.084
 8565SOL    HW226595   4.013   0.668   2.052
 8566SOL     OW26596   2.064   3.650   3.321
 8566SOL    HW126597   2.134   3.722   3.315
 8566SOL    HW226598   2.076   3.600   3.407
 8567SOL     OW26599   5.332   6.318   0.605
 8567SOL    HW126600   5.355   6.251   0.534
 8567SOL    HW226601   5.336   6.274   0.695
 8568SOL     OW26602   5.372   1.559   0.156
 8568SOL    HW126603   5.315   1.521   0.083
 8568SOL    HW226604   5.388   1.489   0.226
 8569SOL     OW26605   4.193   1.557   5.716
 8569SOL    HW126606   4.154   1.565   5.624
 8569SOL    HW226607   4.273   1.616   5.722
 8570SOL     OW26608   0.562   4.353   6.649
 8570SOL    HW126609   0.518   4.437   6.617
 8570SOL    HW226610   0.650   4.342   6.603
 8571SOL     OW26611   6.780   4.546   4.540
 8571SOL    HW126612   6.830   4.602   4.606
 8571SOL    HW226613   6.816   4.453   4.539
 8572SOL     OW26614   3.090   5.001   5.564
 8572SOL    HW126615   3.016   4.951   5.519
 8572SOL    HW226616   3.146   5.047   5.495
 8573SOL     OW26617   4.134   5.939   4.509
 8573SOL    HW126618   4.102   5.884   4.432
 8573SOL    HW226619   4.132   5.885   4.593
 8574SOL     OW26620   0.473   3.610   4.391
 8574SOL    HW126621   0.538   3.555   4.338
 8574SOL    HW226622   0.497   3.707   4.382
 8575SOL     OW26623   2.635   3.675   6.330
 8575SOL    HW126624   2.673   3.667   6.422
 8575SOL    HW226625   2.700   3.639   6.263
 8576SOL     OW26626   1.510   0.364   1.596
 8576SOL    HW126627   1.594   0.312   1.613
 8576SOL    HW226628   1.521   0.418   1.513
 8577SOL     OW26629   6.871   5.251   3.373
 8577SOL    HW126630   6.812   5.170   3.371
 8577SOL    HW226631   6.928   5.252   3.291
 8578SOL     OW26632   5.045   6.654   3.757
 8578SOL    HW126633   5.016   6.746   3.782
 8578SOL    HW226634   4.965   6.594   3.750
 8579SOL     OW26635   0.667   5.129   3.294
 8579SOL    HW126636   0.647   5.123   3.392
 8579SOL    HW226637   0.726   5.208   3.277
 8580SOL     OW26638   3.242   4.565   5.720
 8580SOL    HW126639   3.321   4.625   5.711
 8580SOL    HW226640   3.186   4.595   5.797
 8581SOL     OW26641   3.432   3.198   0.435
 8581SOL    HW126642   3.516   3.244   0.407
 8581SOL    HW226643   3.453   3.122   0.496
 8582SOL     OW26644   4.336   4.227   1.210
 8582SOL    HW126645   4.261   4.244   1.146
 8582SOL    HW226646   4.299   4.216   1.303
 8583SOL     OW26647   5.421   0.485   5.297
 8583SOL    HW126648   5.404   0.561   5.235
 8583SOL    HW226649   5.474   0.518   5.376
 8584SOL     OW26650   0.442   5.215   6.542
 8584SOL    HW126651   0.531   5.228   6.586
 8584SOL    HW226652   0.455   5.205   6.443
 8585SOL     OW26653   1.056   0.969   0.881
 8585SOL    HW126654   1.045   1.068   0.879
 8585SOL    HW226655   1.060   0.933   0.788
 8586SOL     OW26656   4.217   5.289   4.160
 8586SOL    HW126657   4.296   5.233   4.185
 8586SOL    HW226658   4.237   5.385   4.177
 8587SOL     OW26659   0.100   2.161   1.567
 8587SOL    HW126660   0.167   2.128   1.501
 8587SOL    HW226661   0.096   2.261   1.564
 8588SOL     OW26662   3.989   2.147   0.499
 8588SOL    HW126663   3.926   2.078   0.463
 8588SOL    HW226664   3.950   2.238   0.484
 8589SOL     OW26665   2.980   1.716   4.769
 8589SOL    HW126666   2.986   1.771   4.852
 8589SOL    HW226667   2.935   1.769   4.697
 8590SOL     OW26668   6.378   5.120   5.458
 8590SOL    HW126669   6.413   5.033   5.493
 8590SOL    HW226670   6.356   5.111   5.361
 8591SOL     OW26671   0.804   2.793   0.163
 8591SOL    HW126672   0.788   2.875   0.218
 8591SOL    HW226673   0.716   2.752   0.139
 8592SOL     OW26674   6.355   5.920   6.365
 8592SOL    HW126675   6.326   5.871   6.447
 8592SOL    HW226676   6.344   6.019   6.379
 8593SOL     OW26677   0.496   6.582   3.199
 8593SOL    HW126678   0.454   6.552   3.114
 8593SOL    HW226679   0.565   6.652   3.179
 8594SOL     OW26680   3.034   3.227   3.365
 8594SOL    HW126681   3.003   3.267   3.451
 8594SOL    HW226682   2.987   3.271   3.289
 8595SOL     OW26683   2.134   2.887   1.364
 8595SOL    HW126684   2.133   2.918   1.269
 8595SOL    HW226685   2.201   2.940   1.416
 8596SOL     OW26686   6.817   4.246   2.337
 8596SOL    HW126687   6.790   4.238   2.433
 8596SOL    HW226688   6.743   4.213   2.279
 8597SOL     OW26689   2.228   1.785   0.645
 8597SOL    HW126690   2.281   1.849   0.590
 8597SOL    HW226691   2.202   1.830   0.731
 8598SOL     OW26692   4.810   4.098   1.310
 8598SOL    HW126693   4.856   4.070   1.395
 8598SOL    HW226694   4.726   4.148   1.333
 8599SOL     OW26695   0.953   3.596   1.652
 8599SOL    HW126696   0.981   3.648   1.733
 8599SOL    HW226697   0.987   3.502   1.659
 8600SOL     OW26698   6.364   3.327   5.986
 8600SOL    HW126699   6.388   3.293   6.077
 8600SOL    HW226700   6.436   3.388   5.953
 8601SOL     OW26701   0.323   0.700   5.122
 8601SOL    HW126702   0.420   0.695   5.100
 8601SOL    HW226703   0.272   0.636   5.064
 8602SOL     OW26704   1.962   5.745   2.114
 8602SOL    HW126705   2.040   5.765   2.054
 8602SOL    HW226706   1.988   5.759   2.209
 8603SOL     OW26707   4.544   3.741   1.281
 8603SOL    HW126708   4.637   3.777   1.284
 8603SOL    HW226709   4.494   3.769   1.363
 8604SOL     OW26710   5.672   2.009   2.451
 8604SOL    HW126711   5.717   2.090   2.489
 8604SOL    HW226712   5.593   1.985   2.507
 8605SOL     OW26713   2.897   6.187   2.193
 8605SOL    HW126714   2.957   6.266   2.185
 8605SOL    HW226715   2.950   6.103   2.178
 8606SOL     OW26716   4.446   5.373   5.535
 8606SOL    HW126717   4.373   5.421   5.487
 8606SOL    HW226718   4.446   5.400   5.631
 8607SOL     OW26719   2.916   5.673   1.497
 8607SOL    HW126720   2.890   5.596   1.439
 8607SOL    HW226721   2.841   5.695   1.560
 8608SOL     OW26722   5.632   6.469   2.396
 8608SOL    HW126723   5.550   6.455   2.451
 8608SOL    HW226724   5.649   6.389   2.339
 8609SOL     OW26725   4.433   0.885   6.514
 8609SOL    HW126726   4.496   0.943   6.462
 8609SOL    HW226727   4.458   0.790   6.503
 8610SOL     OW26728   0.045   6.817   4.666
 8610SOL    HW126729   0.114   6.885   4.691
 8610SOL    HW226730   0.017   6.832   4.571
 8611SOL     OW26731   1.463   1.845   3.323
 8611SOL    HW126732   1.402   1.910   3.277
 8611SOL    HW226733   1.463   1.862   3.421
 8612SOL     OW26734   4.656   2.720   4.719
 8612SOL    HW126735   4.743   2.724   4.769
 8612SOL    HW226736   4.647   2.802   4.662
 8613SOL     OW26737   1.448   1.608   7.009
 8613SOL    HW126738   1.397   1.536   0.029
 8613SOL    HW226739   1.536   1.621   0.027
 8614SOL     OW26740   1.287   1.209   3.575
 8614SOL    HW126741   1.237   1.282   3.621
 8614SOL    HW226742   1.335   1.247   3.496
 8615SOL     OW26743   4.388   2.215   5.449
 8615SOL    HW126744   4.402   2.303   5.404
 8615SOL    HW226745   4.387   2.142   5.381
 8616SOL     OW26746   1.382   3.048   0.112
 8616SOL    HW126747   1.385   3.005   0.203
 8616SOL    HW226748   1.287   3.066   0.087
 8617SOL     OW26749   6.294   2.974   1.215
 8617SOL    HW126750   6.248   3.058   1.185
 8617SOL    HW226751   6.314   2.917   1.135
 8618SOL     OW26752   4.796   0.774   2.968
 8618SOL    HW126753   4.765   0.703   2.905
 8618SOL    HW226754   4.828   0.853   2.916
 8619SOL     OW26755   4.364   5.864   0.818
 8619SOL    HW126756   4.363   5.764   0.825
 8619SOL    HW226757   4.278   5.901   0.853
 8620SOL     OW26758   6.638   6.502   3.249
 8620SOL    HW126759   6.702   6.562   3.199
 8620SOL    HW226760   6.690   6.447   3.314
 8621SOL     OW26761   5.707   0.722   2.867
 8621SOL    HW126762   5.654   0.642   2.894
 8621SOL    HW226763   5.744   0.708   2.775
 8622SOL     OW26764   5.416   5.198   0.134
 8622SOL    HW126765   5.479   5.121   0.120
 8622SOL    HW226766   5.469   5.282   0.146
 8623SOL     OW26767   6.148   2.764   2.719
 8623SOL    HW126768   6.246   2.778   2.703
 8623SOL    HW226769   6.096   2.820   2.655
 8624SOL     OW26770   0.428   4.454   4.039
 8624SOL    HW126771   0.376   4.412   4.113
 8624SOL    HW226772   0.493   4.388   4.002
 8625SOL     OW26773   3.439   0.590   6.467
 8625SOL    HW126774   3.465   0.658   6.399
 8625SOL    HW226775   3.461   0.624   6.558
 8626SOL     OW26776   3.402   3.037   2.008
 8626SOL    HW126777   3.454   2.981   1.944
 8626SOL    HW226778   3.432   3.132   2.003
 8627SOL     OW26779   2.600   6.937   6.711
 8627SOL    HW126780   2.513   6.944   6.761
 8627SOL    HW226781   2.639   0.001   6.700
 8628SOL     OW26782   5.696   0.938   0.003
 8628SOL    HW126783   5.784   0.892   7.018
 8628SOL    HW226784   5.705   1.014   0.067
 8629SOL     OW26785   1.615   5.252   4.194
 8629SOL    HW126786   1.587   5.156   4.185
 8629SOL    HW226787   1.534   5.308   4.213
 8630SOL     OW26788   5.448   4.539   3.900
 8630SOL    HW126789   5.472   4.552   3.996
 8630SOL    HW226790   5.365   4.592   3.879
 8631SOL     OW26791   4.447   6.186   3.674
 8631SOL    HW126792   4.349   6.203   3.666
 8631SOL    HW226793   4.465   6.088   3.673
 8632SOL     OW26794   4.388   0.743   3.356
 8632SOL    HW126795   4.425   0.651   3.348
 8632SOL    HW226796   4.331   0.749   3.437
 8633SOL     OW26797   5.930   0.452   3.752
 8633SOL    HW126798   5.880   0.537   3.771
 8633SOL    HW226799   6.023   0.474   3.722
 8634SOL     OW26800   6.536   5.471   1.676
 8634SOL    HW126801   6.491   5.544   1.727
 8634SOL    HW226802   6.491   5.384   1.694
 8635SOL     OW26803   5.954   3.447   5.608
 8635SOL    HW126804   6.038   3.500   5.601
 8635SOL    HW226805   5.900   3.481   5.685
 8636SOL     OW26806   5.487   5.712   0.210
 8636SOL    HW126807   5.554   5.657   0.158
 8636SOL    HW226808   5.493   5.688   0.307
 8637SOL     OW26809   1.578   0.712   1.821
 8637SOL    HW126810   1.507   0.642   1.813
 8637SOL    HW226811   1.652   0.691   1.757
 8638SOL     OW26812   4.771   5.446   0.979
 8638SOL    HW126813   4.824   5.449   0.895
 8638SOL    HW226814   4.711   5.526   0.983
 8639SOL     OW26815   6.546   3.150   1.738
 8639SOL    HW126816   6.499   3.068   1.704
 8639SOL    HW226817   6.507   3.176   1.826
 8640SOL     OW26818   5.277   6.275   1.429
 8640SOL    HW126819   5.256   6.216   1.352
 8640SOL    HW226820   5.374   6.266   1.453
 8641SOL     OW26821   5.363   4.834   3.383
 8641SOL    HW126822   5.291   4.831   3.453
 8641SOL    HW226823   5.401   4.743   3.371
 8642SOL     OW26824   4.785   1.830   1.423
 8642SOL    HW126825   4.756   1.906   1.481
 8642SOL    HW226826   4.751   1.744   1.461
 8643SOL     OW26827   4.723   1.054   6.670
 8643SOL    HW126828   4.726   1.083   6.765
 8643SOL    HW226829   4.814   1.025   6.641
 8644SOL     OW26830   6.405   3.542   5.630
 8644SOL    HW126831   6.307   3.560   5.622
 8644SOL    HW226832   6.456   3.628   5.626
 8645SOL     OW26833   5.987   4.701   1.621
 8645SOL    HW126834   5.933   4.765   1.676
 8645SOL    HW226835   5.926   4.638   1.575
 8646SOL     OW26836   5.300   0.308   0.908
 8646SOL    HW126837   5.371   0.357   0.958
 8646SOL    HW226838   5.237   0.265   0.972
 8647SOL     OW26839   4.708   4.720   2.123
 8647SOL    HW126840   4.735   4.744   2.030
 8647SOL    HW226841   4.644   4.643   2.120
 8648SOL     OW26842   5.600   1.620   4.545
 8648SOL    HW126843   5.586   1.527   4.511
 8648SOL    HW226844   5.692   1.651   4.522
 8649SOL     OW26845   0.599   4.659   5.554
 8649SOL    HW126846   0.524   4.633   5.493
 8649SOL    HW226847   0.599   4.600   5.634
 8650SOL     OW26848   0.860   4.945   2.336
 8650SOL    HW126849   0.928   4.990   2.278
 8650SOL    HW226850   0.900   4.928   2.426
 8651SOL     OW26851   3.327   2.698   1.126
 8651SOL    HW126852   3.413   2.728   1.168
 8651SOL    HW226853   3.337   2.604   1.093
 8652SOL     OW26854   1.714   3.081   4.296
 8652SOL    HW126855   1.806   3.041   4.296
 8652SOL    HW226856   1.646   3.011   4.317
 8653SOL     OW26857   5.930   3.387   6.214
 8653SOL    HW126858   5.950   3.312   6.151
 8653SOL    HW226859   5.984   3.376   6.297
 8654SOL     OW26860   6.984   6.344   2.997
 8654SOL    HW126861   6.911   6.398   2.954
 8654SOL    HW226862   0.033   6.405   3.023
 8655SOL     OW26863   6.053   6.154   3.785
 8655SOL    HW126864   5.978   6.090   3.795
 8655SOL    HW226865   6.065   6.176   3.688
 8656SOL     OW26866   6.603   2.067   1.502
 8656SOL    HW126867   6.586   2.093   1.597
 8656SOL    HW226868   6.701   2.064   1.485
 8657SOL     OW26869   3.083   4.147   0.832
 8657SOL    HW126870   3.043   4.238   0.823
 8657SOL    HW226871   3.176   4.155   0.868
 8658SOL     OW26872   0.566   5.283   6.963
 8658SOL    HW126873   0.534   5.340   0.012
 8658SOL    HW226874   0.503   5.291   6.886
 8659SOL     OW26875   4.572   0.620   3.844
 8659SOL    HW126876   4.517   0.607   3.761
 8659SOL    HW226877   4.525   0.578   3.922
 8660SOL     OW26878   5.298   5.016   0.604
 8660SOL    HW126879   5.385   4.968   0.615
 8660SOL    HW226880   5.293   5.055   0.512
 8661SOL     OW26881   6.374   3.724   1.325
 8661SOL    HW126882   6.411   3.682   1.407
 8661SOL    HW226883   6.295   3.671   1.293
 8662SOL     OW26884   0.039   0.654   0.889
 8662SOL    HW126885   0.025   0.565   0.846
 8662SOL    HW226886   0.027   0.645   0.988
 8663SOL     OW26887   2.447   5.905   0.645
 8663SOL    HW126888   2.434   6.003   0.630
 8663SOL    HW226889   2.524   5.872   0.591
 8664SOL     OW26890   4.407   5.105   1.734
 8664SOL    HW126891   4.420   5.194   1.691
 8664SOL    HW226892   4.487   5.083   1.789
 8665SOL     OW26893   4.753   5.212   4.925
 8665SOL    HW126894   4.819   5.213   4.851
 8665SOL    HW226895   4.749   5.302   4.969
 8666SOL     OW26896   5.748   3.580   4.463
 8666SOL    HW126897   5.754   3.617   4.371
 8666SOL    HW226898   5.668   3.521   4.471
 8667SOL     OW26899   5.092   1.999   3.032
 8667SOL    HW126900   5.176   1.983   3.083
 8667SOL    HW226901   5.083   1.931   2.960
 8668SOL     OW26902   3.503   1.601   4.615
 8668SOL    HW126903   3.505   1.511   4.572
 8668SOL    HW226904   3.596   1.637   4.620
 8669SOL     OW26905   4.438   0.029   5.541
 8669SOL    HW126906   4.504   0.043   5.468
 8669SOL    HW226907   4.482   0.043   5.630
 8670SOL     OW26908   4.178   4.764   3.629
 8670SOL    HW126909   4.259   4.717   3.663
 8670SOL    HW226910   4.098   4.705   3.642
 8671SOL     OW26911   5.808   6.275   2.860
 8671SOL    HW126912   5.900   6.308   2.838
 8671SOL    HW226913   5.741   6.347   2.839
 8672SOL     OW26914   3.332   4.867   5.197
 8672SOL    HW126915   3.247   4.817   5.211
 8672SOL    HW226916   3.401   4.834   5.261
 8673SOL     OW26917   5.588   1.998   0.649
 8673SOL    HW126918   5.647   2.019   0.572
 8673SOL    HW226919   5.546   2.082   0.684
 8674SOL     OW26920   0.773   0.471   2.473
 8674SOL    HW126921   0.795   0.524   2.555
 8674SOL    HW226922   0.856   0.433   2.434
 8675SOL     OW26923   1.588   2.139   2.533
 8675SOL    HW126924   1.681   2.112   2.508
 8675SOL    HW226925   1.536   2.058   2.559
 8676SOL     OW26926   4.687   6.850   3.309
 8676SOL    HW126927   4.672   6.892   3.398
 8676SOL    HW226928   4.623   6.890   3.243
 8677SOL     OW26929   2.130   4.365   5.060
 8677SOL    HW126930   2.044   4.342   5.106
 8677SOL    HW226931   2.205   4.317   5.105
 8678SOL     OW26932   1.259   0.843   5.943
 8678SOL    HW126933   1.271   0.942   5.941
 8678SOL    HW226934   1.341   0.801   5.983
 8679SOL     OW26935   6.573   2.533   5.167
 8679SOL    HW126936   6.522   2.474   5.105
 8679SOL    HW226937   6.558   2.629   5.143
 8680SOL     OW26938   1.046   3.805   0.339
 8680SOL    HW126939   1.011   3.712   0.334
 8680SOL    HW226940   1.118   3.810   0.408
 8681SOL     OW26941   4.445   3.689   1.039
 8681SOL    HW126942   4.357   3.641   1.045
 8681SOL    HW226943   4.480   3.704   1.131
 8682SOL     OW26944   2.207   5.901   2.763
 8682SOL    HW126945   2.183   5.962   2.838
 8682SOL    HW226946   2.216   5.807   2.797
 8683SOL     OW26947   6.065   3.248   6.416
 8683SOL    HW126948   6.060   3.153   6.386
 8683SOL    HW226949   6.159   3.271   6.442
 8684SOL     OW26950   6.524   2.605   4.505
 8684SOL    HW126951   6.598   2.662   4.539
 8684SOL    HW226952   6.450   2.663   4.471
 8685SOL     OW26953   0.504   2.235   5.105
 8685SOL    HW126954   0.478   2.141   5.127
 8685SOL    HW226955   0.516   2.287   5.190
 8686SOL     OW26956   6.424   2.139   3.518
 8686SOL    HW126957   6.334   2.158   3.480
 8686SOL    HW226958   6.495   2.172   3.455
 8687SOL     OW26959   4.352   0.701   2.938
 8687SOL    HW126960   4.388   0.609   2.925
 8687SOL    HW226961   4.282   0.700   3.009
 8688SOL     OW26962   1.971   0.024   2.218
 8688SOL    HW126963   2.044   0.077   2.175
 8688SOL    HW226964   1.976   0.035   2.317
 8689SOL     OW26965   4.548   5.517   0.545
 8689SOL    HW126966   4.555   5.519   0.445
 8689SOL    HW226967   4.486   5.590   0.575
 8690SOL     OW26968   1.326   1.021   2.441
 8690SOL    HW126969   1.376   1.049   2.358
 8690SOL    HW226970   1.345   1.086   2.514
 8691SOL     OW26971   6.251   1.453   0.668
 8691SOL    HW126972   6.255   1.538   0.614
 8691SOL    HW226973   6.158   1.416   0.664
 8692SOL     OW26974   1.543   1.639   4.303
 8692SOL    HW126975   1.635   1.621   4.339
 8692SOL    HW226976   1.535   1.735   4.277
 8693SOL     OW26977   5.576   2.089   0.003
 8693SOL    HW126978   5.613   2.099   0.096
 8693SOL    HW226979   5.565   2.179   6.988
 8694SOL     OW26980   4.015   6.131   6.061
 8694SOL    HW126981   3.957   6.169   6.133
 8694SOL    HW226982   3.998   6.033   6.052
 8695SOL     OW26983   4.474   4.112   5.284
 8695SOL    HW126984   4.393   4.071   5.242
 8695SOL    HW226985   4.549   4.113   5.218
 8696SOL     OW26986   1.549   5.509   1.008
 8696SOL    HW126987   1.648   5.506   0.996
 8696SOL    HW226988   1.519   5.428   1.057
 8697SOL     OW26989   5.483   4.527   0.063
 8697SOL    HW126990   5.572   4.528   0.017
 8697SOL    HW226991   5.459   4.432   0.087
 8698SOL     OW26992   6.110   5.944   4.024
 8698SOL    HW126993   6.196   5.919   4.068
 8698SOL    HW226994   6.102   5.897   3.936
 8699SOL     OW26995   1.243   1.604   5.473
 8699SOL    HW126996   1.221   1.652   5.388
 8699SOL    HW226997   1.343   1.596   5.481
 8700SOL     OW26998   2.701   1.860   6.503
 8700SOL    HW126999   2.640   1.795   6.456
 8700SOL    HW227000   2.760   1.904   6.435
 8701SOL     OW27001   1.170   2.071   4.136
 8701SOL    HW127002   1.206   1.978   4.149
 8701SOL    HW227003   1.071   2.067   4.122
 8702SOL     OW27004   5.367   5.843   6.649
 8702SOL    HW127005   5.381   5.847   6.748
 8702SOL    HW227006   5.446   5.799   6.607
 8703SOL     OW27007   1.922   5.713   1.164
 8703SOL    HW127008   1.843   5.678   1.215
 8703SOL    HW227009   2.005   5.670   1.198
 8704SOL     OW27010   0.581   4.277   1.737
 8704SOL    HW127011   0.575   4.232   1.826
 8704SOL    HW227012   0.534   4.223   1.668
 8705SOL     OW27013   5.152   6.679   4.905
 8705SOL    HW127014   5.059   6.685   4.871
 8705SOL    HW227015   5.181   6.770   4.937
 8706SOL     OW27016   5.053   2.210   6.658
 8706SOL    HW127017   5.052   2.292   6.715
 8706SOL    HW227018   5.140   2.162   6.669
 8707SOL     OW27019   4.580   2.548   5.842
 8707SOL    HW127020   4.655   2.490   5.808
 8707SOL    HW227021   4.495   2.494   5.842
 8708SOL     OW27022   3.932   1.494   0.900
 8708SOL    HW127023   3.986   1.412   0.883
 8708SOL    HW227024   3.925   1.509   0.999
 8709SOL     OW27025   6.484   3.611   1.097
 8709SOL    HW127026   6.487   3.686   1.030
 8709SOL    HW227027   6.465   3.649   1.188
 8710SOL     OW27028   0.619   3.126   3.150
 8710SOL    HW127029   0.648   3.032   3.167
 8710SOL    HW227030   0.542   3.126   3.087
 8711SOL     OW27031   0.707   1.539   4.126
 8711SOL    HW127032   0.708   1.439   4.121
 8711SOL    HW227033   0.685   1.577   4.036
 8712SOL     OW27034   3.747   1.099   6.031
 8712SOL    HW127035   3.707   1.137   5.948
 8712SOL    HW227036   3.839   1.063   6.010
 8713SOL     OW27037   6.195   4.863   2.541
 8713SOL    HW127038   6.211   4.872   2.640
 8713SOL    HW227039   6.270   4.813   2.499
 8714SOL     OW27040   1.642   1.074   4.904
 8714SOL    HW127041   1.721   1.115   4.950
 8714SOL    HW227042   1.612   1.134   4.830
 8715SOL     OW27043   6.190   1.234   1.797
 8715SOL    HW127044   6.180   1.251   1.895
 8715SOL    HW227045   6.141   1.151   1.772
 8716SOL     OW27046   1.363   1.581   1.728
 8716SOL    HW127047   1.421   1.532   1.663
 8716SOL    HW227048   1.404   1.670   1.749
 8717SOL     OW27049   4.035   3.133   0.956
 8717SOL    HW127050   3.964   3.157   0.890
 8717SOL    HW227051   3.997   3.139   1.049
 8718SOL     OW27052   6.747   3.021   6.132
 8718SOL    HW127053   6.673   3.022   6.199
 8718SOL    HW227054   6.743   3.103   6.075
 8719SOL     OW27055   6.788   0.665   5.925
 8719SOL    HW127056   6.788   0.764   5.938
 8719SOL    HW227057   6.839   0.641   5.843
 8720SOL     OW27058   4.861   3.957   5.960
 8720SOL    HW127059   4.905   3.868   5.959
 8720SOL    HW227060   4.772   3.950   6.006
 8721SOL     OW27061   0.180   1.722   4.486
 8721SOL    HW127062   0.180   1.803   4.428
 8721SOL    HW227063   0.240   1.652   4.446
 8722SOL     OW27064   3.695   2.795   0.478
 8722SOL    HW127065   3.718   2.705   0.517
 8722SOL    HW227066   3.767   2.822   0.414
 8723SOL     OW27067   6.853   4.816   0.190
 8723SOL    HW127068   6.814   4.728   0.163
 8723SOL    HW227069   6.918   4.847   0.121
 8724SOL     OW27070   5.549   6.403   6.672
 8724SOL    HW127071   5.495   6.339   6.727
 8724SOL    HW227072   5.492   6.479   6.644
 8725SOL     OW27073   2.191   5.968   1.054
 8725SOL    HW127074   2.168   5.887   1.000
 8725SOL    HW227075   2.127   6.042   1.032
 8726SOL     OW27076   4.994   0.617   1.425
 8726SOL    HW127077   4.964   0.609   1.521
 8726SOL    HW227078   4.929   0.672   1.374
 8727SOL     OW27079   5.953   5.810   0.811
 8727SOL    HW127080   5.952   5.780   0.716
 8727SOL    HW227081   5.887   5.756   0.864
 8728SOL     OW27082   2.327   6.976   5.666
 8728SOL    HW127083   2.409   6.926   5.693
 8728SOL    HW227084   2.246   6.928   5.698
 8729SOL     OW27085   5.695   6.317   4.602
 8729SOL    HW127086   5.602   6.291   4.579
 8729SOL    HW227087   5.700   6.344   4.698
 8730SOL     OW27088   0.153   0.155   1.498
 8730SOL    HW127089   0.089   0.138   1.423
 8730SOL    HW227090   0.227   0.087   1.495
 8731SOL     OW27091   1.189   1.745   2.608
 8731SOL    HW127092   1.118   1.693   2.654
 8731SOL    HW227093   1.160   1.766   2.514
 8732SOL     OW27094   5.507   4.722   1.507
 8732SOL    HW127095   5.447   4.800   1.493
 8732SOL    HW227096   5.591   4.734   1.454
 8733SOL     OW27097   0.218   6.267   1.365
 8733SOL    HW127098   0.134   6.295   1.412
 8733SOL    HW227099   0.261   6.192   1.415
 8734SOL     OW27100   6.648   4.907   0.349
 8734SOL    HW127101   6.695   4.964   0.416
 8734SOL    HW227102   6.715   4.862   0.290
 8735SOL     OW27103   6.563   2.498   6.946
 8735SOL    HW127104   6.652   2.543   6.941
 8735SOL    HW227105   6.547   2.444   6.864
 8736SOL     OW27106   0.724   4.861   6.465
 8736SOL    HW127107   0.818   4.840   6.492
 8736SOL    HW227108   0.716   4.959   6.445
 8737SOL     OW27109   3.768   5.585   6.497
 8737SOL    HW127110   3.728   5.664   6.450
 8737SOL    HW227111   3.849   5.614   6.548
 8738SOL     OW27112   1.536   3.505   4.925
 8738SOL    HW127113   1.444   3.541   4.943
 8738SOL    HW227114   1.603   3.560   4.975
 8739SOL     OW27115   1.465   2.929   5.269
 8739SOL    HW127116   1.433   3.008   5.216
 8739SOL    HW227117   1.477   2.956   5.364
 8740SOL     OW27118   1.849   6.392   1.504
 8740SOL    HW127119   1.797   6.321   1.551
 8740SOL    HW227120   1.947   6.377   1.518
 8741SOL     OW27121   1.212   3.630   2.340
 8741SOL    HW127122   1.272   3.570   2.287
 8741SOL    HW227123   1.207   3.598   2.434
 8742SOL     OW27124   4.606   6.990   2.130
 8742SOL    HW127125   4.668   7.024   2.059
 8742SOL    HW227126   4.511   6.999   2.099
 8743SOL     OW27127   2.374   4.406   3.348
 8743SOL    HW127128   2.291   4.411   3.292
 8743SOL    HW227129   2.370   4.476   3.419
 8744SOL     OW27130   2.951   3.132   5.888
 8744SOL    HW127131   2.904   3.203   5.940
 8744SOL    HW227132   3.042   3.164   5.862
 8745SOL     OW27133   6.588   1.901   6.909
 8745SOL    HW127134   6.520   1.902   6.836
 8745SOL    HW227135   6.637   1.813   6.907
 8746SOL     OW27136   5.430   4.120   5.175
 8746SOL    HW127137   5.336   4.115   5.140
 8746SOL    HW227138   5.440   4.202   5.231
 8747SOL     OW27139   1.800   2.745   4.045
 8747SOL    HW127140   1.740   2.766   3.968
 8747SOL    HW227141   1.809   2.646   4.053
 8748SOL     OW27142   2.713   0.614   6.852
 8748SOL    HW127143   2.782   0.649   6.915
 8748SOL    HW227144   2.648   0.687   6.829
 8749SOL     OW27145   4.197   1.325   3.984
 8749SOL    HW127146   4.161   1.368   3.901
 8749SOL    HW227147   4.154   1.366   4.064
 8750SOL     OW27148   2.358   0.831   5.281
 8750SOL    HW127149   2.346   0.808   5.377
 8750SOL    HW227150   2.417   0.763   5.237
 8751SOL     OW27151   2.262   0.060   2.885
 8751SOL    HW127152   2.254   6.992   2.917
 8751SOL    HW227153   2.339   0.104   2.932
 8752SOL     OW27154   1.952   2.624   6.808
 8752SOL    HW127155   1.934   2.672   6.722
 8752SOL    HW227156   1.865   2.591   6.846
 8753SOL     OW27157   5.707   1.129   5.202
 8753SOL    HW127158   5.732   1.116   5.298
 8753SOL    HW227159   5.626   1.074   5.181
 8754SOL     OW27160   1.976   1.039   5.325
 8754SOL    HW127161   2.064   1.075   5.293
 8754SOL    HW227162   1.920   1.015   5.246
 8755SOL     OW27163   2.252   2.033   0.338
 8755SOL    HW127164   2.301   2.119   0.324
 8755SOL    HW227165   2.195   2.040   0.420
 8756SOL     OW27166   2.219   3.164   3.825
 8756SOL    HW127167   2.250   3.153   3.731
 8756SOL    HW227168   2.234   3.079   3.876
 8757SOL     OW27169   4.810   5.920   4.242
 8757SOL    HW127170   4.729   5.908   4.300
 8757SOL    HW227171   4.798   6.003   4.187
 8758SOL     OW27172   4.954   6.407   2.101
 8758SOL    HW127173   5.043   6.445   2.074
 8758SOL    HW227174   4.901   6.386   2.019
 8759SOL     OW27175   5.072   1.158   5.829
 8759SOL    HW127176   5.031   1.246   5.807
 8759SOL    HW227177   5.074   1.146   5.929
 8760SOL     OW27178   1.824   2.927   3.370
 8760SOL    HW127179   1.806   2.831   3.352
 8760SOL    HW227180   1.910   2.955   3.328
 8761SOL     OW27181   5.086   6.596   0.916
 8761SOL    HW127182   5.020   6.605   0.842
 8761SOL    HW227183   5.114   6.686   0.947
 8762SOL     OW27184   1.197   4.162   0.027
 8762SOL    HW127185   1.143   4.230   7.004
 8762SOL    HW227186   1.179   4.071   7.017
 8763SOL     OW27187   7.003   6.333   5.655
 8763SOL    HW127188   6.996   6.233   5.663
 8763SOL    HW227189   0.069   6.362   5.680
 8764SOL     OW27190   3.188   2.294   5.524
 8764SOL    HW127191   3.105   2.320   5.475
 8764SOL    HW227192   3.265   2.290   5.460
 8765SOL     OW27193   0.133   0.374   5.203
 8765SOL    HW127194   0.051   0.318   5.200
 8765SOL    HW227195   0.161   0.388   5.298
 8766SOL     OW27196   2.485   4.430   2.559
 8766SOL    HW127197   2.426   4.398   2.484
 8766SOL    HW227198   2.539   4.508   2.527
 8767SOL     OW27199   5.288   1.566   4.930
 8767SOL    HW127200   5.192   1.577   4.907
 8767SOL    HW227201   5.341   1.640   4.889
 8768SOL     OW27202   1.492   4.419   7.010
 8768SOL    HW127203   1.489   4.332   6.962
 8768SOL    HW227204   1.400   4.440   0.019
 8769SOL     OW27205   2.448   0.750   5.559
 8769SOL    HW127206   2.537   0.716   5.588
 8769SOL    HW227207   2.380   0.677   5.568
 8770SOL     OW27208   5.440   2.105   2.137
 8770SOL    HW127209   5.390   2.186   2.106
 8770SOL    HW227210   5.539   2.121   2.127
 8771SOL     OW27211   1.882   2.594   6.457
 8771SOL    HW127212   1.863   2.522   6.524
 8771SOL    HW227213   1.915   2.553   6.372
 8772SOL     OW27214   6.065   6.307   6.521
 8772SOL    HW127215   6.013   6.353   6.593
 8772SOL    HW227216   6.018   6.319   6.433
 8773SOL     OW27217   3.167   2.125   3.348
 8773SOL    HW127218   3.101   2.199   3.360
 8773SOL    HW227219   3.182   2.079   3.435
 8774SOL     OW27220   1.060   1.186   0.042
 8774SOL    HW127221   0.995   1.137   7.012
 8774SOL    HW227222   1.152   1.149   0.027
 8775SOL     OW27223   6.448   6.891   4.174
 8775SOL    HW127224   6.461   6.942   4.259
 8775SOL    HW227225   6.393   6.946   4.110
 8776SOL     OW27226   2.904   3.449   4.568
 8776SOL    HW127227   2.916   3.536   4.616
 8776SOL    HW227228   2.817   3.449   4.519
 8777SOL     OW27229   6.535   5.642   2.282
 8777SOL    HW127230   6.530   5.551   2.323
 8777SOL    HW227231   6.471   5.647   2.206
 8778SOL     OW27232   0.881   1.993   3.228
 8778SOL    HW127233   0.861   1.935   3.307
 8778SOL    HW227234   0.973   1.973   3.194
 8779SOL     OW27235   1.748   4.463   0.930
 8779SOL    HW127236   1.781   4.417   1.012
 8779SOL    HW227237   1.655   4.497   0.945
 8780SOL     OW27238   2.152   5.661   4.514
 8780SOL    HW127239   2.192   5.726   4.578
 8780SOL    HW227240   2.192   5.675   4.423
 8781SOL     OW27241   0.841   2.109   2.662
 8781SOL    HW127242   0.938   2.131   2.663
 8781SOL    HW227243   0.828   2.011   2.673
 8782SOL     OW27244   4.969   1.724   2.904
 8782SOL    HW127245   4.910   1.728   2.984
 8782SOL    HW227246   5.011   1.633   2.898
 8783SOL     OW27247   5.004   2.161   5.576
 8783SOL    HW127248   4.938   2.233   5.556
 8783SOL    HW227249   4.992   2.130   5.670
 8784SOL     OW27250   5.373   4.212   5.888
 8784SOL    HW127251   5.336   4.268   5.814
 8784SOL    HW227252   5.298   4.166   5.936
 8785SOL     OW27253   5.233   4.837   6.429
 8785SOL    HW127254   5.296   4.776   6.381
 8785SOL    HW227255   5.160   4.783   6.470
 8786SOL     OW27256   1.433   6.144   0.445
 8786SOL    HW127257   1.428   6.200   0.363
 8786SOL    HW227258   1.522   6.158   0.489
 8787SOL     OW27259   1.428   2.920   0.356
 8787SOL    HW127260   1.417   2.871   0.442
 8787SOL    HW227261   1.457   2.856   0.285
 8788SOL     OW27262   1.203   1.695   5.204
 8788SOL    HW127263   1.129   1.631   5.223
 8788SOL    HW227264   1.178   1.753   5.126
 8789SOL     OW27265   0.509   0.129   6.574
 8789SOL    HW127266   0.515   0.185   6.491
 8789SOL    HW227267   0.436   0.164   6.633
 8790SOL     OW27268   5.159   1.357   0.296
 8790SOL    HW127269   5.127   1.409   0.376
 8790SOL    HW227270   5.113   1.269   0.293
 8791SOL     OW27271   4.669   6.521   5.102
 8791SOL    HW127272   4.765   6.549   5.103
 8791SOL    HW227273   4.630   6.536   5.011
 8792SOL     OW27274   5.210   0.090   3.188
 8792SOL    HW127275   5.280   0.044   3.243
 8792SOL    HW227276   5.120   0.053   3.209
 8793SOL     OW27277   1.266   4.334   4.180
 8793SOL    HW127278   1.218   4.289   4.255
 8793SOL    HW227279   1.360   4.355   4.208
 8794SOL     OW27280   2.300   6.456   2.836
 8794SOL    HW127281   2.327   6.403   2.756
 8794SOL    HW227282   2.314   6.554   2.818
 8795SOL     OW27283   1.915   6.249   5.264
 8795SOL    HW127284   1.976   6.300   5.203
 8795SOL    HW227285   1.940   6.267   5.359
 8796SOL     OW27286   5.553   2.380   5.412
 8796SOL    HW127287   5.649   2.407   5.400
 8796SOL    HW227288   5.541   2.342   5.504
 8797SOL     OW27289   0.569   6.720   6.828
 8797SOL    HW127290   0.573   6.644   6.892
 8797SOL    HW227291   0.486   6.774   6.845
 8798SOL     OW27292   3.904   3.528   5.781
 8798SOL    HW127293   3.907   3.628   5.773
 8798SOL    HW227294   3.994   3.495   5.809
 8799SOL     OW27295   3.835   6.538   2.232
 8799SOL    HW127296   3.914   6.596   2.253
 8799SOL    HW227297   3.851   6.490   2.146
 8800SOL     OW27298   4.743   5.098   0.546
 8800SOL    HW127299   4.819   5.151   0.508
 8800SOL    HW227300   4.769   5.002   0.551
 8801SOL     OW27301   2.990   6.801   4.788
 8801SOL    HW127302   3.055   6.776   4.717
 8801SOL    HW227303   3.022   6.765   4.876
 8802SOL     OW27304   2.449   6.894   2.256
 8802SOL    HW127305   2.546   6.872   2.250
 8802SOL    HW227306   2.398   6.816   2.293
 8803SOL     OW27307   3.738   6.180   0.438
 8803SOL    HW127308   3.662   6.188   0.503
 8803SOL    HW227309   3.818   6.228   0.474
 8804SOL     OW27310   3.674   0.323   0.730
 8804SOL    HW127311   3.602   0.368   0.782
 8804SOL    HW227312   3.763   0.357   0.760
 8805SOL     OW27313   0.318   0.005   3.114
 8805SOL    HW127314   0.354   6.993   3.199
 8805SOL    HW227315   0.393   0.043   3.060
 8806SOL     OW27316   2.134   4.943   0.147
 8806SOL    HW127317   2.128   4.867   0.083
 8806SOL    HW227318   2.057   4.937   0.212
 8807SOL     OW27319   1.713   6.106   6.145
 8807SOL    HW127320   1.760   6.152   6.221
 8807SOL    HW227321   1.779   6.052   6.093
 8808SOL     OW27322   6.130   1.585   0.894
 8808SOL    HW127323   6.057   1.517   0.888
 8808SOL    HW227324   6.195   1.570   0.820
 8809SOL     OW27325   6.014   4.302   0.835
 8809SOL    HW127326   5.937   4.255   0.878
 8809SOL    HW227327   6.020   4.395   0.870
 8810SOL     OW27328   5.090   1.415   3.649
 8810SOL    HW127329   5.125   1.375   3.565
 8810SOL    HW227330   4.992   1.432   3.640
 8811SOL     OW27331   1.355   1.475   4.186
 8811SOL    HW127332   1.421   1.546   4.210
 8811SOL    HW227333   1.309   1.442   4.269
 8812SOL     OW27334   1.806   1.042   0.471
 8812SOL    HW127335   1.718   0.995   0.479
 8812SOL    HW227336   1.879   0.975   0.459
 8813SOL     OW27337   1.347   5.637   0.870
 8813SOL    HW127338   1.371   5.734   0.866
 8813SOL    HW227339   1.416   5.587   0.922
 8814SOL     OW27340   5.463   6.812   0.169
 8814SOL    HW127341   5.558   6.831   0.147
 8814SOL    HW227342   5.421   6.759   0.095
 8815SOL     OW27343   6.810   5.903   2.763
 8815SOL    HW127344   6.728   5.851   2.742
 8815SOL    HW227345   6.796   5.952   2.850
 8816SOL     OW27346   0.938   6.120   1.735
 8816SOL    HW127347   1.033   6.113   1.768
 8816SOL    HW227348   0.896   6.030   1.736
 8817SOL     OW27349   2.583   4.419   5.212
 8817SOL    HW127350   2.619   4.499   5.164
 8817SOL    HW227351   2.652   4.347   5.216
 8818SOL     OW27352   0.113   5.128   4.682
 8818SOL    HW127353   0.176   5.051   4.680
 8818SOL    HW227354   0.062   5.127   4.768
 8819SOL     OW27355   5.299   0.309   3.835
 8819SOL    HW127356   5.373   0.283   3.773
 8819SOL    HW227357   5.220   0.339   3.782
 8820SOL     OW27358   1.433   2.867   4.078
 8820SOL    HW127359   1.370   2.938   4.047
 8820SOL    HW227360   1.499   2.846   4.006
 8821SOL     OW27361   1.741   0.139   6.634
 8821SOL    HW127362   1.698   0.132   6.543
 8821SOL    HW227363   1.689   0.204   6.690
 8822SOL     OW27364   0.339   1.679   3.977
 8822SOL    HW127365   0.347   1.583   4.005
 8822SOL    HW227366   0.264   1.689   3.912
 8823SOL     OW27367   2.657   5.014   2.121
 8823SOL    HW127368   2.730   4.959   2.081
 8823SOL    HW227369   2.654   5.000   2.220
 8824SOL     OW27370   4.613   4.094   0.562
 8824SOL    HW127371   4.564   4.087   0.475
 8824SOL    HW227372   4.585   4.019   0.622
 8825SOL     OW27373   1.762   2.699   1.299
 8825SOL    HW127374   1.691   2.662   1.357
 8825SOL    HW227375   1.721   2.760   1.231
 8826SOL     OW27376   5.914   0.609   0.217
 8826SOL    HW127377   5.871   0.554   0.288
 8826SOL    HW227378   5.928   0.702   0.251
 8827SOL     OW27379   0.602   1.382   3.432
 8827SOL    HW127380   0.634   1.295   3.470
 8827SOL    HW227381   0.665   1.413   3.361
 8828SOL     OW27382   1.276   6.226   2.652
 8828SOL    HW127383   1.194   6.192   2.607
 8828SOL    HW227384   1.322   6.292   2.593
 8829SOL     OW27385   0.664   1.805   7.012
 8829SOL    HW127386   0.649   1.895   6.971
 8829SOL    HW227387   0.729   1.753   6.956
 8830SOL     OW27388   1.046   1.728   0.544
 8830SOL    HW127389   1.044   1.821   0.582
 8830SOL    HW227390   1.082   1.731   0.451
 8831SOL     OW27391   0.107   1.169   2.392
 8831SOL    HW127392   0.068   1.145   2.481
 8831SOL    HW227393   0.205   1.186   2.401
 8832SOL     OW27394   0.147   0.862   2.624
 8832SOL    HW127395   0.120   0.775   2.582
 8832SOL    HW227396   0.110   0.938   2.570
 8833SOL     OW27397   1.856   4.565   3.439
 8833SOL    HW127398   1.876   4.471   3.411
 8833SOL    HW227399   1.784   4.564   3.509
 8834SOL     OW27400   6.017   3.620   4.206
 8834SOL    HW127401   5.941   3.557   4.191
 8834SOL    HW227402   6.090   3.600   4.140
 8835SOL     OW27403   0.471   0.221   6.310
 8835SOL    HW127404   0.479   0.193   6.215
 8835SOL    HW227405   0.526   0.304   6.325
 8836SOL     OW27406   5.119   1.668   1.122
 8836SOL    HW127407   5.048   1.650   1.191
 8836SOL    HW227408   5.095   1.622   1.037
 8837SOL     OW27409   1.104   1.796   2.305
 8837SOL    HW127410   1.059   1.725   2.252
 8837SOL    HW227411   1.039   1.838   2.369
 8838SOL     OW27412   2.123   5.885   3.726
 8838SOL    HW127413   2.157   5.844   3.810
 8838SOL    HW227414   2.199   5.912   3.668
 8839SOL     OW27415   5.797   6.990   4.198
 8839SOL    HW127416   5.828   6.939   4.118
 8839SOL    HW227417   5.697   7.001   4.193
 8840SOL     OW27418   4.865   1.405   2.660
 8840SOL    HW127419   4.793   1.456   2.709
 8840SOL    HW227420   4.954   1.427   2.700
 8841SOL     OW27421   2.014   0.088   4.311
 8841SOL    HW127422   1.968   0.005   4.343
 8841SOL    HW227423   1.974   0.168   4.356
 8842SOL     OW27424   1.611   2.565   2.073
 8842SOL    HW127425   1.677   2.493   2.051
 8842SOL    HW227426   1.660   2.647   2.103
 8843SOL     OW27427   0.480   3.440   4.619
 8843SOL    HW127428   0.436   3.354   4.595
 8843SOL    HW227429   0.482   3.500   4.539
 8844SOL     OW27430   5.929   1.364   6.278
 8844SOL    HW127431   6.010   1.416   6.251
 8844SOL    HW227432   5.956   1.273   6.310
 8845SOL     OW27433   5.721   3.665   0.042
 8845SOL    HW127434   5.685   3.628   6.983
 8845SOL    HW227435   5.759   3.756   0.025
 8846SOL     OW27436   2.717   4.734   3.293
 8846SOL    HW127437   2.649   4.687   3.236
 8846SOL    HW227438   2.704   4.708   3.389
 8847SOL     OW27439   1.821   0.667   2.687
 8847SOL    HW127440   1.891   0.738   2.688
 8847SOL    HW227441   1.735   0.706   2.654
 8848SOL     OW27442   1.261   0.301   2.828
 8848SOL    HW127443   1.255   0.201   2.838
 8848SOL    HW227444   1.356   0.330   2.840
 8849SOL     OW27445   2.547   6.957   1.349
 8849SOL    HW127446   2.557   6.884   1.416
 8849SOL    HW227447   2.564   0.019   1.394
 8850SOL     OW27448   2.557   2.564   0.010
 8850SOL    HW127449   2.637   2.530   6.987
 8850SOL    HW227450   2.578   2.570   0.107
 8851SOL     OW27451   1.662   3.556   2.367
 8851SOL    HW127452   1.687   3.469   2.411
 8851SOL    HW227453   1.607   3.537   2.286
 8852SOL     OW27454   1.197   2.126   5.467
 8852SOL    HW127455   1.137   2.080   5.402
 8852SOL    HW227456   1.271   2.171   5.418
 8853SOL     OW27457   5.342   0.522   1.607
 8853SOL    HW127458   5.316   0.429   1.632
 8853SOL    HW227459   5.380   0.523   1.515
 8854SOL     OW27460   1.142   2.432   5.207
 8854SOL    HW127461   1.114   2.510   5.150
 8854SOL    HW227462   1.195   2.466   5.285
 8855SOL     OW27463   5.453   5.025   1.276
 8855SOL    HW127464   5.367   4.980   1.251
 8855SOL    HW227465   5.530   4.973   1.240
 8856SOL     OW27466   6.565   1.005   5.771
 8856SOL    HW127467   6.609   0.978   5.686
 8856SOL    HW227468   6.629   0.994   5.847
 8857SOL     OW27469   6.509   1.817   6.349
 8857SOL    HW127470   6.526   1.719   6.338
 8857SOL    HW227471   6.553   1.867   6.274
 8858SOL     OW27472   6.858   6.009   5.011
 8858SOL    HW127473   6.789   6.061   5.061
 8858SOL    HW227474   6.815   5.957   4.938
 8859SOL     OW27475   1.114   6.120   3.349
 8859SOL    HW127476   1.014   6.115   3.356
 8859SOL    HW227477   1.140   6.171   3.268
 8860SOL     OW27478   0.029   4.157   2.810
 8860SOL    HW127479   6.986   4.226   2.787
 8860SOL    HW227480   7.026   4.068   2.777
 8861SOL     OW27481   3.559   2.743   1.286
 8861SOL    HW127482   3.537   2.828   1.334
 8861SOL    HW227483   3.549   2.666   1.349
 8862SOL     OW27484   4.517   4.527   4.708
 8862SOL    HW127485   4.480   4.488   4.792
 8862SOL    HW227486   4.537   4.454   4.643
 8863SOL     OW27487   1.935   3.748   3.100
 8863SOL    HW127488   1.996   3.772   3.024
 8863SOL    HW227489   1.990   3.726   3.181
 8864SOL     OW27490   6.432   2.215   5.452
 8864SOL    HW127491   6.460   2.167   5.535
 8864SOL    HW227492   6.431   2.152   5.375
 8865SOL     OW27493   2.939   1.808   0.413
 8865SOL    HW127494   2.992   1.761   0.342
 8865SOL    HW227495   2.852   1.761   0.426
 8866SOL     OW27496   5.903   6.697   1.945
 8866SOL    HW127497   5.917   6.725   1.850
 8866SOL    HW227498   5.880   6.776   2.001
 8867SOL     OW27499   6.386   3.085   2.671
 8867SOL    HW127500   6.299   3.131   2.687
 8867SOL    HW227501   6.404   3.019   2.745
 8868SOL     OW27502   6.996   3.750   3.889
 8868SOL    HW127503   6.943   3.797   3.960
 8868SOL    HW227504   7.021   3.816   3.818
 8869SOL     OW27505   4.821   0.403   3.346
 8869SOL    HW127506   4.833   0.383   3.249
 8869SOL    HW227507   4.798   0.500   3.357
 8870SOL     OW27508   1.616   0.830   2.176
 8870SOL    HW127509   1.576   0.917   2.148
 8870SOL    HW227510   1.564   0.755   2.135
 8871SOL     OW27511   0.011   0.635   1.911
 8871SOL    HW127512   6.955   0.603   1.958
 8871SOL    HW227513   0.072   0.558   1.894
 8872SOL     OW27514   6.832   3.967   3.550
 8872SOL    HW127515   6.758   3.923   3.601
 8872SOL    HW227516   6.901   4.000   3.614
 8873SOL     OW27517   2.239   2.094   2.733
 8873SOL    HW127518   2.221   2.027   2.661
 8873SOL    HW227519   2.297   2.053   2.803
 8874SOL     OW27520   2.853   6.356   0.195
 8874SOL    HW127521   2.850   6.257   0.204
 8874SOL    HW227522   2.884   6.397   0.281
 8875SOL     OW27523   6.577   3.132   4.533
 8875SOL    HW127524   6.608   3.047   4.575
 8875SOL    HW227525   6.656   3.185   4.502
 8876SOL     OW27526   4.328   0.360   0.024
 8876SOL    HW127527   4.231   0.336   0.022
 8876SOL    HW227528   4.341   0.450   7.009
 8877SOL     OW27529   1.411   5.041   1.335
 8877SOL    HW127530   1.470   4.962   1.349
 8877SOL    HW227531   1.379   5.043   1.240
 8878SOL     OW27532   4.563   4.244   1.344
 8878SOL    HW127533   4.483   4.252   1.285
 8878SOL    HW227534   4.534   4.243   1.439
 8879SOL     OW27535   6.734   4.191   2.608
 8879SOL    HW127536   6.683   4.277   2.613
 8879SOL    HW227537   6.735   4.147   2.698
 8880SOL     OW27538   4.129   1.871   2.970
 8880SOL    HW127539   4.215   1.905   3.008
 8880SOL    HW227540   4.073   1.833   3.043
 8881SOL     OW27541   3.858   4.824   3.413
 8881SOL    HW127542   3.947   4.856   3.381
 8881SOL    HW227543   3.843   4.731   3.382
 8882SOL     OW27544   4.089   0.499   0.511
 8882SOL    HW127545   4.169   0.440   0.519
 8882SOL    HW227546   4.104   0.568   0.441
 8883SOL     OW27547   0.039   6.577   3.758
 8883SOL    HW127548   0.081   6.519   3.688
 8883SOL    HW227549   6.991   6.528   3.802
 8884SOL     OW27550   4.925   3.132   5.361
 8884SOL    HW127551   4.996   3.198   5.336
 8884SOL    HW227552   4.954   3.041   5.332
 8885SOL     OW27553   5.819   5.840   0.464
 8885SOL    HW127554   5.754   5.794   0.525
 8885SOL    HW227555   5.856   5.921   0.509
 8886SOL     OW27556   3.973   5.907   6.740
 8886SOL    HW127557   4.016   5.839   6.680
 8886SOL    HW227558   4.012   5.901   6.831
 8887SOL     OW27559   3.969   0.645   1.742
 8887SOL    HW127560   3.976   0.555   1.698
 8887SOL    HW227561   3.988   0.636   1.839
 8888SOL     OW27562   3.343   1.917   2.360
 8888SOL    HW127563   3.320   2.003   2.404
 8888SOL    HW227564   3.303   1.916   2.268
 8889SOL     OW27565   1.537   5.151   0.037
 8889SOL    HW127566   1.455   5.171   7.011
 8889SOL    HW227567   1.603   5.103   7.005
 8890SOL     OW27568   1.066   6.717   0.148
 8890SOL    HW127569   1.011   6.677   0.074
 8890SOL    HW227570   1.044   6.672   0.234
 8891SOL     OW27571   5.875   3.983   5.659
 8891SOL    HW127572   5.852   3.888   5.677
 8891SOL    HW227573   5.806   4.043   5.698
 8892SOL     OW27574   2.860   5.528   4.970
 8892SOL    HW127575   2.929   5.458   4.986
 8892SOL    HW227576   2.876   5.572   4.882
 8893SOL     OW27577   0.945   5.159   5.643
 8893SOL    HW127578   0.983   5.095   5.576
 8893SOL    HW227579   0.857   5.125   5.675
 8894SOL     OW27580   5.005   1.680   1.712
 8894SOL    HW127581   5.011   1.779   1.701
 8894SOL    HW227582   5.042   1.654   1.801
 8895SOL     OW27583   6.493   3.337   1.119
 8895SOL    HW127584   6.478   3.432   1.092
 8895SOL    HW227585   6.573   3.331   1.179
 8896SOL     OW27586   1.159   1.716   3.579
 8896SOL    HW127587   1.221   1.783   3.538
 8896SOL    HW227588   1.129   1.748   3.669
 8897SOL     OW27589   1.846   5.758   4.188
 8897SOL    HW127590   1.936   5.715   4.197
 8897SOL    HW227591   1.832   5.786   4.092
 8898SOL     OW27592   5.096   3.644   2.534
 8898SOL    HW127593   5.062   3.569   2.477
 8898SOL    HW227594   5.100   3.728   2.480
 8899SOL     OW27595   1.711   3.901   3.036
 8899SOL    HW127596   1.800   3.889   3.080
 8899SOL    HW227597   1.688   3.820   2.982
 8900SOL     OW27598   4.671   1.709   4.383
 8900SOL    HW127599   4.721   1.667   4.459
 8900SOL    HW227600   4.682   1.653   4.301
 8901SOL     OW27601   1.323   5.135   4.803
 8901SOL    HW127602   1.412   5.127   4.849
 8901SOL    HW227603   1.309   5.056   4.744
 8902SOL     OW27604   0.284   4.840   0.415
 8902SOL    HW127605   0.219   4.915   0.431
 8902SOL    HW227606   0.236   4.764   0.371
 8903SOL     OW27607   1.275   6.959   5.715
 8903SOL    HW127608   1.264   6.934   5.619
 8903SOL    HW227609   1.193   7.005   5.748
 8904SOL     OW27610   0.891   0.992   3.699
 8904SOL    HW127611   0.808   0.940   3.678
 8904SOL    HW227612   0.971   0.945   3.663
 8905SOL     OW27613   1.347   4.036   2.965
 8905SOL    HW127614   1.382   3.942   2.970
 8905SOL    HW227615   1.395   4.086   2.893
 8906SOL     OW27616   5.903   0.055   0.238
 8906SOL    HW127617   5.884   7.019   0.162
 8906SOL    HW227618   5.999   0.083   0.235
 8907SOL     OW27619   3.024   3.075   5.254
 8907SOL    HW127620   3.005   3.133   5.175
 8907SOL    HW227621   3.072   3.127   5.324
 8908SOL     OW27622   1.210   4.288   6.378
 8908SOL    HW127623   1.220   4.299   6.478
 8908SOL    HW227624   1.301   4.277   6.338
 8909SOL     OW27625   1.750   5.646   1.372
 8909SOL    HW127626   1.663   5.596   1.370
 8909SOL    HW227627   1.822   5.586   1.406
 8910SOL     OW27628   0.897   0.512   3.503
 8910SOL    HW127629   0.883   0.413   3.500
 8910SOL    HW227630   0.979   0.532   3.557
 8911SOL     OW27631   4.458   2.242   4.403
 8911SOL    HW127632   4.522   2.272   4.473
 8911SOL    HW227633   4.401   2.169   4.440
 8912SOL     OW27634   3.566   3.572   4.198
 8912SOL    HW127635   3.587   3.525   4.113
 8912SOL    HW227636   3.527   3.662   4.178
 8913SOL     OW27637   5.226   5.910   0.789
 8913SOL    HW127638   5.130   5.937   0.780
 8913SOL    HW227639   5.284   5.991   0.784
 8914SOL     OW27640   4.776   6.079   5.176
 8914SOL    HW127641   4.856   6.116   5.223
 8914SOL    HW227642   4.783   5.980   5.170
 8915SOL     OW27643   1.834   0.905   3.087
 8915SOL    HW127644   1.886   0.826   3.053
 8915SOL    HW227645   1.788   0.950   3.010
 8916SOL     OW27646   5.195   1.224   1.026
 8916SOL    HW127647   5.244   1.301   1.066
 8916SOL    HW227648   5.165   1.162   1.098
 8917SOL     OW27649   5.970   1.645   0.447
 8917SOL    HW127650   5.871   1.659   0.447
 8917SOL    HW227651   5.991   1.548   0.460
 8918SOL     OW27652   0.968   3.460   2.916
 8918SOL    HW127653   1.065   3.443   2.933
 8918SOL    HW227654   0.913   3.416   2.988
 8919SOL     OW27655   6.359   2.961   1.658
 8919SOL    HW127656   6.295   2.994   1.727
 8919SOL    HW227657   6.368   2.862   1.665
 8920SOL     OW27658   0.314   0.799   0.005
 8920SOL    HW127659   0.328   0.736   0.082
 8920SOL    HW227660   0.399   0.845   7.010
 8921SOL     OW27661   0.986   3.204   1.935
 8921SOL    HW127662   1.028   3.118   1.966
 8921SOL    HW227663   0.914   3.230   1.999
 8922SOL     OW27664   4.401   5.497   3.719
 8922SOL    HW127665   4.324   5.459   3.771
 8922SOL    HW227666   4.451   5.423   3.675
 8923SOL     OW27667   2.196   1.668   4.418
 8923SOL    HW127668   2.185   1.697   4.513
 8923SOL    HW227669   2.170   1.572   4.410
 8924SOL     OW27670   6.330   4.717   5.003
 8924SOL    HW127671   6.392   4.640   5.014
 8924SOL    HW227672   6.301   4.723   4.908
 8925SOL     OW27673   0.884   6.711   2.716
 8925SOL    HW127674   0.954   6.642   2.737
 8925SOL    HW227675   0.928   6.800   2.702
 8926SOL     OW27676   6.038   1.127   6.907
 8926SOL    HW127677   5.987   1.189   6.968
 8926SOL    HW227678   5.975   1.089   6.839
 8927SOL     OW27679   1.790   0.630   6.452
 8927SOL    HW127680   1.742   0.544   6.467
 8927SOL    HW227681   1.782   0.655   6.355
 8928SOL     OW27682   1.336   6.562   5.513
 8928SOL    HW127683   1.294   6.557   5.603
 8928SOL    HW227684   1.362   6.470   5.483
 8929SOL     OW27685   6.781   1.423   3.844
 8929SOL    HW127686   6.847   1.426   3.919
 8929SOL    HW227687   6.811   1.353   3.778
 8930SOL     OW27688   2.074   4.502   4.017
 8930SOL    HW127689   2.164   4.544   4.028
 8930SOL    HW227690   2.086   4.407   3.986
 8931SOL     OW27691   4.247   3.539   0.386
 8931SOL    HW127692   4.188   3.609   0.347
 8931SOL    HW227693   4.324   3.582   0.433
 8932SOL     OW27694   0.823   3.447   3.691
 8932SOL    HW127695   0.895   3.513   3.714
 8932SOL    HW227696   0.865   3.357   3.675
 8933SOL     OW27697   3.969   1.868   5.805
 8933SOL    HW127698   3.949   1.960   5.839
 8933SOL    HW227699   4.063   1.865   5.770
 8934SOL     OW27700   2.622   6.132   2.830
 8934SOL    HW127701   2.577   6.061   2.776
 8934SOL    HW227702   2.685   6.090   2.895
 8935SOL     OW27703   6.756   4.758   0.712
 8935SOL    HW127704   6.738   4.715   0.623
 8935SOL    HW227705   6.686   4.827   0.730
 8936SOL     OW27706   3.925   2.446   0.153
 8936SOL    HW127707   4.005   2.403   0.111
 8936SOL    HW227708   3.931   2.545   0.143
 8937SOL     OW27709   0.328   7.016   6.045
 8937SOL    HW127710   0.421   6.981   6.033
 8937SOL    HW227711   0.314   0.016   6.140
 8938SOL     OW27712   5.029   6.322   1.559
 8938SOL    HW127713   5.017   6.224   1.544
 8938SOL    HW227714   5.119   6.351   1.524
 8939SOL     OW27715   4.699   1.609   4.982
 8939SOL    HW127716   4.613   1.604   4.931
 8939SOL    HW227717   4.683   1.650   5.072
 8940SOL     OW27718   5.565   0.116   2.437
 8940SOL    HW127719   5.524   0.201   2.405
 8940SOL    HW227720   5.650   0.137   2.487
 8941SOL     OW27721   4.541   1.332   6.516
 8941SOL    HW127722   4.629   1.285   6.506
 8941SOL    HW227723   4.550   1.405   6.585
 8942SOL     OW27724   1.352   2.747   5.489
 8942SOL    HW127725   1.335   2.716   5.396
 8942SOL    HW227726   1.441   2.794   5.493
 8943SOL     OW27727   5.166   3.835   0.721
 8943SOL    HW127728   5.163   3.762   0.653
 8943SOL    HW227729   5.211   3.801   0.804
 8944SOL     OW27730   4.574   5.644   1.554
 8944SOL    HW127731   4.508   5.706   1.512
 8944SOL    HW227732   4.651   5.631   1.493
 8945SOL     OW27733   1.681   0.828   4.776
 8945SOL    HW127734   1.779   0.825   4.797
 8945SOL    HW227735   1.640   0.903   4.828
 8946SOL     OW27736   4.108   1.529   4.684
 8946SOL    HW127737   4.191   1.519   4.630
 8946SOL    HW227738   4.121   1.601   4.752
 8947SOL     OW27739   3.647   3.944   5.105
 8947SOL    HW127740   3.722   3.899   5.153
 8947SOL    HW227741   3.670   4.040   5.090
 8948SOL     OW27742   5.873   4.992   2.705
 8948SOL    HW127743   5.834   4.922   2.765
 8948SOL    HW227744   5.959   4.960   2.666
 8949SOL     OW27745   2.324   5.342   6.219
 8949SOL    HW127746   2.267   5.277   6.269
 8949SOL    HW227747   2.416   5.344   6.259
 8950SOL     OW27748   4.800   2.390   4.626
 8950SOL    HW127749   4.740   2.324   4.671
 8950SOL    HW227750   4.851   2.441   4.696
 8951SOL     OW27751   2.146   1.824   5.565
 8951SOL    HW127752   2.116   1.862   5.477
 8951SOL    HW227753   2.185   1.897   5.621
 8952SOL     OW27754   6.392   0.014   3.431
 8952SOL    HW127755   6.406   6.942   3.442
 8952SOL    HW227756   6.365   0.054   3.519
 8953SOL     OW27757   1.666   5.016   6.625
 8953SOL    HW127758   1.717   4.982   6.546
 8953SOL    HW227759   1.631   4.939   6.678
 8954SOL     OW27760   1.890   6.657   5.855
 8954SOL    HW127761   1.926   6.741   5.813
 8954SOL    HW227762   1.847   6.600   5.784
 8955SOL     OW27763   6.335   3.781   3.989
 8955SOL    HW127764   6.327   3.732   3.902
 8955SOL    HW227765   6.289   3.729   4.061
 8956SOL     OW27766   0.983   1.016   5.096
 8956SOL    HW127767   0.890   1.050   5.112
 8956SOL    HW227768   1.050   1.083   5.128
 8957SOL     OW27769   2.549   5.483   2.104
 8957SOL    HW127770   2.522   5.401   2.054
 8957SOL    HW227771   2.569   5.458   2.199
 8958SOL     OW27772   2.697   0.977   4.401
 8958SOL    HW127773   2.643   1.010   4.323
 8958SOL    HW227774   2.682   1.037   4.479
 8959SOL     OW27775   2.986   4.797   0.448
 8959SOL    HW127776   2.901   4.836   0.484
 8959SOL    HW227777   2.969   4.706   0.411
 8960SOL     OW27778   3.699   5.964   1.200
 8960SOL    HW127779   3.696   6.063   1.181
 8960SOL    HW227780   3.754   5.947   1.281
 8961SOL     OW27781   1.726   2.341   3.942
 8961SOL    HW127782   1.650   2.381   3.993
 8961SOL    HW227783   1.691   2.280   3.871
 8962SOL     OW27784   5.089   0.245   3.391
 8962SOL    HW127785   5.126   0.220   3.301
 8962SOL    HW227786   5.015   0.311   3.379
 8963SOL     OW27787   6.819   0.847   3.542
 8963SOL    HW127788   6.816   0.859   3.443
 8963SOL    HW227789   6.726   0.849   3.579
 8964SOL     OW27790   6.746   4.084   2.872
 8964SOL    HW127791   6.748   3.985   2.856
 8964SOL    HW227792   6.805   4.107   2.949
 8965SOL     OW27793   1.416   5.612   1.871
 8965SOL    HW127794   1.326   5.641   1.840
 8965SOL    HW227795   1.476   5.692   1.881
 8966SOL     OW27796   3.349   2.698   5.584
 8966SOL    HW127797   3.289   2.777   5.595
 8966SOL    HW227798   3.359   2.677   5.486
 8967SOL     OW27799   4.356   6.935   0.692
 8967SOL    HW127800   4.403   6.977   0.615
 8967SOL    HW227801   4.384   6.840   0.702
 8968SOL     OW27802   4.919   4.777   2.839
 8968SOL    HW127803   4.970   4.752   2.756
 8968SOL    HW227804   4.983   4.783   2.916
 8969SOL     OW27805   6.703   1.077   4.381
 8969SOL    HW127806   6.798   1.046   4.381
 8969SOL    HW227807   6.651   1.025   4.313
 8970SOL     OW27808   3.331   2.136   1.087
 8970SOL    HW127809   3.372   2.124   0.996
 8970SOL    HW227810   3.393   2.098   1.156
 8971SOL     OW27811   4.516   6.056   3.166
 8971SOL    HW127812   4.442   6.083   3.228
 8971SOL    HW227813   4.481   5.992   3.098
 8972SOL     OW27814   5.467   0.665   4.858
 8972SOL    HW127815   5.551   0.706   4.892
 8972SOL    HW227816   5.461   0.678   4.759
 8973SOL     OW27817   2.023   4.521   0.132
 8973SOL    HW127818   1.957   4.544   0.203
 8973SOL    HW227819   2.052   4.605   0.086
 8974SOL     OW27820   0.179   2.957   3.777
 8974SOL    HW127821   0.184   2.996   3.868
 8974SOL    HW227822   0.223   2.867   3.776
 8975SOL     OW27823   3.268   0.252   7.019
 8975SOL    HW127824   3.363   0.221   0.005
 8975SOL    HW227825   3.208   0.172   7.012
 8976SOL     OW27826   0.505   4.761   4.752
 8976SOL    HW127827   0.602   4.777   4.766
 8976SOL    HW227828   0.452   4.829   4.803
 8977SOL     OW27829   5.566   1.085   6.451
 8977SOL    HW127830   5.607   1.148   6.517
 8977SOL    HW227831   5.599   0.993   6.469
 8978SOL     OW27832   5.742   5.653   1.219
 8978SOL    HW127833   5.773   5.569   1.173
 8978SOL    HW227834   5.652   5.637   1.260
 8979SOL     OW27835   1.706   5.339   5.036
 8979SOL    HW127836   1.749   5.381   4.956
 8979SOL    HW227837   1.616   5.381   5.051
 8980SOL     OW27838   3.832   2.972   4.421
 8980SOL    HW127839   3.846   2.945   4.516
 8980SOL    HW227840   3.811   2.891   4.366
 8981SOL     OW27841   2.999   1.172   5.472
 8981SOL    HW127842   2.995   1.142   5.376
 8981SOL    HW227843   3.089   1.149   5.510
 8982SOL     OW27844   4.337   4.391   0.271
 8982SOL    HW127845   4.267   4.460   0.289
 8982SOL    HW227846   4.418   4.411   0.326
 8983SOL     OW27847   5.428   5.329   0.605
 8983SOL    HW127848   5.336   5.353   0.636
 8983SOL    HW227849   5.442   5.361   0.511
 8984SOL     OW27850   1.531   6.722   3.049
 8984SOL    HW127851   1.469   6.770   3.112
 8984SOL    HW227852   1.479   6.684   2.973
 8985SOL     OW27853   3.231   3.209   5.902
 8985SOL    HW127854   3.245   3.283   5.969
 8985SOL    HW227855   3.289   3.131   5.926
 8986SOL     OW27856   3.672   6.102   2.521
 8986SOL    HW127857   3.693   6.151   2.605
 8986SOL    HW227858   3.755   6.061   2.484
 8987SOL     OW27859   5.031   5.965   1.987
 8987SOL    HW127860   5.038   6.001   1.893
 8987SOL    HW227861   5.029   5.865   1.984
 8988SOL     OW27862   0.700   5.794   5.155
 8988SOL    HW127863   0.758   5.721   5.191
 8988SOL    HW227864   0.635   5.823   5.225
 8989SOL     OW27865   3.067   3.193   6.989
 8989SOL    HW127866   3.027   3.222   0.049
 8989SOL    HW227867   3.141   3.254   6.963
 8990SOL     OW27868   0.115   6.427   3.537
 8990SOL    HW127869   0.048   6.454   3.468
 8990SOL    HW227870   0.207   6.450   3.506
 8991SOL     OW27871   1.499   1.801   5.210
 8991SOL    HW127872   1.425   1.735   5.225
 8991SOL    HW227873   1.467   1.875   5.152
 8992SOL     OW27874   6.296   2.345   0.604
 8992SOL    HW127875   6.223   2.364   0.670
 8992SOL    HW227876   6.309   2.247   0.595
 8993SOL     OW27877   4.616   2.518   0.552
 8993SOL    HW127878   4.574   2.472   0.473
 8993SOL    HW227879   4.588   2.614   0.553
 8994SOL     OW27880   1.905   6.130   4.045
 8994SOL    HW127881   1.991   6.091   4.077
 8994SOL    HW227882   1.906   6.133   3.945
 8995SOL     OW27883   0.226   0.654   0.633
 8995SOL    HW127884   0.198   0.739   0.589
 8995SOL    HW227885   0.200   0.657   0.730
 8996SOL     OW27886   4.327   6.330   5.456
 8996SOL    HW127887   4.398   6.319   5.387
 8996SOL    HW227888   4.241   6.354   5.412
 8997SOL     OW27889   6.250   0.633   5.001
 8997SOL    HW127890   6.159   0.674   5.010
 8997SOL    HW227891   6.263   0.566   5.075
 8998SOL     OW27892   6.258   3.193   4.672
 8998SOL    HW127893   6.303   3.210   4.584
 8998SOL    HW227894   6.327   3.187   4.744
 8999SOL     OW27895   3.571   6.661   5.629
 8999SOL    HW127896   3.634   6.738   5.641
 8999SOL    HW227897   3.555   6.617   5.717
 9000SOL     OW27898   1.693   4.205   1.319
 9000SOL    HW127899   1.724   4.130   1.260
 9000SOL    HW227900   1.600   4.187   1.350
 9001SOL     OW27901   0.784   5.817   2.486
 9001SOL    HW127902   0.852   5.797   2.557
 9001SOL    HW227903   0.762   5.914   2.487
 9002SOL     OW27904   0.879   4.425   0.171
 9002SOL    HW127905   0.799   4.377   0.136
 9002SOL    HW227906   0.933   4.461   0.095
 9003SOL     OW27907   5.620   0.178   1.193
 9003SOL    HW127908   5.635   0.202   1.289
 9003SOL    HW227909   5.559   0.098   1.189
 9004SOL     OW27910   4.389   4.887   6.931
 9004SOL    HW127911   4.330   4.818   6.972
 9004SOL    HW227912   4.345   4.924   6.848
 9005SOL     OW27913   5.066   1.527   5.455
 9005SOL    HW127914   5.060   1.626   5.441
 9005SOL    HW227915   5.009   1.480   5.388
 9006SOL     OW27916   3.760   5.894   0.334
 9006SOL    HW127917   3.718   5.979   0.367
 9006SOL    HW227918   3.845   5.915   0.285
 9007SOL     OW27919   2.080   0.717   2.875
 9007SOL    HW127920   2.105   0.624   2.847
 9007SOL    HW227921   2.131   0.783   2.820
 9008SOL     OW27922   0.749   6.087   2.429
 9008SOL    HW127923   0.801   6.166   2.459
 9008SOL    HW227924   0.658   6.115   2.398
 9009SOL     OW27925   3.349   6.123   1.121
 9009SOL    HW127926   3.440   6.164   1.134
 9009SOL    HW227927   3.279   6.190   1.145
 9010SOL     OW27928   1.386   5.996   4.022
 9010SOL    HW127929   1.444   6.062   4.069
 9010SOL    HW227930   1.290   6.013   4.044
 9011SOL     OW27931   2.749   2.062   1.827
 9011SOL    HW127932   2.739   1.988   1.893
 9011SOL    HW227933   2.836   2.108   1.840
 9012SOL     OW27934   2.169   6.222   6.957
 9012SOL    HW127935   2.102   6.211   6.883
 9012SOL    HW227936   2.232   6.295   6.934
 9013SOL     OW27937   2.080   6.628   4.236
 9013SOL    HW127938   2.011   6.569   4.279
 9013SOL    HW227939   2.040   6.673   4.156
 9014SOL     OW27940   5.357   3.000   3.469
 9014SOL    HW127941   5.365   3.007   3.370
 9014SOL    HW227942   5.382   3.088   3.511
 9015SOL     OW27943   5.063   1.183   6.505
 9015SOL    HW127944   4.979   1.211   6.459
 9015SOL    HW227945   5.126   1.260   6.509
 9016SOL     OW27946   5.014   5.324   6.206
 9016SOL    HW127947   5.107   5.293   6.185
 9016SOL    HW227948   4.990   5.299   6.300
 9017SOL     OW27949   4.123   0.067   4.310
 9017SOL    HW127950   4.027   0.039   4.313
 9017SOL    HW227951   4.181   7.014   4.330
 9018SOL     OW27952   4.276   4.692   6.461
 9018SOL    HW127953   4.260   4.789   6.441
 9018SOL    HW227954   4.343   4.656   6.396
 9019SOL     OW27955   0.610   3.795   3.878
 9019SOL    HW127956   0.523   3.820   3.920
 9019SOL    HW227957   0.683   3.851   3.916
 9020SOL     OW27958   5.280   5.694   2.665
 9020SOL    HW127959   5.254   5.617   2.723
 9020SOL    HW227960   5.350   5.664   2.599
 9021SOL     OW27961   0.544   1.096   4.616
 9021SOL    HW127962   0.583   1.066   4.703
 9021SOL    HW227963   0.616   1.102   4.547
 9022SOL     OW27964   4.598   3.879   6.039
 9022SOL    HW127965   4.599   3.842   6.132
 9022SOL    HW227966   4.507   3.914   6.018
 9023SOL     OW27967   5.792   4.516   0.534
 9023SOL    HW127968   5.754   4.506   0.626
 9023SOL    HW227969   5.718   4.507   0.467
 9024SOL     OW27970   2.378   6.113   6.226
 9024SOL    HW127971   2.381   6.038   6.293
 9024SOL    HW227972   2.336   6.193   6.268
 9025SOL     OW27973   0.981   5.799   1.095
 9025SOL    HW127974   1.031   5.799   1.008
 9025SOL    HW227975   0.884   5.778   1.078
 9026SOL     OW27976   5.298   1.599   0.487
 9026SOL    HW127977   5.355   1.681   0.488
 9026SOL    HW227978   5.217   1.615   0.543
 9027SOL     OW27979   0.982   3.627   3.232
 9027SOL    HW127980   1.016   3.707   3.183
 9027SOL    HW227981   1.059   3.568   3.257
 9028SOL     OW27982   3.183   5.310   5.897
 9028SOL    HW127983   3.262   5.356   5.938
 9028SOL    HW227984   3.163   5.226   5.949
 9029SOL     OW27985   4.603   6.993   4.519
 9029SOL    HW127986   4.528   7.020   4.579
 9029SOL    HW227987   4.575   6.915   4.463
 9030SOL     OW27988   2.847   1.493   2.218
 9030SOL    HW127989   2.930   1.527   2.261
 9030SOL    HW227990   2.815   1.560   2.151
 9031SOL     OW27991   4.918   6.966   4.343
 9031SOL    HW127992   4.863   7.020   4.278
 9031SOL    HW227993   4.878   6.875   4.353
 9032SOL     OW27994   4.919   3.656   2.151
 9032SOL    HW127995   4.980   3.733   2.134
 9032SOL    HW227996   4.902   3.607   2.065
 9033SOL     OW27997   0.803   6.968   2.905
 9033SOL    HW127998   0.735   0.012   2.926
 9033SOL    HW227999   0.809   6.903   2.981
 9034SOL     OW28000   4.745   0.330   4.500
 9034SOL    HW128001   4.650   0.303   4.482
 9034SOL    HW228002   4.794   0.253   4.543
 9035SOL     OW28003   2.288   4.848   6.566
 9035SOL    HW128004   2.314   4.765   6.517
 9035SOL    HW228005   2.363   4.876   6.626
 9036SOL     OW28006   1.587   4.238   5.462
 9036SOL    HW128007   1.578   4.139   5.447
 9036SOL    HW228008   1.496   4.280   5.455
 9037SOL     OW28009   1.371   1.472   3.034
 9037SOL    HW128010   1.344   1.456   3.129
 9037SOL    HW228011   1.433   1.400   3.003
 9038SOL     OW28012   4.433   2.911   5.724
 9038SOL    HW128013   4.440   2.995   5.670
 9038SOL    HW228014   4.493   2.842   5.686
 9039SOL     OW28015   4.050   5.738   6.538
 9039SOL    HW128016   4.052   5.817   6.477
 9039SOL    HW228017   4.045   5.654   6.484
 9040SOL     OW28018   2.254   1.790   1.452
 9040SOL    HW128019   2.302   1.783   1.365
 9040SOL    HW228020   2.319   1.810   1.525
 9041SOL     OW28021   6.919   2.315   2.332
 9041SOL    HW128022   6.833   2.274   2.300
 9041SOL    HW228023   6.978   2.333   2.253
 9042SOL     OW28024   3.624   6.280   0.174
 9042SOL    HW128025   3.659   6.238   0.258
 9042SOL    HW228026   3.701   6.302   0.114
 9043SOL     OW28027   3.444   2.068   0.442
 9043SOL    HW128028   3.513   2.123   0.490
 9043SOL    HW228029   3.407   1.999   0.504
 9044SOL     OW28030   0.725   1.327   0.189
 9044SOL    HW128031   0.735   1.324   0.090
 9044SOL    HW228032   0.815   1.336   0.232
 9045SOL     OW28033   4.025   1.754   3.188
 9045SOL    HW128034   3.954   1.789   3.249
 9045SOL    HW228035   3.987   1.681   3.131
 9046SOL     OW28036   3.180   3.460   2.700
 9046SOL    HW128037   3.092   3.440   2.657
 9046SOL    HW228038   3.195   3.397   2.776
 9047SOL     OW28039   1.436   3.836   6.435
 9047SOL    HW128040   1.347   3.832   6.480
 9047SOL    HW228041   1.508   3.846   6.505
 9048SOL     OW28042   6.828   1.553   6.534
 9048SOL    HW128043   6.804   1.633   6.589
 9048SOL    HW228044   6.836   1.473   6.594
 9049SOL     OW28045   2.713   6.865   6.285
 9049SOL    HW128046   2.703   6.832   6.378
 9049SOL    HW228047   2.798   6.830   6.246
 9050SOL     OW28048   1.028   4.918   0.970
 9050SOL    HW128049   0.959   4.845   0.968
 9050SOL    HW228050   0.995   4.994   1.025
 9051SOL     OW28051   2.529   1.168   1.615
 9051SOL    HW128052   2.561   1.145   1.524
 9051SOL    HW228053   2.606   1.202   1.670
 9052SOL     OW28054   1.257   2.471   5.447
 9052SOL    HW128055   1.306   2.384   5.455
 9052SOL    HW228056   1.294   2.536   5.513
 9053SOL     OW28057   1.569   1.097   0.113
 9053SOL    HW128058   1.527   1.045   0.038
 9053SOL    HW228059   1.515   1.087   0.196
 9054SOL     OW28060   2.141   5.589   2.528
 9054SOL    HW128061   2.162   5.530   2.450
 9054SOL    HW228062   2.212   5.579   2.597
 9055SOL     OW28063   0.062   3.308   4.802
 9055SOL    HW128064   0.001   3.235   4.834
 9055SOL    HW228065   0.148   3.305   4.852
 9056SOL     OW28066   6.416   2.748   2.668
 9056SOL    HW128067   6.430   2.762   2.766
 9056SOL    HW228068   6.470   2.669   2.638
 9057SOL     OW28069   4.318   1.684   3.955
 9057SOL    HW128070   4.223   1.689   3.984
 9057SOL    HW228071   4.324   1.711   3.859
 9058SOL     OW28072   2.448   0.443   5.778
 9058SOL    HW128073   2.522   0.444   5.845
 9058SOL    HW228074   2.444   0.353   5.734
 9059SOL     OW28075   1.152   2.132   2.618
 9059SOL    HW128076   1.120   2.126   2.523
 9059SOL    HW228077   1.248   2.103   2.623
 9060SOL     OW28078   5.182   2.912   5.637
 9060SOL    HW128079   5.236   2.831   5.660
 9060SOL    HW228080   5.095   2.885   5.597
 9061SOL     OW28081   3.103   5.433   2.983
 9061SOL    HW128082   3.057   5.512   2.942
 9061SOL    HW228083   3.103   5.442   3.083
 9062SOL     OW28084   1.547   5.981   1.012
 9062SOL    HW128085   1.522   6.040   0.935
 9062SOL    HW228086   1.646   5.964   1.011
 9063SOL     OW28087   2.915   1.855   2.223
 9063SOL    HW128088   2.898   1.907   2.307
 9063SOL    HW228089   2.955   1.916   2.155
 9064SOL     OW28090   5.627   3.541   0.502
 9064SOL    HW128091   5.542   3.573   0.544
 9064SOL    HW228092   5.647   3.595   0.421
 9065SOL     OW28093   2.358   0.584   6.946
 9065SOL    HW128094   2.426   0.514   6.964
 9065SOL    HW228095   2.309   0.562   6.861
 9066SOL     OW28096   4.823   6.776   0.041
 9066SOL    HW128097   4.893   6.842   0.070
 9066SOL    HW228098   4.753   6.768   0.112
 9067SOL     OW28099   1.299   6.740   1.856
 9067SOL    HW128100   1.243   6.818   1.830
 9067SOL    HW228101   1.345   6.759   1.943
 9068SOL     OW28102   1.176   6.213   6.554
 9068SOL    HW128103   1.260   6.236   6.603
 9068SOL    HW228104   1.099   6.258   6.598
 9069SOL     OW28105   1.185   2.085   6.100
 9069SOL    HW128106   1.103   2.136   6.071
 9069SOL    HW228107   1.187   2.079   6.199
 9070SOL     OW28108   1.355   4.099   3.910
 9070SOL    HW128109   1.316   4.189   3.930
 9070SOL    HW228110   1.292   4.047   3.852
 9071SOL     OW28111   4.887   5.864   0.236
 9071SOL    HW128112   4.981   5.895   0.225
 9071SOL    HW228113   4.859   5.812   0.155
 9072SOL     OW28114   5.833   4.885   7.024
 9072SOL    HW128115   5.893   4.942   0.054
 9072SOL    HW228116   5.855   4.899   6.927
 9073SOL     OW28117   1.782   0.696   1.614
 9073SOL    HW128118   1.859   0.738   1.661
 9073SOL    HW228119   1.815   0.630   1.547
 9074SOL     OW28120   0.306   0.372   3.467
 9074SOL    HW128121   0.317   0.426   3.550
 9074SOL    HW228122   0.332   0.427   3.387
 9075SOL     OW28123   0.516   0.478   1.909
 9075SOL    HW128124   0.527   0.576   1.894
 9075SOL    HW228125   0.586   0.428   1.858
 9076SOL     OW28126   7.000   1.898   5.373
 9076SOL    HW128127   0.011   1.985   5.406
 9076SOL    HW228128   6.937   1.916   5.297
 9077SOL     OW28129   6.623   6.062   1.543
 9077SOL    HW128130   6.615   6.027   1.449
 9077SOL    HW228131   6.593   5.991   1.607
 9078SOL     OW28132   3.881   2.998   5.034
 9078SOL    HW128133   3.918   3.077   4.985
 9078SOL    HW228134   3.785   2.986   5.010
 9079SOL     OW28135   3.919   1.083   5.555
 9079SOL    HW128136   3.897   1.173   5.518
 9079SOL    HW228137   3.934   1.018   5.480
 9080SOL     OW28138   5.524   1.471   0.395
 9080SOL    HW128139   5.543   1.374   0.412
 9080SOL    HW228140   5.450   1.502   0.454
 9081SOL     OW28141   5.312   0.211   2.629
 9081SOL    HW128142   5.342   0.197   2.534
 9081SOL    HW228143   5.212   0.213   2.632
 9082SOL     OW28144   3.241   0.696   2.619
 9082SOL    HW128145   3.255   0.667   2.525
 9082SOL    HW228146   3.330   0.711   2.663
 9083SOL     OW28147   4.526   4.497   4.100
 9083SOL    HW128148   4.580   4.510   4.183
 9083SOL    HW228149   4.450   4.561   4.099
 9084SOL     OW28150   3.480   4.131   2.827
 9084SOL    HW128151   3.472   4.143   2.728
 9084SOL    HW228152   3.394   4.157   2.871
 9085SOL     OW28153   0.644   2.036   0.508
 9085SOL    HW128154   0.619   2.130   0.485
 9085SOL    HW228155   0.731   2.014   0.465
 9086SOL     OW28156   6.985   3.756   0.253
 9086SOL    HW128157   6.978   3.700   0.170
 9086SOL    HW228158   0.002   3.843   0.230
 9087SOL     OW28159   5.249   3.612   2.010
 9087SOL    HW128160   5.222   3.516   2.008
 9087SOL    HW228161   5.168   3.669   2.023
 9088SOL     OW28162   5.115   6.349   1.033
 9088SOL    HW128163   5.124   6.441   0.996
 9088SOL    HW228164   5.021   6.317   1.020
 9089SOL     OW28165   4.155   0.303   6.280
 9089SOL    HW128166   4.128   0.325   6.186
 9089SOL    HW228167   4.089   0.238   6.319
 9090SOL     OW28168   5.586   1.774   3.481
 9090SOL    HW128169   5.555   1.849   3.539
 9090SOL    HW228170   5.506   1.724   3.447
 9091SOL     OW28171   3.966   2.648   6.755
 9091SOL    HW128172   4.047   2.609   6.798
 9091SOL    HW228173   3.992   2.727   6.700
 9092SOL     OW28174   0.042   3.009   6.746
 9092SOL    HW128175   0.113   2.946   6.778
 9092SOL    HW228176   0.036   3.087   6.809
 9093SOL     OW28177   1.827   6.281   4.643
 9093SOL    HW128178   1.881   6.208   4.686
 9093SOL    HW228179   1.731   6.256   4.642
 9094SOL     OW28180   1.208   3.946   1.558
 9094SOL    HW128181   1.300   3.931   1.522
 9094SOL    HW228182   1.146   3.875   1.523
 9095SOL     OW28183   0.113   6.521   5.959
 9095SOL    HW128184   0.046   6.460   6.003
 9095SOL    HW228185   0.078   6.614   5.957
 9096SOL     OW28186   6.410   5.307   3.843
 9096SOL    HW128187   6.424   5.406   3.849
 9096SOL    HW228188   6.419   5.266   3.934
 9097SOL     OW28189   0.971   2.542   5.882
 9097SOL    HW128190   0.890   2.513   5.831
 9097SOL    HW228191   0.958   2.637   5.913
 9098SOL     OW28192   2.309   4.107   3.674
 9098SOL    HW128193   2.305   4.101   3.574
 9098SOL    HW228194   2.238   4.170   3.707
 9099SOL     OW28195   2.439   1.523   6.676
 9099SOL    HW128196   2.377   1.472   6.616
 9099SOL    HW228197   2.389   1.597   6.720
 9100SOL     OW28198   1.743   4.299   4.167
 9100SOL    HW128199   1.804   4.363   4.214
 9100SOL    HW228200   1.655   4.297   4.214
 9101SOL     OW28201   0.460   2.338   0.725
 9101SOL    HW128202   0.508   2.280   0.791
 9101SOL    HW228203   0.489   2.315   0.633
 9102SOL     OW28204   3.802   6.705   2.855
 9102SOL    HW128205   3.723   6.755   2.821
 9102SOL    HW228206   3.884   6.735   2.808
 9103SOL     OW28207   6.148   1.170   1.260
 9103SOL    HW128208   6.181   1.263   1.242
 9103SOL    HW228209   6.130   1.159   1.357
 9104SOL     OW28210   6.028   1.896   6.265
 9104SOL    HW128211   5.970   1.818   6.240
 9104SOL    HW228212   6.111   1.895   6.209
 9105SOL     OW28213   2.750   1.133   5.565
 9105SOL    HW128214   2.697   1.148   5.482
 9105SOL    HW228215   2.847   1.128   5.542
 9106SOL     OW28216   1.728   3.941   6.971
 9106SOL    HW128217   1.663   3.866   6.960
 9106SOL    HW228218   1.764   3.941   0.038
 9107SOL     OW28219   3.204   1.190   0.375
 9107SOL    HW128220   3.133   1.240   0.326
 9107SOL    HW228221   3.228   1.107   0.325
 9108SOL     OW28222   0.094   5.585   5.900
 9108SOL    HW128223   0.004   5.554   5.870
 9108SOL    HW228224   0.117   5.541   5.987
 9109SOL     OW28225   5.655   3.811   2.980
 9109SOL    HW128226   5.593   3.755   2.924
 9109SOL    HW228227   5.662   3.902   2.940
 9110SOL     OW28228   1.475   6.136   3.245
 9110SOL    HW128229   1.425   6.077   3.308
 9110SOL    HW228230   1.544   6.082   3.196
 9111SOL     OW28231   3.808   2.574   6.412
 9111SOL    HW128232   3.749   2.597   6.489
 9111SOL    HW228233   3.752   2.547   6.333
 9112SOL     OW28234   0.717   5.188   1.934
 9112SOL    HW128235   0.682   5.282   1.932
 9112SOL    HW228236   0.644   5.126   1.960
 9113SOL     OW28237   5.668   0.649   4.139
 9113SOL    HW128238   5.704   0.562   4.172
 9113SOL    HW228239   5.702   0.666   4.046
 9114SOL     OW28240   0.911   6.914   5.877
 9114SOL    HW128241   0.911   7.004   5.921
 9114SOL    HW228242   0.832   6.906   5.817
 9115SOL     OW28243   4.920   4.479   4.987
 9115SOL    HW128244   4.842   4.419   5.006
 9115SOL    HW228245   4.963   4.450   4.901
 9116SOL     OW28246   1.783   0.248   3.891
 9116SOL    HW128247   1.857   0.212   3.948
 9116SOL    HW228248   1.725   0.173   3.860
 9117SOL     OW28249   2.212   6.725   0.009
 9117SOL    HW128250   2.150   6.777   0.067
 9117SOL    HW228251   2.297   6.707   0.059
 9118SOL     OW28252   6.685   3.929   2.093
 9118SOL    HW128253   6.704   3.995   2.020
 9118SOL    HW228254   6.705   3.971   2.182
 9119SOL     OW28255   3.193   0.909   0.724
 9119SOL    HW128256   3.219   0.983   0.788
 9119SOL    HW228257   3.135   0.947   0.652
 9120SOL     OW28258   6.296   3.942   4.370
 9120SOL    HW128259   6.341   3.952   4.281
 9120SOL    HW228260   6.346   3.875   4.425
 9121SOL     OW28261   3.920   1.040   4.328
 9121SOL    HW128262   3.827   1.069   4.346
 9121SOL    HW228263   3.935   0.948   4.364
 9122SOL     OW28264   0.616   3.025   1.615
 9122SOL    HW128265   0.701   3.068   1.643
 9122SOL    HW228266   0.546   3.040   1.685
 9123SOL     OW28267   0.572   5.945   4.315
 9123SOL    HW128268   0.474   5.942   4.298
 9123SOL    HW228269   0.604   5.854   4.340
 9124SOL     OW28270   3.166   5.694   0.989
 9124SOL    HW128271   3.167   5.759   1.066
 9124SOL    HW228272   3.176   5.744   0.903
 9125SOL     OW28273   5.303   6.347   1.942
 9125SOL    HW128274   5.269   6.355   2.035
 9125SOL    HW228275   5.402   6.340   1.942
 9126SOL     OW28276   4.476   4.952   1.058
 9126SOL    HW128277   4.378   4.937   1.075
 9126SOL    HW228278   4.501   5.043   1.091
 9127SOL     OW28279   6.442   4.490   5.102
 9127SOL    HW128280   6.407   4.465   5.193
 9127SOL    HW228281   6.541   4.475   5.099
 9128SOL     OW28282   5.671   4.094   5.801
 9128SOL    HW128283   5.681   4.193   5.798
 9128SOL    HW228284   5.580   4.068   5.770
 9129SOL     OW28285   0.600   2.830   0.629
 9129SOL    HW128286   0.556   2.760   0.685
 9129SOL    HW228287   0.560   2.831   0.537
 9130SOL     OW28288   2.936   3.193   5.024
 9130SOL    HW128289   2.929   3.229   4.931
 9130SOL    HW228290   2.845   3.180   5.062
 9131SOL     OW28291   5.253   2.592   0.531
 9131SOL    HW128292   5.156   2.602   0.554
 9131SOL    HW228293   5.266   2.608   0.433
 9132SOL     OW28294   1.042   3.759   3.965
 9132SOL    HW128295   1.059   3.695   3.890
 9132SOL    HW228296   1.114   3.749   4.034
 9133SOL     OW28297   5.897   0.243   1.294
 9133SOL    HW128298   5.901   0.212   1.389
 9133SOL    HW228299   5.840   0.179   1.241
 9134SOL     OW28300   4.861   4.799   0.040
 9134SOL    HW128301   4.821   4.880   0.084
 9134SOL    HW228302   4.835   4.717   0.091
 9135SOL     OW28303   6.435   5.951   2.499
 9135SOL    HW128304   6.449   5.905   2.586
 9135SOL    HW228305   6.522   5.961   2.451
 9136SOL     OW28306   0.440   5.125   0.637
 9136SOL    HW128307   0.354   5.127   0.687
 9136SOL    HW228308   0.468   5.031   0.620
 9137SOL     OW28309   5.616   6.249   5.115
 9137SOL    HW128310   5.630   6.190   5.194
 9137SOL    HW228311   5.617   6.345   5.145
 9138SOL     OW28312   2.336   4.035   6.057
 9138SOL    HW128313   2.276   4.090   6.115
 9138SOL    HW228314   2.386   3.969   6.113
 9139SOL     OW28315   6.924   0.131   1.928
 9139SOL    HW128316   6.966   0.065   1.990
 9139SOL    HW228317   6.871   0.197   1.981
 9140SOL     OW28318   2.069   3.823   2.484
 9140SOL    HW128319   2.084   3.881   2.564
 9140SOL    HW228320   2.022   3.875   2.413
 9141SOL     OW28321   0.510   5.979   4.864
 9141SOL    HW128322   0.457   5.958   4.782
 9141SOL    HW228323   0.584   6.042   4.840
 9142SOL     OW28324   0.930   4.108   3.560
 9142SOL    HW128325   1.008   4.117   3.498
 9142SOL    HW228326   0.963   4.098   3.654
 9143SOL     OW28327   6.478   3.575   2.985
 9143SOL    HW128328   6.496   3.549   2.890
 9143SOL    HW228329   6.535   3.654   3.008
 9144SOL     OW28330   3.211   4.316   5.360
 9144SOL    HW128331   3.214   4.269   5.272
 9144SOL    HW228332   3.276   4.391   5.361
 9145SOL     OW28333   1.344   6.193   5.580
 9145SOL    HW128334   1.293   6.107   5.583
 9145SOL    HW228335   1.375   6.210   5.486
 9146SOL     OW28336   6.185   2.210   3.418
 9146SOL    HW128337   6.181   2.161   3.331
 9146SOL    HW228338   6.092   2.229   3.449
 9147SOL     OW28339   4.004   0.317   5.785
 9147SOL    HW128340   4.025   0.375   5.706
 9147SOL    HW228341   3.905   0.313   5.798
 9148SOL     OW28342   4.964   5.646   1.794
 9148SOL    HW128343   4.973   5.664   1.892
 9148SOL    HW228344   4.889   5.582   1.779
 9149SOL     OW28345   1.166   3.624   1.287
 9149SOL    HW128346   1.264   3.638   1.277
 9149SOL    HW228347   1.120   3.645   1.200
 9150SOL     OW28348   3.142   3.928   6.855
 9150SOL    HW128349   3.117   3.917   6.759
 9150SOL    HW228350   3.228   3.880   6.873
 9151SOL     OW28351   1.983   2.929   3.744
 9151SOL    HW128352   1.932   2.997   3.797
 9151SOL    HW228353   2.064   2.972   3.705
 9152SOL     OW28354   2.078   4.528   2.498
 9152SOL    HW128355   1.993   4.476   2.507
 9152SOL    HW228356   2.107   4.560   2.589
 9153SOL     OW28357   0.224   3.147   0.037
 9153SOL    HW128358   0.190   3.106   0.122
 9153SOL    HW228359   0.227   3.247   0.048
 9154SOL     OW28360   4.840   4.677   3.228
 9154SOL    HW128361   4.885   4.632   3.305
 9154SOL    HW228362   4.741   4.671   3.239
 9155SOL     OW28363   0.826   6.381   2.758
 9155SOL    HW128364   0.805   6.334   2.672
 9155SOL    HW228365   0.903   6.443   2.745
 9156SOL     OW28366   0.092   4.132   5.684
 9156SOL    HW128367   0.085   4.092   5.776
 9156SOL    HW228368   0.187   4.131   5.654
 9157SOL     OW28369   1.965   4.535   5.420
 9157SOL    HW128370   2.024   4.483   5.482
 9157SOL    HW228371   2.006   4.625   5.404
 9158SOL     OW28372   6.935   3.774   4.663
 9158SOL    HW128373   6.941   3.741   4.569
 9158SOL    HW228374   6.989   3.714   4.723
 9159SOL     OW28375   2.253   1.306   4.083
 9159SOL    HW128376   2.225   1.378   4.019
 9159SOL    HW228377   2.333   1.258   4.045
 9160SOL     OW28378   1.084   2.871   6.582
 9160SOL    HW128379   1.177   2.840   6.603
 9160SOL    HW228380   1.076   2.886   6.484
 9161SOL     OW28381   6.120   3.045   3.106
 9161SOL    HW128382   6.094   3.077   3.015
 9161SOL    HW228383   6.102   2.947   3.113
 9162SOL     OW28384   3.855   2.415   1.652
 9162SOL    HW128385   3.953   2.410   1.671
 9162SOL    HW228386   3.804   2.404   1.737
 9163SOL     OW28387   1.884   2.496   4.126
 9163SOL    HW128388   1.836   2.434   4.063
 9163SOL    HW228389   1.939   2.443   4.190
 9164SOL     OW28390   2.502   6.577   6.545
 9164SOL    HW128391   2.435   6.612   6.480
 9164SOL    HW228392   2.470   6.596   6.638
 9165SOL     OW28393   5.350   1.567   6.009
 9165SOL    HW128394   5.394   1.636   6.066
 9165SOL    HW228395   5.314   1.493   6.067
 9166SOL     OW28396   4.137   6.521   2.084
 9166SOL    HW128397   4.126   6.546   1.988
 9166SOL    HW228398   4.116   6.601   2.141
 9167SOL     OW28399   1.418   1.502   4.545
 9167SOL    HW128400   1.474   1.533   4.469
 9167SOL    HW228401   1.474   1.491   4.626
 9168SOL     OW28402   6.083   5.762   5.118
 9168SOL    HW128403   6.057   5.707   5.197
 9168SOL    HW228404   6.027   5.735   5.039
 9169SOL     OW28405   6.468   5.621   0.243
 9169SOL    HW128406   6.470   5.705   0.297
 9169SOL    HW228407   6.428   5.641   0.153
 9170SOL     OW28408   2.005   0.774   5.778
 9170SOL    HW128409   2.015   0.837   5.701
 9170SOL    HW228410   2.068   0.697   5.766
 9171SOL     OW28411   3.573   5.878   7.003
 9171SOL    HW128412   3.569   5.976   6.985
 9171SOL    HW228413   3.503   5.854   0.043
 9172SOL     OW28414   4.457   1.497   5.443
 9172SOL    HW128415   4.463   1.397   5.446
 9172SOL    HW228416   4.431   1.531   5.533
 9173SOL     OW28417   6.146   3.654   5.598
 9173SOL    HW128418   6.153   3.718   5.675
 9173SOL    HW228419   6.125   3.705   5.515
 9174SOL     OW28420   6.026   4.639   1.030
 9174SOL    HW128421   6.122   4.612   1.035
 9174SOL    HW228422   5.990   4.653   1.123
 9175SOL     OW28423   2.060   0.641   1.422
 9175SOL    HW128424   2.134   0.585   1.384
 9175SOL    HW228425   1.976   0.587   1.426
 9176SOL     OW28426   2.030   0.994   2.024
 9176SOL    HW128427   1.977   1.023   1.944
 9176SOL    HW228428   2.123   0.969   1.996
 9177SOL     OW28429   0.998   6.161   3.796
 9177SOL    HW128430   1.035   6.072   3.769
 9177SOL    HW228431   1.072   6.228   3.800
 9178SOL     OW28432   1.378   4.267   1.029
 9178SOL    HW128433   1.447   4.198   1.011
 9178SOL    HW228434   1.326   4.285   0.946
 9179SOL     OW28435   4.063   5.115   3.702
 9179SOL    HW128436   3.995   5.141   3.770
 9179SOL    HW228437   4.055   5.018   3.682
 9180SOL     OW28438   0.423   0.711   5.494
 9180SOL    HW128439   0.475   0.746   5.415
 9180SOL    HW228440   0.485   0.702   5.572
 9181SOL     OW28441   2.605   1.580   4.073
 9181SOL    HW128442   2.634   1.617   3.984
 9181SOL    HW228443   2.597   1.655   4.139
 9182SOL     OW28444   0.283   2.037   2.640
 9182SOL    HW128445   0.309   1.959   2.582
 9182SOL    HW228446   0.318   2.022   2.733
 9183SOL     OW28447   1.759   1.306   6.152
 9183SOL    HW128448   1.769   1.366   6.072
 9183SOL    HW228449   1.825   1.333   6.222
 9184SOL     OW28450   2.848   4.668   1.199
 9184SOL    HW128451   2.773   4.725   1.167
 9184SOL    HW228452   2.897   4.715   1.273
 9185SOL     OW28453   1.553   0.176   5.972
 9185SOL    HW128454   1.624   0.220   6.027
 9185SOL    HW228455   1.477   0.150   6.031
 9186SOL     OW28456   5.652   6.628   6.830
 9186SOL    HW128457   5.736   6.679   6.811
 9186SOL    HW228458   5.614   6.593   6.744
 9187SOL     OW28459   5.073   2.738   0.708
 9187SOL    HW128460   5.127   2.718   0.790
 9187SOL    HW228461   4.981   2.767   0.736
 9188SOL     OW28462   1.105   0.277   1.775
 9188SOL    HW128463   1.041   0.306   1.704
 9188SOL    HW228464   1.132   0.356   1.831
 9189SOL     OW28465   3.333   0.517   5.458
 9189SOL    HW128466   3.236   0.492   5.452
 9189SOL    HW228467   3.341   0.608   5.499
 9190SOL     OW28468   4.335   1.009   5.548
 9190SOL    HW128469   4.271   0.934   5.537
 9190SOL    HW228470   4.407   0.982   5.613
 9191SOL     OW28471   5.393   6.746   1.830
 9191SOL    HW128472   5.328   6.774   1.901
 9191SOL    HW228473   5.451   6.672   1.864
 9192SOL     OW28474   5.060   4.120   4.845
 9192SOL    HW128475   5.051   4.029   4.886
 9192SOL    HW228476   5.104   4.113   4.756
 9193SOL     OW28477   3.613   4.133   3.351
 9193SOL    HW128478   3.690   4.112   3.292
 9193SOL    HW228479   3.534   4.159   3.296
 9194SOL     OW28480   3.937   4.828   3.060
 9194SOL    HW128481   3.951   4.919   3.100
 9194SOL    HW228482   3.839   4.812   3.047
 9195SOL     OW28483   0.703   2.587   2.899
 9195SOL    HW128484   0.638   2.651   2.940
 9195SOL    HW228485   0.686   2.495   2.936
 9196SOL     OW28486   4.799   6.333   3.840
 9196SOL    HW128487   4.701   6.352   3.838
 9196SOL    HW228488   4.815   6.238   3.811
 9197SOL     OW28489   4.598   1.557   6.702
 9197SOL    HW128490   4.644   1.502   6.771
 9197SOL    HW228491   4.657   1.634   6.676
 9198SOL     OW28492   5.620   2.674   5.390
 9198SOL    HW128493   5.713   2.650   5.419
 9198SOL    HW228494   5.599   2.767   5.419
 9199SOL     OW28495   1.138   3.335   6.536
 9199SOL    HW128496   1.176   3.317   6.627
 9199SOL    HW228497   1.052   3.285   6.525
 9200SOL     OW28498   5.017   5.939   1.320
 9200SOL    HW128499   5.059   5.982   1.240
 9200SOL    HW228500   4.973   5.853   1.293
 9201SOL     OW28501   0.027   3.562   1.957
 9201SOL    HW128502   0.001   3.466   1.970
 9201SOL    HW228503   6.978   3.621   1.986
 9202SOL     OW28504   2.782   6.042   4.329
 9202SOL    HW128505   2.818   6.101   4.256
 9202SOL    HW228506   2.714   5.980   4.291
 9203SOL     OW28507   4.922   0.959   6.990
 9203SOL    HW128508   4.831   1.000   6.993
 9203SOL    HW228509   4.922   0.885   6.923
 9204SOL     OW28510   5.150   4.675   2.628
 9204SOL    HW128511   5.120   4.633   2.714
 9204SOL    HW228512   5.215   4.748   2.647
 9205SOL     OW28513   4.401   2.388   1.431
 9205SOL    HW128514   4.333   2.450   1.470
 9205SOL    HW228515   4.392   2.387   1.332
 9206SOL     OW28516   6.366   6.271   4.663
 9206SOL    HW128517   6.401   6.178   4.673
 9206SOL    HW228518   6.327   6.282   4.572
 9207SOL     OW28519   4.414   6.546   0.232
 9207SOL    HW128520   4.479   6.477   0.202
 9207SOL    HW228521   4.392   6.532   0.329
 9208SOL     OW28522   4.548   4.566   1.462
 9208SOL    HW128523   4.472   4.546   1.399
 9208SOL    HW228524   4.529   4.524   1.551
 9209SOL     OW28525   4.367   0.466   3.644
 9209SOL    HW128526   4.395   0.374   3.672
 9209SOL    HW228527   4.290   0.459   3.580
 9210SOL     OW28528   0.836   6.638   0.032
 9210SOL    HW128529   0.759   6.578   0.008
 9210SOL    HW228530   0.801   6.727   0.060
 9211SOL     OW28531   4.649   1.062   6.412
 9211SOL    HW128532   4.704   1.138   6.379
 9211SOL    HW228533   4.674   1.041   6.507
 9212SOL     OW28534   5.862   3.494   5.925
 9212SOL    HW128535   5.811   3.453   6.000
 9212SOL    HW228536   5.960   3.489   5.944
 9213SOL     OW28537   6.511   5.945   1.797
 9213SOL    HW128538   6.502   5.852   1.833
 9213SOL    HW228539   6.499   6.011   1.871
 9214SOL     OW28540   1.880   1.431   6.368
 9214SOL    HW128541   1.828   1.507   6.330
 9214SOL    HW228542   1.924   1.460   6.453
 9215SOL     OW28543   0.303   3.778   3.658
 9215SOL    HW128544   0.340   3.835   3.583
 9215SOL    HW228545   0.318   3.682   3.636
 9216SOL     OW28546   2.211   6.282   3.488
 9216SOL    HW128547   2.198   6.315   3.394
 9216SOL    HW228548   2.136   6.316   3.545
 9217SOL     OW28549   3.818   2.178   0.154
 9217SOL    HW128550   3.718   2.170   0.144
 9217SOL    HW228551   3.844   2.274   0.148
 9218SOL     OW28552   5.134   6.053   5.994
 9218SOL    HW128553   5.098   5.960   5.984
 9218SOL    HW228554   5.180   6.061   6.083
 9219SOL     OW28555   3.364   2.185   5.905
 9219SOL    HW128556   3.369   2.251   5.830
 9219SOL    HW228557   3.370   2.233   5.993
 9220SOL     OW28558   0.637   6.287   3.226
 9220SOL    HW128559   0.549   6.304   3.270
 9220SOL    HW228560   0.624   6.235   3.142
 9221SOL     OW28561   2.977   1.898   1.602
 9221SOL    HW128562   2.985   1.985   1.651
 9221SOL    HW228563   3.008   1.911   1.507
 9222SOL     OW28564   1.463   5.357   3.821
 9222SOL    HW128565   1.488   5.283   3.884
 9222SOL    HW228566   1.431   5.436   3.873
 9223SOL     OW28567   6.514   3.446   4.739
 9223SOL    HW128568   6.572   3.527   4.743
 9223SOL    HW228569   6.464   3.437   4.825
 9224SOL     OW28570   1.807   4.455   2.361
 9224SOL    HW128571   1.751   4.532   2.330
 9224SOL    HW228572   1.780   4.429   2.454
 9225SOL     OW28573   0.248   5.486   6.138
 9225SOL    HW128574   0.335   5.480   6.187
 9225SOL    HW228575   0.183   5.420   6.177
 9226SOL     OW28576   0.863   0.530   5.259
 9226SOL    HW128577   0.862   0.457   5.191
 9226SOL    HW228578   0.917   0.607   5.224
 9227SOL     OW28579   3.711   4.184   1.087
 9227SOL    HW128580   3.656   4.155   1.165
 9227SOL    HW228581   3.681   4.135   1.005
 9228SOL     OW28582   3.874   3.497   4.878
 9228SOL    HW128583   3.815   3.460   4.950
 9228SOL    HW228584   3.969   3.473   4.899
 9229SOL     OW28585   0.271   5.400   0.225
 9229SOL    HW128586   0.293   5.329   0.292
 9229SOL    HW228587   0.354   5.429   0.178
 9230SOL     OW28588   4.814   0.245   5.434
 9230SOL    HW128589   4.777   0.338   5.434
 9230SOL    HW228590   4.767   0.190   5.365
 9231SOL     OW28591   6.357   6.318   1.838
 9231SOL    HW128592   6.368   6.224   1.870
 9231SOL    HW228593   6.447   6.357   1.817
 9232SOL     OW28594   1.248   5.876   2.469
 9232SOL    HW128595   1.228   5.974   2.471
 9232SOL    HW228596   1.232   5.840   2.377
 9233SOL     OW28597   0.831   0.117   5.633
 9233SOL    HW128598   0.786   0.042   5.681
 9233SOL    HW228599   0.761   0.178   5.594
 9234SOL     OW28600   3.523   4.645   6.063
 9234SOL    HW128601   3.574   4.670   5.981
 9234SOL    HW228602   3.552   4.554   6.094
 9235SOL     OW28603   2.353   2.043   3.000
 9235SOL    HW128604   2.439   2.055   3.049
 9235SOL    HW228605   2.299   2.126   3.006
 9236SOL     OW28606   1.257   3.074   5.884
 9236SOL    HW128607   1.341   3.127   5.898
 9236SOL    HW228608   1.266   2.986   5.930
 9237SOL     OW28609   6.078   4.827   3.047
 9237SOL    HW128610   6.109   4.907   3.097
 9237SOL    HW228611   6.018   4.772   3.105
 9238SOL     OW28612   1.414   2.934   4.846
 9238SOL    HW128613   1.372   2.930   4.755
 9238SOL    HW228614   1.426   3.030   4.872
 9239SOL     OW28615   1.515   5.905   6.219
 9239SOL    HW128616   1.576   5.982   6.202
 9239SOL    HW228617   1.441   5.906   6.151
 9240SOL     OW28618   3.993   1.723   3.744
 9240SOL    HW128619   3.958   1.631   3.758
 9240SOL    HW228620   4.083   1.718   3.699
 9241SOL     OW28621   5.730   6.540   0.192
 9241SOL    HW128622   5.634   6.567   0.180
 9241SOL    HW228623   5.735   6.457   0.247
 9242SOL     OW28624   1.669   2.562   0.973
 9242SOL    HW128625   1.687   2.557   0.875
 9242SOL    HW228626   1.736   2.623   1.016
 9243SOL     OW28627   2.115   6.871   0.691
 9243SOL    HW128628   2.198   6.920   0.717
 9243SOL    HW228629   2.119   6.846   0.595
 9244SOL     OW28630   2.384   5.979   6.680
 9244SOL    HW128631   2.332   5.957   6.762
 9244SOL    HW228632   2.481   5.989   6.704
 9245SOL     OW28633   0.788   4.896   3.206
 9245SOL    HW128634   0.711   4.833   3.192
 9245SOL    HW228635   0.754   4.986   3.229
 9246SOL     OW28636   5.379   6.252   6.830
 9246SOL    HW128637   5.339   6.163   6.809
 9246SOL    HW228638   5.441   6.244   6.908
 9247SOL     OW28639   3.440   6.816   2.814
 9247SOL    HW128640   3.423   6.891   2.750
 9247SOL    HW228641   3.472   6.736   2.763
 9248SOL     OW28642   2.654   0.195   6.620
 9248SOL    HW128643   2.676   0.215   6.715
 9248SOL    HW228644   2.559   0.219   6.602
 9249SOL     OW28645   3.115   6.794   0.184
 9249SOL    HW128646   3.067   6.747   0.258
 9249SOL    HW228647   3.206   6.755   0.173
 9250SOL     OW28648   0.233   3.666   3.310
 9250SOL    HW128649   0.309   3.672   3.375
 9250SOL    HW228650   0.150   3.703   3.352
 9251SOL     OW28651   3.492   1.865   0.989
 9251SOL    HW128652   3.512   1.952   0.944
 9251SOL    HW228653   3.484   1.880   1.088
 9252SOL     OW28654   5.780   1.293   4.526
 9252SOL    HW128655   5.831   1.349   4.592
 9252SOL    HW228656   5.716   1.233   4.575
 9253SOL     OW28657   2.355   4.938   4.012
 9253SOL    HW128658   2.442   4.980   3.987
 9253SOL    HW228659   2.328   4.969   4.103
 9254SOL     OW28660   0.026   5.445   2.091
 9254SOL    HW128661   6.955   5.452   2.073
 9254SOL    HW228662   0.067   5.379   2.028
 9255SOL     OW28663   6.062   3.445   0.993
 9255SOL    HW128664   6.092   3.446   0.897
 9255SOL    HW228665   5.970   3.406   0.998
 9256SOL     OW28666   2.655   6.891   0.870
 9256SOL    HW128667   2.754   6.873   0.866
 9256SOL    HW228668   2.631   6.920   0.963
 9257SOL     OW28669   6.375   6.021   4.787
 9257SOL    HW128670   6.302   6.077   4.826
 9257SOL    HW228671   6.457   6.028   4.845
 9258SOL     OW28672   4.949   5.014   2.122
 9258SOL    HW128673   4.988   5.104   2.139
 9258SOL    HW228674   4.950   4.961   2.207
 9259SOL     OW28675   0.272   2.373   6.899
 9259SOL    HW128676   0.249   2.275   6.902
 9259SOL    HW228677   0.199   2.425   6.944
 9260SOL     OW28678   4.963   3.803   4.849
 9260SOL    HW128679   4.904   3.730   4.882
 9260SOL    HW228680   4.984   3.788   4.752
 9261SOL     OW28681   1.422   3.084   1.949
 9261SOL    HW128682   1.324   3.078   1.962
 9261SOL    HW228683   1.443   3.090   1.851
 9262SOL     OW28684   6.708   6.206   5.844
 9262SOL    HW128685   6.665   6.117   5.828
 9262SOL    HW228686   6.678   6.270   5.773
 9263SOL     OW28687   2.388   4.598   2.938
 9263SOL    HW128688   2.392   4.508   2.895
 9263SOL    HW228689   2.391   4.668   2.867
 9264SOL     OW28690   5.223   3.742   5.615
 9264SOL    HW128691   5.297   3.675   5.615
 9264SOL    HW228692   5.160   3.721   5.690
 9265SOL     OW28693   4.694   0.677   1.778
 9265SOL    HW128694   4.689   0.630   1.866
 9265SOL    HW228695   4.642   0.763   1.783
 9266SOL     OW28696   1.853   4.969   0.762
 9266SOL    HW128697   1.812   4.878   0.766
 9266SOL    HW228698   1.792   5.032   0.714
 9267SOL     OW28699   6.851   1.683   3.953
 9267SOL    HW128700   6.813   1.592   3.935
 9267SOL    HW228701   6.882   1.724   3.868
 9268SOL     OW28702   0.610   0.714   1.807
 9268SOL    HW128703   0.599   0.690   1.711
 9268SOL    HW228704   0.644   0.807   1.815
 9269SOL     OW28705   4.428   1.140   0.644
 9269SOL    HW128706   4.414   1.180   0.735
 9269SOL    HW228707   4.404   1.207   0.574
 9270SOL     OW28708   2.534   1.119   5.328
 9270SOL    HW128709   2.493   1.088   5.414
 9270SOL    HW228710   2.498   1.066   5.252
 9271SOL     OW28711   1.467   4.844   6.059
 9271SOL    HW128712   1.533   4.771   6.073
 9271SOL    HW228713   1.418   4.828   5.973
 9272SOL     OW28714   6.234   5.915   5.366
 9272SOL    HW128715   6.320   5.964   5.350
 9272SOL    HW228716   6.221   5.845   5.295
 9273SOL     OW28717   5.627   3.125   3.864
 9273SOL    HW128718   5.663   3.199   3.806
 9273SOL    HW228719   5.575   3.061   3.807
 9274SOL     OW28720   0.343   3.622   0.373
 9274SOL    HW128721   0.441   3.608   0.389
 9274SOL    HW228722   0.331   3.675   0.289
 9275SOL     OW28723   5.847   1.033   0.707
 9275SOL    HW128724   5.871   1.089   0.786
 9275SOL    HW228725   5.768   0.977   0.728
 9276SOL     OW28726   2.228   4.320   6.925
 9276SOL    HW128727   2.259   4.267   6.847
 9276SOL    HW228728   2.138   4.287   6.955
 9277SOL     OW28729   4.370   5.848   2.346
 9277SOL    HW128730   4.423   5.911   2.289
 9277SOL    HW228731   4.368   5.882   2.440
 9278SOL     OW28732   0.665   6.952   5.757
 9278SOL    HW128733   0.602   6.985   5.827
 9278SOL    HW228734   0.633   6.863   5.723
 9279SOL     OW28735   2.592   5.951   1.926
 9279SOL    HW128736   2.516   5.977   1.985
 9279SOL    HW228737   2.577   5.858   1.892
 9280SOL     OW28738   1.148   5.721   2.684
 9280SOL    HW128739   1.163   5.786   2.609
 9280SOL    HW228740   1.050   5.715   2.703
 9281SOL     OW28741   1.545   5.350   0.731
 9281SOL    HW128742   1.606   5.318   0.659
 9281SOL    HW228743   1.584   5.431   0.774
 9282SOL     OW28744   2.620   0.077   4.920
 9282SOL    HW128745   2.710   0.066   4.878
 9282SOL    HW228746   2.629   0.081   5.019
 9283SOL     OW28747   5.076   6.191   0.014
 9283SOL    HW128748   5.015   6.255   0.060
 9283SOL    HW228749   5.022   6.125   6.988
 9284SOL     OW28750   4.347   6.170   0.574
 9284SOL    HW128751   4.325   6.222   0.657
 9284SOL    HW228752   4.408   6.224   0.516
 9285SOL     OW28753   6.959   6.225   3.595
 9285SOL    HW128754   7.019   6.301   3.569
 9285SOL    HW228755   6.942   6.168   3.515
 9286SOL     OW28756   5.011   6.714   1.867
 9286SOL    HW128757   5.014   6.792   1.805
 9286SOL    HW228758   4.966   6.637   1.821
 9287SOL     OW28759   4.192   4.147   6.400
 9287SOL    HW128760   4.157   4.158   6.307
 9287SOL    HW228761   4.226   4.235   6.433
 9288SOL     OW28762   3.878   1.748   2.452
 9288SOL    HW128763   3.917   1.751   2.360
 9288SOL    HW228764   3.788   1.706   2.449
 9289SOL     OW28765   4.415   6.582   1.453
 9289SOL    HW128766   4.343   6.593   1.521
 9289SOL    HW228767   4.383   6.620   1.366
 9290SOL     OW28768   5.774   1.035   3.605
 9290SOL    HW128769   5.871   1.058   3.607
 9290SOL    HW228770   5.729   1.084   3.531
 9291SOL     OW28771   0.440   4.294   5.660
 9291SOL    HW128772   0.405   4.337   5.577
 9291SOL    HW228773   0.471   4.201   5.639
 9292SOL     OW28774   0.492   1.640   6.748
 9292SOL    HW128775   0.463   1.676   6.837
 9292SOL    HW228776   0.493   1.714   6.681
 9293SOL     OW28777   4.722   1.867   5.377
 9293SOL    HW128778   4.722   1.957   5.333
 9293SOL    HW228779   4.754   1.875   5.471
 9294SOL     OW28780   4.913   6.385   6.821
 9294SOL    HW128781   4.900   6.385   6.920
 9294SOL    HW228782   4.893   6.476   6.785
 9295SOL     OW28783   6.158   0.622   3.691
 9295SOL    HW128784   6.180   0.654   3.599
 9295SOL    HW228785   6.224   0.553   3.719
 9296SOL     OW28786   2.204   4.206   5.823
 9296SOL    HW128787   2.270   4.184   5.751
 9296SOL    HW228788   2.251   4.208   5.912
 9297SOL     OW28789   6.960   4.857   2.034
 9297SOL    HW128790   6.861   4.851   2.025
 9297SOL    HW228791   6.992   4.785   2.096
 9298SOL     OW28792   0.131   4.167   6.734
 9298SOL    HW128793   0.108   4.264   6.737
 9298SOL    HW228794   0.195   4.150   6.659
 9299SOL     OW28795   2.889   1.966   4.598
 9299SOL    HW128796   2.928   2.053   4.626
 9299SOL    HW228797   2.792   1.977   4.575
 9300SOL     OW28798   2.394   5.919   4.998
 9300SOL    HW128799   2.460   5.888   4.929
 9300SOL    HW228800   2.301   5.905   4.964
 9301SOL     OW28801   1.226   4.024   4.196
 9301SOL    HW128802   1.144   4.060   4.240
 9301SOL    HW228803   1.209   4.014   4.098
 9302SOL     OW28804   3.181   5.565   4.319
 9302SOL    HW128805   3.125   5.640   4.284
 9302SOL    HW228806   3.241   5.599   4.391
 9303SOL     OW28807   2.921   4.760   0.161
 9303SOL    HW128808   2.893   4.699   0.235
 9303SOL    HW228809   2.873   4.847   0.169
 9304SOL     OW28810   5.191   6.059   6.260
 9304SOL    HW128811   5.186   6.137   6.321
 9304SOL    HW228812   5.147   5.980   6.304
 9305SOL     OW28813   1.546   1.685   1.055
 9305SOL    HW128814   1.474   1.622   1.084
 9305SOL    HW228815   1.633   1.636   1.052
 9306SOL     OW28816   6.706   6.092   4.645
 9306SOL    HW128817   6.711   6.133   4.736
 9306SOL    HW228818   6.674   6.160   4.580
 9307SOL     OW28819   1.833   4.034   1.585
 9307SOL    HW128820   1.892   4.113   1.571
 9307SOL    HW228821   1.802   4.032   1.681
 9308SOL     OW28822   2.323   3.756   1.752
 9308SOL    HW128823   2.373   3.670   1.753
 9308SOL    HW228824   2.330   3.798   1.662
 9309SOL     OW28825   4.779   5.250   5.884
 9309SOL    HW128826   4.872   5.262   5.851
 9309SOL    HW228827   4.735   5.339   5.893
 9310SOL     OW28828   6.036   6.058   5.503
 9310SOL    HW128829   6.106   6.021   5.442
 9310SOL    HW228830   6.065   6.045   5.598
 9311SOL     OW28831   5.511   3.924   1.009
 9311SOL    HW128832   5.587   3.862   1.029
 9311SOL    HW228833   5.485   3.972   1.093
 9312SOL     OW28834   6.503   2.581   3.246
 9312SOL    HW128835   6.597   2.550   3.232
 9312SOL    HW228836   6.457   2.519   3.309
 9313SOL     OW28837   0.792   0.554   2.727
 9313SOL    HW128838   0.718   0.622   2.729
 9313SOL    HW228839   0.794   0.505   2.814
 9314SOL     OW28840   5.168   5.227   1.566
 9314SOL    HW128841   5.147   5.266   1.655
 9314SOL    HW228842   5.082   5.203   1.519
 9315SOL     OW28843   5.897   5.754   5.567
 9315SOL    HW128844   5.898   5.834   5.627
 9315SOL    HW228845   5.803   5.730   5.545
 9316SOL     OW28846   5.150   6.837   0.961
 9316SOL    HW128847   5.221   6.904   0.979
 9316SOL    HW228848   5.086   6.873   0.893
 9317SOL     OW28849   1.998   5.672   3.850
 9317SOL    HW128850   1.908   5.708   3.875
 9317SOL    HW228851   2.030   5.718   3.767
 9318SOL     OW28852   3.559   6.592   2.689
 9318SOL    HW128853   3.638   6.557   2.639
 9318SOL    HW228854   3.493   6.517   2.703
 9319SOL     OW28855   4.231   2.178   0.318
 9319SOL    HW128856   4.159   2.179   0.387
 9319SOL    HW228857   4.319   2.159   0.362
 9320SOL     OW28858   6.899   6.855   6.619
 9320SOL    HW128859   6.901   6.796   6.700
 9320SOL    HW228860   6.992   6.889   6.600
 9321SOL     OW28861   1.010   2.913   4.263
 9321SOL    HW128862   0.971   2.894   4.172
 9321SOL    HW228863   0.962   2.990   4.304
 9322SOL     OW28864   5.367   2.631   6.968
 9322SOL    HW128865   5.331   2.684   6.892
 9322SOL    HW228866   5.430   2.687   7.022
 9323SOL     OW28867   0.414   2.151   5.727
 9323SOL    HW128868   0.331   2.181   5.774
 9323SOL    HW228869   0.433   2.212   5.650
 9324SOL     OW28870   0.520   5.171   1.180
 9324SOL    HW128871   0.506   5.104   1.107
 9324SOL    HW228872   0.475   5.257   1.156
 9325SOL     OW28873   1.013   4.812   3.415
 9325SOL    HW128874   1.001   4.835   3.319
 9325SOL    HW228875   1.018   4.712   3.425
 9326SOL     OW28876   4.848   4.630   0.516
 9326SOL    HW128877   4.754   4.601   0.531
 9326SOL    HW228878   4.850   4.722   0.478
 9327SOL     OW28879   3.049   1.235   3.421
 9327SOL    HW128880   2.976   1.270   3.362
 9327SOL    HW228881   3.092   1.156   3.378
 9328SOL     OW28882   1.916   0.654   3.371
 9328SOL    HW128883   1.856   0.577   3.392
 9328SOL    HW228884   1.912   0.721   3.445
 9329SOL     OW28885   1.073   5.348   6.560
 9329SOL    HW128886   1.161   5.358   6.514
 9329SOL    HW228887   1.079   5.275   6.627
 9330SOL     OW28888   0.935   6.832   0.572
 9330SOL    HW128889   0.971   6.922   0.598
 9330SOL    HW228890   0.963   6.765   0.641
 9331SOL     OW28891   2.144   4.494   4.451
 9331SOL    HW128892   2.180   4.582   4.420
 9331SOL    HW228893   2.143   4.491   4.551
 9332SOL     OW28894   6.611   5.080   0.092
 9332SOL    HW128895   6.518   5.051   0.069
 9332SOL    HW228896   6.638   5.040   0.179
 9333SOL     OW28897   2.789   4.767   1.475
 9333SOL    HW128898   2.869   4.810   1.516
 9333SOL    HW228899   2.726   4.738   1.547
 9334SOL     OW28900   6.797   5.321   6.457
 9334SOL    HW128901   6.723   5.387   6.440
 9334SOL    HW228902   6.757   5.235   6.488
 9335SOL     OW28903   0.181   3.738   1.050
 9335SOL    HW128904   0.144   3.829   1.069
 9335SOL    HW228905   0.168   3.680   1.131
 9336SOL     OW28906   4.821   6.787   5.943
 9336SOL    HW128907   4.813   6.885   5.927
 9336SOL    HW228908   4.880   6.771   6.022
 9337SOL     OW28909   2.653   1.541   5.435
 9337SOL    HW128910   2.734   1.495   5.470
 9337SOL    HW228911   2.625   1.498   5.349
 9338SOL     OW28912   5.348   6.612   0.690
 9338SOL    HW128913   5.371   6.521   0.725
 9338SOL    HW228914   5.333   6.606   0.591
 9339SOL     OW28915   6.710   3.796   5.223
 9339SOL    HW128916   6.753   3.727   5.165
 9339SOL    HW228917   6.717   3.769   5.319
 9340SOL     OW28918   2.460   5.065   2.463
 9340SOL    HW128919   2.489   5.155   2.497
 9340SOL    HW228920   2.540   5.011   2.440
 9341SOL     OW28921   5.846   5.180   6.833
 9341SOL    HW128922   5.815   5.145   6.745
 9341SOL    HW228923   5.767   5.192   6.894
 9342SOL     OW28924   2.807   6.835   5.118
 9342SOL    HW128925   2.720   6.873   5.151
 9342SOL    HW228926   2.881   6.872   5.174
 9343SOL     OW28927   4.759   4.048   0.907
 9343SOL    HW128928   4.686   4.032   0.841
 9343SOL    HW228929   4.823   3.971   0.905
 9344SOL     OW28930   5.908   0.122   5.107
 9344SOL    HW128931   5.917   0.173   5.193
 9344SOL    HW228932   5.984   0.146   5.046
 9345SOL     OW28933   0.134   4.656   0.012
 9345SOL    HW128934   0.073   4.705   6.976
 9345SOL    HW228935   0.128   4.696   0.103
 9346SOL     OW28936   5.071   0.662   2.269
 9346SOL    HW128937   5.083   0.633   2.364
 9346SOL    HW228938   5.008   0.739   2.265
 9347SOL     OW28939   4.657   6.511   1.578
 9347SOL    HW128940   4.659   6.413   1.557
 9347SOL    HW228941   4.574   6.551   1.541
 9348SOL     OW28942   2.461   5.194   2.026
 9348SOL    HW128943   2.406   5.139   2.088
 9348SOL    HW228944   2.553   5.154   2.019
 9349SOL     OW28945   6.466   6.188   1.077
 9349SOL    HW128946   6.417   6.100   1.070
 9349SOL    HW228947   6.409   6.253   1.127
 9350SOL     OW28948   6.725   0.371   0.383
 9350SOL    HW128949   6.639   0.325   0.359
 9350SOL    HW228950   6.713   0.470   0.376
 9351SOL     OW28951   4.076   3.725   6.367
 9351SOL    HW128952   4.156   3.783   6.354
 9351SOL    HW228953   4.017   3.766   6.436
 9352SOL     OW28954   2.957   2.729   6.871
 9352SOL    HW128955   2.996   2.818   6.848
 9352SOL    HW228956   3.001   2.694   6.954
 9353SOL     OW28957   1.084   2.886   1.397
 9353SOL    HW128958   1.019   2.934   1.339
 9353SOL    HW228959   1.062   2.788   1.398
 9354SOL     OW28960   5.478   1.683   1.969
 9354SOL    HW128961   5.572   1.711   1.985
 9354SOL    HW228962   5.422   1.763   1.950
 9355SOL     OW28963   6.940   1.215   2.185
 9355SOL    HW128964   6.850   1.230   2.226
 9355SOL    HW228965   7.006   1.189   2.256
 9356SOL     OW28966   5.563   3.450   2.879
 9356SOL    HW128967   5.642   3.414   2.829
 9356SOL    HW228968   5.528   3.531   2.833
 9357SOL     OW28969   2.644   4.613   0.809
 9357SOL    HW128970   2.728   4.666   0.814
 9357SOL    HW228971   2.661   4.521   0.845
 9358SOL     OW28972   5.113   3.869   2.383
 9358SOL    HW128973   5.031   3.923   2.364
 9358SOL    HW228974   5.189   3.903   2.327
 9359SOL     OW28975   5.292   5.462   6.040
 9359SOL    HW128976   5.388   5.474   6.067
 9359SOL    HW228977   5.236   5.532   6.083
 9360SOL     OW28978   1.175   1.191   5.143
 9360SOL    HW128979   1.205   1.224   5.053
 9360SOL    HW228980   1.250   1.143   5.188
 9361SOL     OW28981   2.454   1.111   1.944
 9361SOL    HW128982   2.542   1.142   1.906
 9361SOL    HW228983   2.465   1.093   2.042
 9362SOL     OW28984   2.054   1.654   3.222
 9362SOL    HW128985   2.129   1.713   3.192
 9362SOL    HW228986   2.006   1.617   3.143
 9363SOL     OW28987   1.698   6.320   2.022
 9363SOL    HW128988   1.727   6.411   2.049
 9363SOL    HW228989   1.701   6.259   2.102
 9364SOL     OW28990   5.467   4.627   1.122
 9364SOL    HW128991   5.374   4.602   1.096
 9364SOL    HW228992   5.515   4.664   1.042
 9365SOL     OW28993   2.391   0.962   4.591
 9365SOL    HW128994   2.422   0.996   4.502
 9365SOL    HW228995   2.434   0.875   4.611
 9366SOL     OW28996   3.476   1.202   1.861
 9366SOL    HW128997   3.541   1.278   1.869
 9366SOL    HW228998   3.525   1.120   1.833
 9367SOL     OW28999   6.625   5.762   4.429
 9367SOL    HW129000   6.627   5.764   4.528
 9367SOL    HW229001   6.717   5.780   4.393
 9368SOL     OW29002   4.539   3.333   0.877
 9368SOL    HW129003   4.570   3.378   0.961
 9368SOL    HW229004   4.441   3.315   0.884
 9369SOL     OW29005   7.018   2.457   5.854
 9369SOL    HW129006   6.940   2.519   5.847
 9369SOL    HW229007   0.068   2.493   5.801
 9370SOL     OW29008   6.139   5.818   3.257
 9370SOL    HW129009   6.199   5.739   3.273
 9370SOL    HW229010   6.183   5.901   3.291
 9371SOL     OW29011   1.032   6.635   0.409
 9371SOL    HW129012   0.985   6.695   0.474
 9371SOL    HW229013   0.982   6.549   0.402
 9372SOL     OW29014   5.868   6.643   0.417
 9372SOL    HW129015   5.831   6.610   0.504
 9372SOL    HW229016   5.851   6.577   0.345
 9373SOL     OW29017   4.745   2.444   4.191
 9373SOL    HW129018   4.659   2.476   4.231
 9373SOL    HW229019   4.781   2.368   4.246
 9374SOL     OW29020   4.926   4.383   0.442
 9374SOL    HW129021   4.925   4.482   0.457
 9374SOL    HW229022   4.909   4.336   0.529
 9375SOL     OW29023   0.170   1.740   3.783
 9375SOL    HW129024   0.176   1.660   3.724
 9375SOL    HW229025   0.085   1.790   3.763
 9376SOL     OW29026   1.871   2.870   1.578
 9376SOL    HW129027   1.863   2.933   1.656
 9376SOL    HW229028   1.968   2.858   1.555
 9377SOL     OW29029   6.091   5.403   2.648
 9377SOL    HW129030   6.011   5.404   2.589
 9377SOL    HW229031   6.066   5.364   2.737
 9378SOL     OW29032   3.204   6.098   1.418
 9378SOL    HW129033   3.132   6.115   1.485
 9378SOL    HW229034   3.210   6.000   1.399
 9379SOL     OW29035   5.994   4.392   5.266
 9379SOL    HW129036   5.937   4.402   5.185
 9379SOL    HW229037   6.069   4.459   5.262
 9380SOL     OW29038   5.745   5.676   6.199
 9380SOL    HW129039   5.806   5.597   6.195
 9380SOL    HW229040   5.797   5.760   6.182
 9381SOL     OW29041   1.595   0.877   0.560
 9381SOL    HW129042   1.536   0.891   0.640
 9381SOL    HW229043   1.669   0.815   0.585
 9382SOL     OW29044   5.581   2.072   1.832
 9382SOL    HW129045   5.484   2.078   1.852
 9382SOL    HW229046   5.634   2.087   1.915
 9383SOL     OW29047   5.957   5.320   5.746
 9383SOL    HW129048   6.046   5.303   5.704
 9383SOL    HW229049   5.970   5.371   5.831
 9384SOL     OW29050   3.775   6.482   2.546
 9384SOL    HW129051   3.843   6.554   2.549
 9384SOL    HW229052   3.771   6.444   2.454
 9385SOL     OW29053   3.727   0.552   4.253
 9385SOL    HW129054   3.694   0.610   4.179
 9385SOL    HW229055   3.650   0.508   4.298
 9386SOL     OW29056   4.006   0.089   5.299
 9386SOL    HW129057   4.033   0.161   5.236
 9386SOL    HW229058   4.025   7.026   5.257
 9387SOL     OW29059   3.994   6.207   0.936
 9387SOL    HW129060   4.005   6.296   0.891
 9387SOL    HW229061   3.998   6.135   0.868
 9388SOL     OW29062   6.083   6.847   2.276
 9388SOL    HW129063   6.042   6.899   2.201
 9388SOL    HW229064   6.036   6.760   2.286
 9389SOL     OW29065   3.565   1.447   6.850
 9389SOL    HW129066   3.497   1.506   6.895
 9389SOL    HW229067   3.655   1.490   6.856
 9390SOL     OW29068   2.731   6.046   1.601
 9390SOL    HW129069   2.806   6.037   1.536
 9390SOL    HW229070   2.673   5.965   1.596
 9391SOL     OW29071   0.044   1.236   5.334
 9391SOL    HW129072   0.107   1.161   5.355
 9391SOL    HW229073   0.052   1.307   5.404
 9392SOL     OW29074   1.160   6.642   4.489
 9392SOL    HW129075   1.197   6.575   4.424
 9392SOL    HW229076   1.060   6.638   4.487
 9393SOL     OW29077   3.832   2.049   5.536
 9393SOL    HW129078   3.833   2.124   5.470
 9393SOL    HW229079   3.757   1.986   5.515
 9394SOL     OW29080   5.534   2.997   1.599
 9394SOL    HW129081   5.595   2.927   1.637
 9394SOL    HW229082   5.467   2.953   1.539
 9395SOL     OW29083   2.075   3.013   6.223
 9395SOL    HW129084   2.010   2.939   6.234
 9395SOL    HW229085   2.052   3.065   6.140
 9396SOL     OW29086   6.123   0.394   6.826
 9396SOL    HW129087   6.208   0.439   6.796
 9396SOL    HW229088   6.089   0.440   6.908
 9397SOL     OW29089   3.028   1.499   1.192
 9397SOL    HW129090   3.024   1.483   1.290
 9397SOL    HW229091   3.115   1.543   1.169
 9398SOL     OW29092   2.201   1.324   0.928
 9398SOL    HW129093   2.155   1.263   0.864
 9398SOL    HW229094   2.220   1.411   0.884
 9399SOL     OW29095   6.662   0.668   5.357
 9399SOL    HW129096   6.651   0.608   5.435
 9399SOL    HW229097   6.733   0.631   5.296
 9400SOL     OW29098   3.986   2.150   3.236
 9400SOL    HW129099   4.017   2.162   3.142
 9400SOL    HW229100   4.038   2.077   3.279
 9401SOL     OW29101   4.110   0.193   3.380
 9401SOL    HW129102   4.132   0.289   3.397
 9401SOL    HW229103   4.011   0.183   3.368
 9402SOL     OW29104   2.036   5.000   0.401
 9402SOL    HW129105   2.071   4.931   0.464
 9402SOL    HW229106   2.101   5.076   0.396
 9403SOL     OW29107   5.731   0.705   5.240
 9403SOL    HW129108   5.640   0.736   5.270
 9403SOL    HW229109   5.725   0.612   5.206
 9404SOL     OW29110   1.289   4.118   5.432
 9404SOL    HW129111   1.380   4.080   5.416
 9404SOL    HW229112   1.286   4.212   5.397
 9405SOL     OW29113   6.944   0.438   0.698
 9405SOL    HW129114   6.879   0.362   0.699
 9405SOL    HW229115   6.930   0.492   0.615
 9406SOL     OW29116   6.520   1.106   5.430
 9406SOL    HW129117   6.421   1.114   5.436
 9406SOL    HW229118   6.551   1.029   5.486
 9407SOL     OW29119   3.578   6.034   2.984
 9407SOL    HW129120   3.480   6.041   2.968
 9407SOL    HW229121   3.617   5.962   2.927
 9408SOL     OW29122   4.038   1.961   6.797
 9408SOL    HW129123   4.083   1.875   6.774
 9408SOL    HW229124   3.984   1.950   6.880
 9409SOL     OW29125   6.243   3.333   3.390
 9409SOL    HW129126   6.283   3.334   3.481
 9409SOL    HW229127   6.285   3.260   3.335
 9410SOL     OW29128   4.695   6.442   2.364
 9410SOL    HW129129   4.596   6.450   2.366
 9410SOL    HW229130   4.736   6.532   2.380
 9411SOL     OW29131   4.743   5.859   1.374
 9411SOL    HW129132   4.711   5.882   1.466
 9411SOL    HW229133   4.710   5.768   1.350
 9412SOL     OW29134   6.469   3.107   1.988
 9412SOL    HW129135   6.417   3.046   2.047
 9412SOL    HW229136   6.503   3.185   2.041
 9413SOL     OW29137   3.583   5.396   4.019
 9413SOL    HW129138   3.597   5.302   4.050
 9413SOL    HW229139   3.523   5.444   4.083
 9414SOL     OW29140   2.694   0.971   2.343
 9414SOL    HW129141   2.701   1.071   2.343
 9414SOL    HW229142   2.699   0.937   2.249
 9415SOL     OW29143   2.869   0.774   2.406
 9415SOL    HW129144   2.896   0.747   2.498
 9415SOL    HW229145   2.801   0.848   2.412
 9416SOL     OW29146   1.541   1.892   1.238
 9416SOL    HW129147   1.618   1.897   1.301
 9416SOL    HW229148   1.562   1.830   1.163
 9417SOL     OW29149   2.223   0.627   4.457
 9417SOL    HW129150   2.297   0.665   4.402
 9417SOL    HW229151   2.248   0.629   4.554
 9418SOL     OW29152   3.976   4.325   1.227
 9418SOL    HW129153   3.893   4.374   1.254
 9418SOL    HW229154   3.951   4.240   1.179
 9419SOL     OW29155   3.650   5.552   4.487
 9419SOL    HW129156   3.653   5.454   4.505
 9419SOL    HW229157   3.631   5.568   4.390
 9420SOL     OW29158   1.212   1.368   4.419
 9420SOL    HW129159   1.133   1.396   4.472
 9420SOL    HW229160   1.296   1.399   4.464
 9421SOL     OW29161   1.615   5.117   4.580
 9421SOL    HW129162   1.596   5.121   4.678
 9421SOL    HW229163   1.595   5.206   4.539
 9422SOL     OW29164   3.979   0.980   2.600
 9422SOL    HW129165   3.933   0.985   2.511
 9422SOL    HW229166   4.039   1.059   2.610
 9423SOL     OW29167   4.860   0.265   4.802
 9423SOL    HW129168   4.913   0.259   4.718
 9423SOL    HW229169   4.794   0.340   4.794
 9424SOL     OW29170   3.099   6.225   4.513
 9424SOL    HW129171   3.067   6.190   4.601
 9424SOL    HW229172   3.143   6.151   4.462
 9425SOL     OW29173   1.287   4.648   3.493
 9425SOL    HW129174   1.357   4.667   3.424
 9425SOL    HW229175   1.210   4.599   3.450
 9426SOL     OW29176   4.043   6.243   0.546
 9426SOL    HW129177   4.013   6.170   0.608
 9426SOL    HW229178   4.130   6.280   0.579
 9427SOL     OW29179   3.176   4.879   4.139
 9427SOL    HW129180   3.086   4.851   4.173
 9427SOL    HW229181   3.180   4.865   4.040
 9428SOL     OW29182   4.542   5.987   2.195
 9428SOL    HW129183   4.598   5.922   2.144
 9428SOL    HW229184   4.596   6.069   2.214
 9429SOL     OW29185   6.758   3.212   2.565
 9429SOL    HW129186   6.803   3.230   2.478
 9429SOL    HW229187   6.746   3.114   2.577
 9430SOL     OW29188   5.903   6.958   1.738
 9430SOL    HW129189   5.956   6.968   1.653
 9430SOL    HW229190   5.935   7.025   1.805
 9431SOL     OW29191   6.309   4.258   0.884
 9431SOL    HW129192   6.213   4.284   0.892
 9431SOL    HW229193   6.354   4.270   0.973
 9432SOL     OW29194   6.768   6.877   4.632
 9432SOL    HW129195   6.755   6.826   4.717
 9432SOL    HW229196   6.862   6.864   4.599
 9433SOL     OW29197   3.124   4.907   4.838
 9433SOL    HW129198   3.112   5.005   4.826
 9433SOL    HW229199   3.055   4.873   4.902
 9434SOL     OW29200   5.081   4.799   3.068
 9434SOL    HW129201   5.108   4.723   3.128
 9434SOL    HW229202   5.124   4.883   3.100
 9435SOL     OW29203   1.894   1.902   5.048
 9435SOL    HW129204   1.994   1.910   5.041
 9435SOL    HW229205   1.857   1.983   5.094
 9436SOL     OW29206   2.005   2.442   6.266
 9436SOL    HW129207   2.072   2.409   6.333
 9436SOL    HW229208   2.052   2.461   6.180
 9437SOL     OW29209   0.508   5.005   4.081
 9437SOL    HW129210   0.552   5.052   4.004
 9437SOL    HW229211   0.415   4.979   4.056
 9438SOL     OW29212   0.510   6.898   2.074
 9438SOL    HW129213   0.464   6.811   2.088
 9438SOL    HW229214   0.602   6.882   2.037
 9439SOL     OW29215   1.309   2.956   1.563
 9439SOL    HW129216   1.235   2.953   1.495
 9439SOL    HW229217   1.298   2.881   1.628
 9440SOL     OW29218   4.618   6.144   4.970
 9440SOL    HW129219   4.658   6.125   5.060
 9440SOL    HW229220   4.664   6.089   4.901
 9441SOL     OW29221   1.868   5.752   5.129
 9441SOL    HW129222   1.887   5.688   5.055
 9441SOL    HW229223   1.891   5.709   5.217
 9442SOL     OW29224   0.777   3.907   1.213
 9442SOL    HW129225   0.727   3.915   1.300
 9442SOL    HW229226   0.873   3.930   1.228
 9443SOL     OW29227   2.281   3.459   1.462
 9443SOL    HW129228   2.226   3.388   1.417
 9443SOL    HW229229   2.237   3.486   1.547
 9444SOL     OW29230   0.576   4.095   5.949
 9444SOL    HW129231   0.625   4.175   5.983
 9444SOL    HW229232   0.636   4.041   5.890
 9445SOL     OW29233   6.154   3.309   1.375
 9445SOL    HW129234   6.062   3.317   1.337
 9445SOL    HW229235   6.213   3.381   1.337
 9446SOL     OW29236   6.101   4.802   0.811
 9446SOL    HW129237   6.069   4.735   0.878
 9446SOL    HW229238   6.149   4.876   0.858
 9447SOL     OW29239   6.173   2.367   1.711
 9447SOL    HW129240   6.194   2.355   1.614
 9447SOL    HW229241   6.190   2.281   1.759
 9448SOL     OW29242   6.291   6.279   0.397
 9448SOL    HW129243   6.312   6.329   0.313
 9448SOL    HW229244   6.286   6.343   0.474
 9449SOL     OW29245   6.678   5.084   5.156
 9449SOL    HW129246   6.774   5.109   5.159
 9449SOL    HW229247   6.649   5.051   5.246
 9450SOL     OW29248   2.828   5.498   4.311
 9450SOL    HW129249   2.743   5.474   4.358
 9450SOL    HW229250   2.861   5.586   4.345
 9451SOL     OW29251   4.275   4.201   5.509
 9451SOL    HW129252   4.292   4.121   5.452
 9451SOL    HW229253   4.361   4.252   5.520
 9452SOL     OW29254   2.839   4.414   1.333
 9452SOL    HW129255   2.817   4.499   1.286
 9452SOL    HW229256   2.938   4.398   1.331
 9453SOL     OW29257   3.079   5.126   1.923
 9453SOL    HW129258   3.047   5.032   1.935
 9453SOL    HW229259   3.086   5.147   1.825
 9454SOL     OW29260   2.136   1.928   5.284
 9454SOL    HW129261   2.167   1.888   5.198
 9454SOL    HW229262   2.070   2.001   5.265
 9455SOL     OW29263   2.583   1.953   2.297
 9455SOL    HW129264   2.626   2.017   2.233
 9455SOL    HW229265   2.485   1.971   2.302
 9456SOL     OW29266   1.409   3.587   0.784
 9456SOL    HW129267   1.492   3.540   0.815
 9456SOL    HW229268   1.401   3.675   0.830
 9457SOL     OW29269   6.695   3.433   0.636
 9457SOL    HW129270   6.790   3.463   0.643
 9457SOL    HW229271   6.636   3.513   0.630
 9458SOL     OW29272   0.637   5.670   4.415
 9458SOL    HW129273   0.594   5.659   4.504
 9458SOL    HW229274   0.737   5.669   4.426
 9459SOL     OW29275   4.234   6.219   1.475
 9459SOL    HW129276   4.206   6.292   1.414
 9459SOL    HW229277   4.195   6.132   1.444
 9460SOL     OW29278   1.063   2.780   5.262
 9460SOL    HW129279   1.020   2.743   5.344
 9460SOL    HW229280   1.140   2.722   5.235
 9461SOL     OW29281   1.523   0.837   2.712
 9461SOL    HW129282   1.533   0.743   2.745
 9461SOL    HW229283   1.430   0.851   2.678
 9462SOL     OW29284   0.126   3.695   3.023
 9462SOL    HW129285   0.168   3.685   3.113
 9462SOL    HW229286   0.128   3.608   2.974
 9463SOL     OW29287   5.317   2.093   6.781
 9463SOL    HW129288   5.362   2.182   6.785
 9463SOL    HW229289   5.352   2.041   6.703
 9464SOL     OW29290   4.463   6.857   6.077
 9464SOL    HW129291   4.536   6.878   6.141
 9464SOL    HW229292   4.499   6.855   5.984
 9465SOL     OW29293   5.915   0.195   4.366
 9465SOL    HW129294   5.991   0.157   4.312
 9465SOL    HW229295   5.883   0.127   4.431
 9466SOL     OW29296   2.462   2.287   6.915
 9466SOL    HW129297   2.517   2.362   6.951
 9466SOL    HW229298   2.470   2.285   6.816
 9467SOL     OW29299   2.144   3.084   1.918
 9467SOL    HW129300   2.157   3.151   1.992
 9467SOL    HW229301   2.165   2.992   1.952
 9468SOL     OW29302   0.139   2.550   6.155
 9468SOL    HW129303   0.081   2.579   6.080
 9468SOL    HW229304   0.221   2.608   6.157
 9469SOL     OW29305   6.357   4.173   2.661
 9469SOL    HW129306   6.405   4.146   2.744
 9469SOL    HW229307   6.306   4.257   2.678
 9470SOL     OW29308   5.825   3.499   1.591
 9470SOL    HW129309   5.801   3.594   1.570
 9470SOL    HW229310   5.879   3.497   1.675
 9471SOL     OW29311   0.644   2.512   5.827
 9471SOL    HW129312   0.633   2.413   5.829
 9471SOL    HW229313   0.630   2.549   5.919
 9472SOL     OW29314   6.682   2.867   4.928
 9472SOL    HW129315   6.720   2.782   4.894
 9472SOL    HW229316   6.588   2.851   4.961
 9473SOL     OW29317   3.959   5.322   4.787
 9473SOL    HW129318   3.897   5.389   4.828
 9473SOL    HW229319   3.953   5.327   4.687
 9474SOL     OW29320   3.802   5.369   3.683
 9474SOL    HW129321   3.808   5.306   3.760
 9474SOL    HW229322   3.856   5.335   3.607
 9475SOL     OW29323   1.400   3.305   1.160
 9475SOL    HW129324   1.338   3.231   1.133
 9475SOL    HW229325   1.346   3.383   1.191
 9476SOL     OW29326   4.027   3.634   5.386
 9476SOL    HW129327   4.099   3.617   5.319
 9476SOL    HW229328   3.965   3.556   5.389
 9477SOL     OW29329   0.475   2.636   1.074
 9477SOL    HW129330   0.490   2.729   1.108
 9477SOL    HW229331   0.398   2.595   1.122
 9478SOL     OW29332   5.279   4.787   5.070
 9478SOL    HW129333   5.347   4.790   4.998
 9478SOL    HW229334   5.303   4.717   5.137
 9479SOL     OW29335   6.362   5.607   5.461
 9479SOL    HW129336   6.267   5.633   5.482
 9479SOL    HW229337   6.410   5.587   5.547
 9480SOL     OW29338   5.884   4.038   6.447
 9480SOL    HW129339   5.877   3.939   6.455
 9480SOL    HW229340   5.979   4.064   6.427
 9481SOL     OW29341   6.286   3.676   2.328
 9481SOL    HW129342   6.304   3.583   2.297
 9481SOL    HW229343   6.317   3.686   2.423
 9482SOL     OW29344   4.183   6.995   2.590
 9482SOL    HW129345   4.259   6.956   2.537
 9482SOL    HW229346   4.119   0.012   2.528
 9483SOL     OW29347   1.649   1.685   0.470
 9483SOL    HW129348   1.601   1.770   0.451
 9483SOL    HW229349   1.743   1.705   0.498
 9484SOL     OW29350   6.134   1.402   2.694
 9484SOL    HW129351   6.218   1.411   2.747
 9484SOL    HW229352   6.085   1.319   2.722
 9485SOL     OW29353   1.160   0.895   3.010
 9485SOL    HW129354   1.161   0.919   2.913
 9485SOL    HW229355   1.222   0.956   3.059
 9486SOL     OW29356   2.575   5.811   2.441
 9486SOL    HW129357   2.502   5.762   2.395
 9486SOL    HW229358   2.611   5.882   2.381
 9487SOL     OW29359   3.445   2.884   3.391
 9487SOL    HW129360   3.425   2.853   3.484
 9487SOL    HW229361   3.371   2.944   3.359
 9488SOL     OW29362   1.299   0.863   1.652
 9488SOL    HW129363   1.280   0.863   1.553
 9488SOL    HW229364   1.397   0.871   1.667
 9489SOL     OW29365   3.508   4.418   0.719
 9489SOL    HW129366   3.564   4.335   0.716
 9489SOL    HW229367   3.450   4.416   0.801
 9490SOL     OW29368   5.856   1.298   7.020
 9490SOL    HW129369   5.863   1.395   0.017
 9490SOL    HW229370   5.806   1.288   6.934
 9491SOL     OW29371   6.654   5.000   5.576
 9491SOL    HW129372   6.647   4.906   5.543
 9491SOL    HW229373   6.739   5.011   5.628
 9492SOL     OW29374   2.689   3.922   1.689
 9492SOL    HW129375   2.786   3.900   1.699
 9492SOL    HW229376   2.639   3.840   1.659
 9493SOL     OW29377   5.633   6.465   2.770
 9493SOL    HW129378   5.680   6.544   2.730
 9493SOL    HW229379   5.551   6.496   2.818
 9494SOL     OW29380   3.639   3.374   6.103
 9494SOL    HW129381   3.552   3.345   6.144
 9494SOL    HW229382   3.622   3.412   6.013
 9495SOL     OW29383   5.618   2.562   4.850
 9495SOL    HW129384   5.666   2.589   4.933
 9495SOL    HW229385   5.527   2.604   4.848
 9496SOL     OW29386   5.747   3.935   0.072
 9496SOL    HW129387   5.820   3.930   0.141
 9496SOL    HW229388   5.787   3.946   7.008
 9497SOL     OW29389   0.235   6.430   5.728
 9497SOL    HW129390   0.171   6.448   5.803
 9497SOL    HW229391   0.328   6.446   5.759
 9498SOL     OW29392   3.912   7.009   5.848
 9498SOL    HW129393   4.001   0.018   5.818
 9498SOL    HW229394   3.910   6.910   5.835
 9499SOL     OW29395   4.857   4.167   6.253
 9499SOL    HW129396   4.771   4.148   6.206
 9499SOL    HW229397   4.865   4.265   6.271
 9500SOL     OW29398   4.950   5.690   2.058
 9500SOL    HW129399   4.954   5.633   2.140
 9500SOL    HW229400   4.862   5.738   2.055
 9501SOL     OW29401   3.469   1.659   4.985
 9501SOL    HW129402   3.502   1.629   4.895
 9501SOL    HW229403   3.538   1.636   5.054
 9502SOL     OW29404   4.955   3.624   5.472
 9502SOL    HW129405   4.892   3.663   5.540
 9502SOL    HW229406   5.048   3.625   5.509
 9503SOL     OW29407   1.212   6.825   0.955
 9503SOL    HW129408   1.225   6.789   1.048
 9503SOL    HW229409   1.230   6.923   0.955
 9504SOL     OW29410   0.731   3.382   6.887
 9504SOL    HW129411   0.663   3.452   6.906
 9504SOL    HW229412   0.718   3.348   6.794
 9505SOL     OW29413   4.914   3.544   2.969
 9505SOL    HW129414   4.863   3.471   2.923
 9505SOL    HW229415   4.861   3.575   3.048
 9506SOL     OW29416   6.167   2.965   0.467
 9506SOL    HW129417   6.170   2.874   0.509
 9506SOL    HW229418   6.260   3.002   0.460
 9507SOL     OW29419   0.877   1.925   3.903
 9507SOL    HW129420   0.925   1.993   3.847
 9507SOL    HW229421   0.786   1.910   3.866
 9508SOL     OW29422   5.115   2.144   6.992
 9508SOL    HW129423   5.178   2.089   6.937
 9508SOL    HW229424   5.138   2.241   6.983
 9509SOL     OW29425   2.602   6.553   5.176
 9509SOL    HW129426   2.603   6.455   5.196
 9509SOL    HW229427   2.679   6.577   5.118
 9510SOL     OW29428   6.406   4.362   3.062
 9510SOL    HW129429   6.461   4.431   3.108
 9510SOL    HW229430   6.322   4.345   3.114
 9511SOL     OW29431   1.722   1.098   0.960
 9511SOL    HW129432   1.717   1.159   0.881
 9511SOL    HW229433   1.643   1.113   1.019
 9512SOL     OW29434   1.500   2.426   4.506
 9512SOL    HW129435   1.400   2.427   4.507
 9512SOL    HW229436   1.533   2.337   4.535
 9513SOL     OW29437   2.410   4.331   4.162
 9513SOL    HW129438   2.376   4.290   4.077
 9513SOL    HW229439   2.358   4.295   4.239
 9514SOL     OW29440   2.523   2.793   6.412
 9514SOL    HW129441   2.569   2.711   6.378
 9514SOL    HW229442   2.587   2.847   6.467
 9515SOL     OW29443   2.565   5.798   5.481
 9515SOL    HW129444   2.495   5.818   5.413
 9515SOL    HW229445   2.611   5.712   5.458
 9516SOL     OW29446   5.375   3.754   4.709
 9516SOL    HW129447   5.302   3.744   4.777
 9516SOL    HW229448   5.464   3.753   4.756
 9517SOL     OW29449   0.870   5.860   1.735
 9517SOL    HW129450   0.906   5.801   1.807
 9517SOL    HW229451   0.788   5.819   1.696
 9518SOL     OW29452   0.891   3.152   5.430
 9518SOL    HW129453   0.810   3.210   5.413
 9518SOL    HW229454   0.913   3.154   5.527
 9519SOL     OW29455   3.887   3.369   3.216
 9519SOL    HW129456   3.965   3.362   3.154
 9519SOL    HW229457   3.905   3.317   3.299
 9520SOL     OW29458   5.277   0.622   6.336
 9520SOL    HW129459   5.328   0.540   6.365
 9520SOL    HW229460   5.199   0.594   6.281
 9521SOL     OW29461   3.255   1.091   0.904
 9521SOL    HW129462   3.316   1.142   0.844
 9521SOL    HW229463   3.199   1.155   0.957
 9522SOL     OW29464   3.140   6.167   1.956
 9522SOL    HW129465   3.239   6.165   1.940
 9522SOL    HW229466   3.119   6.113   2.038
 9523SOL     OW29467   2.645   4.706   3.875
 9523SOL    HW129468   2.716   4.769   3.906
 9523SOL    HW229469   2.620   4.644   3.949
 9524SOL     OW29470   2.481   4.142   1.023
 9524SOL    HW129471   2.569   4.163   1.067
 9524SOL    HW229472   2.446   4.224   0.978
 9525SOL     OW29473   2.463   3.158   5.347
 9525SOL    HW129474   2.475   3.077   5.289
 9525SOL    HW229475   2.369   3.191   5.339
 9526SOL     OW29476   5.453   4.816   0.082
 9526SOL    HW129477   5.431   4.723   0.055
 9526SOL    HW229478   5.473   4.871   0.001
 9527SOL     OW29479   4.314   6.778   4.010
 9527SOL    HW129480   4.350   6.838   3.939
 9527SOL    HW229481   4.214   6.776   4.005
 9528SOL     OW29482   5.338   2.325   0.270
 9528SOL    HW129483   5.323   2.424   0.280
 9528SOL    HW229484   5.416   2.297   0.326
 9529SOL     OW29485   5.956   1.443   1.416
 9529SOL    HW129486   6.000   1.376   1.476
 9529SOL    HW229487   5.865   1.464   1.451
 9530SOL     OW29488   1.755   5.768   3.910
 9530SOL    HW129489   1.703   5.848   3.879
 9530SOL    HW229490   1.697   5.687   3.904
 9531SOL     OW29491   3.711   5.734   2.330
 9531SOL    HW129492   3.672   5.801   2.394
 9531SOL    HW229493   3.657   5.650   2.334
 9532SOL     OW29494   6.372   5.170   3.145
 9532SOL    HW129495   6.349   5.261   3.182
 9532SOL    HW229496   6.470   5.153   3.158
 9533SOL     OW29497   1.579   3.486   3.602
 9533SOL    HW129498   1.630   3.561   3.645
 9533SOL    HW229499   1.605   3.399   3.645
 9534SOL     OW29500   5.479   4.890   4.479
 9534SOL    HW129501   5.516   4.982   4.490
 9534SOL    HW229502   5.480   4.843   4.568
 9535SOL     OW29503   0.417   1.567   5.047
 9535SOL    HW129504   0.378   1.612   4.967
 9535SOL    HW229505   0.365   1.484   5.068
 9536SOL     OW29506   3.365   3.974   5.052
 9536SOL    HW129507   3.312   3.906   5.102
 9536SOL    HW229508   3.461   3.945   5.047
 9537SOL     OW29509   7.003   2.055   4.124
 9537SOL    HW129510   0.076   2.068   4.124
 9537SOL    HW229511   6.982   1.958   4.138
 9538SOL     OW29512   5.081   0.357   5.145
 9538SOL    HW129513   4.991   0.320   5.123
 9538SOL    HW229514   5.125   0.300   5.214
 9539SOL     OW29515   2.912   3.679   2.371
 9539SOL    HW129516   2.815   3.670   2.348
 9539SOL    HW229517   2.955   3.745   2.310
 9540SOL     OW29518   4.917   4.928   3.263
 9540SOL    HW129519   5.013   4.950   3.243
 9540SOL    HW229520   4.902   4.830   3.249
 9541SOL     OW29521   2.197   5.610   5.234
 9541SOL    HW129522   2.191   5.573   5.141
 9541SOL    HW229523   2.227   5.538   5.297
 9542SOL     OW29524   6.311   4.157   3.918
 9542SOL    HW129525   6.318   4.250   3.953
 9542SOL    HW229526   6.216   4.137   3.893
 9543SOL     OW29527   2.489   6.950   6.061
 9543SOL    HW129528   2.565   6.945   6.127
 9543SOL    HW229529   2.426   7.023   6.089
 9544SOL     OW29530   5.898   3.137   4.594
 9544SOL    HW129531   5.957   3.078   4.649
 9544SOL    HW229532   5.923   3.233   4.610
 9545SOL     OW29533   0.078   4.333   1.954
 9545SOL    HW129534   0.141   4.408   1.977
 9545SOL    HW229535   0.116   4.280   1.878
 9546SOL     OW29536   2.661   3.103   0.546
 9546SOL    HW129537   2.621   3.017   0.514
 9546SOL    HW229538   2.760   3.099   0.538
 9547SOL     OW29539   4.097   6.871   3.674
 9547SOL    HW129540   4.037   6.832   3.604
 9547SOL    HW229541   4.081   6.826   3.761
 9548SOL     OW29542   1.327   5.105   6.874
 9548SOL    HW129543   1.334   5.006   6.885
 9548SOL    HW229544   1.253   5.140   6.931
 9549SOL     OW29545   4.743   1.954   0.488
 9549SOL    HW129546   4.764   1.900   0.406
 9549SOL    HW229547   4.797   2.038   0.486
 9550SOL     OW29548   5.383   3.466   1.684
 9550SOL    HW129549   5.289   3.431   1.681
 9550SOL    HW229550   5.445   3.391   1.706
 9551SOL     OW29551   6.363   3.423   6.315
 9551SOL    HW129552   6.377   3.381   6.405
 9551SOL    HW229553   6.424   3.379   6.249
 9552SOL     OW29554   3.397   1.593   7.006
 9552SOL    HW129555   3.436   1.685   7.018
 9552SOL    HW229556   3.315   1.600   6.949
 9553SOL     OW29557   5.482   1.456   6.463
 9553SOL    HW129558   5.573   1.416   6.456
 9553SOL    HW229559   5.488   1.549   6.497
 9554SOL     OW29560   3.593   0.969   4.138
 9554SOL    HW129561   3.587   0.981   4.039
 9554SOL    HW229562   3.640   0.883   4.159
 9555SOL     OW29563   6.813   0.299   3.866
 9555SOL    HW129564   6.801   0.233   3.940
 9555SOL    HW229565   6.908   0.297   3.835
 9556SOL     OW29566   2.022   4.829   6.574
 9556SOL    HW129567   2.118   4.846   6.594
 9556SOL    HW229568   2.012   4.739   6.532
 9557SOL     OW29569   5.120   0.795   1.976
 9557SOL    HW129570   5.134   0.734   2.054
 9557SOL    HW229571   5.108   0.740   1.893
 9558SOL     OW29572   4.769   6.671   6.815
 9558SOL    HW129573   4.732   6.748   6.764
 9558SOL    HW229574   4.790   6.700   6.909
 9559SOL     OW29575   1.981   4.280   0.036
 9559SOL    HW129576   1.957   4.226   0.117
 9559SOL    HW229577   1.978   4.377   0.058
 9560SOL     OW29578   3.234   6.865   2.578
 9560SOL    HW129579   3.290   6.801   2.525
 9560SOL    HW229580   3.288   6.946   2.601
 9561SOL     OW29581   0.601   0.801   0.469
 9561SOL    HW129582   0.690   0.764   0.497
 9561SOL    HW229583   0.530   0.732   0.483
 9562SOL     OW29584   2.723   6.417   2.927
 9562SOL    HW129585   2.668   6.334   2.919
 9562SOL    HW229586   2.670   6.489   2.973
 9563SOL     OW29587   0.256   6.095   6.971
 9563SOL    HW129588   0.226   6.153   6.895
 9563SOL    HW229589   0.237   6.141   0.031
 9564SOL     OW29590   1.649   0.631   0.070
 9564SOL    HW129591   1.620   0.562   0.003
 9564SOL    HW229592   1.747   0.625   0.084
 9565SOL     OW29593   3.282   1.811   4.277
 9565SOL    HW129594   3.188   1.815   4.312
 9565SOL    HW229595   3.334   1.890   4.310
 9566SOL     OW29596   3.304   0.786   6.941
 9566SOL    HW129597   3.365   0.865   6.940
 9566SOL    HW229598   3.212   0.814   6.913
 9567SOL     OW29599   6.755   3.629   1.037
 9567SOL    HW129600   6.663   3.607   1.069
 9567SOL    HW229601   6.816   3.550   1.049
 9568SOL     OW29602   4.912   1.341   6.763
 9568SOL    HW129603   4.980   1.291   6.817
 9568SOL    HW229604   4.826   1.345   6.814
 9569SOL     OW29605   5.693   0.884   1.904
 9569SOL    HW129606   5.751   0.924   1.975
 9569SOL    HW229607   5.743   0.811   1.857
 9570SOL     OW29608   0.404   3.212   1.670
 9570SOL    HW129609   0.309   3.225   1.642
 9570SOL    HW229610   0.408   3.150   1.748
 9571SOL     OW29611   1.702   2.340   6.492
 9571SOL    HW129612   1.661   2.295   6.412
 9571SOL    HW229613   1.629   2.379   6.548
 9572SOL     OW29614   2.325   4.178   3.952
 9572SOL    HW129615   2.366   4.126   3.877
 9572SOL    HW229616   2.260   4.121   4.002
 9573SOL     OW29617   6.731   0.822   4.582
 9573SOL    HW129618   6.673   0.779   4.651
 9573SOL    HW229619   6.722   0.922   4.587
 9574SOL     OW29620   3.207   3.270   1.139
 9574SOL    HW129621   3.163   3.184   1.163
 9574SOL    HW229622   3.138   3.337   1.112
 9575SOL     OW29623   6.188   6.087   1.645
 9575SOL    HW129624   6.098   6.130   1.650
 9575SOL    HW229625   6.245   6.119   1.720
 9576SOL     OW29626   1.218   6.912   6.792
 9576SOL    HW129627   1.178   6.998   6.761
 9576SOL    HW229628   1.273   6.873   6.718
 9577SOL     OW29629   6.358   5.186   2.271
 9577SOL    HW129630   6.443   5.239   2.278
 9577SOL    HW229631   6.323   5.166   2.362
 9578SOL     OW29632   2.152   3.286   2.685
 9578SOL    HW129633   2.156   3.386   2.691
 9578SOL    HW229634   2.131   3.248   2.774
 9579SOL     OW29635   6.311   5.688   2.102
 9579SOL    HW129636   6.211   5.683   2.097
 9579SOL    HW229637   6.338   5.776   2.142
 9580SOL     OW29638   5.293   4.372   3.039
 9580SOL    HW129639   5.322   4.315   3.117
 9580SOL    HW229640   5.203   4.342   3.007
 9581SOL     OW29641   6.116   0.939   0.101
 9581SOL    HW129642   6.088   0.994   0.023
 9581SOL    HW229643   6.207   0.967   0.131
 9582SOL     OW29644   5.052   6.203   4.744
 9582SOL    HW129645   5.049   6.294   4.701
 9582SOL    HW229646   5.093   6.138   4.680
 9583SOL     OW29647   3.787   4.888   1.692
 9583SOL    HW129648   3.752   4.827   1.763
 9583SOL    HW229649   3.749   4.979   1.705
 9584SOL     OW29650   2.609   5.180   4.190
 9584SOL    HW129651   2.521   5.192   4.237
 9584SOL    HW229652   2.680   5.166   4.259
 9585SOL     OW29653   4.399   5.820   1.157
 9585SOL    HW129654   4.331   5.833   1.085
 9585SOL    HW229655   4.472   5.888   1.146
 9586SOL     OW29656   4.188   4.782   2.980
 9586SOL    HW129657   4.100   4.792   3.027
 9586SOL    HW229658   4.173   4.735   2.893
 9587SOL     OW29659   2.844   5.431   1.685
 9587SOL    HW129660   2.786   5.366   1.635
 9587SOL    HW229661   2.793   5.516   1.699
 9588SOL     OW29662   6.613   5.139   0.728
 9588SOL    HW129663   6.685   5.110   0.666
 9588SOL    HW229664   6.561   5.060   0.759
 9589SOL     OW29665   1.652   3.841   6.608
 9589SOL    HW129666   1.718   3.895   6.555
 9589SOL    HW229667   1.674   3.743   6.599
 9590SOL     OW29668   6.011   0.893   1.200
 9590SOL    HW129669   6.037   0.990   1.202
 9590SOL    HW229670   6.078   0.841   1.148
 9591SOL     OW29671   4.079   0.641   0.228
 9591SOL    HW129672   4.019   0.566   0.200
 9591SOL    HW229673   4.024   0.723   0.244
 9592SOL     OW29674   2.000   6.418   5.520
 9592SOL    HW129675   2.032   6.503   5.562
 9592SOL    HW229676   2.065   6.344   5.540
 9593SOL     OW29677   1.685   1.288   4.346
 9593SOL    HW129678   1.623   1.259   4.273
 9593SOL    HW229679   1.706   1.210   4.405
 9594SOL     OW29680   0.145   6.806   3.890
 9594SOL    HW129681   0.236   6.766   3.882
 9594SOL    HW229682   0.078   6.745   3.846
 9595SOL     OW29683   0.190   3.429   3.129
 9595SOL    HW129684   0.121   3.378   3.181
 9595SOL    HW229685   0.241   3.488   3.192
 9596SOL     OW29686   0.368   6.754   0.830
 9596SOL    HW129687   0.305   6.747   0.906
 9596SOL    HW229688   0.370   6.848   0.796
 9597SOL     OW29689   0.866   3.007   2.615
 9597SOL    HW129690   0.860   3.097   2.571
 9597SOL    HW229691   0.882   2.937   2.545
 9598SOL     OW29692   1.742   3.651   3.761
 9598SOL    HW129693   1.772   3.679   3.669
 9598SOL    HW229694   1.699   3.729   3.807
 9599SOL     OW29695   4.364   6.638   3.486
 9599SOL    HW129696   4.275   6.609   3.521
 9599SOL    HW229697   4.371   6.738   3.492
 9600SOL     OW29698   3.276   0.783   1.942
 9600SOL    HW129699   3.280   0.791   1.842
 9600SOL    HW229700   3.224   0.860   1.979
 9601SOL     OW29701   0.654   3.951   0.937
 9601SOL    HW129702   0.570   3.901   0.956
 9601SOL    HW229703   0.720   3.935   1.009
 9602SOL     OW29704   4.475   5.113   5.221
 9602SOL    HW129705   4.380   5.134   5.245
 9602SOL    HW229706   4.489   5.131   5.124
 9603SOL     OW29707   5.152   5.708   5.051
 9603SOL    HW129708   5.071   5.656   5.079
 9603SOL    HW229709   5.192   5.752   5.132
 9604SOL     OW29710   5.197   6.614   0.178
 9604SOL    HW129711   5.166   6.693   0.231
 9604SOL    HW229712   5.149   6.611   0.091
 9605SOL     OW29713   6.391   6.256   2.620
 9605SOL    HW129714   6.373   6.311   2.702
 9605SOL    HW229715   6.382   6.159   2.643
 9606SOL     OW29716   1.426   1.498   6.587
 9606SOL    HW129717   1.497   1.568   6.587
 9606SOL    HW229718   1.337   1.540   6.567
 9607SOL     OW29719   3.158   2.844   5.933
 9607SOL    HW129720   3.087   2.780   5.963
 9607SOL    HW229721   3.228   2.853   6.004
 9608SOL     OW29722   6.742   3.356   3.953
 9608SOL    HW129723   6.801   3.343   3.874
 9608SOL    HW229724   6.649   3.377   3.922
 9609SOL     OW29725   4.590   3.009   6.341
 9609SOL    HW129726   4.660   3.032   6.409
 9609SOL    HW229727   4.558   2.916   6.357
 9610SOL     OW29728   1.319   4.278   3.419
 9610SOL    HW129729   1.403   4.276   3.366
 9610SOL    HW229730   1.340   4.298   3.515
 9611SOL     OW29731   1.901   0.344   0.550
 9611SOL    HW129732   1.904   0.335   0.649
 9611SOL    HW229733   1.990   0.318   0.512
 9612SOL     OW29734   6.504   2.881   3.216
 9612SOL    HW129735   6.598   2.856   3.191
 9612SOL    HW229736   6.459   2.803   3.258
 9613SOL     OW29737   5.869   5.597   3.553
 9613SOL    HW129738   5.812   5.517   3.534
 9613SOL    HW229739   5.821   5.659   3.616
 9614SOL     OW29740   4.474   2.475   3.690
 9614SOL    HW129741   4.456   2.523   3.604
 9614SOL    HW229742   4.536   2.529   3.747
 9615SOL     OW29743   2.603   3.863   0.982
 9615SOL    HW129744   2.595   3.955   0.944
 9615SOL    HW229745   2.678   3.860   1.047
 9616SOL     OW29746   4.323   3.447   0.057
 9616SOL    HW129747   4.408   3.429   0.107
 9616SOL    HW229748   4.248   3.395   0.099
 9617SOL     OW29749   2.091   1.829   3.454
 9617SOL    HW129750   2.060   1.776   3.375
 9617SOL    HW229751   2.181   1.797   3.483
 9618SOL     OW29752   2.858   1.634   1.001
 9618SOL    HW129753   2.896   1.586   1.080
 9618SOL    HW229754   2.928   1.645   0.931
 9619SOL     OW29755   3.060   1.030   4.939
 9619SOL    HW129756   3.151   1.063   4.965
 9619SOL    HW229757   3.020   1.091   4.871
 9620SOL     OW29758   6.173   0.808   6.014
 9620SOL    HW129759   6.075   0.815   5.996
 9620SOL    HW229760   6.223   0.872   5.955
 9621SOL     OW29761   1.701   2.685   3.246
 9621SOL    HW129762   1.659   2.731   3.167
 9621SOL    HW229763   1.629   2.651   3.307
 9622SOL     OW29764   5.566   6.917   1.523
 9622SOL    HW129765   5.536   7.012   1.538
 9622SOL    HW229766   5.647   6.916   1.465
 9623SOL     OW29767   2.600   3.907   6.644
 9623SOL    HW129768   2.532   3.898   6.717
 9623SOL    HW229769   2.656   3.825   6.639
 9624SOL     OW29770   6.610   3.380   3.646
 9624SOL    HW129771   6.586   3.462   3.594
 9624SOL    HW229772   6.709   3.372   3.652
 9625SOL     OW29773   6.089   6.082   0.391
 9625SOL    HW129774   6.036   6.096   0.308
 9625SOL    HW229775   6.154   6.158   0.403
 9626SOL     OW29776   3.155   6.527   6.791
 9626SOL    HW129777   3.072   6.516   6.736
 9626SOL    HW229778   3.132   6.564   6.881
 9627SOL     OW29779   1.279   6.796   6.555
 9627SOL    HW129780   1.348   6.797   6.483
 9627SOL    HW229781   1.195   6.754   6.521
 9628SOL     OW29782   4.289   6.228   2.142
 9628SOL    HW129783   4.295   6.317   2.098
 9628SOL    HW229784   4.349   6.226   2.222
 9629SOL     OW29785   2.454   6.910   1.084
 9629SOL    HW129786   2.389   6.835   1.080
 9629SOL    HW229787   2.440   6.963   1.168
 9630SOL     OW29788   6.575   0.517   6.306
 9630SOL    HW129789   6.569   0.438   6.367
 9630SOL    HW229790   6.605   0.486   6.215
 9631SOL     OW29791   5.966   6.151   0.145
 9631SOL    HW129792   5.997   6.173   0.053
 9631SOL    HW229793   5.872   6.181   0.157
 9632SOL     OW29794   1.498   6.179   1.815
 9632SOL    HW129795   1.530   6.240   1.888
 9632SOL    HW229796   1.423   6.122   1.849
 9633SOL     OW29797   7.010   5.385   6.289
 9633SOL    HW129798   0.059   5.361   6.350
 9633SOL    HW229799   6.924   5.351   6.327
 9634SOL     OW29800   1.048   5.930   5.010
 9634SOL    HW129801   1.105   5.985   4.949
 9634SOL    HW229802   1.101   5.854   5.046
 9635SOL     OW29803   1.417   5.262   5.790
 9635SOL    HW129804   1.386   5.357   5.786
 9635SOL    HW229805   1.492   5.249   5.726
 9636SOL     OW29806   4.072   1.665   6.886
 9636SOL    HW129807   4.161   1.643   6.847
 9636SOL    HW229808   4.083   1.685   6.983
 9637SOL     OW29809   2.346   1.237   0.057
 9637SOL    HW129810   2.368   1.193   0.144
 9637SOL    HW229811   2.247   1.231   0.040
 9638SOL     OW29812   6.672   1.923   6.144
 9638SOL    HW129813   6.706   1.829   6.138
 9638SOL    HW229814   6.652   1.958   6.053
 9639SOL     OW29815   3.798   0.898   2.810
 9639SOL    HW129816   3.738   0.823   2.780
 9639SOL    HW229817   3.867   0.916   2.740
 9640SOL     OW29818   1.946   2.629   2.360
 9640SOL    HW129819   1.869   2.667   2.309
 9640SOL    HW229820   2.017   2.699   2.371
 9641SOL     OW29821   6.300   5.614   0.034
 9641SOL    HW129822   6.239   5.546   0.076
 9641SOL    HW229823   6.315   5.591   6.965
 9642SOL     OW29824   3.656   0.338   3.954
 9642SOL    HW129825   3.706   0.398   4.016
 9642SOL    HW229826   3.715   0.262   3.927
 9643SOL     OW29827   4.101   4.813   3.304
 9643SOL    HW129828   4.155   4.737   3.268
 9643SOL    HW229829   4.148   4.852   3.383
 9644SOL     OW29830   2.669   2.063   6.985
 9644SOL    HW129831   2.607   2.136   6.955
 9644SOL    HW229832   2.616   1.988   7.025
 9645SOL     OW29833   3.051   5.323   5.116
 9645SOL    HW129834   3.134   5.274   5.088
 9645SOL    HW229835   2.984   5.258   5.151
 9646SOL     OW29836   4.232   5.422   3.370
 9646SOL    HW129837   4.281   5.456   3.450
 9646SOL    HW229838   4.233   5.491   3.298
 9647SOL     OW29839   6.783   2.819   0.208
 9647SOL    HW129840   6.778   2.913   0.174
 9647SOL    HW229841   6.771   2.755   0.132
 9648SOL     OW29842   4.183   3.710   0.891
 9648SOL    HW129843   4.219   3.652   0.817
 9648SOL    HW229844   4.109   3.661   0.938
 9649SOL     OW29845   2.141   5.748   0.890
 9649SOL    HW129846   2.198   5.669   0.912
 9649SOL    HW229847   2.045   5.720   0.882
 9650SOL     OW29848   0.137   6.918   1.876
 9650SOL    HW129849   0.164   6.824   1.854
 9650SOL    HW229850   0.219   6.971   1.900
 9651SOL     OW29851   0.399   1.990   5.172
 9651SOL    HW129852   0.315   1.960   5.126
 9651SOL    HW229853   0.475   1.931   5.144
 9652SOL     OW29854   0.272   5.377   2.710
 9652SOL    HW129855   0.206   5.443   2.673
 9652SOL    HW229856   0.364   5.404   2.682
 9653SOL     OW29857   6.126   5.203   4.245
 9653SOL    HW129858   6.049   5.146   4.274
 9653SOL    HW229859   6.122   5.291   4.291
 9654SOL     OW29860   2.118   2.827   2.287
 9654SOL    HW129861   2.142   2.888   2.362
 9654SOL    HW229862   2.175   2.848   2.207
 9655SOL     OW29863   5.844   2.391   6.817
 9655SOL    HW129864   5.915   2.351   6.875
 9655SOL    HW229865   5.875   2.479   6.782
 9656SOL     OW29866   3.687   0.590   2.886
 9656SOL    HW129867   3.666   0.507   2.834
 9656SOL    HW229868   3.780   0.585   2.921
 9657SOL     OW29869   0.291   0.403   4.986
 9657SOL    HW129870   0.236   0.382   5.067
 9657SOL    HW229871   0.369   0.341   4.982
 9658SOL     OW29872   5.953   2.231   2.710
 9658SOL    HW129873   5.949   2.152   2.771
 9658SOL    HW229874   5.957   2.200   2.615
 9659SOL     OW29875   0.823   5.128   0.033
 9659SOL    HW129876   0.759   5.161   6.991
 9659SOL    HW229877   0.905   5.185   0.033
 9660SOL     OW29878   0.200   5.050   0.751
 9660SOL    HW129879   0.154   5.134   0.777
 9660SOL    HW229880   0.157   4.972   0.797
 9661SOL     OW29881   4.670   6.432   0.957
 9661SOL    HW129882   4.591   6.372   0.965
 9661SOL    HW229883   4.668   6.500   1.030
 9662SOL     OW29884   4.942   0.826   4.701
 9662SOL    HW129885   5.030   0.833   4.654
 9662SOL    HW229886   4.957   0.819   4.799
 9663SOL     OW29887   2.305   5.933   3.473
 9663SOL    HW129888   2.267   5.841   3.482
 9663SOL    HW229889   2.383   5.943   3.534
 9664SOL     OW29890   2.607   5.588   1.518
 9664SOL    HW129891   2.581   5.520   1.586
 9664SOL    HW229892   2.580   5.679   1.549
 9665SOL     OW29893   5.347   4.126   4.033
 9665SOL    HW129894   5.307   4.153   4.120
 9665SOL    HW229895   5.313   4.035   4.007
 9666SOL     OW29896   5.731   4.635   4.625
 9666SOL    HW129897   5.782   4.593   4.550
 9666SOL    HW229898   5.645   4.672   4.589
 9667SOL     OW29899   3.897   3.924   3.487
 9667SOL    HW129900   3.936   3.873   3.564
 9667SOL    HW229901   3.954   3.912   3.406
 9668SOL     OW29902   0.646   1.465   4.971
 9668SOL    HW129903   0.628   1.386   4.912
 9668SOL    HW229904   0.560   1.503   5.004
 9669SOL     OW29905   1.810   6.212   0.182
 9669SOL    HW129906   1.771   6.124   0.211
 9669SOL    HW229907   1.810   6.276   0.259
 9670SOL     OW29908   6.110   4.704   6.432
 9670SOL    HW129909   6.190   4.748   6.473
 9670SOL    HW229910   6.136   4.612   6.402
 9671SOL     OW29911   0.428   0.384   0.042
 9671SOL    HW129912   0.402   0.289   0.025
 9671SOL    HW229913   0.375   0.445   7.011
 9672SOL     OW29914   0.936   6.286   4.739
 9672SOL    HW129915   1.024   6.254   4.703
 9672SOL    HW229916   0.884   6.330   4.666
 9673SOL     OW29917   2.473   2.472   6.457
 9673SOL    HW129918   2.375   2.469   6.435
 9673SOL    HW229919   2.526   2.439   6.379
 9674SOL     OW29920   2.702   6.798   2.157
 9674SOL    HW129921   2.765   6.761   2.226
 9674SOL    HW229922   2.681   6.727   2.090
 9675SOL     OW29923   0.138   2.998   1.851
 9675SOL    HW129924   0.067   2.946   1.804
 9675SOL    HW229925   0.193   3.048   1.784
 9676SOL     OW29926   0.363   3.599   4.822
 9676SOL    HW129927   0.395   3.563   4.909
 9676SOL    HW229928   0.422   3.566   4.748
 9677SOL     OW29929   2.087   3.299   5.028
 9677SOL    HW129930   2.025   3.298   4.949
 9677SOL    HW229931   2.125   3.391   5.039
 9678SOL     OW29932   4.058   3.155   2.912
 9678SOL    HW129933   4.044   3.162   3.011
 9678SOL    HW229934   3.989   3.093   2.874
 9679SOL     OW29935   0.955   3.478   0.863
 9679SOL    HW129936   1.002   3.556   0.822
 9679SOL    HW229937   0.957   3.401   0.800
 9680SOL     OW29938   5.410   5.398   3.239
 9680SOL    HW129939   5.388   5.300   3.231
 9680SOL    HW229940   5.452   5.429   3.153
 9681SOL     OW29941   1.008   1.338   4.168
 9681SOL    HW129942   1.010   1.438   4.161
 9681SOL    HW229943   1.079   1.307   4.232
 9682SOL     OW29944   0.098   4.693   3.096
 9682SOL    HW129945   0.157   4.642   3.032
 9682SOL    HW229946   0.150   4.768   3.136
 9683SOL     OW29947   4.404   6.361   6.127
 9683SOL    HW129948   4.371   6.456   6.125
 9683SOL    HW229949   4.503   6.362   6.145
 9684SOL     OW29950   0.945   4.421   3.609
 9684SOL    HW129951   0.897   4.335   3.592
 9684SOL    HW229952   0.953   4.435   3.708
 9685SOL     OW29953   1.806   2.477   0.153
 9685SOL    HW129954   1.885   2.536   0.137
 9685SOL    HW229955   1.824   2.417   0.231
 9686SOL     OW29956   5.552   0.655   1.694
 9686SOL    HW129957   5.463   0.616   1.672
 9686SOL    HW229958   5.569   0.735   1.636
 9687SOL     OW29959   3.646   0.708   4.025
 9687SOL    HW129960   3.553   0.722   3.993
 9687SOL    HW229961   3.700   0.662   3.955
 9688SOL     OW29962   6.657   1.904   3.894
 9688SOL    HW129963   6.695   1.979   3.947
 9688SOL    HW229964   6.704   1.819   3.918
 9689SOL     OW29965   1.828   5.673   6.147
 9689SOL    HW129966   1.789   5.727   6.072
 9689SOL    HW229967   1.921   5.703   6.165
 9690SOL     OW29968   6.066   4.425   0.572
 9690SOL    HW129969   6.075   4.389   0.665
 9690SOL    HW229970   5.969   4.423   0.545
 9691SOL     OW29971   1.382   4.083   1.919
 9691SOL    HW129972   1.349   4.175   1.897
 9691SOL    HW229973   1.340   4.017   1.857
 9692SOL     OW29974   2.574   5.749   1.170
 9692SOL    HW129975   2.564   5.778   1.074
 9692SOL    HW229976   2.667   5.769   1.200
 9693SOL     OW29977   5.915   5.360   1.739
 9693SOL    HW129978   5.935   5.266   1.710
 9693SOL    HW229979   5.963   5.424   1.679
 9694SOL     OW29980   1.930   2.115   0.087
 9694SOL    HW129981   1.951   2.036   0.145
 9694SOL    HW229982   1.999   2.186   0.102
 9695SOL     OW29983   5.975   4.226   1.231
 9695SOL    HW129984   5.907   4.176   1.282
 9695SOL    HW229985   5.954   4.221   1.133
 9696SOL     OW29986   3.653   3.984   0.900
 9696SOL    HW129987   3.591   3.975   0.978
 9696SOL    HW229988   3.704   3.899   0.888
 9697SOL     OW29989   0.517   6.083   6.680
 9697SOL    HW129990   0.519   5.983   6.691
 9697SOL    HW229991   0.445   6.107   6.614
 9698SOL     OW29992   5.741   1.597   5.291
 9698SOL    HW129993   5.700   1.618   5.380
 9698SOL    HW229994   5.685   1.529   5.244
 9699SOL     OW29995   1.927   3.191   0.502
 9699SOL    HW129996   1.899   3.226   0.412
 9699SOL    HW229997   1.997   3.121   0.490
 9700SOL     OW29998   3.129   3.732   4.031
 9700SOL    HW129999   3.221   3.697   4.015
 9700SOL    HW230000   3.131   3.832   4.034
 9701SOL     OW30001   5.181   4.207   5.110
 9701SOL    HW130002   5.114   4.194   5.037
 9701SOL    HW230003   5.156   4.288   5.164
 9702SOL     OW30004   4.287   0.383   0.849
 9702SOL    HW130005   4.223   0.426   0.785
 9702SOL    HW230006   4.348   0.452   0.887
 9703SOL     OW30007   3.136   6.417   4.285
 9703SOL    HW130008   3.192   6.377   4.212
 9703SOL    HW230009   3.153   6.367   4.370
 9704SOL     OW30010   2.580   0.512   3.708
 9704SOL    HW130011   2.535   0.524   3.619
 9704SOL    HW230012   2.675   0.540   3.702
 9705SOL     OW30013   3.733   3.991   0.520
 9705SOL    HW130014   3.823   3.994   0.477
 9705SOL    HW230015   3.734   4.049   0.602
 9706SOL     OW30016   5.826   2.479   2.744
 9706SOL    HW130017   5.739   2.464   2.697
 9706SOL    HW230018   5.888   2.404   2.724
 9707SOL     OW30019   2.816   5.395   3.102
 9707SOL    HW130020   2.752   5.377   3.177
 9707SOL    HW230021   2.908   5.405   3.139
 9708SOL     OW30022   2.138   1.960   2.432
 9708SOL    HW130023   2.073   1.979   2.505
 9708SOL    HW230024   2.093   1.910   2.358
 9709SOL     OW30025   1.873   4.927   2.981
 9709SOL    HW130026   1.967   4.903   2.955
 9709SOL    HW230027   1.866   5.026   2.992
 9710SOL     OW30028   0.230   0.743   3.821
 9710SOL    HW130029   0.206   0.694   3.905
 9710SOL    HW230030   0.147   0.766   3.771
 9711SOL     OW30031   1.416   3.687   5.995
 9711SOL    HW130032   1.428   3.780   5.961
 9711SOL    HW230033   1.467   3.676   6.081
 9712SOL     OW30034   4.536   2.534   4.542
 9712SOL    HW130035   4.559   2.601   4.613
 9712SOL    HW230036   4.550   2.442   4.578
 9713SOL     OW30037   6.794   5.200   2.052
 9713SOL    HW130038   6.885   5.209   2.091
 9713SOL    HW230039   6.756   5.110   2.077
 9714SOL     OW30040   1.368   2.469   2.000
 9714SOL    HW130041   1.449   2.511   2.041
 9714SOL    HW230042   1.361   2.498   1.905
 9715SOL     OW30043   5.645   5.301   4.669
 9715SOL    HW130044   5.633   5.383   4.725
 9715SOL    HW230045   5.672   5.225   4.728
 9716SOL     OW30046   4.088   2.337   6.684
 9716SOL    HW130047   3.997   2.326   6.644
 9716SOL    HW230048   4.126   2.426   6.657
 9717SOL     OW30049   5.939   4.499   3.035
 9717SOL    HW130050   5.884   4.582   3.050
 9717SOL    HW230051   6.017   4.521   2.976
 9718SOL     OW30052   4.253   3.426   1.826
 9718SOL    HW130053   4.333   3.484   1.812
 9718SOL    HW230054   4.221   3.436   1.920
 9719SOL     OW30055   0.689   1.648   0.474
 9719SOL    HW130056   0.780   1.672   0.509
 9719SOL    HW230057   0.671   1.699   0.390
 9720SOL     OW30058   0.670   0.349   1.147
 9720SOL    HW130059   0.639   0.289   1.073
 9720SOL    HW230060   0.595   0.363   1.212
 9721SOL     OW30061   6.567   3.269   2.809
 9721SOL    HW130062   6.560   3.205   2.732
 9721SOL    HW230063   6.496   3.247   2.876
 9722SOL     OW30064   6.719   0.400   4.360
 9722SOL    HW130065   6.744   0.330   4.426
 9722SOL    HW230066   6.619   0.399   4.347
 9723SOL     OW30067   6.660   1.423   3.525
 9723SOL    HW130068   6.574   1.374   3.514
 9723SOL    HW230069   6.642   1.516   3.556
 9724SOL     OW30070   3.987   2.953   1.422
 9724SOL    HW130071   3.922   2.879   1.403
 9724SOL    HW230072   3.961   3.034   1.370
 9725SOL     OW30073   4.207   3.516   5.854
 9725SOL    HW130074   4.266   3.438   5.836
 9725SOL    HW230075   4.213   3.540   5.951
 9726SOL     OW30076   5.688   5.569   4.903
 9726SOL    HW130077   5.757   5.497   4.908
 9726SOL    HW230078   5.598   5.528   4.888
 9727SOL     OW30079   1.555   1.788   6.379
 9727SOL    HW130080   1.534   1.826   6.469
 9727SOL    HW230081   1.548   1.860   6.310
 9728SOL     OW30082   3.089   5.794   0.134
 9728SOL    HW130083   3.060   5.748   0.050
 9728SOL    HW230084   3.031   5.764   0.210
 9729SOL     OW30085   2.893   5.473   2.676
 9729SOL    HW130086   2.865   5.555   2.626
 9729SOL    HW230087   2.974   5.433   2.632
 9730SOL     OW30088   5.923   3.753   3.068
 9730SOL    HW130089   5.854   3.796   3.009
 9730SOL    HW230090   5.906   3.778   3.163
 9731SOL     OW30091   4.928   5.481   1.199
 9731SOL    HW130092   5.018   5.517   1.175
 9731SOL    HW230093   4.868   5.484   1.119
 9732SOL     OW30094   6.507   5.277   3.499
 9732SOL    HW130095   6.472   5.352   3.556
 9732SOL    HW230096   6.432   5.214   3.479
 9733SOL     OW30097   5.492   4.574   6.541
 9733SOL    HW130098   5.415   4.523   6.580
 9733SOL    HW230099   5.562   4.587   6.610
 9734SOL     OW30100   5.095   2.247   4.835
 9734SOL    HW130101   5.120   2.163   4.884
 9734SOL    HW230102   5.096   2.231   4.737
 9735SOL     OW30103   2.367   3.790   0.079
 9735SOL    HW130104   2.316   3.726   0.021
 9735SOL    HW230105   2.460   3.798   0.046
 9736SOL     OW30106   3.579   1.147   1.382
 9736SOL    HW130107   3.562   1.217   1.452
 9736SOL    HW230108   3.501   1.084   1.380
 9737SOL     OW30109   4.192   2.164   5.030
 9737SOL    HW130110   4.241   2.213   4.958
 9737SOL    HW230111   4.195   2.217   5.114
 9738SOL     OW30112   1.810   0.591   2.124
 9738SOL    HW130113   1.766   0.681   2.130
 9738SOL    HW230114   1.901   0.595   2.165
 9739SOL     OW30115   5.385   5.021   1.888
 9739SOL    HW130116   5.350   4.928   1.902
 9739SOL    HW230117   5.471   5.017   1.837
 9740SOL     OW30118   6.612   3.569   3.417
 9740SOL    HW130119   6.584   3.524   3.333
 9740SOL    HW230120   6.708   3.546   3.438
 9741SOL     OW30121   3.903   1.823   1.638
 9741SOL    HW130122   3.812   1.862   1.625
 9741SOL    HW230123   3.905   1.773   1.725
 9742SOL     OW30124   4.696   1.564   4.156
 9742SOL    HW130125   4.731   1.605   4.071
 9742SOL    HW230126   4.609   1.520   4.139
 9743SOL     OW30127   1.749   2.177   5.389
 9743SOL    HW130128   1.685   2.101   5.384
 9743SOL    HW230129   1.785   2.185   5.482
 9744SOL     OW30130   2.152   0.602   1.808
 9744SOL    HW130131   2.230   0.581   1.750
 9744SOL    HW230132   2.110   0.688   1.778
 9745SOL     OW30133   6.649   1.946   4.835
 9745SOL    HW130134   6.728   1.885   4.833
 9745SOL    HW230135   6.599   1.938   4.749
 9746SOL     OW30136   6.010   0.944   4.094
 9746SOL    HW130137   6.085   1.007   4.108
 9746SOL    HW230138   6.032   0.881   4.019
 9747SOL     OW30139   0.519   0.059   6.917
 9747SOL    HW130140   0.511   0.063   7.016
 9747SOL    HW230141   0.477   0.140   6.876
 9748SOL     OW30142   0.724   5.113   4.310
 9748SOL    HW130143   0.669   5.078   4.235
 9748SOL    HW230144   0.811   5.148   4.276
 9749SOL     OW30145   0.723   4.205   4.067
 9749SOL    HW130146   0.774   4.254   4.137
 9749SOL    HW230147   0.738   4.107   4.077
 9750SOL     OW30148   3.453   5.199   3.188
 9750SOL    HW130149   3.369   5.222   3.236
 9750SOL    HW230150   3.465   5.260   3.110
 9751SOL     OW30151   1.995   2.534   0.441
 9751SOL    HW130152   1.959   2.625   0.464
 9751SOL    HW230153   2.082   2.545   0.393
 9752SOL     OW30154   3.315   1.753   6.171
 9752SOL    HW130155   3.254   1.831   6.156
 9752SOL    HW230156   3.391   1.758   6.106
 9753SOL     OW30157   6.920   5.975   5.293
 9753SOL    HW130158   6.923   6.001   5.197
 9753SOL    HW230159   7.006   5.930   5.317
 9754SOL     OW30160   6.817   2.240   6.800
 9754SOL    HW130161   6.832   2.190   6.885
 9754SOL    HW230162   6.733   2.208   6.757
 9755SOL     OW30163   4.150   4.824   5.466
 9755SOL    HW130164   4.063   4.871   5.480
 9755SOL    HW230165   4.134   4.736   5.423
 9756SOL     OW30166   5.310   2.189   6.010
 9756SOL    HW130167   5.368   2.172   6.090
 9756SOL    HW230168   5.359   2.247   5.945
 9757SOL     OW30169   6.080   1.918   3.423
 9757SOL    HW130170   6.079   1.938   3.521
 9757SOL    HW230171   6.006   1.969   3.378
 9758SOL     OW30172   2.942   0.774   6.936
 9758SOL    HW130173   2.871   0.835   6.901
 9758SOL    HW230174   2.964   0.706   6.866
 9759SOL     OW30175   3.062   5.961   1.100
 9759SOL    HW130176   3.065   5.965   1.000
 9759SOL    HW230177   3.037   6.051   1.136
 9760SOL     OW30178   5.625   4.799   6.004
 9760SOL    HW130179   5.623   4.705   6.040
 9760SOL    HW230180   5.546   4.849   6.039
 9761SOL     OW30181   5.262   5.975   2.618
 9761SOL    HW130182   5.190   6.000   2.682
 9761SOL    HW230183   5.257   5.877   2.599
 9762SOL     OW30184   2.765   1.350   3.336
 9762SOL    HW130185   2.750   1.435   3.285
 9762SOL    HW230186   2.753   1.272   3.275
 9763SOL     OW30187   1.667   1.573   1.986
 9763SOL    HW130188   1.662   1.519   2.070
 9763SOL    HW230189   1.645   1.668   2.006
 9764SOL     OW30190   1.185   2.684   1.833
 9764SOL    HW130191   1.158   2.655   1.742
 9764SOL    HW230192   1.141   2.626   1.901
 9765SOL     OW30193   7.015   1.427   5.124
 9765SOL    HW130194   0.035   1.506   5.164
 9765SOL    HW230195   0.002   1.347   5.184
 9766SOL     OW30196   2.813   0.043   2.344
 9766SOL    HW130197   2.814   6.994   2.409
 9766SOL    HW230198   2.722   0.049   2.303
 9767SOL     OW30199   5.248   0.565   5.536
 9767SOL    HW130200   5.161   0.517   5.546
 9767SOL    HW230201   5.291   0.541   5.449
 9768SOL     OW30202   5.022   2.305   3.689
 9768SOL    HW130203   5.115   2.342   3.697
 9768SOL    HW230204   4.986   2.285   3.781
 9769SOL     OW30205   0.451   1.504   1.703
 9769SOL    HW130206   0.428   1.420   1.751
 9769SOL    HW230207   0.410   1.502   1.612
 9770SOL     OW30208   6.383   4.376   6.208
 9770SOL    HW130209   6.311   4.358   6.141
 9770SOL    HW230210   6.452   4.303   6.203
 9771SOL     OW30211   3.176   5.141   4.040
 9771SOL    HW130212   3.158   5.155   3.943
 9771SOL    HW230213   3.205   5.047   4.056
 9772SOL     OW30214   6.640   0.353   1.488
 9772SOL    HW130215   6.682   0.393   1.570
 9772SOL    HW230216   6.711   0.331   1.422
 9773SOL     OW30217   5.150   5.264   3.430
 9773SOL    HW130218   5.084   5.237   3.500
 9773SOL    HW230219   5.238   5.221   3.450
 9774SOL     OW30220   0.092   4.698   3.392
 9774SOL    HW130221   0.111   4.689   3.294
 9774SOL    HW230222   0.071   4.794   3.412
 9775SOL     OW30223   2.865   2.222   5.026
 9775SOL    HW130224   2.813   2.284   5.085
 9775SOL    HW230225   2.963   2.232   5.045
 9776SOL     OW30226   0.340   4.562   4.609
 9776SOL    HW130227   0.314   4.596   4.519
 9776SOL    HW230228   0.375   4.638   4.664
 9777SOL     OW30229   5.811   5.187   6.263
 9777SOL    HW130230   5.850   5.208   6.352
 9777SOL    HW230231   5.883   5.160   6.200
 9778SOL     OW30232   3.980   0.564   3.600
 9778SOL    HW130233   3.917   0.515   3.660
 9778SOL    HW230234   3.928   0.608   3.527
 9779SOL     OW30235   2.885   2.013   6.353
 9779SOL    HW130236   2.978   1.992   6.324
 9779SOL    HW230237   2.855   2.097   6.309
 9780SOL     OW30238   3.226   4.158   0.459
 9780SOL    HW130239   3.277   4.194   0.381
 9780SOL    HW230240   3.287   4.151   0.539
 9781SOL     OW30241   1.919   6.462   4.412
 9781SOL    HW130242   1.993   6.476   4.478
 9781SOL    HW230243   1.841   6.420   4.458
 9782SOL     OW30244   6.152   0.608   1.430
 9782SOL    HW130245   6.206   0.685   1.399
 9782SOL    HW230246   6.150   0.537   1.360
 9783SOL     OW30247   5.743   1.335   2.830
 9783SOL    HW130248   5.747   1.235   2.816
 9783SOL    HW230249   5.648   1.365   2.828
 9784SOL     OW30250   5.441   0.742   4.591
 9784SOL    HW130251   5.472   0.673   4.526
 9784SOL    HW230252   5.504   0.820   4.590
 9785SOL     OW30253   0.652   3.114   0.638
 9785SOL    HW130254   0.570   3.162   0.671
 9785SOL    HW230255   0.636   3.016   0.638
 9786SOL     OW30256   2.144   0.269   5.159
 9786SOL    HW130257   2.117   0.288   5.253
 9786SOL    HW230258   2.073   0.214   5.115
 9787SOL     OW30259   5.821   4.396   1.547
 9787SOL    HW130260   5.763   4.410   1.628
 9787SOL    HW230261   5.852   4.301   1.544
 9788SOL     OW30262   0.228   0.958   5.099
 9788SOL    HW130263   0.151   0.971   5.037
 9788SOL    HW230264   0.242   0.860   5.114
 9789SOL     OW30265   1.193   5.780   4.276
 9789SOL    HW130266   1.127   5.853   4.295
 9789SOL    HW230267   1.154   5.715   4.211
 9790SOL     OW30268   6.961   1.424   4.064
 9790SOL    HW130269   0.001   1.482   4.111
 9790SOL    HW230270   6.928   1.353   4.126
 9791SOL     OW30271   1.046   2.616   1.394
 9791SOL    HW130272   1.100   2.558   1.455
 9791SOL    HW230273   0.988   2.558   1.336
 9792SOL     OW30274   4.168   5.804   1.859
 9792SOL    HW130275   4.075   5.838   1.845
 9792SOL    HW230276   4.196   5.822   1.953
 9793SOL     OW30277   5.394   6.450   2.532
 9793SOL    HW130278   5.446   6.389   2.592
 9793SOL    HW230279   5.304   6.410   2.514
 9794SOL     OW30280   2.898   3.514   6.726
 9794SOL    HW130281   2.847   3.431   6.749
 9794SOL    HW230282   2.950   3.544   6.806
 9795SOL     OW30283   2.588   4.551   4.095
 9795SOL    HW130284   2.532   4.479   4.135
 9795SOL    HW230285   2.653   4.584   4.164
 9796SOL     OW30286   3.923   4.671   0.625
 9796SOL    HW130287   3.893   4.739   0.692
 9796SOL    HW230288   3.875   4.687   0.538
 9797SOL     OW30289   4.903   2.733   4.824
 9797SOL    HW130290   4.900   2.787   4.909
 9797SOL    HW230291   4.928   2.639   4.846
 9798SOL     OW30292   2.238   1.820   1.921
 9798SOL    HW130293   2.324   1.769   1.920
 9798SOL    HW230294   2.257   1.918   1.909
 9799SOL     OW30295   2.970   3.557   1.935
 9799SOL    HW130296   2.921   3.595   1.856
 9799SOL    HW230297   3.045   3.617   1.960
 9800SOL     OW30298   3.366   5.166   0.350
 9800SOL    HW130299   3.368   5.235   0.278
 9800SOL    HW230300   3.301   5.094   0.325
 9801SOL     OW30301   4.864   5.391   0.251
 9801SOL    HW130302   4.893   5.312   0.305
 9801SOL    HW230303   4.878   5.373   0.154
 9802SOL     OW30304   1.002   5.107   1.481
 9802SOL    HW130305   1.061   5.051   1.539
 9802SOL    HW230306   0.912   5.115   1.522
 9803SOL     OW30307   5.057   0.447   6.458
 9803SOL    HW130308   5.090   0.386   6.530
 9803SOL    HW230309   5.009   0.525   6.500
 9804SOL     OW30310   5.691   5.241   4.226
 9804SOL    HW130311   5.723   5.187   4.304
 9804SOL    HW230312   5.728   5.334   4.231
 9805SOL     OW30313   3.398   4.499   1.429
 9805SOL    HW130314   3.468   4.489   1.500
 9805SOL    HW230315   3.359   4.591   1.433
 9806SOL     OW30316   6.827   1.981   2.652
 9806SOL    HW130317   6.806   1.931   2.736
 9806SOL    HW230318   6.861   1.918   2.582
 9807SOL     OW30319   3.099   2.770   0.846
 9807SOL    HW130320   3.176   2.733   0.793
 9807SOL    HW230321   3.128   2.853   0.894
 9808SOL     OW30322   2.132   2.223   4.914
 9808SOL    HW130323   2.174   2.240   4.825
 9808SOL    HW230324   2.033   2.220   4.904
 9809SOL     OW30325   0.690   0.459   4.510
 9809SOL    HW130326   0.644   0.373   4.533
 9809SOL    HW230327   0.696   0.516   4.591
 9810SOL     OW30328   4.380   1.520   2.992
 9810SOL    HW130329   4.291   1.481   3.015
 9810SOL    HW230330   4.453   1.462   3.028
 9811SOL     OW30331   0.865   0.232   2.652
 9811SOL    HW130332   0.850   0.283   2.566
 9811SOL    HW230333   0.785   0.242   2.710
 9812SOL     OW30334   5.320   2.844   5.338
 9812SOL    HW130335   5.322   2.747   5.360
 9812SOL    HW230336   5.398   2.889   5.381
 9813SOL     OW30337   6.634   4.410   0.847
 9813SOL    HW130338   6.584   4.382   0.929
 9813SOL    HW230339   6.693   4.335   0.816
 9814SOL     OW30340   6.691   0.914   5.535
 9814SOL    HW130341   6.789   0.930   5.546
 9814SOL    HW230342   6.678   0.829   5.485
 9815SOL     OW30343   0.408   4.009   2.499
 9815SOL    HW130344   0.432   3.970   2.588
 9815SOL    HW230345   0.365   3.939   2.442
 9816SOL     OW30346   6.080   0.834   6.293
 9816SOL    HW130347   6.104   0.838   6.390
 9816SOL    HW230348   6.150   0.882   6.240
 9817SOL     OW30349   2.265   0.878   0.513
 9817SOL    HW130350   2.306   0.948   0.454
 9817SOL    HW230351   2.286   0.898   0.609
 9818SOL     OW30352   0.424   6.924   3.327
 9818SOL    HW130353   0.505   6.933   3.385
 9818SOL    HW230354   0.366   6.851   3.363
 9819SOL     OW30355   0.069   2.270   4.510
 9819SOL    HW130356   7.024   2.320   4.461
 9819SOL    HW230357   0.116   2.331   4.573
 9820SOL     OW30358   3.424   2.200   6.188
 9820SOL    HW130359   3.496   2.130   6.185
 9820SOL    HW230360   3.355   2.173   6.254
 9821SOL     OW30361   3.891   2.761   0.826
 9821SOL    HW130362   3.964   2.755   0.894
 9821SOL    HW230363   3.889   2.853   0.788
 9822SOL     OW30364   3.518   5.621   4.246
 9822SOL    HW130365   3.512   5.631   4.147
 9822SOL    HW230366   3.466   5.694   4.290
 9823SOL     OW30367   3.711   6.390   3.539
 9823SOL    HW130368   3.648   6.313   3.537
 9823SOL    HW230369   3.786   6.373   3.475
 9824SOL     OW30370   0.975   5.838   5.782
 9824SOL    HW130371   0.894   5.891   5.810
 9824SOL    HW230372   1.033   5.821   5.862
 9825SOL     OW30373   0.222   6.167   5.284
 9825SOL    HW130374   0.256   6.142   5.193
 9825SOL    HW230375   0.201   6.084   5.336
 9826SOL     OW30376   1.680   5.738   5.560
 9826SOL    HW130377   1.688   5.699   5.652
 9826SOL    HW230378   1.585   5.763   5.542
 9827SOL     OW30379   2.248   4.524   1.845
 9827SOL    HW130380   2.214   4.455   1.781
 9827SOL    HW230381   2.308   4.480   1.912
 9828SOL     OW30382   4.416   1.873   4.952
 9828SOL    HW130383   4.508   1.847   4.923
 9828SOL    HW230384   4.366   1.792   4.983
 9829SOL     OW30385   5.256   5.053   5.299
 9829SOL    HW130386   5.198   5.089   5.226
 9829SOL    HW230387   5.347   5.094   5.293
 9830SOL     OW30388   5.593   1.811   3.873
 9830SOL    HW130389   5.547   1.829   3.960
 9830SOL    HW230390   5.531   1.834   3.797
 9831SOL     OW30391   0.646   4.507   1.886
 9831SOL    HW130392   0.610   4.435   1.827
 9831SOL    HW230393   0.729   4.545   1.846
 9832SOL     OW30394   4.698   5.549   4.553
 9832SOL    HW130395   4.678   5.452   4.569
 9832SOL    HW230396   4.642   5.582   4.477
 9833SOL     OW30397   3.967   3.329   4.571
 9833SOL    HW130398   3.913   3.413   4.560
 9833SOL    HW230399   4.000   3.299   4.482
 9834SOL     OW30400   3.253   6.035   5.639
 9834SOL    HW130401   3.198   5.956   5.613
 9834SOL    HW230402   3.291   6.021   5.731
 9835SOL     OW30403   3.892   3.970   4.061
 9835SOL    HW130404   3.857   3.881   4.031
 9835SOL    HW230405   3.820   4.038   4.055
 9836SOL     OW30406   6.677   3.463   5.532
 9836SOL    HW130407   6.692   3.373   5.492
 9836SOL    HW230408   6.580   3.472   5.555
 9837SOL     OW30409   5.866   1.707   3.525
 9837SOL    HW130410   5.914   1.740   3.444
 9837SOL    HW230411   5.770   1.732   3.520
 9838SOL     OW30412   0.491   6.187   0.836
 9838SOL    HW130413   0.583   6.173   0.800
 9838SOL    HW230414   0.462   6.281   0.819
 9839SOL     OW30415   4.790   6.507   3.604
 9839SOL    HW130416   4.798   6.417   3.646
 9839SOL    HW230417   4.703   6.549   3.631
 9840SOL     OW30418   6.613   1.526   6.349
 9840SOL    HW130419   6.695   1.516   6.405
 9840SOL    HW230420   6.634   1.500   6.255
 9841SOL     OW30421   7.021   6.031   2.599
 9841SOL    HW130422   6.940   5.992   2.642
 9841SOL    HW230423   7.012   6.025   2.500
 9842SOL     OW30424   3.497   0.130   0.089
 9842SOL    HW130425   3.501   0.163   0.183
 9842SOL    HW230426   3.445   0.045   0.085
 9843SOL     OW30427   0.132   0.667   1.536
 9843SOL    HW130428   0.097   0.749   1.492
 9843SOL    HW230429   0.067   0.592   1.522
 9844SOL     OW30430   4.941   0.579   5.239
 9844SOL    HW130431   4.996   0.496   5.241
 9844SOL    HW230432   4.998   0.655   5.207
 9845SOL     OW30433   0.939   3.929   2.113
 9845SOL    HW130434   0.869   3.965   2.175
 9845SOL    HW230435   1.023   3.911   2.163
 9846SOL     OW30436   6.222   2.109   1.799
 9846SOL    HW130437   6.269   2.050   1.733
 9846SOL    HW230438   6.141   2.061   1.834
 9847SOL     OW30439   3.964   4.373   6.652
 9847SOL    HW130440   3.886   4.403   6.707
 9847SOL    HW230441   3.944   4.283   6.612
 9848SOL     OW30442   3.440   4.091   5.557
 9848SOL    HW130443   3.379   4.012   5.548
 9848SOL    HW230444   3.401   4.155   5.624
 9849SOL     OW30445   1.848   2.096   4.267
 9849SOL    HW130446   1.927   2.157   4.278
 9849SOL    HW230447   1.811   2.073   4.357
 9850SOL     OW30448   1.524   6.873   4.477
 9850SOL    HW130449   1.579   6.935   4.534
 9850SOL    HW230450   1.527   6.781   4.515
 9851SOL     OW30451   3.856   5.763   3.417
 9851SOL    HW130452   3.929   5.806   3.364
 9851SOL    HW230453   3.770   5.770   3.368
 9852SOL     OW30454   2.055   6.490   0.149
 9852SOL    HW130455   2.084   6.579   0.116
 9852SOL    HW230456   2.003   6.443   0.078
 9853SOL     OW30457   0.709   4.547   3.725
 9853SOL    HW130458   0.768   4.593   3.659
 9853SOL    HW230459   0.654   4.615   3.774
 9854SOL     OW30460   6.734   3.552   6.811
 9854SOL    HW130461   6.812   3.606   6.841
 9854SOL    HW230462   6.746   3.526   6.715
 9855SOL     OW30463   0.394   6.213   0.374
 9855SOL    HW130464   0.356   6.205   0.466
 9855SOL    HW230465   0.327   6.256   0.313
 9856SOL     OW30466   5.186   3.393   2.789
 9856SOL    HW130467   5.232   3.374   2.702
 9856SOL    HW230468   5.088   3.375   2.780
 9857SOL     OW30469   4.492   0.105   5.817
 9857SOL    HW130470   4.468   0.155   5.900
 9857SOL    HW230471   4.586   0.071   5.825
 9858SOL     OW30472   6.301   6.409   2.825
 9858SOL    HW130473   6.348   6.423   2.912
 9858SOL    HW230474   6.216   6.461   2.824
 9859SOL     OW30475   0.532   5.468   2.653
 9859SOL    HW130476   0.530   5.561   2.690
 9859SOL    HW230477   0.536   5.473   2.553
 9860SOL     OW30478   1.773   3.117   3.941
 9860SOL    HW130479   1.793   3.059   4.020
 9860SOL    HW230480   1.778   3.213   3.969
 9861SOL     OW30481   3.802   2.138   3.428
 9861SOL    HW130482   3.861   2.162   3.351
 9861SOL    HW230483   3.851   2.153   3.513
 9862SOL     OW30484   1.707   3.575   6.564
 9862SOL    HW130485   1.645   3.528   6.627
 9862SOL    HW230486   1.702   3.532   6.474
 9863SOL     OW30487   4.255   6.933   2.140
 9863SOL    HW130488   4.264   6.921   2.041
 9863SOL    HW230489   4.197   7.012   2.159
 9864SOL     OW30490   2.207   6.229   5.523
 9864SOL    HW130491   2.245   6.207   5.433
 9864SOL    HW230492   2.252   6.173   5.593
 9865SOL     OW30493   2.097   5.895   5.677
 9865SOL    HW130494   2.192   5.920   5.695
 9865SOL    HW230495   2.089   5.858   5.584
 9866SOL     OW30496   6.400   5.270   6.058
 9866SOL    HW130497   6.371   5.174   6.053
 9866SOL    HW230498   6.335   5.327   6.009
 9867SOL     OW30499   4.499   1.581   1.861
 9867SOL    HW130500   4.469   1.563   1.955
 9867SOL    HW230501   4.481   1.677   1.839
 9868SOL     OW30502   2.321   4.633   4.019
 9868SOL    HW130503   2.394   4.595   4.076
 9868SOL    HW230504   2.339   4.730   4.002
 9869SOL     OW30505   0.119   2.154   1.843
 9869SOL    HW130506   0.192   2.091   1.869
 9869SOL    HW230507   0.126   2.175   1.746
 9870SOL     OW30508   2.078   2.502   2.987
 9870SOL    HW130509   2.039   2.516   3.078
 9870SOL    HW230510   2.172   2.535   2.987
 9871SOL     OW30511   5.677   5.790   3.268
 9871SOL    HW130512   5.741   5.852   3.315
 9871SOL    HW230513   5.586   5.799   3.309
 9872SOL     OW30514   0.465   5.247   5.309
 9872SOL    HW130515   0.484   5.337   5.350
 9872SOL    HW230516   0.372   5.219   5.331
 9873SOL     OW30517   1.110   1.397   5.612
 9873SOL    HW130518   1.188   1.450   5.577
 9873SOL    HW230519   1.072   1.341   5.538
 9874SOL     OW30520   0.416   2.197   3.535
 9874SOL    HW130521   0.508   2.159   3.544
 9874SOL    HW230522   0.377   2.212   3.626
 9875SOL     OW30523   6.399   6.055   0.488
 9875SOL    HW130524   6.479   6.030   0.433
 9875SOL    HW230525   6.363   6.142   0.456
 9876SOL     OW30526   6.984   6.804   3.626
 9876SOL    HW130527   6.936   6.870   3.683
 9876SOL    HW230528   7.014   6.727   3.683
 9877SOL     OW30529   0.762   6.361   4.560
 9877SOL    HW130530   0.725   6.450   4.590
 9877SOL    HW230531   0.696   6.316   4.500
 9878SOL     OW30532   3.588   2.856   6.737
 9878SOL    HW130533   3.635   2.930   6.691
 9878SOL    HW230534   3.499   2.840   6.693
 9879SOL     OW30535   6.354   5.748   5.038
 9879SOL    HW130536   6.257   5.771   5.044
 9879SOL    HW230537   6.371   5.664   5.090
 9880SOL     OW30538   3.078   1.279   1.016
 9880SOL    HW130539   3.054   1.352   1.079
 9880SOL    HW230540   3.054   1.306   0.922
 9881SOL     OW30541   5.978   0.703   2.982
 9881SOL    HW130542   5.981   0.627   3.047
 9881SOL    HW230543   5.887   0.709   2.942
 9882SOL     OW30544   3.370   3.198   4.584
 9882SOL    HW130545   3.435   3.135   4.541
 9882SOL    HW230546   3.281   3.153   4.592
 9883SOL     OW30547   1.945   6.367   2.292
 9883SOL    HW130548   1.937   6.436   2.220
 9883SOL    HW230549   1.884   6.290   2.270
 9884SOL     OW30550   3.321   2.665   5.328
 9884SOL    HW130551   3.279   2.578   5.300
 9884SOL    HW230552   3.256   2.739   5.312
 9885SOL     OW30553   4.403   2.360   5.735
 9885SOL    HW130554   4.322   2.324   5.781
 9885SOL    HW230555   4.397   2.344   5.637
 9886SOL     OW30556   3.253   5.682   1.483
 9886SOL    HW130557   3.241   5.728   1.395
 9886SOL    HW230558   3.181   5.711   1.546
 9887SOL     OW30559   3.422   0.926   0.379
 9887SOL    HW130560   3.487   0.899   0.309
 9887SOL    HW230561   3.329   0.917   0.343
 9888SOL     OW30562   6.314   6.677   4.057
 9888SOL    HW130563   6.225   6.701   4.019
 9888SOL    HW230564   6.342   6.747   4.123
 9889SOL     OW30565   6.764   5.124   2.810
 9889SOL    HW130566   6.800   5.189   2.744
 9889SOL    HW230567   6.840   5.087   2.865
 9890SOL     OW30568   1.219   3.286   2.919
 9890SOL    HW130569   1.319   3.280   2.917
 9890SOL    HW230570   1.180   3.221   2.854
 9891SOL     OW30571   4.719   6.599   1.933
 9891SOL    HW130572   4.781   6.673   1.958
 9891SOL    HW230573   4.763   6.541   1.864
 9892SOL     OW30574   1.604   5.963   3.790
 9892SOL    HW130575   1.667   6.036   3.764
 9892SOL    HW230576   1.515   6.002   3.812
 9893SOL     OW30577   5.702   4.568   5.288
 9893SOL    HW130578   5.734   4.527   5.203
 9893SOL    HW230579   5.774   4.627   5.326
 9894SOL     OW30580   4.239   3.980   5.304
 9894SOL    HW130581   4.223   3.882   5.306
 9894SOL    HW230582   4.155   4.028   5.280
 9895SOL     OW30583   5.387   2.161   6.476
 9895SOL    HW130584   5.336   2.075   6.470
 9895SOL    HW230585   5.454   2.165   6.401
 9896SOL     OW30586   3.805   3.770   6.638
 9896SOL    HW130587   3.835   3.766   6.733
 9896SOL    HW230588   3.794   3.866   6.610
 9897SOL     OW30589   0.426   1.236   3.074
 9897SOL    HW130590   0.433   1.324   3.122
 9897SOL    HW230591   0.440   1.162   3.139
 9898SOL     OW30592   1.058   5.203   0.292
 9898SOL    HW130593   1.007   5.289   0.283
 9898SOL    HW230594   1.001   5.135   0.338
 9899SOL     OW30595   4.425   4.963   2.584
 9899SOL    HW130596   4.458   4.963   2.678
 9899SOL    HW230597   4.353   4.895   2.574
 9900SOL     OW30598   1.941   4.474   4.248
 9900SOL    HW130599   1.996   4.487   4.166
 9900SOL    HW230600   2.001   4.452   4.325
 9901SOL     OW30601   2.171   2.114   6.168
 9901SOL    HW130602   2.265   2.141   6.188
 9901SOL    HW230603   2.137   2.055   6.241
 9902SOL     OW30604   4.327   3.996   6.703
 9902SOL    HW130605   4.389   3.919   6.715
 9902SOL    HW230606   4.344   4.040   6.615
 9903SOL     OW30607   3.250   1.795   1.364
 9903SOL    HW130608   3.278   1.828   1.454
 9903SOL    HW230609   3.154   1.818   1.348
 9904SOL     OW30610   0.080   6.755   2.419
 9904SOL    HW130611   0.016   6.795   2.485
 9904SOL    HW230612   0.174   6.772   2.449
 9905SOL     OW30613   1.717   6.552   5.654
 9905SOL    HW130614   1.700   6.466   5.605
 9905SOL    HW230615   1.722   6.627   5.588
 9906SOL     OW30616   3.554   3.710   5.919
 9906SOL    HW130617   3.548   3.769   5.838
 9906SOL    HW230618   3.611   3.630   5.897
 9907SOL     OW30619   1.181   6.765   2.902
 9907SOL    HW130620   1.117   6.734   2.972
 9907SOL    HW230621   1.227   6.686   2.861
 9908SOL     OW30622   6.173   3.236   5.362
 9908SOL    HW130623   6.195   3.331   5.384
 9908SOL    HW230624   6.088   3.209   5.408
 9909SOL     OW30625   3.533   6.495   2.061
 9909SOL    HW130626   3.530   6.556   2.140
 9909SOL    HW230627   3.490   6.540   1.983
 9910SOL     OW30628   1.098   5.027   0.707
 9910SOL    HW130629   1.156   4.948   0.687
 9910SOL    HW230630   1.063   5.019   0.800
 9911SOL     OW30631   3.730   5.132   3.158
 9911SOL    HW130632   3.631   5.135   3.172
 9911SOL    HW230633   3.775   5.107   3.244
 9912SOL     OW30634   4.404   6.961   0.951
 9912SOL    HW130635   4.380   6.965   0.854
 9912SOL    HW230636   4.329   6.918   1.002
 9913SOL     OW30637   4.998   2.306   2.704
 9913SOL    HW130638   4.942   2.272   2.780
 9913SOL    HW230639   5.082   2.348   2.740
 9914SOL     OW30640   1.893   5.087   4.637
 9914SOL    HW130641   1.793   5.091   4.643
 9914SOL    HW230642   1.920   5.012   4.577
 9915SOL     OW30643   6.401   4.016   4.133
 9915SOL    HW130644   6.352   4.045   4.051
 9915SOL    HW230645   6.455   3.934   4.113
 9916SOL     OW30646   2.872   4.069   0.516
 9916SOL    HW130647   2.939   4.071   0.442
 9916SOL    HW230648   2.903   4.007   0.588
 9917SOL     OW30649   2.110   3.044   4.755
 9917SOL    HW130650   2.098   3.040   4.854
 9917SOL    HW230651   2.195   2.997   4.729
 9918SOL     OW30652   2.634   0.827   4.684
 9918SOL    HW130653   2.692   0.909   4.686
 9918SOL    HW230654   2.688   0.749   4.654
 9919SOL     OW30655   0.850   5.206   2.708
 9919SOL    HW130656   0.878   5.230   2.615
 9919SOL    HW230657   0.861   5.285   2.769
 9920SOL     OW30658   4.007   6.849   2.727
 9920SOL    HW130659   3.932   6.914   2.738
 9920SOL    HW230660   4.090   6.897   2.699
 9921SOL     OW30661   5.104   0.610   2.562
 9921SOL    HW130662   5.128   0.521   2.524
 9921SOL    HW230663   5.092   0.602   2.661
 9922SOL     OW30664   5.320   2.886   1.810
 9922SOL    HW130665   5.235   2.834   1.817
 9922SOL    HW230666   5.299   2.982   1.792
 9923SOL     OW30667   5.968   0.778   6.569
 9923SOL    HW130668   5.951   0.819   6.479
 9923SOL    HW230669   5.936   0.684   6.570
 9924SOL     OW30670   5.389   0.850   3.913
 9924SOL    HW130671   5.302   0.839   3.865
 9924SOL    HW230672   5.457   0.887   3.849
 9925SOL     OW30673   3.853   2.149   4.830
 9925SOL    HW130674   3.863   2.162   4.929
 9925SOL    HW230675   3.762   2.176   4.802
 9926SOL     OW30676   1.765   1.028   5.609
 9926SOL    HW130677   1.785   0.998   5.515
 9926SOL    HW230678   1.774   0.950   5.671
 9927SOL     OW30679   0.986   2.930   3.023
 9927SOL    HW130680   0.902   2.967   2.983
 9927SOL    HW230681   1.007   2.842   2.980
 9928SOL     OW30682   0.262   3.225   2.381
 9928SOL    HW130683   0.186   3.217   2.446
 9928SOL    HW230684   0.242   3.298   2.316
 9929SOL     OW30685   0.394   4.690   5.362
 9929SOL    HW130686   0.436   4.653   5.279
 9929SOL    HW230687   0.297   4.709   5.345
 9930SOL     OW30688   6.777   5.548   6.213
 9930SOL    HW130689   6.797   5.555   6.115
 9930SOL    HW230690   6.861   5.565   6.266
 9931SOL     OW30691   2.624   4.970   6.529
 9931SOL    HW130692   2.649   5.060   6.493
 9931SOL    HW230693   2.562   4.925   6.464
 9932SOL     OW30694   2.500   2.920   0.866
 9932SOL    HW130695   2.473   2.855   0.795
 9932SOL    HW230696   2.598   2.915   0.881
 9933SOL     OW30697   1.027   1.413   2.431
 9933SOL    HW130698   1.027   1.473   2.351
 9933SOL    HW230699   0.934   1.406   2.468
 9934SOL     OW30700   5.303   0.494   6.005
 9934SOL    HW130701   5.353   0.523   5.923
 9934SOL    HW230702   5.247   0.570   6.038
 9935SOL     OW30703   2.445   3.240   0.505
 9935SOL    HW130704   2.393   3.229   0.590
 9935SOL    HW230705   2.529   3.187   0.511
 9936SOL     OW30706   5.059   6.664   6.636
 9936SOL    HW130707   5.073   6.730   6.562
 9936SOL    HW230708   5.053   6.713   6.723
 9937SOL     OW30709   1.547   6.795   3.713
 9937SOL    HW130710   1.498   6.856   3.651
 9937SOL    HW230711   1.618   6.746   3.663
 9938SOL     OW30712   0.147   1.231   3.285
 9938SOL    HW130713   0.085   1.284   3.343
 9938SOL    HW230714   0.229   1.286   3.267
 9939SOL     OW30715   2.569   4.166   1.758
 9939SOL    HW130716   2.546   4.124   1.846
 9939SOL    HW230717   2.594   4.094   1.693
 9940SOL     OW30718   6.848   0.682   3.123
 9940SOL    HW130719   6.860   0.776   3.153
 9940SOL    HW230720   6.768   0.642   3.168
 9941SOL     OW30721   5.641   3.445   1.182
 9941SOL    HW130722   5.615   3.540   1.164
 9941SOL    HW230723   5.564   3.398   1.225
 9942SOL     OW30724   6.432   5.992   2.786
 9942SOL    HW130725   6.514   6.034   2.823
 9942SOL    HW230726   6.352   6.020   2.840
 9943SOL     OW30727   1.861   4.143   5.531
 9943SOL    HW130728   1.783   4.202   5.552
 9943SOL    HW230729   1.829   4.051   5.510
 9944SOL     OW30730   2.049   5.275   6.433
 9944SOL    HW130731   2.015   5.286   6.526
 9944SOL    HW230732   2.036   5.360   6.382
 9945SOL     OW30733   6.457   3.546   6.900
 9945SOL    HW130734   6.436   3.451   6.922
 9945SOL    HW230735   6.554   3.556   6.879
 9946SOL     OW30736   5.138   2.364   1.649
 9946SOL    HW130737   5.232   2.396   1.655
 9946SOL    HW230738   5.134   2.266   1.672
 9947SOL     OW30739   1.427   1.614   2.774
 9947SOL    HW130740   1.418   1.583   2.869
 9947SOL    HW230741   1.336   1.621   2.733
 9948SOL     OW30742   5.888   0.628   5.858
 9948SOL    HW130743   5.792   0.627   5.829
 9948SOL    HW230744   5.947   0.642   5.778
 9949SOL     OW30745   6.943   3.435   3.249
 9949SOL    HW130746   6.926   3.337   3.262
 9949SOL    HW230747   6.920   3.484   3.333
 9950SOL     OW30748   4.721   4.804   5.714
 9950SOL    HW130749   4.744   4.766   5.625
 9950SOL    HW230750   4.707   4.903   5.706
 9951SOL     OW30751   0.126   2.286   2.844
 9951SOL    HW130752   0.071   2.263   2.764
 9951SOL    HW230753   0.198   2.349   2.818
 9952SOL     OW30754   1.969   4.479   1.531
 9952SOL    HW130755   1.882   4.470   1.484
 9952SOL    HW230756   1.987   4.575   1.551
 9953SOL     OW30757   6.586   4.453   4.007
 9953SOL    HW130758   6.645   4.480   4.083
 9953SOL    HW230759   6.640   4.454   3.922
 9954SOL     OW30760   3.945   1.465   1.195
 9954SOL    HW130761   3.940   1.561   1.224
 9954SOL    HW230762   3.865   1.416   1.230
 9955SOL     OW30763   5.960   5.347   1.342
 9955SOL    HW130764   6.035   5.285   1.321
 9955SOL    HW230765   5.983   5.401   1.423
 9956SOL     OW30766   1.493   3.206   3.130
 9956SOL    HW130767   1.547   3.281   3.169
 9956SOL    HW230768   1.421   3.181   3.194
 9957SOL     OW30769   5.219   6.939   0.696
 9957SOL    HW130770   5.300   6.912   0.747
 9957SOL    HW230771   5.209   0.012   0.700
 9958SOL     OW30772   5.948   6.128   6.121
 9958SOL    HW130773   6.024   6.193   6.127
 9958SOL    HW230774   5.886   6.155   6.048
 9959SOL     OW30775   5.762   4.457   6.997
 9959SOL    HW130776   5.855   4.494   7.007
 9959SOL    HW230777   5.745   4.392   0.045
 9960SOL     OW30778   6.441   0.215   7.011
 9960SOL    HW130779   6.373   0.255   0.046
 9960SOL    HW230780   6.397   0.147   6.952
 9961SOL     OW30781   2.978   6.078   0.838
 9961SOL    HW130782   2.885   6.111   0.822
 9961SOL    HW230783   3.039   6.156   0.847
 9962SOL     OW30784   3.313   0.722   1.648
 9962SOL    HW130785   3.390   0.730   1.585
 9962SOL    HW230786   3.281   0.627   1.649
 9963SOL     OW30787   1.008   0.169   6.327
 9963SOL    HW130788   1.046   0.228   6.398
 9963SOL    HW230789   1.064   0.087   6.317
 9964SOL     OW30790   4.447   5.180   4.942
 9964SOL    HW130791   4.539   5.200   4.908
 9964SOL    HW230792   4.402   5.117   4.879
 9965SOL     OW30793   2.924   4.835   4.233
 9965SOL    HW130794   2.934   4.933   4.253
 9965SOL    HW230795   2.868   4.793   4.304
 9966SOL     OW30796   3.549   5.874   2.607
 9966SOL    HW130797   3.595   5.954   2.569
 9966SOL    HW230798   3.452   5.878   2.583
 9967SOL     OW30799   0.189   0.720   3.251
 9967SOL    HW130800   0.273   0.696   3.300
 9967SOL    HW230801   0.124   0.644   3.257
 9968SOL     OW30802   4.357   6.625   6.968
 9968SOL    HW130803   4.353   6.622   0.042
 9968SOL    HW230804   4.325   6.538   6.931
 9969SOL     OW30805   6.984   5.635   3.338
 9969SOL    HW130806   6.895   5.669   3.369
 9969SOL    HW230807   0.013   5.712   3.306
 9970SOL     OW30808   6.580   3.316   2.094
 9970SOL    HW130809   6.600   3.369   2.013
 9970SOL    HW230810   6.622   3.359   2.174
 9971SOL     OW30811   0.399   5.090   4.628
 9971SOL    HW130812   0.381   5.028   4.552
 9971SOL    HW230813   0.364   5.181   4.606
 9972SOL     OW30814   2.820   4.618   5.999
 9972SOL    HW130815   2.743   4.655   5.946
 9972SOL    HW230816   2.812   4.647   6.094
 9973SOL     OW30817   3.092   1.824   2.698
 9973SOL    HW130818   3.082   1.825   2.798
 9973SOL    HW230819   3.188   1.820   2.674
 9974SOL     OW30820   1.398   2.209   3.415
 9974SOL    HW130821   1.475   2.259   3.454
 9974SOL    HW230822   1.430   2.150   3.341
 9975SOL     OW30823   2.538   4.529   6.153
 9975SOL    HW130824   2.627   4.489   6.173
 9975SOL    HW230825   2.528   4.541   6.054
 9976SOL     OW30826   3.933   6.129   5.207
 9976SOL    HW130827   3.979   6.150   5.121
 9976SOL    HW230828   3.964   6.192   5.278
 9977SOL     OW30829   4.176   0.399   5.347
 9977SOL    HW130830   4.187   0.391   5.248
 9977SOL    HW230831   4.259   0.365   5.392
 9978SOL     OW30832   0.506   2.513   0.361
 9978SOL    HW130833   0.557   2.579   0.305
 9978SOL    HW230834   0.434   2.561   0.411
 9979SOL     OW30835   3.588   3.780   4.896
 9979SOL    HW130836   3.659   3.801   4.829
 9979SOL    HW230837   3.606   3.831   4.980
 9980SOL     OW30838   0.821   0.900   0.305
 9980SOL    HW130839   0.746   0.836   0.318
 9980SOL    HW230840   0.885   0.864   0.238
 9981SOL     OW30841   5.610   0.752   0.431
 9981SOL    HW130842   5.563   0.718   0.350
 9981SOL    HW230843   5.684   0.688   0.456
 9982SOL     OW30844   2.542   2.478   4.552
 9982SOL    HW130845   2.556   2.395   4.497
 9982SOL    HW230846   2.622   2.538   4.542
 9983SOL     OW30847   0.805   3.669   2.045
 9983SOL    HW130848   0.853   3.754   2.066
 9983SOL    HW230849   0.866   3.591   2.059
 9984SOL     OW30850   0.655   4.758   1.285
 9984SOL    HW130851   0.593   4.834   1.303
 9984SOL    HW230852   0.626   4.678   1.336
 9985SOL     OW30853   5.087   4.422   6.960
 9985SOL    HW130854   5.131   4.351   6.905
 9985SOL    HW230855   5.058   4.383   0.021
 9986SOL     OW30856   5.556   4.922   0.403
 9986SOL    HW130857   5.545   4.884   0.494
 9986SOL    HW230858   5.482   4.890   0.344
 9987SOL     OW30859   5.095   1.944   1.188
 9987SOL    HW130860   5.019   1.955   1.124
 9987SOL    HW230861   5.132   1.851   1.179
 9988SOL     OW30862   6.236   6.764   3.722
 9988SOL    HW130863   6.201   6.767   3.816
 9988SOL    HW230864   6.323   6.716   3.720
 9989SOL     OW30865   6.753   5.664   2.113
 9989SOL    HW130866   6.756   5.579   2.060
 9989SOL    HW230867   6.689   5.653   2.189
 9990SOL     OW30868   0.002   6.959   2.887
 9990SOL    HW130869   0.016   6.992   2.794
 9990SOL    HW230870   0.080   6.903   2.915
 9991SOL     OW30871   2.264   4.371   2.389
 9991SOL    HW130872   2.201   4.439   2.426
 9991SOL    HW230873   2.217   4.315   2.322
 9992SOL     OW30874   2.748   5.150   0.384
 9992SOL    HW130875   2.657   5.187   0.364
 9992SOL    HW230876   2.755   5.131   0.482
 9993SOL     OW30877   4.152   0.226   4.772
 9993SOL    HW130878   4.062   0.194   4.741
 9993SOL    HW230879   4.193   0.283   4.702
 9994SOL     OW30880   6.100   4.989   5.007
 9994SOL    HW130881   6.175   5.023   4.950
 9994SOL    HW230882   6.052   4.916   4.959
 9995SOL     OW30883   3.905   1.898   6.237
 9995SOL    HW130884   3.970   1.859   6.172
 9995SOL    HW230885   3.880   1.828   6.305
 9996SOL     OW30886   3.161   4.470   1.133
 9996SOL    HW130887   3.142   4.560   1.172
 9996SOL    HW230888   3.174   4.404   1.208
 9997SOL     OW30889   6.845   1.498   2.657
 9997SOL    HW130890   6.938   1.478   2.628
 9997SOL    HW230891   6.819   1.437   2.732
 9998SOL     OW30892   5.421   3.813   2.476
 9998SOL    HW130893   5.397   3.797   2.381
 9998SOL    HW230894   5.338   3.829   2.529
 9999SOL     OW30895   0.729   7.006   4.528
 9999SOL    HW130896   0.770   0.064   4.493
 9999SOL    HW230897   0.767   6.987   4.619
10000SOL     OW30898   4.440   2.277   1.156
10000SOL    HW130899   4.527   2.258   1.200
10000SOL    HW230900   4.438   2.235   1.065
10001SOL     OW30901   3.804   6.208   1.376
10001SOL    HW130902   3.852   6.282   1.422
10001SOL    HW230903   3.743   6.161   1.441
10002SOL     OW30904   2.226   6.618   2.337
10002SOL    HW130905   2.223   6.519   2.351
10002SOL    HW230906   2.224   6.665   2.425
10003SOL     OW30907   1.647   1.028   2.544
10003SOL    HW130908   1.635   0.947   2.601
10003SOL    HW230909   1.579   1.028   2.470
10004SOL     OW30910   0.637   4.305   3.843
10004SOL    HW130911   0.695   4.383   3.819
10004SOL    HW230912   0.665   4.269   3.932
10005SOL     OW30913   2.596   5.931   3.488
10005SOL    HW130914   2.577   5.852   3.429
10005SOL    HW230915   2.693   5.930   3.514
10006SOL     OW30916   5.235   1.287   5.411
10006SOL    HW130917   5.140   1.286   5.444
10006SOL    HW230918   5.271   1.380   5.419
10007SOL     OW30919   1.267   5.141   4.048
10007SOL    HW130920   1.190   5.083   4.075
10007SOL    HW230921   1.353   5.100   4.079
10008SOL     OW30922   4.164   1.153   6.327
10008SOL    HW130923   4.094   1.107   6.381
10008SOL    HW230924   4.136   1.156   6.231
10009SOL     OW30925   0.948   4.900   2.609
10009SOL    HW130926   0.888   4.972   2.642
10009SOL    HW230927   1.040   4.915   2.645
10010SOL     OW30928   2.029   4.221   1.495
10010SOL    HW130929   1.991   4.312   1.511
10010SOL    HW230930   2.090   4.196   1.570
10011SOL     OW30931   2.874   3.271   0.149
10011SOL    HW130932   2.781   3.274   0.186
10011SOL    HW230933   2.926   3.350   0.182
10012SOL     OW30934   5.474   1.753   3.017
10012SOL    HW130935   5.536   1.808   2.961
10012SOL    HW230936   5.379   1.771   2.990
10013SOL     OW30937   0.630   6.600   4.455
10013SOL    HW130938   0.611   6.550   4.370
10013SOL    HW230939   0.622   6.698   4.438
10014SOL     OW30940   1.626   0.950   3.273
10014SOL    HW130941   1.548   0.944   3.211
10014SOL    HW230942   1.710   0.932   3.223
10015SOL     OW30943   3.808   6.742   6.315
10015SOL    HW130944   3.810   6.761   6.413
10015SOL    HW230945   3.872   6.804   6.268
10016SOL     OW30946   1.993   0.629   4.679
10016SOL    HW130947   2.034   0.682   4.753
10016SOL    HW230948   2.046   0.643   4.595
10017SOL     OW30949   3.505   1.693   2.275
10017SOL    HW130950   3.411   1.668   2.251
10017SOL    HW230951   3.509   1.790   2.297
10018SOL     OW30952   7.022   3.860   5.054
10018SOL    HW130953   7.019   3.898   4.962
10018SOL    HW230954   7.017   3.934   5.121
10019SOL     OW30955   0.317   1.986   1.972
10019SOL    HW130956   0.313   2.031   2.061
10019SOL    HW230957   0.385   1.912   1.974
10020SOL     OW30958   6.655   1.224   2.276
10020SOL    HW130959   6.683   1.303   2.331
10020SOL    HW230960   6.686   1.140   2.321
10021SOL     OW30961   0.919   3.334   2.247
10021SOL    HW130962   0.827   3.373   2.242
10021SOL    HW230963   0.984   3.397   2.205
10022SOL     OW30964   1.313   6.203   6.158
10022SOL    HW130965   1.323   6.300   6.140
10022SOL    HW230966   1.355   6.150   6.085
10023SOL     OW30967   0.140   1.809   5.996
10023SOL    HW130968   0.216   1.745   6.003
10023SOL    HW230969   0.067   1.768   5.940
10024SOL     OW30970   2.127   4.449   2.905
10024SOL    HW130971   2.144   4.547   2.890
10024SOL    HW230972   2.209   4.397   2.882
10025SOL     OW30973   1.166   3.869   1.070
10025SOL    HW130974   1.092   3.807   1.043
10025SOL    HW230975   1.251   3.841   1.026
10026SOL     OW30976   6.098   0.920   5.400
10026SOL    HW130977   6.192   0.885   5.404
10026SOL    HW230978   6.051   0.881   5.321
10027SOL     OW30979   3.459   1.412   5.213
10027SOL    HW130980   3.379   1.353   5.197
10027SOL    HW230981   3.428   1.506   5.229
10028SOL     OW30982   4.552   0.030   1.746
10028SOL    HW130983   4.570   0.109   1.687
10028SOL    HW230984   4.515   6.981   1.691
10029SOL     OW30985   0.388   4.009   4.482
10029SOL    HW130986   0.445   3.941   4.436
10029SOL    HW230987   0.390   4.094   4.430
10030SOL     OW30988   2.913   0.146   4.502
10030SOL    HW130989   2.992   0.172   4.447
10030SOL    HW230990   2.921   0.189   4.592
10031SOL     OW30991   2.084   6.067   2.967
10031SOL    HW130992   2.063   6.164   2.953
10031SOL    HW230993   2.131   6.055   3.054
10032SOL     OW30994   3.029   6.087   4.764
10032SOL    HW130995   3.107   6.048   4.812
10032SOL    HW230996   2.950   6.092   4.826
10033SOL     OW30997   3.574   1.202   4.897
10033SOL    HW130998   3.608   1.258   4.820
10033SOL    HW230999   3.617   1.233   4.981
10034SOL     OW31000   2.758   1.054   2.899
10034SOL    HW131001   2.819   1.060   2.819
10034SOL    HW231002   2.719   1.143   2.918
10035SOL     OW31003   6.457   2.887   2.412
10035SOL    HW131004   6.481   2.982   2.427
10035SOL    HW231005   6.433   2.844   2.499
10036SOL     OW31006   1.012   1.433   6.905
10036SOL    HW131007   1.077   1.362   6.933
10036SOL    HW231008   1.010   1.505   6.974
10037SOL     OW31009   5.897   6.627   6.496
10037SOL    HW131010   5.914   6.536   6.459
10037SOL    HW231011   5.867   6.689   6.423
10038SOL     OW31012   4.394   6.340   6.396
10038SOL    HW131013   4.455   6.408   6.356
10038SOL    HW231014   4.322   6.318   6.330
10039SOL     OW31015   0.421   5.866   2.507
10039SOL    HW131016   0.389   5.778   2.474
10039SOL    HW231017   0.502   5.894   2.455
10040SOL     OW31018   2.797   0.501   0.714
10040SOL    HW131019   2.701   0.471   0.711
10040SOL    HW231020   2.806   0.588   0.665
10041SOL     OW31021   5.864   5.794   4.890
10041SOL    HW131022   5.804   5.717   4.908
10041SOL    HW231023   5.809   5.878   4.882
10042SOL     OW31024   6.798   0.426   5.247
10042SOL    HW131025   6.860   0.502   5.228
10042SOL    HW231026   6.850   0.351   5.290
10043SOL     OW31027   0.651   0.626   3.548
10043SOL    HW131028   0.623   0.585   3.635
10043SOL    HW231029   0.741   0.592   3.522
10044SOL     OW31030   3.115   1.606   0.231
10044SOL    HW131031   3.177   1.528   0.218
10044SOL    HW231032   3.050   1.610   0.155
10045SOL     OW31033   4.261   6.874   4.422
10045SOL    HW131034   4.239   6.911   4.513
10045SOL    HW231035   4.359   6.851   4.419
10046SOL     OW31036   6.554   2.719   1.138
10046SOL    HW131037   6.578   2.643   1.078
10046SOL    HW231038   6.526   2.798   1.083
10047SOL     OW31039   0.520   1.706   3.231
10047SOL    HW131040   0.517   1.724   3.329
10047SOL    HW231041   0.477   1.782   3.182
10048SOL     OW31042   3.726   2.668   1.730
10048SOL    HW131043   3.664   2.597   1.697
10048SOL    HW231044   3.818   2.651   1.696
10049SOL     OW31045   1.778   6.693   4.303
10049SOL    HW131046   1.684   6.666   4.281
10049SOL    HW231047   1.824   6.618   4.349
10050SOL     OW31048   5.577   1.386   4.362
10050SOL    HW131049   5.653   1.377   4.426
10050SOL    HW231050   5.605   1.356   4.271
10051SOL     OW31051   6.268   2.073   6.746
10051SOL    HW131052   6.303   2.116   6.830
10051SOL    HW231053   6.270   2.140   6.671
10052SOL     OW31054   1.309   4.220   2.175
10052SOL    HW131055   1.396   4.228   2.223
10052SOL    HW231056   1.324   4.182   2.084
10053SOL     OW31057   2.686   6.727   3.290
10053SOL    HW131058   2.758   6.796   3.293
10053SOL    HW231059   2.703   6.658   3.360
10054SOL     OW31060   4.270   5.844   4.067
10054SOL    HW131061   4.196   5.897   4.108
10054SOL    HW231062   4.350   5.903   4.054
10055SOL     OW31063   6.664   3.183   6.659
10055SOL    HW131064   6.688   3.204   6.754
10055SOL    HW231065   6.609   3.099   6.657
10056SOL     OW31066   6.594   4.912   1.898
10056SOL    HW131067   6.659   4.840   1.923
10056SOL    HW231068   6.556   4.953   1.981
10057SOL     OW31069   2.804   2.372   3.567
10057SOL    HW131070   2.821   2.401   3.662
10057SOL    HW231071   2.712   2.332   3.561
10058SOL     OW31072   0.960   4.401   3.904
10058SOL    HW131073   1.056   4.428   3.899
10058SOL    HW231074   0.909   4.469   3.955
10059SOL     OW31075   5.450   7.000   1.233
10059SOL    HW131076   5.386   0.004   1.304
10059SOL    HW231077   5.483   6.908   1.255
10060SOL     OW31078   2.218   2.846   2.029
10060SOL    HW131079   2.294   2.783   2.012
10060SOL    HW231080   2.136   2.812   1.982
10061SOL     OW31081   6.157   2.186   4.801
10061SOL    HW131082   6.084   2.202   4.735
10061SOL    HW231083   6.246   2.196   4.756
10062SOL     OW31084   6.126   5.367   3.316
10062SOL    HW131085   6.198   5.391   3.251
10062SOL    HW231086   6.064   5.444   3.328
10063SOL     OW31087   0.899   2.600   2.648
10063SOL    HW131088   0.800   2.593   2.636
10063SOL    HW231089   0.920   2.639   2.738
10064SOL     OW31090   5.574   5.884   4.259
10064SOL    HW131091   5.478   5.906   4.240
10064SOL    HW231092   5.629   5.967   4.256
10065SOL     OW31093   0.982   6.724   3.485
10065SOL    HW131094   0.905   6.681   3.437
10065SOL    HW231095   0.983   6.822   3.466
10066SOL     OW31096   0.498   0.486   3.971
10066SOL    HW131097   0.436   0.544   4.025
10066SOL    HW231098   0.592   0.499   4.002
10067SOL     OW31099   4.400   6.273   3.311
10067SOL    HW131100   4.405   6.350   3.247
10067SOL    HW231101   4.477   6.278   3.375
10068SOL     OW31102   5.253   3.988   5.542
10068SOL    HW131103   5.238   3.896   5.578
10068SOL    HW231104   5.206   3.998   5.454
10069SOL     OW31105   4.070   1.101   3.635
10069SOL    HW131106   4.012   1.171   3.677
10069SOL    HW231107   4.125   1.143   3.563
10070SOL     OW31108   0.895   6.707   4.496
10070SOL    HW131109   0.902   6.785   4.559
10070SOL    HW231110   0.865   6.740   4.406
10071SOL     OW31111   5.255   5.297   4.877
10071SOL    HW131112   5.204   5.381   4.898
10071SOL    HW231113   5.192   5.220   4.872
10072SOL     OW31114   1.014   6.809   3.876
10072SOL    HW131115   1.070   6.811   3.959
10072SOL    HW231116   1.072   6.821   3.796
10073SOL     OW31117   0.698   5.306   6.659
10073SOL    HW131118   0.635   5.349   6.723
10073SOL    HW231119   0.746   5.231   6.704
10074SOL     OW31120   2.154   6.573   5.666
10074SOL    HW131121   2.139   6.492   5.723
10074SOL    HW231122   2.117   6.654   5.712
10075SOL     OW31123   2.079   2.135   3.701
10075SOL    HW131124   2.052   2.220   3.746
10075SOL    HW231125   2.104   2.155   3.606
10076SOL     OW31126   5.705   0.366   4.753
10076SOL    HW131127   5.716   0.285   4.810
10076SOL    HW231128   5.663   0.340   4.666
10077SOL     OW31129   3.535   1.162   6.726
10077SOL    HW131130   3.633   1.145   6.715
10077SOL    HW231131   3.521   1.243   6.782
10078SOL     OW31132   5.830   6.231   5.719
10078SOL    HW131133   5.738   6.249   5.753
10078SOL    HW231134   5.859   6.139   5.745
10079SOL     OW31135   6.820   3.975   6.404
10079SOL    HW131136   6.806   3.890   6.455
10079SOL    HW231137   6.803   3.958   6.307
10080SOL     OW31138   1.827   3.226   6.305
10080SOL    HW131139   1.816   3.191   6.212
10080SOL    HW231140   1.909   3.283   6.311
10081SOL     OW31141   0.257   0.946   6.637
10081SOL    HW131142   0.313   0.874   6.678
10081SOL    HW231143   0.313   1.029   6.626
10082SOL     OW31144   6.574   0.867   0.794
10082SOL    HW131145   6.628   0.910   0.866
10082SOL    HW231146   6.627   0.795   0.750
10083SOL     OW31147   5.150   1.100   4.369
10083SOL    HW131148   5.088   1.025   4.349
10083SOL    HW231149   5.240   1.080   4.332
10084SOL     OW31150   2.524   0.982   6.030
10084SOL    HW131151   2.483   1.063   5.988
10084SOL    HW231152   2.610   1.008   6.075
10085SOL     OW31153   0.623   5.668   3.095
10085SOL    HW131154   0.619   5.754   3.045
10085SOL    HW231155   0.706   5.618   3.068
10086SOL     OW31156   6.333   3.693   2.586
10086SOL    HW131157   6.376   3.624   2.645
10086SOL    HW231158   6.272   3.751   2.641
10087SOL     OW31159   1.090   0.487   3.897
10087SOL    HW131160   1.104   0.576   3.940
10087SOL    HW231161   1.127   0.488   3.804
10088SOL     OW31162   0.009   0.561   4.523
10088SOL    HW131163   0.011   0.467   4.489
10088SOL    HW231164   6.974   0.568   4.601
10089SOL     OW31165   1.200   3.238   2.527
10089SOL    HW131166   1.180   3.168   2.458
10089SOL    HW231167   1.150   3.216   2.611
10090SOL     OW31168   0.934   4.709   1.268
10090SOL    HW131169   0.838   4.736   1.275
10090SOL    HW231170   0.951   4.667   1.179
10091SOL     OW31171   0.506   2.303   3.955
10091SOL    HW131172   0.583   2.289   3.894
10091SOL    HW231173   0.538   2.342   4.041
10092SOL     OW31174   1.937   3.690   4.640
10092SOL    HW131175   1.855   3.722   4.688
10092SOL    HW231176   2.008   3.760   4.644
10093SOL     OW31177   6.685   5.044   6.180
10093SOL    HW131178   6.608   5.034   6.243
10093SOL    HW231179   6.690   5.139   6.148
10094SOL     OW31180   1.592   1.254   1.641
10094SOL    HW131181   1.548   1.291   1.723
10094SOL    HW231182   1.536   1.180   1.604
10095SOL     OW31183   0.484   0.991   5.754
10095SOL    HW131184   0.477   1.086   5.783
10095SOL    HW231185   0.547   0.943   5.816
10096SOL     OW31186   0.622   4.930   2.258
10096SOL    HW131187   0.602   4.850   2.201
10096SOL    HW231188   0.715   4.923   2.293
10097SOL     OW31189   1.272   2.226   6.781
10097SOL    HW131190   1.238   2.175   6.860
10097SOL    HW231191   1.213   2.209   6.702
10098SOL     OW31192   3.534   4.895   6.158
10098SOL    HW131193   3.534   4.804   6.116
10098SOL    HW231194   3.628   4.921   6.179
10099SOL     OW31195   6.497   4.783   4.610
10099SOL    HW131196   6.502   4.686   4.586
10099SOL    HW231197   6.521   4.838   4.530
10100SOL     OW31198   5.856   1.242   5.921
10100SOL    HW131199   5.818   1.294   5.998
10100SOL    HW231200   5.935   1.189   5.951
10101SOL     OW31201   0.284   4.466   2.004
10101SOL    HW131202   0.347   4.389   2.003
10101SOL    HW231203   0.326   4.544   1.957
10102SOL     OW31204   3.770   1.056   3.024
10102SOL    HW131205   3.773   0.990   2.949
10102SOL    HW231206   3.737   1.144   2.990
10103SOL     OW31207   2.892   1.617   0.076
10103SOL    HW131208   2.828   1.618   0.153
10103SOL    HW231209   2.905   1.710   0.042
10104SOL     OW31210   1.501   5.719   5.217
10104SOL    HW131211   1.597   5.743   5.208
10104SOL    HW231212   1.449   5.799   5.246
10105SOL     OW31213   2.567   0.444   6.326
10105SOL    HW131214   2.609   0.534   6.339
10105SOL    HW231215   2.502   0.448   6.250
10106SOL     OW31216   5.667   5.300   0.285
10106SOL    HW131217   5.676   5.216   0.338
10106SOL    HW231218   5.755   5.325   0.245
10107SOL     OW31219   5.686   1.422   6.126
10107SOL    HW131220   5.749   1.413   6.204
10107SOL    HW231221   5.604   1.368   6.144
10108SOL     OW31222   6.003   6.689   0.109
10108SOL    HW131223   5.912   6.653   0.126
10108SOL    HW231224   5.997   6.773   0.055
10109SOL     OW31225   4.720   5.137   3.273
10109SOL    HW131226   4.681   5.103   3.358
10109SOL    HW231227   4.792   5.075   3.242
10110SOL     OW31228   3.262   1.362   5.511
10110SOL    HW131229   3.257   1.263   5.505
10110SOL    HW231230   3.267   1.401   5.418
10111SOL     OW31231   0.477   2.425   2.605
10111SOL    HW131232   0.484   2.524   2.618
10111SOL    HW231233   0.568   2.385   2.604
10112SOL     OW31234   4.050   4.274   5.901
10112SOL    HW131235   4.056   4.234   5.810
10112SOL    HW231236   4.019   4.369   5.894
10113SOL     OW31237   3.679   6.359   6.417
10113SOL    HW131238   3.681   6.454   6.449
10113SOL    HW231239   3.603   6.347   6.354
10114SOL     OW31240   4.125   1.290   1.305
10114SOL    HW131241   4.198   1.327   1.363
10114SOL    HW231242   4.068   1.365   1.272
10115SOL     OW31243   1.379   2.143   3.680
10115SOL    HW131244   1.338   2.181   3.762
10115SOL    HW231245   1.366   2.205   3.603
10116SOL     OW31246   1.162   0.905   1.140
10116SOL    HW131247   1.108   0.941   1.064
10116SOL    HW231248   1.186   0.809   1.122
10117SOL     OW31249   5.198   0.812   5.851
10117SOL    HW131250   5.126   0.846   5.790
10117SOL    HW231251   5.286   0.849   5.822
10118SOL     OW31252   6.285   5.101   2.506
10118SOL    HW131253   6.287   5.146   2.596
10118SOL    HW231254   6.237   5.014   2.513
10119SOL     OW31255   2.689   0.018   5.860
10119SOL    HW131256   2.656   6.969   5.916
10119SOL    HW231257   2.729   0.088   5.919
10120SOL     OW31258   6.322   2.635   3.054
10120SOL    HW131259   6.236   2.662   3.097
10120SOL    HW231260   6.393   2.626   3.123
10121SOL     OW31261   6.743   4.913   4.333
10121SOL    HW131262   6.805   4.934   4.408
10121SOL    HW231263   6.784   4.941   4.246
10122SOL     OW31264   5.392   3.282   0.409
10122SOL    HW131265   5.422   3.283   0.504
10122SOL    HW231266   5.301   3.323   0.402
10123SOL     OW31267   6.690   6.992   0.136
10123SOL    HW131268   6.708   6.995   0.038
10123SOL    HW231269   6.771   6.958   0.184
10124SOL     OW31270   3.374   4.460   0.961
10124SOL    HW131271   3.281   4.479   0.990
10124SOL    HW231272   3.437   4.477   1.037
10125SOL     OW31273   1.242   0.016   1.612
10125SOL    HW131274   1.220   0.099   1.561
10125SOL    HW231275   1.339   0.019   1.639
10126SOL     OW31276   5.902   4.595   0.296
10126SOL    HW131277   5.823   4.639   0.252
10126SOL    HW231278   5.875   4.562   0.386
10127SOL     OW31279   3.879   4.863   5.486
10127SOL    HW131280   3.851   4.956   5.461
10127SOL    HW231281   3.855   4.800   5.412
10128SOL     OW31282   0.358   1.739   1.617
10128SOL    HW131283   0.409   1.821   1.644
10128SOL    HW231284   0.404   1.658   1.653
10129SOL     OW31285   5.315   2.086   3.160
10129SOL    HW131286   5.354   2.015   3.219
10129SOL    HW231287   5.351   2.176   3.188
10130SOL     OW31288   6.696   5.038   1.679
10130SOL    HW131289   6.676   5.006   1.772
10130SOL    HW231290   6.610   5.057   1.631
10131SOL     OW31291   6.982   0.946   0.928
10131SOL    HW131292   0.055   0.947   0.913
10131SOL    HW231293   6.937   0.906   0.848
10132SOL     OW31294   2.985   6.710   2.675
10132SOL    HW131295   2.980   6.626   2.622
10132SOL    HW231296   3.065   6.763   2.648
10133SOL     OW31297   5.035   5.866   2.933
10133SOL    HW131298   5.038   5.772   2.966
10133SOL    HW231299   4.988   5.869   2.844
10134SOL     OW31300   0.083   1.476   2.590
10134SOL    HW131301   0.064   1.570   2.560
10134SOL    HW231302   0.172   1.448   2.555
10135SOL     OW31303   3.676   5.673   3.023
10135SOL    HW131304   3.699   5.740   2.952
10135SOL    HW231305   3.657   5.585   2.980
10136SOL     OW31306   5.946   6.938   2.072
10136SOL    HW131307   5.893   7.017   2.103
10136SOL    HW231308   6.010   6.966   2.001
10137SOL     OW31309   5.626   4.815   4.263
10137SOL    HW131310   5.626   4.886   4.194
10137SOL    HW231311   5.559   4.838   4.334
10138SOL     OW31312   5.416   2.668   6.483
10138SOL    HW131313   5.496   2.615   6.455
10138SOL    HW231314   5.336   2.608   6.488
10139SOL     OW31315   4.098   3.583   3.316
10139SOL    HW131316   4.092   3.517   3.391
10139SOL    HW231317   4.101   3.534   3.229
10140SOL     OW31318   0.304   4.975   5.500
10140SOL    HW131319   0.392   4.935   5.474
10140SOL    HW231320   0.300   4.983   5.600
10141SOL     OW31321   2.488   0.544   4.162
10141SOL    HW131322   2.485   0.495   4.249
10141SOL    HW231323   2.577   0.588   4.151
10142SOL     OW31324   5.151   5.795   4.445
10142SOL    HW131325   5.144   5.808   4.346
10142SOL    HW231326   5.069   5.750   4.479
10143SOL     OW31327   5.215   6.156   1.191
10143SOL    HW131328   5.271   6.100   1.130
10143SOL    HW231329   5.160   6.219   1.137
10144SOL     OW31330   3.138   5.454   3.551
10144SOL    HW131331   3.055   5.503   3.528
10144SOL    HW231332   3.124   5.400   3.634
10145SOL     OW31333   3.218   5.784   6.247
10145SOL    HW131334   3.307   5.757   6.285
10145SOL    HW231335   3.187   5.714   6.183
10146SOL     OW31336   4.941   4.824   4.220
10146SOL    HW131337   4.887   4.908   4.218
10146SOL    HW231338   4.951   4.794   4.315
10147SOL     OW31339   4.996   5.457   4.838
10147SOL    HW131340   4.990   5.503   4.749
10147SOL    HW231341   4.924   5.492   4.899
10148SOL     OW31342   5.577   5.365   1.317
10148SOL    HW131343   5.574   5.457   1.357
10148SOL    HW231344   5.484   5.334   1.296
10149SOL     OW31345   4.271   3.557   0.687
10149SOL    HW131346   4.317   3.627   0.632
10149SOL    HW231347   4.339   3.494   0.724
10150SOL     OW31348   5.025   4.732   1.340
10150SOL    HW131349   4.936   4.686   1.332
10150SOL    HW231350   5.057   4.726   1.434
10151SOL     OW31351   1.237   6.839   5.467
10151SOL    HW131352   1.279   6.752   5.491
10151SOL    HW231353   1.155   6.822   5.412
10152SOL     OW31354   0.415   5.261   3.755
10152SOL    HW131355   0.487   5.194   3.740
10152SOL    HW231356   0.425   5.302   3.845
10153SOL     OW31357   5.662   6.558   4.116
10153SOL    HW131358   5.727   6.496   4.161
10153SOL    HW231359   5.571   6.545   4.157
10154SOL     OW31360   6.548   5.494   5.796
10154SOL    HW131361   6.538   5.395   5.798
10154SOL    HW231362   6.582   5.522   5.706
10155SOL     OW31363   3.806   1.674   6.436
10155SOL    HW131364   3.832   1.607   6.367
10155SOL    HW231365   3.863   1.662   6.517
10156SOL     OW31366   5.804   0.393   2.154
10156SOL    HW131367   5.744   0.351   2.086
10156SOL    HW231368   5.754   0.460   2.207
10157SOL     OW31369   5.787   0.915   6.163
10157SOL    HW131370   5.760   0.985   6.229
10157SOL    HW231371   5.876   0.878   6.188
10158SOL     OW31372   4.022   3.980   6.745
10158SOL    HW131373   4.120   3.982   6.766
10158SOL    HW231374   4.003   4.041   6.668
10159SOL     OW31375   1.269   1.134   6.255
10159SOL    HW131376   1.296   1.149   6.350
10159SOL    HW231377   1.350   1.135   6.196
10160SOL     OW31378   0.360   5.785   3.626
10160SOL    HW131379   0.420   5.865   3.628
10160SOL    HW231380   0.397   5.717   3.563
10161SOL     OW31381   2.676   5.850   5.715
10161SOL    HW131382   2.607   5.883   5.780
10161SOL    HW231383   2.631   5.826   5.629
10162SOL     OW31384   3.593   1.659   6.612
10162SOL    HW131385   3.640   1.663   6.524
10162SOL    HW231386   3.660   1.654   6.686
10163SOL     OW31387   6.243   2.851   5.511
10163SOL    HW131388   6.151   2.888   5.496
10163SOL    HW231389   6.245   2.754   5.484
10164SOL     OW31390   0.496   2.912   5.251
10164SOL    HW131391   0.571   2.976   5.233
10164SOL    HW231392   0.432   2.953   5.315
10165SOL     OW31393   6.950   2.040   3.446
10165SOL    HW131394   6.924   1.946   3.427
10165SOL    HW231395   6.874   2.088   3.489
10166SOL     OW31396   1.859   1.031   2.210
10166SOL    HW131397   1.934   1.002   2.150
10166SOL    HW231398   1.774   1.034   2.158
10167SOL     OW31399   4.615   0.544   0.221
10167SOL    HW131400   4.609   0.511   0.127
10167SOL    HW231401   4.537   0.604   0.240
10168SOL     OW31402   6.473   4.510   4.548
10168SOL    HW131403   6.573   4.508   4.552
10168SOL    HW231404   6.439   4.423   4.512
10169SOL     OW31405   6.324   4.410   3.979
10169SOL    HW131406   6.289   4.440   3.890
10169SOL    HW231407   6.404   4.464   4.003
10170SOL     OW31408   1.861   4.400   4.889
10170SOL    HW131409   1.824   4.325   4.835
10170SOL    HW231410   1.885   4.367   4.980
10171SOL     OW31411   5.824   3.725   5.764
10171SOL    HW131412   5.865   3.653   5.821
10171SOL    HW231413   5.726   3.706   5.752
10172SOL     OW31414   5.039   1.449   3.193
10172SOL    HW131415   4.992   1.414   3.112
10172SOL    HW231416   5.124   1.397   3.207
10173SOL     OW31417   2.203   1.669   2.265
10173SOL    HW131418   2.200   1.614   2.181
10173SOL    HW231419   2.162   1.758   2.248
10174SOL     OW31420   6.684   4.508   1.736
10174SOL    HW131421   6.719   4.514   1.642
10174SOL    HW231422   6.628   4.426   1.746
10175SOL     OW31423   6.151   2.580   6.100
10175SOL    HW131424   6.232   2.637   6.095
10175SOL    HW231425   6.136   2.550   6.194
10176SOL     OW31426   2.202   3.996   0.194
10176SOL    HW131427   2.230   3.910   0.152
10176SOL    HW231428   2.193   3.984   0.293
10177SOL     OW31429   1.783   6.490   6.458
10177SOL    HW131430   1.820   6.564   6.403
10177SOL    HW231431   1.802   6.508   6.555
10178SOL     OW31432   5.464   2.149   4.403
10178SOL    HW131433   5.554   2.184   4.377
10178SOL    HW231434   5.457   2.146   4.503
10179SOL     OW31435   1.227   3.290   6.814
10179SOL    HW131436   1.175   3.204   6.818
10179SOL    HW231437   1.195   3.351   6.886
10180SOL     OW31438   2.547   6.357   5.526
10180SOL    HW131439   2.646   6.368   5.515
10180SOL    HW231440   2.514   6.422   5.595
10181SOL     OW31441   5.130   3.163   1.234
10181SOL    HW131442   5.151   3.091   1.168
10181SOL    HW231443   5.127   3.123   1.326
10182SOL     OW31444   5.380   1.208   0.710
10182SOL    HW131445   5.361   1.115   0.744
10182SOL    HW231446   5.453   1.204   0.642
10183SOL     OW31447   1.718   1.581   6.600
10183SOL    HW131448   1.817   1.568   6.598
10183SOL    HW231449   1.697   1.665   6.649
10184SOL     OW31450   4.173   0.744   5.922
10184SOL    HW131451   4.086   0.762   5.876
10184SOL    HW231452   4.244   0.800   5.881
10185SOL     OW31453   5.155   6.848   0.337
10185SOL    HW131454   5.101   6.880   0.415
10185SOL    HW231455   5.246   6.891   0.340
10186SOL     OW31456   4.354   2.374   2.893
10186SOL    HW131457   4.332   2.331   2.805
10186SOL    HW231458   4.279   2.361   2.957
10187SOL     OW31459   0.872   1.966   1.586
10187SOL    HW131460   0.961   1.921   1.581
10187SOL    HW231461   0.838   1.961   1.680
10188SOL     OW31462   3.474   5.860   1.056
10188SOL    HW131463   3.422   5.946   1.055
10188SOL    HW231464   3.568   5.878   1.083
10189SOL     OW31465   1.351   6.456   5.230
10189SOL    HW131466   1.350   6.527   5.161
10189SOL    HW231467   1.265   6.459   5.282
10190SOL     OW31468   5.455   2.925   0.533
10190SOL    HW131469   5.490   2.861   0.465
10190SOL    HW231470   5.355   2.924   0.531
10191SOL     OW31471   6.347   4.549   6.957
10191SOL    HW131472   6.349   4.449   6.945
10191SOL    HW231473   6.272   4.574   7.018
10192SOL     OW31474   3.054   1.448   5.794
10192SOL    HW131475   3.126   1.447   5.725
10192SOL    HW231476   2.969   1.482   5.753
10193SOL     OW31477   4.699   3.960   0.175
10193SOL    HW131478   4.632   4.011   0.227
10193SOL    HW231479   4.791   3.979   0.210
10194SOL     OW31480   5.371   3.479   5.213
10194SOL    HW131481   5.346   3.389   5.247
10194SOL    HW231482   5.435   3.523   5.276
10195SOL     OW31483   0.023   4.158   2.184
10195SOL    HW131484   0.029   4.208   2.098
10195SOL    HW231485   6.982   4.201   2.244
10196SOL     OW31486   0.266   1.660   4.815
10196SOL    HW131487   0.283   1.586   4.750
10196SOL    HW231488   0.286   1.748   4.771
10197SOL     OW31489   6.075   1.171   6.386
10197SOL    HW131490   6.152   1.134   6.335
10197SOL    HW231491   6.108   1.208   6.473
10198SOL     OW31492   3.754   6.666   3.358
10198SOL    HW131493   3.781   6.584   3.308
10198SOL    HW231494   3.657   6.684   3.344
10199SOL     OW31495   1.381   2.329   5.088
10199SOL    HW131496   1.307   2.340   5.154
10199SOL    HW231497   1.463   2.375   5.122
10200SOL     OW31498   5.765   2.758   1.564
10200SOL    HW131499   5.685   2.761   1.505
10200SOL    HW231500   5.779   2.666   1.598
10201SOL     OW31501   1.224   3.369   0.650
10201SOL    HW131502   1.157   3.325   0.710
10201SOL    HW231503   1.272   3.441   0.700
10202SOL     OW31504   3.671   0.411   4.926
10202SOL    HW131505   3.771   0.417   4.926
10202SOL    HW231506   3.632   0.502   4.912
10203SOL     OW31507   6.341   2.431   4.614
10203SOL    HW131508   6.355   2.336   4.585
10203SOL    HW231509   6.403   2.491   4.563
10204SOL     OW31510   5.604   5.765   6.479
10204SOL    HW131511   5.619   5.674   6.441
10204SOL    HW231512   5.561   5.823   6.409
10205SOL     OW31513   1.012   0.807   5.816
10205SOL    HW131514   0.975   0.871   5.749
10205SOL    HW231515   1.103   0.837   5.844
10206SOL     OW31516   1.300   0.675   5.112
10206SOL    HW131517   1.372   0.743   5.129
10206SOL    HW231518   1.288   0.664   5.013
10207SOL     OW31519   1.983   2.159   5.223
10207SOL    HW131520   2.060   2.222   5.228
10207SOL    HW231521   1.910   2.192   5.283
10208SOL     OW31522   6.405   4.852   5.552
10208SOL    HW131523   6.323   4.797   5.535
10208SOL    HW231524   6.423   4.857   5.651
10209SOL     OW31525   6.736   0.130   5.516
10209SOL    HW131526   6.664   0.196   5.496
10209SOL    HW231527   6.746   0.121   5.615
10210SOL     OW31528   3.350   6.753   1.986
10210SOL    HW131529   3.415   6.802   1.927
10210SOL    HW231530   3.298   6.820   2.039
10211SOL     OW31531   5.308   5.980   5.622
10211SOL    HW131532   5.255   5.980   5.537
10211SOL    HW231533   5.339   6.073   5.642
10212SOL     OW31534   0.533   0.431   6.739
10212SOL    HW131535   0.613   0.393   6.692
10212SOL    HW231536   0.477   0.356   6.775
10213SOL     OW31537   6.154   1.807   1.032
10213SOL    HW131538   6.067   1.851   1.011
10213SOL    HW231539   6.159   1.718   0.988
10214SOL     OW31540   1.002   2.150   0.156
10214SOL    HW131541   1.002   2.249   0.172
10214SOL    HW231542   0.965   2.131   0.065
10215SOL     OW31543   3.404   2.845   2.200
10215SOL    HW131544   3.415   2.926   2.142
10215SOL    HW231545   3.330   2.789   2.165
10216SOL     OW31546   7.011   6.446   2.622
10216SOL    HW131547   0.011   6.542   2.635
10216SOL    HW231548   0.013   6.393   2.702
10217SOL     OW31549   3.534   1.337   4.149
10217SOL    HW131550   3.551   1.419   4.205
10217SOL    HW231551   3.516   1.259   4.209
10218SOL     OW31552   1.320   2.980   2.668
10218SOL    HW131553   1.302   2.978   2.570
10218SOL    HW231554   1.415   2.951   2.685
10219SOL     OW31555   6.751   0.066   3.105
10219SOL    HW131556   6.808   0.039   3.182
10219SOL    HW231557   6.735   7.013   3.045
10220SOL     OW31558   3.794   2.603   0.641
10220SOL    HW131559   3.739   2.542   0.697
10220SOL    HW231560   3.838   2.672   0.699
10221SOL     OW31561   0.814   5.315   4.078
10221SOL    HW131562   0.833   5.368   4.161
10221SOL    HW231563   0.758   5.370   4.016
10222SOL     OW31564   2.921   3.667   4.322
10222SOL    HW131565   3.013   3.633   4.340
10222SOL    HW231566   2.871   3.601   4.267
10223SOL     OW31567   0.806   6.353   1.299
10223SOL    HW131568   0.855   6.297   1.366
10223SOL    HW231569   0.795   6.301   1.214
10224SOL     OW31570   6.145   4.018   3.176
10224SOL    HW131571   6.081   3.947   3.206
10224SOL    HW231572   6.221   3.976   3.127
10225SOL     OW31573   2.135   3.559   5.905
10225SOL    HW131574   2.082   3.564   5.989
10225SOL    HW231575   2.229   3.589   5.922
10226SOL     OW31576   5.247   2.785   6.773
10226SOL    HW131577   5.340   2.810   6.746
10226SOL    HW231578   5.206   2.860   6.824
10227SOL     OW31579   5.190   3.631   1.236
10227SOL    HW131580   5.099   3.596   1.259
10227SOL    HW231581   5.260   3.578   1.284
10228SOL     OW31582   5.295   0.988   0.861
10228SOL    HW131583   5.235   0.952   0.789
10228SOL    HW231584   5.259   1.076   0.893
10229SOL     OW31585   0.080   3.596   4.821
10229SOL    HW131586   0.049   3.509   4.782
10229SOL    HW231587   0.180   3.595   4.827
10230SOL     OW31588   0.198   6.355   2.170
10230SOL    HW131589   0.196   6.288   2.096
10230SOL    HW231590   0.120   6.417   2.162
10231SOL     OW31591   1.096   5.565   3.345
10231SOL    HW131592   1.057   5.630   3.280
10231SOL    HW231593   1.180   5.526   3.307
10232SOL     OW31594   4.903   4.347   3.944
10232SOL    HW131595   4.860   4.363   3.856
10232SOL    HW231596   4.988   4.400   3.950
10233SOL     OW31597   3.253   3.740   5.719
10233SOL    HW131598   3.174   3.767   5.773
10233SOL    HW231599   3.223   3.712   5.628
10234SOL     OW31600   0.523   1.097   2.483
10234SOL    HW131601   0.470   1.151   2.547
10234SOL    HW231602   0.528   1.002   2.515
10235SOL     OW31603   1.805   0.483   2.886
10235SOL    HW131604   1.814   0.562   2.827
10235SOL    HW231605   1.832   0.507   2.979
10236SOL     OW31606   2.574   6.707   2.555
10236SOL    HW131607   2.596   6.610   2.559
10236SOL    HW231608   2.651   6.757   2.514
10237SOL     OW31609   0.480   3.515   5.059
10237SOL    HW131610   0.580   3.512   5.064
10237SOL    HW231611   0.441   3.474   5.141
10238SOL     OW31612   3.511   6.908   1.840
10238SOL    HW131613   3.441   6.942   1.778
10238SOL    HW231614   3.547   6.984   1.894
10239SOL     OW31615   0.788   2.611   4.030
10239SOL    HW131616   0.704   2.582   4.076
10239SOL    HW231617   0.851   2.533   4.024
10240SOL     OW31618   2.347   6.607   0.663
10240SOL    HW131619   2.307   6.583   0.751
10240SOL    HW231620   2.447   6.608   0.671
10241SOL     OW31621   4.010   2.699   1.595
10241SOL    HW131622   3.977   2.693   1.501
10241SOL    HW231623   4.037   2.794   1.614
10242SOL     OW31624   6.899   2.681   6.662
10242SOL    HW131625   6.911   2.594   6.711
10242SOL    HW231626   6.891   2.756   6.728
10243SOL     OW31627   2.660   5.238   1.470
10243SOL    HW131628   2.596   5.162   1.464
10243SOL    HW231629   2.726   5.233   1.395
10244SOL     OW31630   3.128   4.661   1.340
10244SOL    HW131631   3.223   4.691   1.350
10244SOL    HW231632   3.091   4.639   1.430
10245SOL     OW31633   4.626   4.363   0.885
10245SOL    HW131634   4.662   4.392   0.974
10245SOL    HW231635   4.551   4.299   0.899
10246SOL     OW31636   3.553   2.876   3.889
10246SOL    HW131637   3.479   2.931   3.928
10246SOL    HW231638   3.626   2.866   3.956
10247SOL     OW31639   0.692   2.801   4.291
10247SOL    HW131640   0.717   2.898   4.287
10247SOL    HW231641   0.687   2.764   4.198
10248SOL     OW31642   1.220   1.036   4.150
10248SOL    HW131643   1.124   1.064   4.144
10248SOL    HW231644   1.267   1.061   4.065
10249SOL     OW31645   2.807   5.121   6.012
10249SOL    HW131646   2.819   5.027   5.982
10249SOL    HW231647   2.748   5.169   5.948
10250SOL     OW31648   4.105   2.680   0.980
10250SOL    HW131649   4.150   2.615   0.919
10250SOL    HW231650   4.153   2.768   0.977
10251SOL     OW31651   1.627   0.562   4.398
10251SOL    HW131652   1.674   0.563   4.486
10251SOL    HW231653   1.568   0.481   4.393
10252SOL     OW31654   5.410   4.699   6.296
10252SOL    HW131655   5.370   4.626   6.241
10252SOL    HW231656   5.452   4.659   6.379
10253SOL     OW31657   3.597   5.989   6.221
10253SOL    HW131658   3.526   6.047   6.260
10253SOL    HW231659   3.602   5.904   6.272
10254SOL     OW31660   5.884   1.684   6.143
10254SOL    HW131661   5.877   1.592   6.105
10254SOL    HW231662   5.793   1.718   6.166
10255SOL     OW31663   4.093   4.511   1.376
10255SOL    HW131664   4.057   4.444   1.310
10255SOL    HW231665   4.193   4.514   1.370
10256SOL     OW31666   3.957   1.428   3.505
10256SOL    HW131667   4.052   1.456   3.512
10256SOL    HW231668   3.948   1.356   3.435
10257SOL     OW31669   3.985   5.669   3.031
10257SOL    HW131670   4.011   5.584   3.076
10257SOL    HW231671   3.963   5.738   3.099
10258SOL     OW31672   1.906   1.456   1.893
10258SOL    HW131673   1.836   1.520   1.924
10258SOL    HW231674   1.996   1.488   1.922
10259SOL     OW31675   2.202   4.009   4.223
10259SOL    HW131676   2.206   4.077   4.297
10259SOL    HW231677   2.167   3.923   4.260
10260SOL     OW31678   0.929   0.731   3.328
10260SOL    HW131679   0.996   0.702   3.260
10260SOL    HW231680   0.891   0.651   3.375
10261SOL     OW31681   6.853   3.742   0.803
10261SOL    HW131682   6.833   3.716   0.897
10261SOL    HW231683   6.912   3.672   0.761
10262SOL     OW31684   4.282   1.594   0.689
10262SOL    HW131685   4.252   1.658   0.761
10262SOL    HW231686   4.202   1.562   0.638
10263SOL     OW31687   5.962   1.395   2.426
10263SOL    HW131688   6.061   1.397   2.411
10263SOL    HW231689   5.940   1.442   2.512
10264SOL     OW31690   6.799   6.469   6.559
10264SOL    HW131691   6.732   6.513   6.499
10264SOL    HW231692   6.754   6.398   6.614
10265SOL     OW31693   1.999   2.056   0.804
10265SOL    HW131694   1.902   2.060   0.829
10265SOL    HW231695   2.041   1.975   0.846
10266SOL     OW31696   2.606   3.420   1.701
10266SOL    HW131697   2.520   3.427   1.753
10266SOL    HW231698   2.680   3.394   1.763
10267SOL     OW31699   5.680   0.863   1.517
10267SOL    HW131700   5.765   0.831   1.475
10267SOL    HW231701   5.664   0.958   1.491
10268SOL     OW31702   3.851   6.384   1.789
10268SOL    HW131703   3.818   6.478   1.779
10268SOL    HW231704   3.871   6.365   1.886
10269SOL     OW31705   3.195   2.536   0.635
10269SOL    HW131706   3.103   2.575   0.628
10269SOL    HW231707   3.193   2.440   0.607
10270SOL     OW31708   2.950   0.363   3.353
10270SOL    HW131709   2.893   0.341   3.274
10270SOL    HW231710   3.028   0.419   3.323
10271SOL     OW31711   1.751   1.637   6.270
10271SOL    HW131712   1.832   1.695   6.263
10271SOL    HW231713   1.685   1.679   6.333
10272SOL     OW31714   6.182   0.105   4.319
10272SOL    HW131715   6.177   0.182   4.383
10272SOL    HW231716   6.230   0.029   4.362
10273SOL     OW31717   2.299   5.230   3.625
10273SOL    HW131718   2.225   5.297   3.622
10273SOL    HW231719   2.268   5.148   3.673
10274SOL     OW31720   0.857   4.855   5.423
10274SOL    HW131721   0.776   4.912   5.417
10274SOL    HW231722   0.841   4.769   5.374
10275SOL     OW31723   6.808   0.501   2.425
10275SOL    HW131724   6.878   0.570   2.445
10275SOL    HW231725   6.730   0.514   2.487
10276SOL     OW31726   3.690   5.302   5.213
10276SOL    HW131727   3.608   5.332   5.164
10276SOL    HW231728   3.762   5.371   5.204
10277SOL     OW31729   0.572   6.015   4.005
10277SOL    HW131730   0.626   6.099   4.011
10277SOL    HW231731   0.558   5.978   4.097
10278SOL     OW31732   6.783   6.938   5.090
10278SOL    HW131733   6.867   6.920   5.039
10278SOL    HW231734   6.807   6.981   5.177
10279SOL     OW31735   2.288   6.407   4.208
10279SOL    HW131736   2.210   6.466   4.230
10279SOL    HW231737   2.372   6.461   4.214
10280SOL     OW31738   6.231   4.631   0.196
10280SOL    HW131739   6.157   4.671   0.251
10280SOL    HW231740   6.214   4.534   0.183
10281SOL     OW31741   6.356   1.351   3.388
10281SOL    HW131742   6.362   1.264   3.438
10281SOL    HW231743   6.354   1.427   3.452
10282SOL     OW31744   5.299   3.410   3.431
10282SOL    HW131745   5.252   3.427   3.518
10282SOL    HW231746   5.284   3.488   3.370
10283SOL     OW31747   0.823   2.698   0.975
10283SOL    HW131748   0.849   2.742   0.889
10283SOL    HW231749   0.766   2.618   0.955
10284SOL     OW31750   0.135   3.392   3.971
10284SOL    HW131751   0.173   3.462   4.031
10284SOL    HW231752   0.186   3.391   3.885
10285SOL     OW31753   6.010   5.607   5.333
10285SOL    HW131754   5.966   5.671   5.396
10285SOL    HW231755   6.013   5.516   5.374
10286SOL     OW31756   3.077   1.124   3.136
10286SOL    HW131757   3.134   1.082   3.206
10286SOL    HW231758   2.981   1.101   3.152
10287SOL     OW31759   2.142   5.469   3.241
10287SOL    HW131760   2.091   5.384   3.253
10287SOL    HW231761   2.084   5.547   3.264
10288SOL     OW31762   3.730   6.627   5.244
10288SOL    HW131763   3.685   6.542   5.272
10288SOL    HW231764   3.755   6.679   5.325
10289SOL     OW31765   3.543   5.547   0.100
10289SOL    HW131766   3.543   5.538   0.200
10289SOL    HW231767   3.473   5.613   0.073
10290SOL     OW31768   3.593   2.835   1.893
10290SOL    HW131769   3.646   2.919   1.881
10290SOL    HW231770   3.636   2.761   1.841
10291SOL     OW31771   2.147   1.534   2.002
10291SOL    HW131772   2.185   1.464   2.063
10291SOL    HW231773   2.216   1.559   1.934
10292SOL     OW31774   6.765   0.036   5.774
10292SOL    HW131775   6.819   0.027   5.857
10292SOL    HW231776   6.742   6.971   5.740
10293SOL     OW31777   1.246   4.048   4.886
10293SOL    HW131778   1.209   4.140   4.885
10293SOL    HW231779   1.249   4.014   4.980
10294SOL     OW31780   3.488   1.496   1.977
10294SOL    HW131781   3.448   1.463   2.063
10294SOL    HW231782   3.562   1.560   1.997
10295SOL     OW31783   1.440   1.853   6.637
10295SOL    HW131784   1.473   1.947   6.645
10295SOL    HW231785   1.344   1.849   6.667
10296SOL     OW31786   6.183   1.320   5.586
10296SOL    HW131787   6.263   1.372   5.615
10296SOL    HW231788   6.212   1.243   5.530
10297SOL     OW31789   3.467   0.978   6.917
10297SOL    HW131790   3.526   0.991   6.996
10297SOL    HW231791   3.494   1.042   6.845
10298SOL     OW31792   0.630   2.441   2.077
10298SOL    HW131793   0.675   2.488   2.153
10298SOL    HW231794   0.660   2.481   1.991
10299SOL     OW31795   4.127   6.144   3.049
10299SOL    HW131796   4.211   6.196   3.037
10299SOL    HW231797   4.076   6.144   2.963
10300SOL     OW31798   0.998   4.138   1.729
10300SOL    HW131799   1.071   4.106   1.789
10300SOL    HW231800   0.984   4.071   1.655
10301SOL     OW31801   3.860   0.441   6.721
10301SOL    HW131802   3.815   0.468   6.806
10301SOL    HW231803   3.873   0.522   6.663
10302SOL     OW31804   2.788   6.157   4.910
10302SOL    HW131805   2.714   6.110   4.958
10302SOL    HW231806   2.756   6.247   4.880
10303SOL     OW31807   0.551   5.690   4.652
10303SOL    HW131808   0.478   5.759   4.657
10303SOL    HW231809   0.623   5.714   4.716
10304SOL     OW31810   6.101   6.287   0.799
10304SOL    HW131811   6.093   6.202   0.852
10304SOL    HW231812   6.092   6.365   0.861
10305SOL     OW31813   3.294   4.250   5.726
10305SOL    HW131814   3.294   4.350   5.724
10305SOL    HW231815   3.200   4.217   5.712
10306SOL     OW31816   4.124   0.423   1.038
10306SOL    HW131817   4.189   0.404   0.964
10306SOL    HW231818   4.033   0.391   1.013
10307SOL     OW31819   2.097   0.325   5.697
10307SOL    HW131820   2.079   0.422   5.714
10307SOL    HW231821   2.097   0.276   5.784
10308SOL     OW31822   2.627   5.323   2.539
10308SOL    HW131823   2.697   5.387   2.508
10308SOL    HW231824   2.647   5.294   2.633
10309SOL     OW31825   0.022   1.444   4.780
10309SOL    HW131826   0.008   1.444   4.879
10309SOL    HW231827   0.071   1.527   4.754
10310SOL     OW31828   1.961   3.985   5.738
10310SOL    HW131829   1.986   3.896   5.702
10310SOL    HW231830   2.017   4.056   5.695
10311SOL     OW31831   4.762   5.540   6.378
10311SOL    HW131832   4.770   5.441   6.395
10311SOL    HW231833   4.722   5.584   6.458
10312SOL     OW31834   4.436   0.550   1.974
10312SOL    HW131835   4.417   0.641   1.938
10312SOL    HW231836   4.455   0.487   1.898
10313SOL     OW31837   5.378   6.985   3.343
10313SOL    HW131838   5.439   7.010   3.418
10313SOL    HW231839   5.382   6.886   3.328
10314SOL     OW31840   0.492   0.451   0.760
10314SOL    HW131841   0.475   0.355   0.784
10314SOL    HW231842   0.484   0.507   0.843
10315SOL     OW31843   5.560   5.127   3.686
10315SOL    HW131844   5.594   5.034   3.704
10315SOL    HW231845   5.617   5.192   3.736
10316SOL     OW31846   0.370   1.974   6.845
10316SOL    HW131847   0.361   1.902   6.913
10316SOL    HW231848   0.307   2.049   6.866
10317SOL     OW31849   3.701   6.015   4.898
10317SOL    HW131850   3.711   6.114   4.899
10317SOL    HW231851   3.735   5.978   4.811
10318SOL     OW31852   6.497   6.814   0.493
10318SOL    HW131853   6.591   6.821   0.524
10318SOL    HW231854   6.435   6.823   0.572
10319SOL     OW31855   1.017   4.085   4.022
10319SOL    HW131856   0.950   4.018   4.053
10319SOL    HW231857   0.969   4.164   3.983
10320SOL     OW31858   0.317   6.386   3.978
10320SOL    HW131859   0.335   6.354   3.885
10320SOL    HW231860   0.219   6.400   3.990
10321SOL     OW31861   5.065   2.815   2.114
10321SOL    HW131862   5.104   2.874   2.044
10321SOL    HW231863   5.138   2.780   2.173
10322SOL     OW31864   4.703   4.303   5.016
10322SOL    HW131865   4.722   4.229   5.081
10322SOL    HW231866   4.629   4.360   5.051
10323SOL     OW31867   0.891   4.345   5.641
10323SOL    HW131868   0.941   4.432   5.642
10323SOL    HW231869   0.850   4.331   5.551
10324SOL     OW31870   3.200   3.346   1.862
10324SOL    HW131871   3.125   3.413   1.858
10324SOL    HW231872   3.178   3.276   1.930
10325SOL     OW31873   6.690   5.462   3.394
10325SOL    HW131874   6.778   5.417   3.379
10325SOL    HW231875   6.627   5.399   3.441
10326SOL     OW31876   5.622   3.627   6.808
10326SOL    HW131877   5.523   3.638   6.809
10326SOL    HW231878   5.656   3.645   6.716
10327SOL     OW31879   2.231   4.553   1.048
10327SOL    HW131880   2.155   4.588   1.104
10327SOL    HW231881   2.315   4.555   1.102
10328SOL     OW31882   5.960   2.262   2.076
10328SOL    HW131883   5.949   2.356   2.107
10328SOL    HW231884   5.951   2.258   1.976
10329SOL     OW31885   3.508   1.574   3.146
10329SOL    HW131886   3.593   1.527   3.171
10329SOL    HW231887   3.493   1.565   3.047
10330SOL     OW31888   4.590   1.406   1.515
10330SOL    HW131889   4.642   1.321   1.517
10330SOL    HW231890   4.651   1.483   1.535
10331SOL     OW31891   6.138   5.153   6.469
10331SOL    HW131892   6.116   5.071   6.415
10331SOL    HW231893   6.054   5.188   6.511
10332SOL     OW31894   1.554   0.950   6.896
10332SOL    HW131895   1.639   0.907   6.925
10332SOL    HW231896   1.561   0.976   6.799
10333SOL     OW31897   0.861   4.472   4.599
10333SOL    HW131898   0.935   4.461   4.533
10333SOL    HW231899   0.774   4.452   4.554
10334SOL     OW31900   3.530   0.334   3.583
10334SOL    HW131901   3.524   0.330   3.683
10334SOL    HW231902   3.540   0.429   3.554
10335SOL     OW31903   0.950   2.378   5.414
10335SOL    HW131904   0.994   2.316   5.479
10335SOL    HW231905   1.019   2.411   5.349
10336SOL     OW31906   5.253   6.777   3.551
10336SOL    HW131907   5.205   6.792   3.465
10336SOL    HW231908   5.235   6.684   3.583
10337SOL     OW31909   6.349   5.559   6.796
10337SOL    HW131910   6.281   5.522   6.732
10337SOL    HW231911   6.428   5.592   6.745
10338SOL     OW31912   1.739   6.513   1.761
10338SOL    HW131913   1.776   6.464   1.682
10338SOL    HW231914   1.697   6.447   1.824
10339SOL     OW31915   6.213   2.570   5.586
10339SOL    HW131916   6.115   2.584   5.574
10339SOL    HW231917   6.231   2.545   5.682
10340SOL     OW31918   2.300   3.250   6.431
10340SOL    HW131919   2.301   3.150   6.426
10340SOL    HW231920   2.336   3.289   6.347
10341SOL     OW31921   2.202   2.954   3.075
10341SOL    HW131922   2.144   2.876   3.098
10341SOL    HW231923   2.290   2.922   3.039
10342SOL     OW31924   0.702   1.160   3.829
10342SOL    HW131925   0.742   1.167   3.921
10342SOL    HW231926   0.755   1.095   3.775
10343SOL     OW31927   3.336   5.735   2.212
10343SOL    HW131928   3.414   5.698   2.262
10343SOL    HW231929   3.355   5.733   2.114
10344SOL     OW31930   4.107   5.984   5.747
10344SOL    HW131931   4.126   6.037   5.665
10344SOL    HW231932   4.028   5.924   5.731
10345SOL     OW31933   2.136   3.537   4.354
10345SOL    HW131934   2.165   3.478   4.429
10345SOL    HW231935   2.081   3.484   4.289
10346SOL     OW31936   6.688   6.012   0.278
10346SOL    HW131937   6.602   5.983   0.237
10346SOL    HW231938   6.707   6.107   0.254
10347SOL     OW31939   5.061   1.841   4.136
10347SOL    HW131940   5.137   1.869   4.195
10347SOL    HW231941   5.045   1.743   4.147
10348SOL     OW31942   6.821   4.224   0.741
10348SOL    HW131943   6.903   4.267   0.705
10348SOL    HW231944   6.809   4.134   0.699
10349SOL     OW31945   0.946   6.949   6.548
10349SOL    HW131946   0.851   6.936   6.574
10349SOL    HW231947   0.988   7.018   6.607
10350SOL     OW31948   3.497   6.898   6.294
10350SOL    HW131949   3.551   6.814   6.297
10350SOL    HW231950   3.407   6.881   6.334
10351SOL     OW31951   4.606   5.337   6.962
10351SOL    HW131952   4.652   5.328   6.874
10351SOL    HW231953   4.571   5.247   6.991
10352SOL     OW31954   3.222   3.586   6.310
10352SOL    HW131955   3.184   3.612   6.398
10352SOL    HW231956   3.281   3.659   6.276
10353SOL     OW31957   1.038   2.375   4.898
10353SOL    HW131958   0.982   2.332   4.969
10353SOL    HW231959   1.046   2.473   4.915
10354SOL     OW31960   5.768   1.899   1.315
10354SOL    HW131961   5.713   1.973   1.354
10354SOL    HW231962   5.720   1.812   1.329
10355SOL     OW31963   1.437   5.011   2.287
10355SOL    HW131964   1.460   4.953   2.209
10355SOL    HW231965   1.498   4.990   2.363
10356SOL     OW31966   0.022   2.623   4.481
10356SOL    HW131967   7.019   2.568   4.403
10356SOL    HW231968   0.079   2.698   4.449
10357SOL     OW31969   2.529   2.125   0.515
10357SOL    HW131970   2.593   2.060   0.474
10357SOL    HW231971   2.578   2.184   0.578
10358SOL     OW31972   0.345   1.521   2.178
10358SOL    HW131973   0.250   1.525   2.148
10358SOL    HW231974   0.390   1.442   2.135
10359SOL     OW31975   0.390   1.185   1.330
10359SOL    HW131976   0.380   1.277   1.367
10359SOL    HW231977   0.327   1.174   1.253
10360SOL     OW31978   6.421   6.254   3.371
10360SOL    HW131979   6.510   6.214   3.351
10360SOL    HW231980   6.422   6.296   3.461
10361SOL     OW31981   1.925   4.776   1.561
10361SOL    HW131982   1.870   4.732   1.489
10361SOL    HW231983   1.880   4.860   1.591
10362SOL     OW31984   1.336   4.948   4.318
10362SOL    HW131985   1.246   4.924   4.356
10362SOL    HW231986   1.405   4.939   4.390
10363SOL     OW31987   5.936   0.176   3.624
10363SOL    HW131988   5.898   0.268   3.632
10363SOL    HW231989   5.890   0.127   3.549
10364SOL     OW31990   1.323   4.659   1.218
10364SOL    HW131991   1.315   4.711   1.303
10364SOL    HW231992   1.270   4.574   1.226
10365SOL     OW31993   4.534   5.929   7.019
10365SOL    HW131994   4.468   5.880   6.962
10365SOL    HW231995   4.563   5.870   0.068
10366SOL     OW31996   3.543   7.023   3.687
10366SOL    HW131997   3.566   0.019   3.782
10366SOL    HW231998   3.625   0.000   3.631
10367SOL     OW31999   6.617   2.151   2.823
10367SOL    HW132000   6.592   2.243   2.853
10367SOL    HW232001   6.544   2.087   2.846
10368SOL     OW32002   2.664   0.369   1.274
10368SOL    HW132003   2.575   0.382   1.230
10368SOL    HW232004   2.734   0.414   1.219
10369SOL     OW32005   4.546   3.133   0.134
10369SOL    HW132006   4.590   3.061   0.189
10369SOL    HW232007   4.451   3.107   0.115
10370SOL     OW32008   3.780   0.594   5.531
10370SOL    HW132009   3.774   0.630   5.438
10370SOL    HW232010   3.766   0.669   5.597
10371SOL     OW32011   5.090   6.473   5.675
10371SOL    HW132012   5.081   6.471   5.774
10371SOL    HW232013   5.072   6.566   5.641
10372SOL     OW32014   0.634   0.420   3.208
10372SOL    HW132015   0.660   0.344   3.268
10372SOL    HW232016   0.546   0.458   3.236
10373SOL     OW32017   1.485   5.473   5.086
10373SOL    HW132018   1.404   5.469   5.027
10373SOL    HW232019   1.473   5.545   5.154
10374SOL     OW32020   2.862   2.270   4.715
10374SOL    HW132021   2.939   2.273   4.779
10374SOL    HW232022   2.782   2.310   4.759
10375SOL     OW32023   0.069   2.118   0.506
10375SOL    HW132024   7.021   2.067   0.463
10375SOL    HW232025   0.032   2.186   0.569
10376SOL     OW32026   6.344   0.880   3.550
10376SOL    HW132027   6.290   0.811   3.503
10376SOL    HW232028   6.429   0.839   3.584
10377SOL     OW32029   0.622   6.830   4.333
10377SOL    HW132030   0.652   6.896   4.403
10377SOL    HW232031   0.547   6.870   4.281
10378SOL     OW32032   6.764   7.006   6.112
10378SOL    HW132033   6.711   0.016   6.189
10378SOL    HW232034   6.847   6.963   6.146
10379SOL     OW32035   5.433   1.740   4.749
10379SOL    HW132036   5.390   1.828   4.729
10379SOL    HW232037   5.456   1.694   4.663
10380SOL     OW32038   4.379   1.041   3.040
10380SOL    HW132039   4.398   0.944   3.055
10380SOL    HW232040   4.441   1.076   2.970
10381SOL     OW32041   4.063   5.279   5.110
10381SOL    HW132042   4.047   5.242   5.018
10381SOL    HW232043   4.117   5.214   5.163
10382SOL     OW32044   1.680   6.134   0.555
10382SOL    HW132045   1.737   6.068   0.506
10382SOL    HW232046   1.692   6.122   0.653
10383SOL     OW32047   5.793   2.865   6.698
10383SOL    HW132048   5.852   2.791   6.665
10383SOL    HW232049   5.814   2.884   6.794
10384SOL     OW32050   6.240   0.311   0.145
10384SOL    HW132051   6.305   0.385   0.130
10384SOL    HW232052   6.150   0.338   0.110
10385SOL     OW32053   5.642   2.379   6.989
10385SOL    HW132054   5.674   2.378   0.058
10385SOL    HW232055   5.721   2.379   6.928
10386SOL     OW32056   6.378   2.222   6.545
10386SOL    HW132057   6.349   2.138   6.499
10386SOL    HW232058   6.386   2.295   6.477
10387SOL     OW32059   2.125   3.600   2.615
10387SOL    HW132060   2.156   3.528   2.552
10387SOL    HW232061   2.094   3.679   2.563
10388SOL     OW32062   1.546   4.554   2.596
10388SOL    HW132063   1.486   4.563   2.516
10388SOL    HW232064   1.600   4.638   2.606
10389SOL     OW32065   0.402   5.524   3.253
10389SOL    HW132066   0.474   5.573   3.203
10389SOL    HW232067   0.433   5.502   3.345
10390SOL     OW32068   1.848   3.037   2.997
10390SOL    HW132069   1.914   2.974   2.956
10390SOL    HW232070   1.894   3.095   3.064
10391SOL     OW32071   3.357   6.261   4.953
10391SOL    HW132072   3.347   6.327   4.879
10391SOL    HW232073   3.284   6.193   4.947
10392SOL     OW32074   6.784   4.808   6.741
10392SOL    HW132075   6.873   4.840   6.773
10392SOL    HW232076   6.715   4.878   6.759
10393SOL     OW32077   1.359   1.194   3.862
10393SOL    HW132078   1.265   1.225   3.847
10393SOL    HW232079   1.423   1.262   3.827
10394SOL     OW32080   2.886   6.650   0.290
10394SOL    HW132081   2.876   6.612   0.198
10394SOL    HW232082   2.863   6.581   0.358
10395SOL     OW32083   1.149   1.493   4.851
10395SOL    HW132084   1.172   1.564   4.785
10395SOL    HW232085   1.052   1.501   4.876
10396SOL     OW32086   0.588   7.001   5.014
10396SOL    HW132087   0.581   6.942   5.095
10396SOL    HW232088   0.538   6.959   4.938
10397SOL     OW32089   3.942   2.142   2.515
10397SOL    HW132090   3.859   2.180   2.554
10397SOL    HW232091   3.967   2.058   2.563
10398SOL     OW32092   6.604   3.379   2.403
10398SOL    HW132093   6.651   3.339   2.481
10398SOL    HW232094   6.661   3.451   2.363
10399SOL     OW32095   5.973   2.676   5.539
10399SOL    HW132096   5.904   2.670   5.611
10399SOL    HW232097   5.992   2.773   5.520
10400SOL     OW32098   1.957   4.684   1.926
10400SOL    HW132099   2.003   4.681   1.837
10400SOL    HW232100   1.870   4.731   1.917
10401SOL     OW32101   0.739   5.880   0.824
10401SOL    HW132102   0.787   5.863   0.910
10401SOL    HW232103   0.645   5.908   0.843
10402SOL     OW32104   0.627   2.457   4.186
10402SOL    HW132105   0.566   2.477   4.262
10402SOL    HW232106   0.719   2.436   4.221
10403SOL     OW32107   4.487   1.220   2.241
10403SOL    HW132108   4.574   1.262   2.220
10403SOL    HW232109   4.435   1.205   2.157
10404SOL     OW32110   0.133   0.032   3.961
10404SOL    HW132111   0.089   0.091   3.894
10404SOL    HW232112   0.127   6.963   3.932
10405SOL     OW32113   2.305   6.449   6.762
10405SOL    HW132114   2.295   6.372   6.698
10405SOL    HW232115   2.216   6.490   6.779
10406SOL     OW32116   1.929   5.727   5.861
10406SOL    HW132117   1.971   5.637   5.875
10406SOL    HW232118   1.981   5.778   5.794
10407SOL     OW32119   1.992   1.516   5.935
10407SOL    HW132120   1.892   1.508   5.939
10407SOL    HW232121   2.027   1.457   5.862
10408SOL     OW32122   3.863   6.085   3.415
10408SOL    HW132123   3.916   6.168   3.397
10408SOL    HW232124   3.770   6.111   3.441
10409SOL     OW32125   6.816   4.511   2.172
10409SOL    HW132126   6.852   4.579   2.236
10409SOL    HW232127   6.790   4.428   2.221
10410SOL     OW32128   5.875   6.309   0.471
10410SOL    HW132129   5.909   6.376   0.537
10410SOL    HW232130   5.872   6.219   0.514
10411SOL     OW32131   1.753   4.353   2.625
10411SOL    HW132132   1.682   4.423   2.615
10411SOL    HW232133   1.787   4.354   2.719
10412SOL     OW32134   0.083   2.102   6.580
10412SOL    HW132135   0.053   2.197   6.573
10412SOL    HW232136   0.005   2.045   6.606
10413SOL     OW32137   0.180   2.216   5.853
10413SOL    HW132138   0.089   2.253   5.835
10413SOL    HW232139   0.180   2.167   5.940
10414SOL     OW32140   5.666   6.372   4.888
10414SOL    HW132141   5.641   6.351   4.983
10414SOL    HW232142   5.605   6.443   4.852
10415SOL     OW32143   0.263   5.462   3.040
10415SOL    HW132144   0.303   5.506   2.959
10415SOL    HW232145   0.312   5.490   3.122
10416SOL     OW32146   5.053   6.953   0.101
10416SOL    HW132147   5.085   7.025   0.039
10416SOL    HW232148   5.114   6.948   0.180
10417SOL     OW32149   4.097   4.855   4.279
10417SOL    HW132150   4.073   4.871   4.375
10417SOL    HW232151   4.164   4.782   4.273
10418SOL     OW32152   6.648   3.672   0.073
10418SOL    HW132153   6.556   3.633   0.076
10418SOL    HW232154   6.648   3.763   0.115
10419SOL     OW32155   2.020   0.835   4.235
10419SOL    HW132156   1.955   0.847   4.160
10419SOL    HW232157   1.994   0.753   4.288
10420SOL     OW32158   5.762   3.139   4.323
10420SOL    HW132159   5.804   3.110   4.409
10420SOL    HW232160   5.729   3.233   4.332
10421SOL     OW32161   1.577   4.478   3.884
10421SOL    HW132162   1.530   4.556   3.927
10421SOL    HW232163   1.646   4.443   3.947
10422SOL     OW32164   5.608   3.197   5.381
10422SOL    HW132165   5.648   3.282   5.416
10422SOL    HW232166   5.651   3.172   5.294
10423SOL     OW32167   2.689   5.321   3.943
10423SOL    HW132168   2.629   5.340   3.865
10423SOL    HW232169   2.638   5.336   4.028
10424SOL     OW32170   3.715   1.322   1.230
10424SOL    HW132171   3.674   1.251   1.287
10424SOL    HW232172   3.692   1.306   1.134
10425SOL     OW32173   1.660   3.843   0.597
10425SOL    HW132174   1.678   3.824   0.693
10425SOL    HW232175   1.656   3.757   0.546
10426SOL     OW32176   5.758   2.383   6.177
10426SOL    HW132177   5.819   2.425   6.109
10426SOL    HW232178   5.783   2.287   6.188
10427SOL     OW32179   5.697   0.956   3.187
10427SOL    HW132180   5.701   1.010   3.103
10427SOL    HW232181   5.778   0.974   3.242
10428SOL     OW32182   1.751   6.476   5.013
10428SOL    HW132183   1.806   6.542   5.063
10428SOL    HW232184   1.668   6.456   5.065
10429SOL     OW32185   1.553   3.779   1.743
10429SOL    HW132186   1.574   3.684   1.765
10429SOL    HW232187   1.628   3.838   1.775
10430SOL     OW32188   3.106   0.410   4.363
10430SOL    HW132189   3.160   0.347   4.308
10430SOL    HW232190   3.092   0.495   4.314
10431SOL     OW32191   4.172   1.414   4.256
10431SOL    HW132192   4.117   1.364   4.322
10431SOL    HW232193   4.253   1.360   4.231
10432SOL     OW32194   1.042   5.536   0.499
10432SOL    HW132195   0.973   5.485   0.550
10432SOL    HW232196   1.128   5.537   0.550
10433SOL     OW32197   3.916   6.455   3.737
10433SOL    HW132198   3.894   6.415   3.826
10433SOL    HW232199   3.833   6.460   3.681
10434SOL     OW32200   3.979   1.037   6.475
10434SOL    HW132201   4.034   1.025   6.557
10434SOL    HW232202   3.895   1.087   6.498
10435SOL     OW32203   2.719   1.808   1.297
10435SOL    HW132204   2.712   1.716   1.257
10435SOL    HW232205   2.726   1.876   1.223
10436SOL     OW32206   1.278   3.513   5.020
10436SOL    HW132207   1.224   3.445   4.970
10436SOL    HW232208   1.222   3.552   5.093
10437SOL     OW32209   7.002   6.327   5.079
10437SOL    HW132210   0.018   6.245   5.040
10437SOL    HW232211   0.036   6.365   5.150
10438SOL     OW32212   6.735   5.927   6.817
10438SOL    HW132213   6.793   5.995   6.862
10438SOL    HW232214   6.745   5.934   6.718
10439SOL     OW32215   6.369   5.449   4.719
10439SOL    HW132216   6.383   5.385   4.794
10439SOL    HW232217   6.330   5.534   4.754
10440SOL     OW32218   6.069   2.162   1.455
10440SOL    HW132219   6.132   2.120   1.520
10440SOL    HW232220   5.985   2.189   1.502
10441SOL     OW32221   4.431   1.883   7.012
10441SOL    HW132222   4.386   1.808   6.963
10441SOL    HW232223   4.526   1.890   6.982
10442SOL     OW32224   2.499   1.370   4.845
10442SOL    HW132225   2.447   1.429   4.906
10442SOL    HW232226   2.586   1.345   4.889
10443SOL     OW32227   1.032   0.540   0.607
10443SOL    HW132228   0.998   0.529   0.514
10443SOL    HW232229   1.028   0.452   0.655
10444SOL     OW32230   4.632   4.834   3.632
10444SOL    HW132231   4.631   4.846   3.731
10444SOL    HW232232   4.610   4.739   3.609
10445SOL     OW32233   1.326   3.132   3.879
10445SOL    HW132234   1.315   3.104   3.975
10445SOL    HW232235   1.286   3.223   3.866
10446SOL     OW32236   2.270   4.711   5.600
10446SOL    HW132237   2.181   4.754   5.582
10446SOL    HW232238   2.285   4.638   5.534
10447SOL     OW32239   0.875   1.835   2.829
10447SOL    HW132240   0.778   1.810   2.834
10447SOL    HW232241   0.928   1.755   2.801
10448SOL     OW32242   1.535   5.886   2.435
10448SOL    HW132243   1.435   5.884   2.423
10448SOL    HW232244   1.560   5.962   2.495
10449SOL     OW32245   4.024   5.064   4.143
10449SOL    HW132246   4.085   5.137   4.112
10449SOL    HW232247   4.075   4.998   4.198
10450SOL     OW32248   0.477   1.318   4.370
10450SOL    HW132249   0.460   1.415   4.384
10450SOL    HW232250   0.417   1.265   4.430
10451SOL     OW32251   3.448   1.981   4.392
10451SOL    HW132252   3.516   1.924   4.438
10451SOL    HW232253   3.493   2.036   4.321
10452SOL     OW32254   6.727   2.728   4.631
10452SOL    HW132255   6.797   2.796   4.609
10452SOL    HW232256   6.769   2.654   4.684
10453SOL     OW32257   4.062   6.009   4.167
10453SOL    HW132258   4.070   6.102   4.132
10453SOL    HW232259   3.970   5.994   4.203
10454SOL     OW32260   6.582   0.753   6.412
10454SOL    HW132261   6.494   0.800   6.408
10454SOL    HW232262   6.573   0.661   6.374
10455SOL     OW32263   0.015   5.736   2.738
10455SOL    HW132264   6.968   5.803   2.741
10455SOL    HW232265   0.056   5.735   2.647
10456SOL     OW32266   0.866   5.516   6.565
10456SOL    HW132267   0.786   5.459   6.583
10456SOL    HW232268   0.949   5.463   6.578
10457SOL     OW32269   3.925   1.583   6.644
10457SOL    HW132270   3.969   1.610   6.730
10457SOL    HW232271   3.967   1.498   6.610
10458SOL     OW32272   1.367   6.467   6.574
10458SOL    HW132273   1.325   6.523   6.503
10458SOL    HW232274   1.364   6.516   6.661
10459SOL     OW32275   6.264   5.735   1.048
10459SOL    HW132276   6.276   5.739   1.147
10459SOL    HW232277   6.225   5.821   1.016
10460SOL     OW32278   6.360   0.696   0.429
10460SOL    HW132279   6.323   0.771   0.484
10460SOL    HW232280   6.310   0.691   0.342
10461SOL     OW32281   6.785   4.534   6.306
10461SOL    HW132282   6.695   4.576   6.293
10461SOL    HW232283   6.784   4.474   6.385
10462SOL     OW32284   3.257   3.954   6.164
10462SOL    HW132285   3.345   3.998   6.184
10462SOL    HW232286   3.182   4.015   6.191
10463SOL     OW32287   5.029   2.852   6.552
10463SOL    HW132288   5.113   2.834   6.605
10463SOL    HW232289   5.044   2.826   6.457
10464SOL     OW32290   6.312   4.552   1.841
10464SOL    HW132291   6.240   4.493   1.803
10464SOL    HW232292   6.338   4.620   1.772
10465SOL     OW32293   5.890   4.974   1.217
10465SOL    HW132294   5.955   4.938   1.284
10465SOL    HW232295   5.851   5.060   1.251
10466SOL     OW32296   5.861   4.061   6.029
10466SOL    HW132297   5.942   4.012   5.995
10466SOL    HW232298   5.801   4.083   5.952
10467SOL     OW32299   6.988   2.448   6.777
10467SOL    HW132300   7.019   2.475   6.868
10467SOL    HW232301   6.932   2.366   6.784
10468SOL     OW32302   1.479   4.568   4.608
10468SOL    HW132303   1.513   4.642   4.550
10468SOL    HW232304   1.533   4.565   4.692
10469SOL     OW32305   0.871   1.559   3.746
10469SOL    HW132306   0.942   1.629   3.758
10469SOL    HW232307   0.807   1.563   3.823
10470SOL     OW32308   2.090   3.643   2.286
10470SOL    HW132309   2.057   3.712   2.351
10470SOL    HW232310   2.089   3.553   2.329
10471SOL     OW32311   2.213   5.752   6.421
10471SOL    HW132312   2.149   5.798   6.482
10471SOL    HW232313   2.276   5.695   6.474
10472SOL     OW32314   4.058   5.245   6.443
10472SOL    HW132315   4.006   5.222   6.525
10472SOL    HW232316   4.056   5.345   6.430
10473SOL     OW32317   6.477   4.630   0.821
10473SOL    HW132318   6.537   4.553   0.800
10473SOL    HW232319   6.402   4.633   0.755
10474SOL     OW32320   6.504   6.609   5.029
10474SOL    HW132321   6.576   6.631   4.963
10474SOL    HW232322   6.431   6.677   5.021
10475SOL     OW32323   0.992   5.521   1.490
10475SOL    HW132324   0.918   5.454   1.494
10475SOL    HW232325   1.049   5.504   1.410
10476SOL     OW32326   5.228   6.526   1.269
10476SOL    HW132327   5.180   6.503   1.185
10476SOL    HW232328   5.222   6.449   1.333
10477SOL     OW32329   6.858   5.735   3.773
10477SOL    HW132330   6.836   5.730   3.870
10477SOL    HW232331   6.940   5.790   3.760
10478SOL     OW32332   0.059   0.828   6.404
10478SOL    HW132333   7.008   0.767   6.388
10478SOL    HW232334   0.035   0.893   6.476
10479SOL     OW32335   0.479   3.055   2.181
10479SOL    HW132336   0.538   2.979   2.208
10479SOL    HW232337   0.444   3.102   2.262
10480SOL     OW32338   2.713   1.091   3.473
10480SOL    HW132339   2.685   1.174   3.520
10480SOL    HW232340   2.721   1.016   3.540
10481SOL     OW32341   6.549   1.557   1.014
10481SOL    HW132342   6.502   1.644   1.031
10481SOL    HW232343   6.617   1.542   1.086
10482SOL     OW32344   5.476   2.598   3.424
10482SOL    HW132345   5.481   2.500   3.440
10482SOL    HW232346   5.566   2.633   3.398
10483SOL     OW32347   6.151   6.759   0.404
10483SOL    HW132348   6.212   6.681   0.389
10483SOL    HW232349   6.056   6.729   0.395
10484SOL     OW32350   6.666   0.845   2.359
10484SOL    HW132351   6.652   0.751   2.329
10484SOL    HW232352   6.580   0.882   2.395
10485SOL     OW32353   4.977   3.175   5.008
10485SOL    HW132354   4.986   3.201   5.104
10485SOL    HW232355   5.065   3.140   4.974
10486SOL     OW32356   5.035   2.808   2.769
10486SOL    HW132357   5.087   2.788   2.852
10486SOL    HW232358   4.949   2.757   2.771
10487SOL     OW32359   4.902   0.062   2.358
10487SOL    HW132360   4.850   7.024   2.415
10487SOL    HW232361   4.999   0.039   2.363
10488SOL     OW32362   3.367   3.779   6.917
10488SOL    HW132363   3.410   3.729   6.992
10488SOL    HW232364   3.380   3.729   6.831
10489SOL     OW32365   1.837   5.637   5.382
10489SOL    HW132366   1.803   5.548   5.352
10489SOL    HW232367   1.776   5.675   5.451
10490SOL     OW32368   6.456   0.399   4.273
10490SOL    HW132369   6.406   0.486   4.266
10490SOL    HW232370   6.396   0.330   4.314
10491SOL     OW32371   0.210   5.179   5.327
10491SOL    HW132372   0.170   5.162   5.237
10491SOL    HW232373   0.234   5.091   5.370
10492SOL     OW32374   4.060   4.581   6.117
10492SOL    HW132375   4.155   4.601   6.093
10492SOL    HW232376   4.000   4.615   6.044
10493SOL     OW32377   3.617   1.339   0.931
10493SOL    HW132378   3.533   1.313   0.883
10493SOL    HW232379   3.675   1.258   0.943
10494SOL     OW32380   5.561   1.855   4.989
10494SOL    HW132381   5.531   1.781   4.929
10494SOL    HW232382   5.542   1.831   5.084
10495SOL     OW32383   1.726   6.841   0.505
10495SOL    HW132384   1.692   6.777   0.436
10495SOL    HW232385   1.689   6.817   0.594
10496SOL     OW32386   6.415   0.385   5.789
10496SOL    HW132387   6.390   0.481   5.803
10496SOL    HW232388   6.512   0.372   5.806
10497SOL     OW32389   0.899   1.697   6.794
10497SOL    HW132390   0.967   1.630   6.822
10497SOL    HW232391   0.836   1.655   6.728
10498SOL     OW32392   3.114   4.597   5.960
10498SOL    HW132393   3.169   4.674   5.992
10498SOL    HW232394   3.017   4.618   5.970
10499SOL     OW32395   2.872   5.132   3.295
10499SOL    HW132396   2.789   5.173   3.257
10499SOL    HW232397   2.953   5.172   3.252
10500SOL     OW32398   2.129   2.165   6.702
10500SOL    HW132399   2.197   2.231   6.667
10500SOL    HW232400   2.038   2.204   6.692
10501SOL     OW32401   1.207   2.417   3.311
10501SOL    HW132402   1.168   2.423   3.403
10501SOL    HW232403   1.288   2.358   3.313
10502SOL     OW32404   2.907   5.957   5.061
10502SOL    HW132405   2.859   6.036   5.023
10502SOL    HW232406   2.840   5.891   5.096
10503SOL     OW32407   2.700   3.394   5.332
10503SOL    HW132408   2.659   3.380   5.242
10503SOL    HW232409   2.641   3.352   5.402
10504SOL     OW32410   2.465   3.557   1.279
10504SOL    HW132411   2.414   3.532   1.361
10504SOL    HW232412   2.528   3.633   1.300
10505SOL     OW32413   0.277   0.382   1.132
10505SOL    HW132414   0.298   0.419   1.222
10505SOL    HW232415   0.178   0.378   1.120
10506SOL     OW32416   0.090   3.692   5.478
10506SOL    HW132417   0.150   3.718   5.402
10506SOL    HW232418   0.037   3.611   5.453
10507SOL     OW32419   1.391   0.131   3.976
10507SOL    HW132420   1.407   0.065   4.049
10507SOL    HW232421   1.402   0.223   4.012
10508SOL     OW32422   5.402   3.527   2.523
10508SOL    HW132423   5.356   3.438   2.521
10508SOL    HW232424   5.359   3.588   2.457
10509SOL     OW32425   1.739   0.745   6.159
10509SOL    HW132426   1.793   0.682   6.103
10509SOL    HW232427   1.739   0.836   6.116
10510SOL     OW32428   5.801   6.870   6.745
10510SOL    HW132429   5.724   6.880   6.682
10510SOL    HW232430   5.884   6.849   6.693
10511SOL     OW32431   0.428   1.878   0.898
10511SOL    HW132432   0.500   1.933   0.857
10511SOL    HW232433   0.380   1.932   0.968
10512SOL     OW32434   3.248   6.338   6.493
10512SOL    HW132435   3.154   6.347   6.526
10512SOL    HW232436   3.282   6.428   6.465
10513SOL     OW32437   0.200   1.922   0.670
10513SOL    HW132438   0.298   1.915   0.690
10513SOL    HW232439   0.183   2.006   0.619
10514SOL     OW32440   6.741   3.686   1.393
10514SOL    HW132441   6.829   3.676   1.439
10514SOL    HW232442   6.670   3.706   1.460
10515SOL     OW32443   6.274   2.454   4.180
10515SOL    HW132444   6.275   2.499   4.269
10515SOL    HW232445   6.202   2.494   4.123
10516SOL     OW32446   3.175   0.308   0.646
10516SOL    HW132447   3.082   0.301   0.680
10516SOL    HW232448   3.199   0.404   0.634
10517SOL     OW32449   6.919   2.540   2.915
10517SOL    HW132450   6.904   2.461   2.856
10517SOL    HW232451   6.943   2.509   3.007
10518SOL     OW32452   0.473   6.832   2.778
10518SOL    HW132453   0.545   6.776   2.820
10518SOL    HW232454   0.495   6.848   2.682
10519SOL     OW32455   3.173   3.642   5.472
10519SOL    HW132456   3.077   3.620   5.458
10519SOL    HW232457   3.229   3.589   5.409
10520SOL     OW32458   3.590   4.515   6.415
10520SOL    HW132459   3.505   4.565   6.431
10520SOL    HW232460   3.570   4.430   6.366
10521SOL     OW32461   6.520   5.293   1.959
10521SOL    HW132462   6.474   5.284   2.048
10521SOL    HW232463   6.614   5.258   1.967
10522SOL     OW32464   6.296   0.330   2.001
10522SOL    HW132465   6.208   0.371   2.025
10522SOL    HW232466   6.325   0.268   2.074
10523SOL     OW32467   0.174   5.846   6.799
10523SOL    HW132468   0.106   5.783   6.836
10523SOL    HW232469   0.212   5.901   6.874
10524SOL     OW32470   4.637   0.730   4.394
10524SOL    HW132471   4.657   0.825   4.420
10524SOL    HW232472   4.723   0.683   4.376
10525SOL     OW32473   2.972   6.304   5.211
10525SOL    HW132474   3.007   6.373   5.274
10525SOL    HW232475   3.045   6.239   5.188
10526SOL     OW32476   5.356   0.056   2.073
10526SOL    HW132477   5.319   0.146   2.096
10526SOL    HW232478   5.285   7.026   2.031
10527SOL     OW32479   1.754   2.511   4.591
10527SOL    HW132480   1.663   2.512   4.549
10527SOL    HW232481   1.790   2.604   4.595
10528SOL     OW32482   6.014   4.644   5.671
10528SOL    HW132483   5.937   4.702   5.645
10528SOL    HW232484   6.081   4.699   5.721
10529SOL     OW32485   6.979   6.238   4.236
10529SOL    HW132486   6.951   6.303   4.307
10529SOL    HW232487   6.904   6.224   4.172
10530SOL     OW32488   2.544   1.904   5.615
10530SOL    HW132489   2.547   1.927   5.712
10530SOL    HW232490   2.503   1.814   5.603
10531SOL     OW32491   1.712   2.024   6.016
10531SOL    HW132492   1.779   1.951   6.004
10531SOL    HW232493   1.751   2.097   6.072
10532SOL     OW32494   3.519   3.049   5.395
10532SOL    HW132495   3.446   3.040   5.463
10532SOL    HW232496   3.482   3.032   5.304
10533SOL     OW32497   2.948   1.214   6.202
10533SOL    HW132498   2.974   1.229   6.106
10533SOL    HW232499   3.030   1.193   6.255
10534SOL     OW32500   5.721   5.910   1.134
10534SOL    HW132501   5.757   5.829   1.180
10534SOL    HW232502   5.671   5.966   1.199
10535SOL     OW32503   0.581   1.296   2.311
10535SOL    HW132504   0.595   1.384   2.357
10535SOL    HW232505   0.557   1.226   2.378
10536SOL     OW32506   5.295   6.395   3.974
10536SOL    HW132507   5.321   6.467   4.037
10536SOL    HW232508   5.348   6.312   3.993
10537SOL     OW32509   0.043   5.548   1.763
10537SOL    HW132510   6.974   5.530   1.738
10537SOL    HW232511   0.045   5.618   1.834
10538SOL     OW32512   4.609   4.400   6.607
10538SOL    HW132513   4.518   4.359   6.616
10538SOL    HW232514   4.667   4.366   6.681
10539SOL     OW32515   0.905   3.511   5.679
10539SOL    HW132516   0.989   3.466   5.650
10539SOL    HW232517   0.828   3.477   5.625
10540SOL     OW32518   2.999   0.777   0.179
10540SOL    HW132519   2.994   0.786   0.079
10540SOL    HW232520   2.982   0.682   0.204
10541SOL     OW32521   4.804   2.345   0.286
10541SOL    HW132522   4.753   2.428   0.308
10541SOL    HW232523   4.759   2.266   0.327
10542SOL     OW32524   1.424   2.384   0.399
10542SOL    HW132525   1.353   2.351   0.460
10542SOL    HW232526   1.512   2.385   0.447
10543SOL     OW32527   2.515   1.001   5.091
10543SOL    HW132528   2.449   0.979   5.019
10543SOL    HW232529   2.608   0.985   5.057
10544SOL     OW32530   0.042   2.638   1.377
10544SOL    HW132531   0.098   2.623   1.459
10544SOL    HW232532   0.014   2.734   1.372
10545SOL     OW32533   5.071   0.675   3.380
10545SOL    HW132534   5.136   0.725   3.437
10545SOL    HW232535   5.042   0.592   3.427
10546SOL     OW32536   4.053   1.217   5.177
10546SOL    HW132537   4.001   1.228   5.262
10546SOL    HW232538   4.009   1.149   5.119
10547SOL     OW32539   3.797   0.355   1.046
10547SOL    HW132540   3.822   0.290   0.974
10547SOL    HW232541   3.701   0.341   1.071
10548SOL     OW32542   4.601   4.617   5.054
10548SOL    HW132543   4.504   4.595   5.042
10548SOL    HW232544   4.645   4.621   4.964
10549SOL     OW32545   1.088   1.521   1.615
10549SOL    HW132546   1.166   1.523   1.678
10549SOL    HW232547   1.117   1.484   1.527
10550SOL     OW32548   5.658   6.952   4.735
10550SOL    HW132549   5.675   7.019   4.807
10550SOL    HW232550   5.724   6.966   4.661
10551SOL     OW32551   1.422   2.612   6.170
10551SOL    HW132552   1.340   2.566   6.137
10551SOL    HW232553   1.433   2.597   6.268
10552SOL     OW32554   3.483   2.031   5.014
10552SOL    HW132555   3.408   2.097   5.018
10552SOL    HW232556   3.521   2.028   4.922
10553SOL     OW32557   3.285   5.050   5.726
10553SOL    HW132558   3.203   5.014   5.681
10553SOL    HW232559   3.267   5.143   5.759
10554SOL     OW32560   6.157   4.373   5.723
10554SOL    HW132561   6.088   4.445   5.729
10554SOL    HW232562   6.118   4.292   5.680
10555SOL     OW32563   3.642   2.444   0.779
10555SOL    HW132564   3.645   2.448   0.879
10555SOL    HW232565   3.628   2.349   0.750
10556SOL     OW32566   1.947   3.378   4.172
10556SOL    HW132567   2.021   3.317   4.148
10556SOL    HW232568   1.893   3.400   4.090
10557SOL     OW32569   5.804   1.417   3.502
10557SOL    HW132570   5.801   1.405   3.403
10557SOL    HW232571   5.830   1.511   3.523
10558SOL     OW32572   5.642   5.914   4.552
10558SOL    HW132573   5.617   5.906   4.455
10558SOL    HW232574   5.560   5.922   4.607
10559SOL     OW32575   4.484   2.698   0.845
10559SOL    HW132576   4.467   2.783   0.895
10559SOL    HW232577   4.499   2.624   0.911
10560SOL     OW32578   0.453   3.011   4.224
10560SOL    HW132579   0.540   3.061   4.217
10560SOL    HW232580   0.435   2.989   4.320
10561SOL     OW32581   3.011   4.360   6.055
10561SOL    HW132582   2.986   4.329   5.964
10561SOL    HW232583   3.068   4.442   6.048
10562SOL     OW32584   3.506   1.542   0.688
10562SOL    HW132585   3.474   1.494   0.606
10562SOL    HW232586   3.427   1.572   0.742
10563SOL     OW32587   1.427   1.893   3.570
10563SOL    HW132588   1.395   1.979   3.611
10563SOL    HW232589   1.490   1.848   3.633
10564SOL     OW32590   0.089   2.306   2.102
10564SOL    HW132591   0.185   2.287   2.126
10564SOL    HW232592   0.077   2.295   2.004
10565SOL     OW32593   5.452   1.577   5.144
10565SOL    HW132594   5.385   1.581   5.069
10565SOL    HW232595   5.516   1.502   5.127
10566SOL     OW32596   4.322   5.281   0.361
10566SOL    HW132597   4.241   5.307   0.413
10566SOL    HW232598   4.373   5.212   0.411
10567SOL     OW32599   2.086   4.871   4.214
10567SOL    HW132600   2.137   4.957   4.214
10567SOL    HW232601   2.039   4.861   4.126
10568SOL     OW32602   3.649   1.767   2.914
10568SOL    HW132603   3.720   1.699   2.892
10568SOL    HW232604   3.690   1.843   2.964
10569SOL     OW32605   5.942   2.872   3.449
10569SOL    HW132606   6.000   2.917   3.517
10569SOL    HW232607   5.985   2.786   3.420
10570SOL     OW32608   1.259   4.336   1.862
10570SOL    HW132609   1.270   4.410   1.929
10570SOL    HW232610   1.246   4.376   1.771
10571SOL     OW32611   6.064   6.453   4.676
10571SOL    HW132612   6.006   6.428   4.753
10571SOL    HW232613   6.153   6.484   4.711
10572SOL     OW32614   6.646   3.398   1.635
10572SOL    HW132615   6.737   3.364   1.610
10572SOL    HW232616   6.586   3.320   1.656
10573SOL     OW32617   6.237   4.375   6.425
10573SOL    HW132618   6.143   4.354   6.398
10573SOL    HW232619   6.295   4.372   6.344
10574SOL     OW32620   0.798   1.810   3.433
10574SOL    HW132621   0.800   1.714   3.403
10574SOL    HW232622   0.802   1.814   3.533
10575SOL     OW32623   0.552   6.871   6.004
10575SOL    HW132624   0.629   6.878   6.066
10575SOL    HW232625   0.485   6.806   6.041
10576SOL     OW32626   1.395   5.178   3.315
10576SOL    HW132627   1.379   5.086   3.352
10576SOL    HW232628   1.345   5.245   3.369
10577SOL     OW32629   0.559   3.303   5.716
10577SOL    HW132630   0.621   3.227   5.734
10577SOL    HW232631   0.528   3.343   5.802
10578SOL     OW32632   5.329   1.175   5.703
10578SOL    HW132633   5.303   1.205   5.612
10578SOL    HW232634   5.251   1.186   5.765
10579SOL     OW32635   4.954   0.119   0.968
10579SOL    HW132636   4.869   0.090   1.013
10579SOL    HW232637   5.025   0.133   1.037
10580SOL     OW32638   6.822   6.237   0.663
10580SOL    HW132639   6.731   6.233   0.705
10580SOL    HW232640   6.845   6.147   0.626
10581SOL     OW32641   4.693   1.973   3.715
10581SOL    HW132642   4.787   1.944   3.732
10581SOL    HW232643   4.691   2.071   3.697
10582SOL     OW32644   3.746   4.835   0.469
10582SOL    HW132645   3.730   4.872   0.561
10582SOL    HW232646   3.665   4.853   0.412
10583SOL     OW32647   4.008   1.068   1.084
10583SOL    HW132648   4.102   1.049   1.056
10583SOL    HW232649   4.009   1.130   1.163
10584SOL     OW32650   6.435   6.996   1.348
10584SOL    HW132651   6.530   6.993   1.377
10584SOL    HW232652   6.381   0.022   1.414
10585SOL     OW32653   2.260   4.315   6.486
10585SOL    HW132654   2.321   4.325   6.408
10585SOL    HW232655   2.218   4.224   6.484
10586SOL     OW32656   4.963   1.682   0.243
10586SOL    HW132657   4.949   1.639   0.333
10586SOL    HW232658   5.061   1.692   0.226
10587SOL     OW32659   5.779   3.687   0.692
10587SOL    HW132660   5.692   3.667   0.647
10587SOL    HW232661   5.848   3.708   0.623
10588SOL     OW32662   1.650   4.874   3.607
10588SOL    HW132663   1.554   4.903   3.604
10588SOL    HW232664   1.694   4.897   3.520
10589SOL     OW32665   6.076   1.129   4.425
10589SOL    HW132666   6.155   1.153   4.368
10589SOL    HW232667   5.993   1.133   4.370
10590SOL     OW32668   1.467   0.436   5.105
10590SOL    HW132669   1.507   0.394   5.187
10590SOL    HW232670   1.407   0.511   5.131
10591SOL     OW32671   1.473   2.313   0.920
10591SOL    HW132672   1.459   2.234   0.980
10591SOL    HW232673   1.505   2.391   0.975
10592SOL     OW32674   6.091   1.500   6.786
10592SOL    HW132675   6.001   1.541   6.773
10592SOL    HW232676   6.150   1.563   6.836
10593SOL     OW32677   1.421   4.794   1.851
10593SOL    HW132678   1.353   4.759   1.916
10593SOL    HW232679   1.430   4.893   1.863
10594SOL     OW32680   0.831   1.623   4.371
10594SOL    HW132681   0.922   1.638   4.332
10594SOL    HW232682   0.783   1.553   4.318
10595SOL     OW32683   2.430   5.308   5.044
10595SOL    HW132684   2.390   5.272   4.960
10595SOL    HW232685   2.404   5.250   5.121
10596SOL     OW32686   3.583   0.766   2.276
10596SOL    HW132687   3.504   0.732   2.225
10596SOL    HW232688   3.652   0.800   2.212
10597SOL     OW32689   2.095   0.522   3.657
10597SOL    HW132690   2.112   0.522   3.559
10597SOL    HW232691   2.182   0.529   3.706
10598SOL     OW32692   2.044   1.455   6.862
10598SOL    HW132693   2.065   1.357   6.862
10598SOL    HW232694   2.122   1.506   6.899
10599SOL     OW32695   5.040   0.223   6.652
10599SOL    HW132696   4.981   0.263   6.722
10599SOL    HW232697   5.075   0.135   6.685
10600SOL     OW32698   1.425   2.244   5.375
10600SOL    HW132699   1.489   2.306   5.330
10600SOL    HW232700   1.472   2.160   5.400
10601SOL     OW32701   3.546   5.667   5.476
10601SOL    HW132702   3.557   5.685   5.573
10601SOL    HW232703   3.455   5.628   5.459
10602SOL     OW32704   4.652   1.001   1.358
10602SOL    HW132705   4.705   1.055   1.293
10602SOL    HW232706   4.617   0.919   1.312
10603SOL     OW32707   0.912   4.901   4.677
10603SOL    HW132708   0.832   4.950   4.641
10603SOL    HW232709   0.969   4.965   4.729
10604SOL     OW32710   6.786   4.344   5.338
10604SOL    HW132711   6.718   4.409   5.374
10604SOL    HW232712   6.742   4.283   5.272
10605SOL     OW32713   1.930   5.097   5.836
10605SOL    HW132714   1.842   5.077   5.878
10605SOL    HW232715   1.979   5.163   5.892
10606SOL     OW32716   0.690   0.859   2.920
10606SOL    HW132717   0.786   0.887   2.914
10606SOL    HW232718   0.632   0.927   2.877
10607SOL     OW32719   5.718   5.068   6.599
10607SOL    HW132720   5.786   5.000   6.574
10607SOL    HW232721   5.626   5.033   6.579
10608SOL     OW32722   5.665   0.765   2.596
10608SOL    HW132723   5.679   0.711   2.513
10608SOL    HW232724   5.717   0.850   2.589
10609SOL     OW32725   3.896   6.844   2.013
10609SOL    HW132726   3.955   6.913   1.971
10609SOL    HW232727   3.829   6.889   2.072
10610SOL     OW32728   1.911   3.856   4.311
10610SOL    HW132729   1.887   3.952   4.296
10610SOL    HW232730   1.995   3.850   4.364
10611SOL     OW32731   5.231   2.460   6.233
10611SOL    HW132732   5.143   2.413   6.230
10611SOL    HW232733   5.222   2.551   6.194
10612SOL     OW32734   1.497   6.646   0.931
10612SOL    HW132735   1.482   6.745   0.931
10612SOL    HW232736   1.504   6.613   0.837
10613SOL     OW32737   0.393   6.697   6.407
10613SOL    HW132738   0.422   6.606   6.439
10613SOL    HW232739   0.306   6.689   6.359
10614SOL     OW32740   6.886   1.190   4.200
10614SOL    HW132741   6.804   1.232   4.239
10614SOL    HW232742   6.942   1.154   4.275
10615SOL     OW32743   6.759   5.755   5.386
10615SOL    HW132744   6.747   5.721   5.293
10615SOL    HW232745   6.822   5.833   5.386
10616SOL     OW32746   2.616   5.733   0.472
10616SOL    HW132747   2.710   5.746   0.440
10616SOL    HW232748   2.573   5.660   0.420
10617SOL     OW32749   6.954   1.922   6.841
10617SOL    HW132750   7.004   1.840   6.870
10617SOL    HW232751   6.919   1.909   6.749
10618SOL     OW32752   6.388   4.018   1.288
10618SOL    HW132753   6.344   3.929   1.276
10618SOL    HW232754   6.469   4.024   1.229
10619SOL     OW32755   0.363   4.111   3.307
10619SOL    HW132756   0.335   4.152   3.394
10619SOL    HW232757   0.283   4.072   3.261
10620SOL     OW32758   1.148   5.277   4.341
10620SOL    HW132759   1.244   5.257   4.363
10620SOL    HW232760   1.096   5.282   4.426
10621SOL     OW32761   2.694   6.188   0.449
10621SOL    HW132762   2.623   6.153   0.510
10621SOL    HW232763   2.651   6.235   0.372
10622SOL     OW32764   4.544   1.916   1.263
10622SOL    HW132765   4.575   2.008   1.239
10622SOL    HW232766   4.592   1.885   1.345
10623SOL     OW32767   7.000   1.027   4.383
10623SOL    HW132768   0.028   1.034   4.466
10623SOL    HW232769   6.997   0.931   4.353
10624SOL     OW32770   2.890   1.467   4.687
10624SOL    HW132771   2.795   1.486   4.663
10624SOL    HW232772   2.929   1.547   4.733
10625SOL     OW32773   0.641   3.362   0.174
10625SOL    HW132774   0.673   3.294   0.107
10625SOL    HW232775   0.602   3.441   0.126
10626SOL     OW32776   5.914   2.143   1.824
10626SOL    HW132777   5.947   2.049   1.832
10626SOL    HW232778   5.868   2.156   1.737
10627SOL     OW32779   6.041   5.709   4.696
10627SOL    HW132780   5.977   5.721   4.620
10627SOL    HW232781   5.995   5.736   4.781
10628SOL     OW32782   0.260   5.822   5.943
10628SOL    HW132783   0.181   5.874   5.913
10628SOL    HW232784   0.239   5.724   5.939
10629SOL     OW32785   2.751   5.098   6.289
10629SOL    HW132786   2.797   5.116   6.202
10629SOL    HW232787   2.802   5.030   6.340
10630SOL     OW32788   6.647   0.612   2.638
10630SOL    HW132789   6.576   0.661   2.688
10630SOL    HW232790   6.737   0.634   2.676
10631SOL     OW32791   0.839   6.885   4.763
10631SOL    HW132792   0.784   6.803   4.776
10631SOL    HW232793   0.866   6.921   4.853
10632SOL     OW32794   0.334   3.189   5.597
10632SOL    HW132795   0.269   3.265   5.596
10632SOL    HW232796   0.426   3.224   5.618
10633SOL     OW32797   1.269   5.022   1.090
10633SOL    HW132798   1.202   4.956   1.056
10633SOL    HW232799   1.269   5.102   1.030
10634SOL     OW32800   4.142   6.614   1.561
10634SOL    HW132801   4.147   6.589   1.658
10634SOL    HW232802   4.119   6.533   1.507
10635SOL     OW32803   1.524   1.044   1.497
10635SOL    HW132804   1.586   0.966   1.503
10635SOL    HW232805   1.459   1.031   1.422
10636SOL     OW32806   6.324   1.217   0.767
10636SOL    HW132807   6.304   1.305   0.724
10636SOL    HW232808   6.405   1.226   0.825
10637SOL     OW32809   3.973   4.622   5.830
10637SOL    HW132810   3.925   4.702   5.793
10637SOL    HW232811   4.032   4.583   5.760
10638SOL     OW32812   6.934   0.388   5.811
10638SOL    HW132813   6.937   0.368   5.910
10638SOL    HW232814   7.026   0.405   5.778
10639SOL     OW32815   3.291   1.606   5.339
10639SOL    HW132816   3.271   1.621   5.436
10639SOL    HW232817   3.349   1.680   5.305
10640SOL     OW32818   4.396   6.309   1.042
10640SOL    HW132819   4.358   6.225   1.081
10640SOL    HW232820   4.462   6.349   1.105
10641SOL     OW32821   4.210   0.997   6.646
10641SOL    HW132822   4.241   1.092   6.649
10641SOL    HW232823   4.270   0.944   6.586
10642SOL     OW32824   0.024   4.322   0.598
10642SOL    HW132825   0.106   4.366   0.632
10642SOL    HW232826   7.001   4.384   0.538
10643SOL     OW32827   4.034   3.227   5.568
10643SOL    HW132828   4.112   3.288   5.554
10643SOL    HW232829   3.973   3.231   5.489
10644SOL     OW32830   3.948   1.321   4.801
10644SOL    HW132831   3.850   1.345   4.802
10644SOL    HW232832   4.000   1.397   4.762
10645SOL     OW32833   2.063   6.849   5.068
10645SOL    HW132834   2.014   6.934   5.050
10645SOL    HW232835   2.057   6.789   4.988
10646SOL     OW32836   1.184   4.244   6.650
10646SOL    HW132837   1.206   4.328   6.699
10646SOL    HW232838   1.119   4.190   6.702
10647SOL     OW32839   0.470   5.824   0.888
10647SOL    HW132840   0.395   5.852   0.949
10647SOL    HW232841   0.472   5.725   0.881
10648SOL     OW32842   4.604   5.195   6.660
10648SOL    HW132843   4.507   5.203   6.636
10648SOL    HW232844   4.647   5.286   6.654
10649SOL     OW32845   7.023   4.618   6.022
10649SOL    HW132846   6.961   4.692   6.047
10649SOL    HW232847   0.027   4.570   6.104
10650SOL     OW32848   3.480   0.879   5.124
10650SOL    HW132849   3.548   0.936   5.170
10650SOL    HW232850   3.392   0.889   5.169
10651SOL     OW32851   2.753   0.070   5.579
10651SOL    HW132852   2.721   0.061   5.673
10651SOL    HW232853   2.827   0.137   5.576
10652SOL     OW32854   4.081   1.200   0.543
10652SOL    HW132855   4.163   1.213   0.488
10652SOL    HW232856   4.010   1.157   0.486
10653SOL     OW32857   5.889   2.800   4.161
10653SOL    HW132858   5.902   2.808   4.260
10653SOL    HW232859   5.869   2.891   4.123
10654SOL     OW32860   4.455   0.961   1.557
10654SOL    HW132861   4.391   0.894   1.520
10654SOL    HW232862   4.514   0.994   1.483
10655SOL     OW32863   2.907   5.485   1.299
10655SOL    HW132864   2.987   5.424   1.291
10655SOL    HW232865   2.824   5.434   1.277
10656SOL     OW32866   6.487   2.721   6.667
10656SOL    HW132867   6.550   2.655   6.627
10656SOL    HW232868   6.414   2.672   6.715
10657SOL     OW32869   6.164   0.225   1.637
10657SOL    HW132870   6.246   0.270   1.602
10657SOL    HW232871   6.091   0.292   1.647
10658SOL     OW32872   0.474   6.851   4.782
10658SOL    HW132873   0.474   6.900   4.695
10658SOL    HW232874   0.541   6.777   4.779
10659SOL     OW32875   5.161   0.911   0.581
10659SOL    HW132876   5.102   0.833   0.559
10659SOL    HW232877   5.241   0.910   0.520
10660SOL     OW32878   5.426   5.524   5.623
10660SOL    HW132879   5.346   5.575   5.653
10660SOL    HW232880   5.400   5.458   5.553
10661SOL     OW32881   0.584   0.521   2.216
10661SOL    HW132882   0.671   0.544   2.259
10661SOL    HW232883   0.561   0.590   2.147
10662SOL     OW32884   6.253   1.673   0.512
10662SOL    HW132885   6.160   1.696   0.540
10662SOL    HW232886   6.300   1.755   0.478
10663SOL     OW32887   0.544   1.311   0.461
10663SOL    HW132888   0.636   1.280   0.440
10663SOL    HW232889   0.547   1.403   0.500
10664SOL     OW32890   1.969   5.249   6.070
10664SOL    HW132891   1.986   5.286   6.161
10664SOL    HW232892   1.883   5.288   6.034
10665SOL     OW32893   5.531   1.240   6.899
10665SOL    HW132894   5.505   1.278   6.988
10665SOL    HW232895   5.460   1.176   6.868
10666SOL     OW32896   0.577   0.035   0.591
10666SOL    HW132897   0.493   0.088   0.581
10666SOL    HW232898   0.583   6.992   0.520
10667SOL     OW32899   3.389   2.493   5.751
10667SOL    HW132900   3.376   2.558   5.677
10667SOL    HW232901   3.305   2.486   5.805
10668SOL     OW32902   2.441   0.683   6.516
10668SOL    HW132903   2.502   0.763   6.510
10668SOL    HW232904   2.405   0.662   6.425
10669SOL     OW32905   0.903   6.653   6.634
10669SOL    HW132906   0.896   6.748   6.665
10669SOL    HW232907   0.996   6.635   6.602
10670SOL     OW32908   6.528   4.191   4.918
10670SOL    HW132909   6.578   4.274   4.894
10670SOL    HW232910   6.585   4.135   4.979
10671SOL     OW32911   1.828   1.909   3.209
10671SOL    HW132912   1.793   1.900   3.302
10671SOL    HW232913   1.802   1.829   3.155
10672SOL     OW32914   0.039   2.673   0.952
10672SOL    HW132915   0.122   2.721   0.980
10672SOL    HW232916   7.015   2.729   0.886
10673SOL     OW32917   3.363   3.467   4.593
10673SOL    HW132918   3.346   3.369   4.606
10673SOL    HW232919   3.286   3.509   4.546
10674SOL     OW32920   3.705   1.484   2.686
10674SOL    HW132921   3.739   1.390   2.692
10674SOL    HW232922   3.702   1.512   2.590
10675SOL     OW32923   0.722   1.034   6.029
10675SOL    HW132924   0.771   1.093   5.965
10675SOL    HW232925   0.779   1.020   6.110
10676SOL     OW32926   6.730   0.218   6.915
10676SOL    HW132927   6.722   0.119   6.913
10676SOL    HW232928   6.741   0.249   7.010
10677SOL     OW32929   6.299   1.051   0.561
10677SOL    HW132930   6.389   1.035   0.522
10677SOL    HW232931   6.308   1.110   0.642
10678SOL     OW32932   1.759   5.384   3.794
10678SOL    HW132933   1.793   5.438   3.718
10678SOL    HW232934   1.659   5.379   3.790
10679SOL     OW32935   5.413   5.117   3.457
10679SOL    HW132936   5.454   5.135   3.547
10679SOL    HW232937   5.422   5.019   3.436
10680SOL     OW32938   1.151   2.641   3.822
10680SOL    HW132939   1.206   2.724   3.817
10680SOL    HW232940   1.132   2.607   3.730
10681SOL     OW32941   0.289   2.336   6.372
10681SOL    HW132942   0.238   2.421   6.375
10681SOL    HW232943   0.230   2.260   6.397
10682SOL     OW32944   6.491   1.710   2.709
10682SOL    HW132945   6.496   1.645   2.633
10682SOL    HW232946   6.416   1.685   2.771
10683SOL     OW32947   1.455   0.349   4.239
10683SOL    HW132948   1.484   0.253   4.243
10683SOL    HW232949   1.535   0.406   4.219
10684SOL     OW32950   5.568   6.007   0.326
10684SOL    HW132951   5.524   5.956   0.400
10684SOL    HW232952   5.627   5.945   0.274
10685SOL     OW32953   6.099   2.901   2.365
10685SOL    HW132954   6.157   2.823   2.346
10685SOL    HW232955   6.133   2.981   2.316
10686SOL     OW32956   4.550   4.562   0.587
10686SOL    HW132957   4.523   4.466   0.584
10686SOL    HW232958   4.473   4.618   0.618
10687SOL     OW32959   6.502   5.370   1.229
10687SOL    HW132960   6.438   5.366   1.152
10687SOL    HW232961   6.576   5.305   1.214
10688SOL     OW32962   0.192   5.095   1.093
10688SOL    HW132963   0.283   5.076   1.056
10688SOL    HW232964   0.123   5.075   1.023
10689SOL     OW32965   0.921   0.186   1.198
10689SOL    HW132966   0.827   0.214   1.180
10689SOL    HW232967   0.926   0.087   1.205
10690SOL     OW32968   4.452   6.037   2.868
10690SOL    HW132969   4.495   5.970   2.807
10690SOL    HW232970   4.394   5.989   2.934
10691SOL     OW32971   6.243   1.544   1.783
10691SOL    HW132972   6.205   1.453   1.801
10691SOL    HW232973   6.231   1.566   1.686
10692SOL     OW32974   6.133   6.334   3.962
10692SOL    HW132975   6.108   6.295   4.051
10692SOL    HW232976   6.109   6.269   3.889
10693SOL     OW32977   5.233   2.629   3.564
10693SOL    HW132978   5.326   2.622   3.527
10693SOL    HW232979   5.228   2.582   3.652
10694SOL     OW32980   2.951   6.507   0.699
10694SOL    HW132981   2.895   6.505   0.781
10694SOL    HW232982   2.976   6.602   0.677
10695SOL     OW32983   5.559   2.930   5.459
10695SOL    HW132984   5.575   2.934   5.558
10695SOL    HW232985   5.557   3.023   5.421
10696SOL     OW32986   6.383   6.933   1.688
10696SOL    HW132987   6.435   6.859   1.645
10696SOL    HW232988   6.444   7.008   1.713
10697SOL     OW32989   1.744   6.387   2.938
10697SOL    HW132990   1.743   6.432   3.027
10697SOL    HW232991   1.747   6.457   2.866
10698SOL     OW32992   3.299   0.893   4.032
10698SOL    HW132993   3.200   0.905   4.040
10698SOL    HW232994   3.343   0.982   4.022
10699SOL     OW32995   2.128   2.134   3.397
10699SOL    HW132996   2.128   2.037   3.421
10699SOL    HW232997   2.064   2.151   3.323
10700SOL     OW32998   0.894   1.874   2.461
10700SOL    HW132999   0.831   1.926   2.403
10700SOL    HW233000   0.847   1.794   2.498
10701SOL     OW33001   3.212   0.293   1.685
10701SOL    HW133002   3.263   0.260   1.606
10701SOL    HW233003   3.121   0.323   1.657
10702SOL     OW33004   5.015   2.437   0.781
10702SOL    HW133005   5.062   2.510   0.830
10702SOL    HW233006   5.023   2.452   0.683
10703SOL     OW33007   3.945   2.972   3.943
10703SOL    HW133008   3.981   2.882   3.965
10703SOL    HW233009   3.940   3.027   4.027
10704SOL     OW33010   5.847   6.227   2.011
10704SOL    HW133011   5.839   6.146   1.953
10704SOL    HW233012   5.842   6.200   2.107
10705SOL     OW33013   1.356   3.315   6.269
10705SOL    HW133014   1.429   3.248   6.282
10705SOL    HW233015   1.275   3.286   6.321
10706SOL     OW33016   3.718   2.797   1.066
10706SOL    HW133017   3.668   2.760   1.145
10706SOL    HW233018   3.713   2.731   0.991
10707SOL     OW33019   6.531   6.776   6.226
10707SOL    HW133020   6.610   6.831   6.253
10707SOL    HW233021   6.448   6.831   6.233
10708SOL     OW33022   4.925   1.366   1.359
10708SOL    HW133023   4.907   1.464   1.357
10708SOL    HW233024   5.024   1.350   1.353
10709SOL     OW33025   0.677   0.178   5.961
10709SOL    HW133026   0.709   0.224   5.878
10709SOL    HW233027   0.586   0.213   5.984
10710SOL     OW33028   6.804   6.165   3.811
10710SOL    HW133029   6.883   6.175   3.750
10710SOL    HW233030   6.726   6.131   3.759
10711SOL     OW33031   2.515   5.131   5.418
10711SOL    HW133032   2.588   5.097   5.358
10711SOL    HW233033   2.432   5.146   5.365
10712SOL     OW33034   3.894   1.504   6.228
10712SOL    HW133035   3.815   1.505   6.167
10712SOL    HW233036   3.972   1.464   6.180
10713SOL     OW33037   2.244   6.492   0.916
10713SOL    HW133038   2.289   6.433   0.983
10713SOL    HW233039   2.146   6.469   0.911
10714SOL     OW33040   6.295   5.770   4.729
10714SOL    HW133041   6.329   5.862   4.746
10714SOL    HW233042   6.197   5.774   4.706
10715SOL     OW33043   5.699   1.007   2.851
10715SOL    HW133044   5.632   1.033   2.781
10715SOL    HW233045   5.703   0.907   2.858
10716SOL     OW33046   0.224   1.041   2.184
10716SOL    HW133047   0.143   1.081   2.227
10716SOL    HW233048   0.207   0.945   2.163
10717SOL     OW33049   6.740   6.851   2.174
10717SOL    HW133050   6.789   6.766   2.193
10717SOL    HW233051   6.736   6.906   2.257
10718SOL     OW33052   0.845   4.235   5.372
10718SOL    HW133053   0.762   4.216   5.320
10718SOL    HW233054   0.924   4.194   5.325
10719SOL     OW33055   3.670   6.276   2.072
10719SOL    HW133056   3.621   6.361   2.058
10719SOL    HW233057   3.768   6.291   2.060
10720SOL     OW33058   0.206   3.441   6.353
10720SOL    HW133059   0.147   3.476   6.279
10720SOL    HW233060   0.151   3.427   6.435
10721SOL     OW33061   5.455   2.235   4.684
10721SOL    HW133062   5.448   2.198   4.777
10721SOL    HW233063   5.368   2.277   4.658
10722SOL     OW33064   0.117   5.064   0.382
10722SOL    HW133065   0.216   5.079   0.377
10722SOL    HW233066   0.078   5.078   0.291
10723SOL     OW33067   6.324   4.240   6.851
10723SOL    HW133068   6.227   4.264   6.845
10723SOL    HW233069   6.371   4.270   6.768
10724SOL     OW33070   3.328   6.951   5.731
10724SOL    HW133071   3.422   6.944   5.765
10724SOL    HW233072   3.326   7.010   5.651
10725SOL     OW33073   6.966   0.195   5.195
10725SOL    HW133074   6.915   0.237   5.120
10725SOL    HW233075   6.920   0.112   5.225
10726SOL     OW33076   6.399   0.448   3.695
10726SOL    HW133077   6.470   0.495   3.747
10726SOL    HW233078   6.430   0.436   3.601
10727SOL     OW33079   4.318   6.902   6.391
10727SOL    HW133080   4.274   6.848   6.319
10727SOL    HW233081   4.401   6.856   6.422
10728SOL     OW33082   5.871   5.314   3.717
10728SOL    HW133083   5.955   5.267   3.745
10728SOL    HW233084   5.808   5.318   3.794
10729SOL     OW33085   6.276   3.142   3.870
10729SOL    HW133086   6.208   3.156   3.942
10729SOL    HW233087   6.345   3.076   3.902
10730SOL     OW33088   1.223   6.261   4.080
10730SOL    HW133089   1.321   6.250   4.095
10730SOL    HW233090   1.187   6.181   4.032
10731SOL     OW33091   5.012   5.783   6.048
10731SOL    HW133092   5.090   5.753   6.104
10731SOL    HW233093   4.941   5.712   6.049
10732SOL     OW33094   6.641   5.949   2.329
10732SOL    HW133095   6.713   6.010   2.363
10732SOL    HW233096   6.683   5.862   2.300
10733SOL     OW33097   0.459   1.903   5.893
10733SOL    HW133098   0.365   1.888   5.925
10733SOL    HW233099   0.458   1.967   5.817
10734SOL     OW33100   0.852   0.562   4.302
10734SOL    HW133101   0.816   0.520   4.386
10734SOL    HW233102   0.909   0.640   4.327
10735SOL     OW33103   0.120   0.358   2.138
10735SOL    HW133104   0.209   0.374   2.094
10735SOL    HW233105   0.121   0.397   2.229
10736SOL     OW33106   6.040   5.735   3.841
10736SOL    HW133107   6.074   5.746   3.748
10736SOL    HW233108   5.940   5.734   3.840
10737SOL     OW33109   6.600   0.765   1.586
10737SOL    HW133110   6.690   0.770   1.630
10737SOL    HW233111   6.612   0.741   1.490
10738SOL     OW33112   2.609   0.187   1.468
10738SOL    HW133113   2.685   0.205   1.531
10738SOL    HW233114   2.623   0.239   1.384
10739SOL     OW33115   4.706   2.786   4.327
10739SOL    HW133116   4.644   2.709   4.317
10739SOL    HW233117   4.700   2.845   4.246
10740SOL     OW33118   3.067   0.373   6.130
10740SOL    HW133119   3.006   0.355   6.207
10740SOL    HW233120   3.161   0.353   6.156
10741SOL     OW33121   1.476   2.605   3.402
10741SOL    HW133122   1.483   2.517   3.450
10741SOL    HW233123   1.435   2.673   3.463
10742SOL     OW33124   6.870   0.489   2.059
10742SOL    HW133125   6.807   0.412   2.056
10742SOL    HW233126   6.956   0.460   2.102
10743SOL     OW33127   3.612   1.947   5.886
10743SOL    HW133128   3.634   1.885   5.810
10743SOL    HW233129   3.624   2.042   5.856
10744SOL     OW33130   2.721   1.932   1.523
10744SOL    HW133131   2.815   1.946   1.556
10744SOL    HW233132   2.723   1.876   1.440
10745SOL     OW33133   2.356   5.145   1.406
10745SOL    HW133134   2.359   5.079   1.331
10745SOL    HW233135   2.336   5.098   1.492
10746SOL     OW33136   2.268   5.445   5.959
10746SOL    HW133137   2.176   5.451   5.921
10746SOL    HW233138   2.263   5.428   6.057
10747SOL     OW33139   0.164   1.204   4.855
10747SOL    HW133140   0.083   1.163   4.896
10747SOL    HW233141   0.140   1.292   4.814
10748SOL     OW33142   2.625   6.435   2.642
10748SOL    HW133143   2.535   6.394   2.632
10748SOL    HW233144   2.663   6.413   2.732
10749SOL     OW33145   6.008   4.405   1.932
10749SOL    HW133146   5.920   4.443   1.960
10749SOL    HW233147   6.006   4.386   1.833
10750SOL     OW33148   4.119   2.229   4.431
10750SOL    HW133149   4.147   2.301   4.368
10750SOL    HW233150   4.198   2.173   4.455
10751SOL     OW33151   6.451   6.008   4.414
10751SOL    HW133152   6.520   5.940   4.441
10751SOL    HW233153   6.371   5.999   4.474
10752SOL     OW33154   7.002   6.606   6.796
10752SOL    HW133155   6.924   6.622   6.856
10752SOL    HW233156   6.970   6.578   6.705
10753SOL     OW33157   5.486   6.698   5.083
10753SOL    HW133158   5.448   6.788   5.060
10753SOL    HW233159   5.424   6.651   5.145
10754SOL     OW33160   0.481   5.438   2.352
10754SOL    HW133161   0.469   5.339   2.340
10754SOL    HW233162   0.578   5.460   2.346
10755SOL     OW33163   0.409   2.129   1.743
10755SOL    HW133164   0.456   2.062   1.684
10755SOL    HW233165   0.381   2.084   1.828
10756SOL     OW33166   1.146   0.191   6.970
10756SOL    HW133167   1.220   0.197   6.903
10756SOL    HW233168   1.143   0.098   7.007
10757SOL     OW33169   6.987   2.952   2.277
10757SOL    HW133170   6.989   2.860   2.316
10757SOL    HW233171   6.894   2.988   2.283
10758SOL     OW33172   1.400   0.680   0.168
10758SOL    HW133173   1.497   0.678   0.143
10758SOL    HW233174   1.389   0.728   0.255
10759SOL     OW33175   3.132   3.056   4.736
10759SOL    HW133176   3.118   3.018   4.645
10759SOL    HW233177   3.062   3.126   4.753
10760SOL     OW33178   0.615   5.083   0.220
10760SOL    HW133179   0.667   5.073   0.135
10760SOL    HW233180   0.619   4.997   0.271
10761SOL     OW33181   1.491   1.249   6.121
10761SOL    HW133182   1.584   1.277   6.145
10761SOL    HW233183   1.431   1.329   6.122
10762SOL     OW33184   1.749   6.630   0.285
10762SOL    HW133185   1.778   6.544   0.325
10762SOL    HW233186   1.666   6.616   0.231
10763SOL     OW33187   4.884   0.894   3.234
10763SOL    HW133188   4.962   0.846   3.273
10763SOL    HW233189   4.843   0.837   3.163
10764SOL     OW33190   5.109   6.046   4.500
10764SOL    HW133191   5.075   6.088   4.416
10764SOL    HW233192   5.132   5.950   4.483
10765SOL     OW33193   0.766   2.061   1.019
10765SOL    HW133194   0.865   2.072   1.023
10765SOL    HW233195   0.726   2.078   1.109
10766SOL     OW33196   2.570   5.281   6.331
10766SOL    HW133197   2.636   5.210   6.305
10766SOL    HW233198   2.620   5.365   6.351
10767SOL     OW33199   1.591   4.784   6.724
10767SOL    HW133200   1.625   4.690   6.718
10767SOL    HW233201   1.493   4.783   6.743
10768SOL     OW33202   5.402   6.664   6.956
10768SOL    HW133203   5.486   6.644   6.905
10768SOL    HW233204   5.330   6.601   6.928
10769SOL     OW33205   3.090   3.302   4.429
10769SOL    HW133206   3.032   3.315   4.348
10769SOL    HW233207   3.056   3.359   4.503
10770SOL     OW33208   5.350   0.270   3.045
10770SOL    HW133209   5.405   0.261   3.128
10770SOL    HW233210   5.277   0.201   3.046
10771SOL     OW33211   4.627   6.357   5.729
10771SOL    HW133212   4.596   6.441   5.683
10771SOL    HW233213   4.713   6.375   5.776
10772SOL     OW33214   5.425   4.506   2.388
10772SOL    HW133215   5.330   4.529   2.407
10772SOL    HW233216   5.454   4.430   2.447
10773SOL     OW33217   0.921   3.935   0.156
10773SOL    HW133218   0.921   3.863   0.225
10773SOL    HW233219   0.987   4.006   0.181
10774SOL     OW33220   0.379   3.253   0.635
10774SOL    HW133221   0.344   3.163   0.610
10774SOL    HW233222   0.370   3.266   0.733
10775SOL     OW33223   1.987   3.798   0.445
10775SOL    HW133224   1.930   3.782   0.365
10775SOL    HW233225   1.965   3.732   0.517
10776SOL     OW33226   0.749   3.152   3.453
10776SOL    HW133227   0.711   3.060   3.464
10776SOL    HW233228   0.736   3.183   3.359
10777SOL     OW33229   1.420   0.107   1.202
10777SOL    HW133230   1.370   0.132   1.286
10777SOL    HW233231   1.518   0.110   1.220
10778SOL     OW33232   4.464   0.488   3.258
10778SOL    HW133233   4.463   0.410   3.321
10778SOL    HW233234   4.558   0.522   3.250
10779SOL     OW33235   5.574   2.683   5.842
10779SOL    HW133236   5.513   2.761   5.861
10779SOL    HW233237   5.573   2.621   5.921
10780SOL     OW33238   1.443   4.964   5.061
10780SOL    HW133239   1.453   4.872   5.023
10780SOL    HW233240   1.403   4.959   5.152
10781SOL     OW33241   5.510   1.935   5.998
10781SOL    HW133242   5.432   1.941   5.936
10781SOL    HW233243   5.579   2.003   5.973
10782SOL     OW33244   1.306   2.686   5.182
10782SOL    HW133245   1.318   2.672   5.083
10782SOL    HW233246   1.365   2.761   5.212
10783SOL     OW33247   1.764   3.388   3.077
10783SOL    HW133248   1.824   3.357   3.004
10783SOL    HW233249   1.786   3.339   3.161
10784SOL     OW33250   4.823   5.555   3.868
10784SOL    HW133251   4.895   5.611   3.909
10784SOL    HW233252   4.843   5.458   3.884
10785SOL     OW33253   2.100   5.165   1.606
10785SOL    HW133254   2.001   5.155   1.608
10785SOL    HW233255   2.128   5.234   1.673
10786SOL     OW33256   4.711   1.723   2.226
10786SOL    HW133257   4.654   1.804   2.243
10786SOL    HW233258   4.759   1.734   2.140
10787SOL     OW33259   4.254   1.781   3.682
10787SOL    HW133260   4.311   1.738   3.612
10787SOL    HW233261   4.288   1.873   3.701
10788SOL     OW33262   1.645   3.060   0.011
10788SOL    HW133263   1.645   3.123   6.959
10788SOL    HW233264   1.552   3.053   0.048
10789SOL     OW33265   6.973   1.547   2.274
10789SOL    HW133266   0.035   1.559   2.320
10789SOL    HW233267   6.906   1.510   2.338
10790SOL     OW33268   0.049   2.110   5.534
10790SOL    HW133269   6.995   2.165   5.553
10790SOL    HW233270   0.079   2.063   5.617
10791SOL     OW33271   1.721   2.588   3.596
10791SOL    HW133272   1.674   2.652   3.658
10791SOL    HW233273   1.810   2.625   3.571
10792SOL     OW33274   3.587   1.265   2.196
10792SOL    HW133275   3.494   1.264   2.159
10792SOL    HW233276   3.653   1.254   2.122
10793SOL     OW33277   3.577   2.100   4.769
10793SOL    HW133278   3.493   2.152   4.757
10793SOL    HW233279   3.579   2.024   4.704
10794SOL     OW33280   4.864   2.420   6.809
10794SOL    HW133281   4.899   2.337   6.853
10794SOL    HW233282   4.934   2.490   6.809
10795SOL     OW33283   6.617   3.436   3.177
10795SOL    HW133284   6.690   3.406   3.116
10795SOL    HW233285   6.551   3.492   3.126
10796SOL     OW33286   0.352   1.596   6.027
10796SOL    HW133287   0.418   1.572   6.098
10796SOL    HW233288   0.398   1.596   5.938
10797SOL     OW33289   5.084   4.690   0.231
10797SOL    HW133290   5.015   4.747   0.276
10797SOL    HW233291   5.039   4.636   0.159
10798SOL     OW33292   1.822   6.378   0.417
10798SOL    HW133293   1.767   6.328   0.484
10798SOL    HW233294   1.916   6.385   0.450
10799SOL     OW33295   3.534   6.988   2.418
10799SOL    HW133296   3.555   6.930   2.340
10799SOL    HW233297   3.453   0.018   2.398
10800SOL     OW33298   1.916   6.700   5.247
10800SOL    HW133299   1.968   6.771   5.200
10800SOL    HW233300   1.970   6.617   5.252
10801SOL     OW33301   3.016   6.064   6.775
10801SOL    HW133302   3.009   6.154   6.817
10801SOL    HW233303   2.963   5.998   6.828
10802SOL     OW33304   0.609   4.767   4.181
10802SOL    HW133305   0.597   4.865   4.162
10802SOL    HW233306   0.634   4.755   4.277
10803SOL     OW33307   6.919   4.267   4.588
10803SOL    HW133308   6.943   4.283   4.492
10803SOL    HW233309   6.886   4.173   4.599
10804SOL     OW33310   3.825   4.429   1.008
10804SOL    HW133311   3.795   4.519   1.039
10804SOL    HW233312   3.776   4.358   1.058
10805SOL     OW33313   3.719   6.031   0.763
10805SOL    HW133314   3.671   6.085   0.832
10805SOL    HW233315   3.795   5.982   0.805
10806SOL     OW33316   5.939   3.768   6.423
10806SOL    HW133317   6.021   3.715   6.446
10806SOL    HW233318   5.921   3.761   6.325
10807SOL     OW33319   4.831   2.256   4.388
10807SOL    HW133320   4.784   2.172   4.415
10807SOL    HW233321   4.827   2.322   4.463
10808SOL     OW33322   0.637   2.037   6.858
10808SOL    HW133323   0.546   1.995   6.868
10808SOL    HW233324   0.641   2.086   6.771
10809SOL     OW33325   1.825   1.178   2.439
10809SOL    HW133326   1.751   1.126   2.482
10809SOL    HW233327   1.854   1.132   2.356
10810SOL     OW33328   1.971   1.049   6.365
10810SOL    HW133329   2.036   1.037   6.291
10810SOL    HW233330   1.878   1.047   6.328
10811SOL     OW33331   4.583   5.542   6.622
10811SOL    HW133332   4.488   5.526   6.598
10811SOL    HW233333   4.588   5.582   6.713
10812SOL     OW33334   6.756   2.565   2.397
10812SOL    HW133335   6.806   2.479   2.404
10812SOL    HW233336   6.817   2.641   2.420
10813SOL     OW33337   3.325   5.987   2.269
10813SOL    HW133338   3.412   6.023   2.235
10813SOL    HW233339   3.307   5.898   2.226
10814SOL     OW33340   1.952   6.744   4.036
10814SOL    HW133341   1.883   6.782   4.098
10814SOL    HW233342   1.907   6.699   3.959
10815SOL     OW33343   4.962   1.594   5.003
10815SOL    HW133344   4.874   1.606   4.957
10815SOL    HW233345   4.950   1.536   5.083
10816SOL     OW33346   2.009   1.909   1.553
10816SOL    HW133347   1.947   1.831   1.545
10816SOL    HW233348   2.101   1.881   1.528
10817SOL     OW33349   4.017   1.624   1.835
10817SOL    HW133350   4.005   1.564   1.914
10817SOL    HW233351   4.059   1.709   1.864
10818SOL     OW33352   4.348   3.630   6.579
10818SOL    HW133353   4.278   3.608   6.647
10818SOL    HW233354   4.411   3.698   6.618
10819SOL     OW33355   1.450   3.749   5.592
10819SOL    HW133356   1.492   3.660   5.614
10819SOL    HW233357   1.356   3.751   5.625
10820SOL     OW33358   0.377   6.271   4.615
10820SOL    HW133359   0.342   6.318   4.696
10820SOL    HW233360   0.373   6.332   4.536
10821SOL     OW33361   0.700   0.903   6.747
10821SOL    HW133362   0.635   0.874   6.817
10821SOL    HW233363   0.715   0.827   6.683
10822SOL     OW33364   0.502   4.123   6.825
10822SOL    HW133365   0.460   4.184   6.892
10822SOL    HW233366   0.527   4.175   6.744
10823SOL     OW33367   1.904   2.683   1.063
10823SOL    HW133368   1.883   2.678   1.161
10823SOL    HW233369   1.987   2.632   1.044
10824SOL     OW33370   5.458   1.292   3.754
10824SOL    HW133371   5.366   1.282   3.793
10824SOL    HW233372   5.525   1.249   3.814
10825SOL     OW33373   2.972   1.062   2.709
10825SOL    HW133374   3.008   1.136   2.653
10825SOL    HW233375   3.027   1.053   2.792
10826SOL     OW33376   0.017   3.335   1.256
10826SOL    HW133377   0.054   3.424   1.233
10826SOL    HW233378   0.088   3.265   1.247
10827SOL     OW33379   0.443   2.678   4.372
10827SOL    HW133380   0.516   2.722   4.319
10827SOL    HW233381   0.478   2.653   4.462
10828SOL     OW33382   2.494   5.212   0.292
10828SOL    HW133383   2.425   5.228   0.363
10828SOL    HW233384   2.467   5.132   0.238
10829SOL     OW33385   2.196   3.882   2.170
10829SOL    HW133386   2.210   3.787   2.199
10829SOL    HW233387   2.099   3.905   2.177
10830SOL     OW33388   5.934   0.694   3.430
10830SOL    HW133389   5.925   0.595   3.434
10830SOL    HW233390   5.893   0.735   3.512
10831SOL     OW33391   5.562   2.738   1.798
10831SOL    HW133392   5.478   2.793   1.793
10831SOL    HW233393   5.583   2.718   1.894
10832SOL     OW33394   0.793   3.431   2.713
10832SOL    HW133395   0.864   3.452   2.781
10832SOL    HW233396   0.816   3.477   2.627
10833SOL     OW33397   3.161   6.763   4.067
10833SOL    HW133398   3.146   6.705   3.987
10833SOL    HW233399   3.254   6.748   4.102
10834SOL     OW33400   6.806   0.924   6.009
10834SOL    HW133401   6.776   0.964   6.096
10834SOL    HW233402   6.899   0.956   5.989
10835SOL     OW33403   0.624   2.070   0.785
10835SOL    HW133404   0.676   2.075   0.870
10835SOL    HW233405   0.685   2.090   0.708
10836SOL     OW33406   1.002   2.861   1.133
10836SOL    HW133407   0.938   2.792   1.099
10836SOL    HW233408   1.095   2.825   1.130
10837SOL     OW33409   0.784   6.167   1.086
10837SOL    HW133410   0.864   6.156   1.027
10837SOL    HW233411   0.751   6.077   1.115
10838SOL     OW33412   6.358   6.670   0.718
10838SOL    HW133413   6.289   6.655   0.789
10838SOL    HW233414   6.372   6.584   0.668
10839SOL     OW33415   1.528   1.420   6.835
10839SOL    HW133416   1.485   1.432   6.745
10839SOL    HW233417   1.498   1.494   6.896
10840SOL     OW33418   2.624   6.958   2.803
10840SOL    HW133419   2.550   6.920   2.858
10840SOL    HW233420   2.712   6.920   2.833
10841SOL     OW33421   4.451   3.678   0.508
10841SOL    HW133422   4.419   3.772   0.513
10841SOL    HW233423   4.545   3.677   0.475
10842SOL     OW33424   5.834   2.505   1.679
10842SOL    HW133425   5.824   2.508   1.778
10842SOL    HW233426   5.915   2.452   1.655
10843SOL     OW33427   0.617   1.634   1.853
10843SOL    HW133428   0.702   1.657   1.805
10843SOL    HW233429   0.556   1.584   1.791
10844SOL     OW33430   4.643   0.657   3.491
10844SOL    HW133431   4.570   0.626   3.551
10844SOL    HW233432   4.613   0.737   3.440
10845SOL     OW33433   2.197   3.227   1.298
10845SOL    HW133434   2.136   3.206   1.222
10845SOL    HW233435   2.235   3.143   1.336
10846SOL     OW33436   3.551   2.519   1.419
10846SOL    HW133437   3.453   2.501   1.428
10846SOL    HW233438   3.600   2.471   1.491
10847SOL     OW33439   4.716   2.175   5.302
10847SOL    HW133440   4.730   2.191   5.400
10847SOL    HW233441   4.791   2.217   5.251
10848SOL     OW33442   1.719   0.699   6.741
10848SOL    HW133443   1.814   0.681   6.767
10848SOL    HW233444   1.713   0.707   6.642
10849SOL     OW33445   1.529   5.002   4.145
10849SOL    HW133446   1.472   4.994   4.227
10849SOL    HW233447   1.599   4.931   4.146
10850SOL     OW33448   5.243   1.177   1.976
10850SOL    HW133449   5.199   1.222   2.053
10850SOL    HW233450   5.175   1.158   1.905
10851SOL     OW33451   4.319   2.973   0.101
10851SOL    HW133452   4.234   2.930   0.132
10851SOL    HW233453   4.370   2.908   0.045
10852SOL     OW33454   6.409   0.211   6.282
10852SOL    HW133455   6.420   0.284   6.349
10852SOL    HW233456   6.373   0.248   6.197
10853SOL     OW33457   3.344   0.704   4.729
10853SOL    HW133458   3.366   0.691   4.826
10853SOL    HW233459   3.250   0.736   4.720
10854SOL     OW33460   6.519   0.029   1.094
10854SOL    HW133461   6.459   0.008   1.171
10854SOL    HW233462   6.491   0.115   1.052
10855SOL     OW33463   0.259   6.020   1.439
10855SOL    HW133464   0.277   5.926   1.409
10855SOL    HW233465   0.224   6.019   1.532
10856SOL     OW33466   5.121   6.981   6.780
10856SOL    HW133467   5.201   6.935   6.818
10856SOL    HW233468   5.107   0.041   6.828
10857SOL     OW33469   6.150   0.007   4.758
10857SOL    HW133470   6.122   6.938   4.747
10857SOL    HW233471   6.245   0.018   4.728
10858SOL     OW33472   2.248   2.071   6.914
10858SOL    HW133473   2.185   2.100   6.842
10858SOL    HW233474   2.336   2.116   6.900
10859SOL     OW33475   1.705   5.236   2.590
10859SOL    HW133476   1.738   5.225   2.496
10859SOL    HW233477   1.750   5.315   2.632
10860SOL     OW33478   5.913   2.277   1.253
10860SOL    HW133479   5.820   2.240   1.252
10860SOL    HW233480   5.958   2.253   1.339
10861SOL     OW33481   1.771   4.341   1.737
10861SOL    HW133482   1.819   4.253   1.730
10861SOL    HW233483   1.714   4.354   1.656
10862SOL     OW33484   3.906   4.625   5.348
10862SOL    HW133485   3.862   4.537   5.331
10862SOL    HW233486   4.005   4.615   5.347
10863SOL     OW33487   2.001   6.607   3.359
10863SOL    HW133488   2.072   6.619   3.428
10863SOL    HW233489   2.039   6.627   3.268
10864SOL     OW33490   2.792   3.362   1.941
10864SOL    HW133491   2.749   3.345   2.030
10864SOL    HW233492   2.857   3.437   1.949
10865SOL     OW33493   3.103   1.807   3.002
10865SOL    HW133494   3.030   1.860   3.046
10865SOL    HW233495   3.192   1.845   3.028
10866SOL     OW33496   0.921   3.362   4.496
10866SOL    HW133497   0.950   3.435   4.433
10866SOL    HW233498   0.919   3.398   4.589
10867SOL     OW33499   4.582   3.590   6.898
10867SOL    HW133500   4.656   3.559   6.839
10867SOL    HW233501   4.526   3.511   6.925
10868SOL     OW33502   1.035   6.785   5.256
10868SOL    HW133503   1.122   6.751   5.221
10868SOL    HW233504   1.007   6.730   5.335
10869NA      NA33505   0.118   0.901   6.191
10870NA      NA33506   4.660   4.769   5.215
10871NA      NA33507   0.937   4.875   3.037
10872NA      NA33508   5.988   3.343   3.418
10873NA      NA33509   3.825   2.713   5.388
10874NA      NA33510   2.412   4.402   0.031
10875NA      NA33511   1.612   5.500   0.169
10876NA      NA33512   4.117   4.822   1.767
10877NA      NA33513   4.895   4.198   1.091
10878NA      NA33514   3.713   1.506   0.800
10879NA      NA33515   5.456   6.716   1.613
10880NA      NA33516   2.283   6.910   5.158
10881NA      NA33517   4.278   4.993   2.970
10882NA      NA33518   4.118   4.543   6.564
   7.02649   7.02649   7.02649
