Generated by trjconv : CNT in water t=  13.00000
33518
    1C        C    1   2.846   2.773   4.747
    1C        C    2   2.897   2.716   4.866
    1C        C    3   2.839   2.765   4.984
    1C        C    4   2.844   2.765   4.259
    1C        C    5   2.895   2.718   4.382
    1C        C    6   2.840   2.765   4.504
    1C        C    7   3.009   2.636   4.623
    1C        C    8   2.896   2.720   4.626
    1C        C    9   3.074   2.604   4.745
    1C        C   10   3.008   2.629   4.867
    1C        C   11   3.180   2.487   4.973
    1C        C   12   3.056   2.553   4.975
    1C        C   13   2.849   2.765   3.773
    1C        C   14   2.900   2.718   3.896
    1C        C   15   2.846   2.771   4.015
    1C        C   16   3.020   2.650   4.138
    1C        C   17   2.901   2.724   4.137
    1C        C   18   3.082   2.616   4.260
    1C        C   19   3.017   2.648   4.382
    1C        C   20   3.207   2.551   4.501
    1C        C   21   3.076   2.604   4.503
    1C        C   22   3.276   2.532   4.623
    1C        C   23   3.202   2.543   4.743
    1C        C   24   3.411   2.489   4.865
    1C        C   25   3.268   2.499   4.861
    1C        C   26   3.487   2.465   4.980
    1C        C   27   2.851   2.769   3.282
    1C        C   28   2.899   2.716   3.404
    1C        C   29   2.849   2.764   3.527
    1C        C   30   3.017   2.638   3.647
    1C        C   31   2.901   2.718   3.650
    1C        C   32   3.076   2.603   3.770
    1C        C   33   3.016   2.637   3.893
    1C        C   34   3.206   2.545   4.014
    1C        C   35   3.078   2.606   4.016
    1C        C   36   3.271   2.517   4.136
    1C        C   37   3.207   2.551   4.257
    1C        C   38   3.415   2.509   4.380
    1C        C   39   3.276   2.533   4.379
    1C        C   40   3.486   2.500   4.502
    1C        C   41   3.414   2.505   4.623
    1C        C   42   3.628   2.485   4.745
    1C        C   43   3.485   2.487   4.744
    1C        C   44   3.702   2.489   4.865
    1C        C   45   3.626   2.471   4.981
    1C        C   46   2.837   2.750   2.794
    1C        C   47   2.899   2.714   2.916
    1C        C   48   2.846   2.762   3.037
    1C        C   49   3.018   2.638   3.158
    1C        C   50   2.905   2.723   3.159
    1C        C   51   3.077   2.601   3.281
    1C        C   52   3.015   2.635   3.403
    1C        C   53   3.208   2.549   3.527
    1C        C   54   3.077   2.600   3.525
    1C        C   55   3.274   2.522   3.650
    1C        C   56   3.205   2.545   3.771
    1C        C   57   3.414   2.499   3.893
    1C        C   58   3.275   2.526   3.892
    1C        C   59   3.483   2.490   4.016
    1C        C   60   3.411   2.496   4.137
    1C        C   61   3.625   2.496   4.256
    1C        C   62   3.484   2.495   4.258
    1C        C   63   3.697   2.503   4.378
    1C        C   64   3.627   2.497   4.501
    1C        C   65   3.833   2.539   4.620
    1C        C   66   3.698   2.498   4.623
    1C        C   67   3.902   2.563   4.741
    1C        C   68   3.838   2.528   4.861
    1C        C   69   4.049   2.582   4.974
    1C        C   70   3.917   2.535   4.976
    1C        C   71   2.817   2.726   2.305
    1C        C   72   2.879   2.690   2.426
    1C        C   73   2.831   2.741   2.549
    1C        C   74   3.006   2.624   2.668
    1C        C   75   2.885   2.698   2.672
    1C        C   76   3.072   2.597   2.790
    1C        C   77   3.011   2.628   2.913
    1C        C   78   3.204   2.540   3.034
    1C        C   79   3.075   2.597   3.036
    1C        C   80   3.272   2.521   3.157
    1C        C   81   3.207   2.545   3.280
    1C        C   82   3.410   2.493   3.401
    1C        C   83   3.272   2.524   3.404
    1C        C   84   3.481   2.491   3.523
    1C        C   85   3.413   2.498   3.647
    1C        C   86   3.624   2.502   3.767
    1C        C   87   3.482   2.495   3.770
    1C        C   88   3.693   2.509   3.890
    1C        C   89   3.624   2.501   4.013
    1C        C   90   3.831   2.547   4.134
    1C        C   91   3.696   2.508   4.134
    1C        C   92   3.898   2.574   4.256
    1C        C   93   3.833   2.540   4.376
    1C        C   94   4.025   2.632   4.498
    1C        C   95   3.898   2.569   4.498
    1C        C   96   4.090   2.669   4.617
    1C        C   97   4.029   2.627   4.738
    1C        C   98   4.184   2.766   4.857
    1C        C   99   4.100   2.651   4.859
    1C        C  100   4.211   2.841   4.972
    1C        C  101   2.816   2.729   2.066
    1C        C  102   2.990   2.597   2.185
    1C        C  103   2.871   2.676   2.184
    1C        C  104   3.060   2.577   2.307
    1C        C  105   2.999   2.615   2.428
    1C        C  106   3.200   2.533   2.547
    1C        C  107   3.070   2.588   2.548
    1C        C  108   3.269   2.524   2.670
    1C        C  109   3.204   2.547   2.794
    1C        C  110   3.414   2.493   2.910
    1C        C  111   3.275   2.520   2.913
    1C        C  112   3.478   2.486   3.036
    1C        C  113   3.410   2.492   3.160
    1C        C  114   3.624   2.494   3.279
    1C        C  115   3.483   2.486   3.281
    1C        C  116   3.694   2.508   3.400
    1C        C  117   3.622   2.500   3.522
    1C        C  118   3.831   2.538   3.641
    1C        C  119   3.693   2.509   3.644
    1C        C  120   3.896   2.566   3.763
    1C        C  121   3.830   2.543   3.886
    1C        C  122   4.017   2.637   4.011
    1C        C  123   3.895   2.566   4.009
    1C        C  124   4.085   2.671   4.130
    1C        C  125   4.026   2.633   4.253
    1C        C  126   4.196   2.758   4.374
    1C        C  127   4.085   2.671   4.376
    1C        C  128   4.246   2.814   4.494
    1C        C  129   4.194   2.765   4.615
    1C        C  130   4.331   2.929   4.740
    1C        C  131   4.241   2.818   4.737
    1C        C  132   4.358   2.998   4.860
    1C        C  133   4.283   2.959   4.972
    1C        C  134   3.170   2.465   2.081
    1C        C  135   3.037   2.508   2.083
    1C        C  136   3.257   2.476   2.190
    1C        C  137   3.191   2.521   2.307
    1C        C  138   3.403   2.475   2.429
    1C        C  139   3.264   2.498   2.426
    1C        C  140   3.481   2.481   2.547
    1C        C  141   3.405   2.488   2.666
    1C        C  142   3.621   2.491   2.789
    1C        C  143   3.480   2.483   2.786
    1C        C  144   3.691   2.501   2.911
    1C        C  145   3.620   2.488   3.033
    1C        C  146   3.828   2.536   3.151
    1C        C  147   3.691   2.500   3.154
    1C        C  148   3.896   2.559   3.272
    1C        C  149   3.831   2.543   3.396
    1C        C  150   4.025   2.627   3.520
    1C        C  151   3.898   2.563   3.519
    1C        C  152   4.078   2.667   3.644
    1C        C  153   4.019   2.636   3.769
    1C        C  154   4.191   2.762   3.882
    1C        C  155   4.078   2.677   3.890
    1C        C  156   4.241   2.806   4.007
    1C        C  157   4.198   2.756   4.132
    1C        C  158   4.331   2.922   4.248
    1C        C  159   4.250   2.807   4.253
    1C        C  160   4.367   2.982   4.371
    1C        C  161   4.331   2.927   4.496
    1C        C  162   4.437   3.112   4.612
    1C        C  163   4.371   2.987   4.618
    1C        C  164   4.465   3.181   4.731
    1C        C  165   4.428   3.119   4.853
    1C        C  166   4.508   3.318   4.972
    1C        C  167   4.474   3.183   4.969
    1C        C  168   3.472   2.437   2.071
    1C        C  169   3.397   2.458   2.187
    1C        C  170   3.615   2.467   2.301
    1C        C  171   3.473   2.461   2.306
    1C        C  172   3.691   2.482   2.419
    1C        C  173   3.622   2.486   2.542
    1C        C  174   3.825   2.537   2.663
    1C        C  175   3.689   2.500   2.666
    1C        C  176   3.893   2.558   2.786
    1C        C  177   3.826   2.540   2.909
    1C        C  178   4.022   2.627   3.029
    1C        C  179   3.895   2.565   3.030
    1C        C  180   4.081   2.661   3.152
    1C        C  181   4.024   2.620   3.275
    1C        C  182   4.192   2.752   3.397
    1C        C  183   4.084   2.660   3.396
    1C        C  184   4.239   2.802   3.520
    1C        C  185   4.190   2.753   3.644
    1C        C  186   4.335   2.918   3.763
    1C        C  187   4.247   2.808   3.761
    1C        C  188   4.369   2.978   3.887
    1C        C  189   4.324   2.920   4.007
    1C        C  190   4.442   3.103   4.126
    1C        C  191   4.372   2.981   4.126
    1C        C  192   4.467   3.170   4.248
    1C        C  193   4.430   3.108   4.370
    1C        C  194   4.506   3.311   4.489
    1C        C  195   4.460   3.178   4.489
    1C        C  196   4.524   3.383   4.609
    1C        C  197   4.502   3.319   4.733
    1C        C  198   4.550   3.532   4.848
    1C        C  199   4.524   3.391   4.854
    1C        C  200   4.582   3.618   4.958
    1C        C  201   3.610   2.413   2.073
    1C        C  202   3.823   2.515   2.177
    1C        C  203   3.690   2.461   2.181
    1C        C  204   3.895   2.537   2.298
    1C        C  205   3.828   2.518   2.421
    1C        C  206   4.021   2.614   2.542
    1C        C  207   3.894   2.550   2.541
    1C        C  208   4.078   2.660   2.663
    1C        C  209   4.018   2.625   2.786
    1C        C  210   4.197   2.743   2.906
    1C        C  211   4.083   2.660   2.906
    1C        C  212   4.246   2.794   3.028
    1C        C  213   4.195   2.746   3.151
    1C        C  214   4.332   2.907   3.271
    1C        C  215   4.243   2.797   3.273
    1C        C  216   4.368   2.969   3.393
    1C        C  217   4.328   2.912   3.516
    1C        C  218   4.437   3.096   3.637
    1C        C  219   4.373   2.970   3.637
    1C        C  220   4.461   3.165   3.757
    1C        C  221   4.435   3.102   3.881
    1C        C  222   4.505   3.304   4.002
    1C        C  223   4.468   3.167   4.003
    1C        C  224   4.516   3.375   4.123
    1C        C  225   4.505   3.306   4.246
    1C        C  226   4.519   3.520   4.365
    1C        C  227   4.518   3.379   4.366
    1C        C  228   4.517   3.593   4.486
    1C        C  229   4.536   3.524   4.608
    1C        C  230   4.500   3.740   4.724
    1C        C  231   4.540   3.603   4.725
    1C        C  232   4.495   3.817   4.842
    1C        C  233   4.544   3.753   4.956
    1C        C  234   4.018   2.607   2.059
    1C        C  235   3.897   2.539   2.060
    1C        C  236   4.084   2.641   2.178
    1C        C  237   4.022   2.601   2.298
    1C        C  238   4.194   2.731   2.420
    1C        C  239   4.081   2.645   2.418
    1C        C  240   4.250   2.780   2.539
    1C        C  241   4.194   2.740   2.663
    1C        C  242   4.336   2.900   2.784
    1C        C  243   4.252   2.787   2.783
    1C        C  244   4.377   2.961   2.905
    1C        C  245   4.336   2.903   3.027
    1C        C  246   4.435   3.091   3.148
    1C        C  247   4.374   2.964   3.149
    1C        C  248   4.459   3.157   3.271
    1C        C  249   4.429   3.096   3.395
    1C        C  250   4.490   3.302   3.513
    1C        C  251   4.458   3.164   3.515
    1C        C  252   4.502   3.371   3.636
    1C        C  253   4.500   3.301   3.759
    1C        C  254   4.516   3.515   3.877
    1C        C  255   4.511   3.374   3.879
    1C        C  256   4.517   3.588   3.997
    1C        C  257   4.519   3.516   4.119
    1C        C  258   4.485   3.726   4.243
    1C        C  259   4.513   3.587   4.241
    1C        C  260   4.470   3.802   4.361
    1C        C  261   4.487   3.731   4.481
    1C        C  262   4.423   3.936   4.602
    1C        C  263   4.469   3.803   4.601
    1C        C  264   4.396   4.008   4.721
    1C        C  265   4.431   3.943   4.842
    1C        C  266   4.322   4.132   4.956
    1C        C  267   4.395   4.014   4.957
    1C        C  268   4.259   2.775   2.061
    1C        C  269   4.195   2.729   2.178
    1C        C  270   4.340   2.888   2.300
    1C        C  271   4.249   2.778   2.299
    1C        C  272   4.381   2.951   2.419
    1C        C  273   4.341   2.889   2.539
    1C        C  274   4.445   3.077   2.658
    1C        C  275   4.381   2.951   2.660
    1C        C  276   4.474   3.145   2.778
    1C        C  277   4.445   3.085   2.903
    1C        C  278   4.500   3.290   3.021
    1C        C  279   4.462   3.154   3.025
    1C        C  280   4.512   3.361   3.143
    1C        C  281   4.493   3.294   3.265
    1C        C  282   4.519   3.505   3.386
    1C        C  283   4.507   3.365   3.387
    1C        C  284   4.518   3.580   3.506
    1C        C  285   4.510   3.512   3.630
    1C        C  286   4.487   3.721   3.749
    1C        C  287   4.512   3.582   3.752
    1C        C  288   4.467   3.789   3.872
    1C        C  289   4.489   3.727   3.997
    1C        C  290   4.426   3.928   4.112
    1C        C  291   4.468   3.793   4.120
    1C        C  292   4.400   3.997   4.232
    1C        C  293   4.426   3.936   4.357
    1C        C  294   4.321   4.120   4.475
    1C        C  295   4.393   3.999   4.479
    1C        C  296   4.280   4.183   4.595
    1C        C  297   4.327   4.132   4.718
    1C        C  298   4.192   4.307   4.835
    1C        C  299   4.278   4.192   4.837
    1C        C  300   4.168   4.396   4.944
    1C        C  301   4.350   2.879   2.062
    1C        C  302   4.467   3.065   2.176
    1C        C  303   4.390   2.944   2.180
    1C        C  304   4.479   3.141   2.296
    1C        C  305   4.447   3.076   2.417
    1C        C  306   4.505   3.283   2.536
    1C        C  307   4.473   3.145   2.537
    1C        C  308   4.511   3.356   2.657
    1C        C  309   4.497   3.285   2.778
    1C        C  310   4.518   3.500   2.896
    1C        C  311   4.508   3.359   2.898
    1C        C  312   4.515   3.570   3.018
    1C        C  313   4.520   3.502   3.142
    1C        C  314   4.489   3.713   3.262
    1C        C  315   4.516   3.575   3.263
    1C        C  316   4.471   3.782   3.384
    1C        C  317   4.497   3.720   3.509
    1C        C  318   4.421   3.923   3.624
    1C        C  319   4.473   3.792   3.628
    1C        C  320   4.391   3.983   3.749
    1C        C  321   4.415   3.920   3.873
    1C        C  322   4.311   4.110   3.988
    1C        C  323   4.387   3.992   3.992
    1C        C  324   4.279   4.172   4.111
    1C        C  325   4.327   4.118   4.233
    1C        C  326   4.184   4.280   4.350
    1C        C  327   4.282   4.178   4.352
    1C        C  328   4.133   4.332   4.471
    1C        C  329   4.187   4.289   4.594
    1C        C  330   4.017   4.428   4.710
    1C        C  331   4.132   4.344   4.712
    1C        C  332   3.968   4.487   4.828
    1C        C  333   4.051   4.474   4.940
    1C        C  334   4.548   3.263   2.061
    1C        C  335   4.531   3.124   2.062
    1C        C  336   4.536   3.348   2.172
    1C        C  337   4.509   3.280   2.292
    1C        C  338   4.516   3.494   2.411
    1C        C  339   4.513   3.353   2.414
    1C        C  340   4.518   3.568   2.531
    1C        C  341   4.524   3.496   2.653
    1C        C  342   4.494   3.710   2.773
    1C        C  343   4.518   3.570   2.773
    1C        C  344   4.475   3.780   2.894
    1C        C  345   4.489   3.709   3.015
    1C        C  346   4.419   3.910   3.136
    1C        C  347   4.469   3.777   3.137
    1C        C  348   4.387   3.977   3.256
    1C        C  349   4.424   3.915   3.377
    1C        C  350   4.319   4.101   3.500
    1C        C  351   4.393   3.980   3.498
    1C        C  352   4.274   4.161   3.619
    1C        C  353   4.314   4.101   3.741
    1C        C  354   4.178   4.267   3.865
    1C        C  355   4.271   4.161   3.862
    1C        C  356   4.127   4.322   3.984
    1C        C  357   4.182   4.274   4.105
    1C        C  358   4.008   4.397   4.228
    1C        C  359   4.127   4.321   4.227
    1C        C  360   3.949   4.440   4.349
    1C        C  361   4.015   4.409   4.470
    1C        C  362   3.823   4.513   4.588
    1C        C  363   3.953   4.457   4.588
    1C        C  364   3.761   4.546   4.710
    1C        C  365   3.838   4.542   4.829
    1C        C  366   3.627   4.588   4.945
    1C        C  367   3.764   4.566   4.946
    1C        C  368   4.507   3.561   2.053
    1C        C  369   4.528   3.489   2.172
    1C        C  370   4.508   3.706   2.287
    1C        C  371   4.525   3.566   2.290
    1C        C  372   4.476   3.775   2.406
    1C        C  373   4.495   3.708   2.528
    1C        C  374   4.426   3.908   2.646
    1C        C  375   4.480   3.777   2.650
    1C        C  376   4.385   3.969   2.766
    1C        C  377   4.422   3.911   2.890
    1C        C  378   4.316   4.092   3.009
    1C        C  379   4.393   3.974   3.013
    1C        C  380   4.272   4.151   3.129
    1C        C  381   4.310   4.095   3.254
    1C        C  382   4.176   4.256   3.377
    1C        C  383   4.272   4.153   3.377
    1C        C  384   4.118   4.304   3.497
    1C        C  385   4.177   4.263   3.619
    1C        C  386   4.010   4.393   3.739
    1C        C  387   4.125   4.311   3.741
    1C        C  388   3.943   4.427   3.859
    1C        C  389   4.003   4.391   3.982
    1C        C  390   3.818   4.488   4.107
    1C        C  391   3.945   4.427   4.105
    1C        C  392   3.748   4.514   4.226
    1C        C  393   3.821   4.501   4.346
    1C        C  394   3.613   4.548   4.475
    1C        C  395   3.753   4.529   4.467
    1C        C  396   3.542   4.561   4.596
    1C        C  397   3.621   4.565   4.713
    1C        C  398   3.406   4.551   4.835
    1C        C  399   3.546   4.568   4.833
    1C        C  400   3.339   4.508   4.951
    1C        C  401   4.500   3.700   2.051
    1C        C  402   4.452   3.913   2.166
    1C        C  403   4.495   3.779   2.167
    1C        C  404   4.411   3.978   2.284
    1C        C  405   4.432   3.910   2.406
    1C        C  406   4.324   4.096   2.520
    1C        C  407   4.402   3.978   2.526
    1C        C  408   4.275   4.148   2.642
    1C        C  409   4.310   4.089   2.765
    1C        C  410   4.172   4.247   2.886
    1C        C  411   4.274   4.150   2.887
    1C        C  412   4.118   4.295   3.007
    1C        C  413   4.174   4.253   3.130
    1C        C  414   4.004   4.376   3.251
    1C        C  415   4.123   4.300   3.254
    1C        C  416   3.938   4.409   3.371
    1C        C  417   4.000   4.381   3.495
    1C        C  418   3.813   4.474   3.617
    1C        C  419   3.944   4.422   3.618
    1C        C  420   3.742   4.495   3.738
    1C        C  421   3.810   4.475   3.860
    1C        C  422   3.609   4.526   3.985
    1C        C  423   3.748   4.500   3.984
    1C        C  424   3.538   4.541   4.105
    1C        C  425   3.609   4.540   4.227
    1C        C  426   3.402   4.552   4.353
    1C        C  427   3.543   4.550   4.352
    1C        C  428   3.329   4.550   4.473
    1C        C  429   3.401   4.557   4.595
    1C        C  430   3.191   4.517   4.720
    1C        C  431   3.330   4.545   4.716
    1C        C  432   3.120   4.494   4.841
    1C        C  433   3.201   4.491   4.955
    1C        C  434   4.383   4.119   2.046
    1C        C  435   4.444   3.993   2.051
    1C        C  436   4.296   4.154   2.154
    1C        C  437   4.332   4.097   2.280
    1C        C  438   4.179   4.249   2.398
    1C        C  439   4.284   4.155   2.399
    1C        C  440   4.123   4.293   2.520
    1C        C  441   4.173   4.247   2.644
    1C        C  442   4.000   4.373   2.763
    1C        C  443   4.115   4.291   2.765
    1C        C  444   3.939   4.407   2.886
    1C        C  445   3.998   4.370   3.009
    1C        C  446   3.809   4.467   3.126
    1C        C  447   3.938   4.408   3.130
    1C        C  448   3.745   4.490   3.250
    1C        C  449   3.808   4.464   3.374
    1C        C  450   3.604   4.522   3.493
    1C        C  451   3.742   4.492   3.496
    1C        C  452   3.538   4.532   3.618
    1C        C  453   3.605   4.527   3.742
    1C        C  454   3.394   4.535   3.861
    1C        C  455   3.535   4.536   3.865
    1C        C  456   3.328   4.535   3.986
    1C        C  457   3.397   4.539   4.110
    1C        C  458   3.192   4.496   4.233
    1C        C  459   3.329   4.532   4.233
    1C        C  460   3.127   4.481   4.358
    1C        C  461   3.192   4.514   4.479
    1C        C  462   2.995   4.429   4.599
    1C        C  463   3.123   4.488   4.599
    1C        C  464   2.929   4.398   4.720
    1C        C  465   2.988   4.440   4.842
    1C        C  466   2.800   4.330   4.961
    1C        C  467   2.904   4.424   4.957
    1C        C  468   4.118   4.281   2.040
    1C        C  469   4.182   4.240   2.157
    1C        C  470   4.006   4.374   2.277
    1C        C  471   4.122   4.292   2.276
    1C        C  472   3.940   4.402   2.398
    1C        C  473   4.005   4.372   2.519
    1C        C  474   3.813   4.467   2.640
    1C        C  475   3.942   4.411   2.640
    1C        C  476   3.745   4.493   2.761
    1C        C  477   3.814   4.472   2.883
    1C        C  478   3.605   4.515   3.006
    1C        C  479   3.744   4.494   3.004
    1C        C  480   3.535   4.525   3.128
    1C        C  481   3.607   4.521   3.249
    1C        C  482   3.393   4.532   3.374
    1C        C  483   3.535   4.529   3.370
    1C        C  484   3.324   4.526   3.497
    1C        C  485   3.397   4.534   3.618
    1C        C  486   3.187   4.494   3.744
    1C        C  487   3.324   4.527   3.738
    1C        C  488   3.121   4.475   3.868
    1C        C  489   3.191   4.501   3.988
    1C        C  490   3.000   4.410   4.115
    1C        C  491   3.126   4.474   4.110
    1C        C  492   2.938   4.375   4.237
    1C        C  493   3.001   4.418   4.356
    1C        C  494   2.826   4.298   4.482
    1C        C  495   2.936   4.386   4.478
    1C        C  496   2.772   4.252   4.604
    1C        C  497   2.818   4.308   4.724
    1C        C  498   2.662   4.162   4.844
    1C        C  499   2.756   4.267   4.844
    1C        C  500   2.596   4.111   4.957
    1C        C  501   4.000   4.355   2.037
    1C        C  502   3.815   4.466   2.155
    1C        C  503   3.941   4.403   2.155
    1C        C  504   3.740   4.480   2.274
    1C        C  505   3.809   4.455   2.395
    1C        C  506   3.605   4.504   2.520
    1C        C  507   3.744   4.483   2.517
    1C        C  508   3.532   4.517   2.640
    1C        C  509   3.605   4.512   2.761
    1C        C  510   3.393   4.523   2.886
    1C        C  511   3.534   4.520   2.883
    1C        C  512   3.319   4.520   3.007
    1C        C  513   3.394   4.525   3.127
    1C        C  514   3.188   4.490   3.254
    1C        C  515   3.326   4.521   3.251
    1C        C  516   3.118   4.468   3.375
    1C        C  517   3.186   4.494   3.496
    1C        C  518   2.998   4.407   3.624
    1C        C  519   3.123   4.472   3.620
    1C        C  520   2.935   4.372   3.746
    1C        C  521   2.997   4.407   3.868
    1C        C  522   2.828   4.287   3.993
    1C        C  523   2.939   4.374   3.992
    1C        C  524   2.776   4.237   4.115
    1C        C  525   2.828   4.287   4.237
    1C        C  526   2.697   4.127   4.363
    1C        C  527   2.777   4.243   4.361
    1C        C  528   2.654   4.071   4.486
    1C        C  529   2.685   4.140   4.605
    1C        C  530   2.580   3.957   4.728
    1C        C  531   2.638   4.087   4.727
    1C        C  532   2.543   3.896   4.850
    1C        C  533   2.527   3.989   4.958
    1C        C  534   3.615   4.555   2.038
    1C        C  535   3.750   4.515   2.041
    1C        C  536   3.534   4.536   2.154
    1C        C  537   3.601   4.509   2.276
    1C        C  538   3.391   4.514   2.400
    1C        C  539   3.532   4.512   2.399
    1C        C  540   3.317   4.510   2.521
    1C        C  541   3.390   4.517   2.641
    1C        C  542   3.184   4.482   2.762
    1C        C  543   3.322   4.510   2.765
    1C        C  544   3.117   4.459   2.885
    1C        C  545   3.184   4.481   3.007
    1C        C  546   2.997   4.396   3.133
    1C        C  547   3.122   4.463   3.133
    1C        C  548   2.936   4.363   3.257
    1C        C  549   2.993   4.402   3.380
    1C        C  550   2.827   4.275   3.504
    1C        C  551   2.937   4.363   3.504
    1C        C  552   2.775   4.229   3.627
    1C        C  553   2.828   4.280   3.748
    1C        C  554   2.694   4.121   3.874
    1C        C  555   2.780   4.232   3.872
    1C        C  556   2.655   4.060   3.995
    1C        C  557   2.695   4.122   4.116
    1C        C  558   2.603   3.937   4.245
    1C        C  559   2.663   4.065   4.241
    1C        C  560   2.564   3.877   4.367
    1C        C  561   2.588   3.947   4.488
    1C        C  562   2.527   3.744   4.616
    1C        C  563   2.562   3.881   4.610
    1C        C  564   2.511   3.676   4.739
    1C        C  565   2.510   3.757   4.856
    1C        C  566   2.537   3.541   4.975
    1C        C  567   2.523   3.680   4.972
    1C        C  568   3.328   4.469   2.041
    1C        C  569   3.394   4.511   2.157
    1C        C  570   3.184   4.467   2.278
    1C        C  571   3.320   4.507   2.278
    1C        C  572   3.115   4.449   2.400
    1C        C  573   3.178   4.484   2.521
    1C        C  574   2.985   4.398   2.641
    1C        C  575   3.110   4.464   2.643
    1C        C  576   2.933   4.357   2.766
    1C        C  577   2.992   4.393   2.889
    1C        C  578   2.823   4.270   3.012
    1C        C  579   2.934   4.357   3.013
    1C        C  580   2.779   4.218   3.135
    1C        C  581   2.829   4.271   3.256
    1C        C  582   2.697   4.110   3.379
    1C        C  583   2.782   4.223   3.380
    1C        C  584   2.661   4.054   3.504
    1C        C  585   2.689   4.116   3.627
    1C        C  586   2.596   3.931   3.752
    1C        C  587   2.658   4.058   3.752
    1C        C  588   2.566   3.869   3.876
    1C        C  589   2.596   3.932   3.999
    1C        C  590   2.535   3.734   4.124
    1C        C  591   2.578   3.868   4.124
    1C        C  592   2.526   3.668   4.249
    1C        C  593   2.530   3.740   4.370
    1C        C  594   2.512   3.533   4.495
    1C        C  595   2.517   3.674   4.494
    1C        C  596   2.526   3.462   4.617
    1C        C  597   2.521   3.534   4.738
    1C        C  598   2.537   3.321   4.858
    1C        C  599   2.530   3.462   4.859
    1C        C  600   2.527   3.245   4.975
    1C        C  601   3.196   4.428   2.045
    1C        C  602   2.978   4.389   2.156
    1C        C  603   3.114   4.434   2.158
    1C        C  604   2.922   4.354   2.282
    1C        C  605   2.986   4.390   2.403
    1C        C  606   2.812   4.266   2.526
    1C        C  607   2.920   4.356   2.523
    1C        C  608   2.767   4.219   2.651
    1C        C  609   2.823   4.269   2.771
    1C        C  610   2.684   4.105   2.894
    1C        C  611   2.771   4.216   2.892
    1C        C  612   2.650   4.049   3.019
    1C        C  613   2.690   4.108   3.141
    1C        C  614   2.587   3.921   3.262
    1C        C  615   2.648   4.048   3.262
    1C        C  616   2.565   3.864   3.389
    1C        C  617   2.594   3.930   3.511
    1C        C  618   2.529   3.726   3.635
    1C        C  619   2.570   3.861   3.632
    1C        C  620   2.519   3.662   3.761
    1C        C  621   2.528   3.733   3.883
    1C        C  622   2.514   3.520   4.005
    1C        C  623   2.520   3.661   4.004
    1C        C  624   2.516   3.454   4.130
    1C        C  625   2.514   3.528   4.250
    1C        C  626   2.533   3.320   4.376
    1C        C  627   2.512   3.460   4.374
    1C        C  628   2.552   3.250   4.497
    1C        C  629   2.543   3.322   4.618
    1C        C  630   2.594   3.112   4.744
    1C        C  631   2.551   3.248   4.738
    1C        C  632   2.613   3.045   4.868
    1C        C  633   2.557   3.108   4.983
    1C        C  634   2.778   4.309   2.053
    1C        C  635   2.891   4.391   2.043
    1C        C  636   2.740   4.233   2.165
    1C        C  637   2.803   4.276   2.283
    1C        C  638   2.666   4.112   2.406
    1C        C  639   2.755   4.221   2.404
    1C        C  640   2.632   4.051   2.529
    1C        C  641   2.680   4.108   2.649
    1C        C  642   2.585   3.919   2.772
    1C        C  643   2.646   4.046   2.771
    1C        C  644   2.566   3.852   2.895
    1C        C  645   2.594   3.919   3.016
    1C        C  646   2.526   3.720   3.148
    1C        C  647   2.564   3.856   3.139
    1C        C  648   2.511   3.654   3.272
    1C        C  649   2.526   3.729   3.391
    1C        C  650   2.510   3.515   3.517
    1C        C  651   2.517   3.657   3.513
    1C        C  652   2.511   3.448   3.641
    1C        C  653   2.516   3.521   3.762
    1C        C  654   2.537   3.309   3.888
    1C        C  655   2.519   3.449   3.883
    1C        C  656   2.550   3.243   4.012
    1C        C  657   2.539   3.314   4.133
    1C        C  658   2.610   3.117   4.256
    1C        C  659   2.562   3.250   4.257
    1C        C  660   2.631   3.051   4.380
    1C        C  661   2.600   3.117   4.501
    1C        C  662   2.710   2.935   4.622
    1C        C  663   2.628   3.050   4.622
    1C        C  664   2.752   2.880   4.745
    1C        C  665   2.693   2.926   4.866
    1C        C  666   2.743   2.864   4.982
    1C        C  667   2.672   4.027   2.048
    1C        C  668   2.674   4.108   2.162
    1C        C  669   2.588   3.914   2.289
    1C        C  670   2.636   4.048   2.284
    1C        C  671   2.561   3.845   2.409
    1C        C  672   2.581   3.919   2.527
    1C        C  673   2.521   3.717   2.659
    1C        C  674   2.557   3.853   2.650
    1C        C  675   2.507   3.646   2.780
    1C        C  676   2.522   3.718   2.900
    1C        C  677   2.501   3.512   3.027
    1C        C  678   2.513   3.652   3.025
    1C        C  679   2.506   3.441   3.150
    1C        C  680   2.503   3.513   3.271
    1C        C  681   2.537   3.306   3.398
    1C        C  682   2.511   3.445   3.394
    1C        C  683   2.554   3.239   3.522
    1C        C  684   2.535   3.309   3.643
    1C        C  685   2.607   3.110   3.769
    1C        C  686   2.554   3.241   3.766
    1C        C  687   2.635   3.049   3.894
    1C        C  688   2.597   3.109   4.016
    1C        C  689   2.714   2.929   4.139
    1C        C  690   2.633   3.046   4.136
    1C        C  691   2.746   2.867   4.262
    1C        C  692   2.704   2.931   4.381
    1C        C  693   2.749   2.873   4.502
    1C        C  694   2.625   3.895   2.054
    1C        C  695   2.526   3.705   2.175
    1C        C  696   2.575   3.837   2.171
    1C        C  697   2.503   3.636   2.296
    1C        C  698   2.517   3.710   2.416
    1C        C  699   2.494   3.502   2.541
    1C        C  700   2.506   3.643   2.539
    1C        C  701   2.496   3.431   2.663
    1C        C  702   2.496   3.505   2.783
    1C        C  703   2.518   3.297   2.908
    1C        C  704   2.501   3.437   2.907
    1C        C  705   2.539   3.229   3.030
    1C        C  706   2.526   3.301   3.151
    1C        C  707   2.602   3.106   3.277
    1C        C  708   2.552   3.238   3.275
    1C        C  709   2.637   3.046   3.399
    1C        C  710   2.604   3.107   3.522
    1C        C  711   2.711   2.929   3.647
    1C        C  712   2.634   3.047   3.646
    1C        C  713   2.759   2.875   3.768
    1C        C  714   2.716   2.934   3.889
    1C        C  715   2.759   2.882   4.014
    1C        C  716   2.457   3.497   2.057
    1C        C  717   2.499   3.630   2.059
    1C        C  718   2.466   3.422   2.178
    1C        C  719   2.482   3.496   2.299
    1C        C  720   2.504   3.287   2.421
    1C        C  721   2.486   3.427   2.422
    1C        C  722   2.535   3.222   2.543
    1C        C  723   2.520   3.291   2.665
    1C        C  724   2.590   3.095   2.785
    1C        C  725   2.531   3.223   2.788
    1C        C  726   2.619   3.034   2.909
    1C        C  727   2.593   3.098   3.032
    1C        C  728   2.709   2.923   3.157
    1C        C  729   2.627   3.038   3.155
    1C        C  730   2.755   2.872   3.280
    1C        C  731   2.715   2.928   3.404
    1C        C  732   2.757   2.871   3.526
    1C        C  733   2.490   3.193   2.072
    1C        C  734   2.492   3.281   2.182
    1C        C  735   2.576   3.081   2.306
    1C        C  736   2.520   3.212   2.303
    1C        C  737   2.613   3.017   2.426
    1C        C  738   2.593   3.093   2.544
    1C        C  739   2.701   2.909   2.670
    1C        C  740   2.626   3.029   2.665
    1C        C  741   2.745   2.858   2.794
    1C        C  742   2.698   2.917   2.913
    1C        C  743   2.749   2.865   3.034
    1C        C  744   2.540   3.064   2.074
    1C        C  745   2.679   2.891   2.185
    1C        C  746   2.603   3.010   2.187
    1C        C  747   2.724   2.834   2.306
    1C        C  748   2.686   2.896   2.427
    1C        C  749   2.735   2.845   2.549
    1C        C  750   2.728   2.836   2.066
    1C        C  751   3.660   2.317   1.972
    1C        O  752   3.697   2.201   2.003
    1C        O  753   3.652   2.346   1.835
    1C        C  754   4.629   3.048   1.981
    1C        O  755   4.620   3.041   1.856
    1C        O  756   4.765   3.060   2.012
    1C        C  757   4.455   4.214   1.959
    1C        O  758   4.577   4.243   1.973
    1C        O  759   4.419   4.225   1.824
    1C        C  760   3.574   4.621   1.912
    1C        O  761   3.567   4.746   1.898
    1C        O  762   3.545   4.551   1.794
    1C        C  763   2.876   4.503   1.946
    1C        O  764   2.907   4.484   1.825
    1C        O  765   2.902   4.632   1.992
    1C        C  766   2.348   3.467   1.961
    1C        O  767   2.358   3.484   1.837
    1C        O  768   2.217   3.507   1.993
    1C        C  769   4.694   3.600   5.052
    1C        O  770   4.679   3.545   5.164
    1C        O  771   4.819   3.555   5.007
    1C        C  772   4.277   4.463   5.017
    1C        O  773   4.257   4.491   5.139
    1C        O  774   4.368   4.553   4.961
    1C        C  775   4.154   2.506   5.046
    1C        O  776   4.166   2.384   5.018
    1C        O  777   4.224   2.548   5.160
    1C        C  778   2.871   4.553   5.021
    1C        O  779   2.786   4.637   4.981
    1C        O  780   2.894   4.564   5.159
    1C        C  781   2.480   3.030   5.083
    1C        O  782   2.387   2.956   5.041
    1C        O  783   2.496   3.045   5.220
    1C        C  784   2.411   3.983   5.049
    1C        O  785   2.292   4.011   5.016
    1C        O  786   2.439   3.988   5.186
    1C        C  787   2.956   2.400   2.021
    1C        O  788   2.927   2.406   1.898
    1C        O  789   2.836   2.360   2.078
    1C        C  790   3.185   2.364   5.055
    1C        O  791   3.098   2.274   5.039
    1C        O  792   3.224   2.360   5.190
    1C        H  793   4.309   3.006   5.065
    1C        H  794   4.187   2.806   5.071
    1C        H  795   4.515   3.122   5.046
    1C        H  796   4.542   3.358   5.065
    1C        H  797   4.579   3.816   5.035
    1C        H  798   4.402   3.961   5.050
    1C        H  799   4.264   4.150   5.044
    1C        H  800   4.033   4.538   5.024
    1C        H  801   3.806   4.549   5.043
    1C        H  802   3.588   4.659   5.016
    1C        H  803   3.391   4.472   5.037
    1C        H  804   3.154   4.471   5.049
    1C        H  805   3.903   2.451   5.040
    1C        H  806   3.677   2.463   5.075
    1C        H  807   3.017   2.577   5.072
    1C        H  808   3.443   2.498   5.072
    1C        H  809   2.906   2.765   5.067
    1C        H  810   2.693   2.876   5.076
    1C        H  811   2.447   3.274   5.040
    1C        H  812   2.544   3.497   5.072
    1C        H  813   2.577   3.724   5.053
    1C        H  814   2.580   4.175   5.042
    1C        H  815   2.772   4.291   5.057
    1C        H  816   2.696   2.872   1.970
    1C        H  817   2.831   2.676   1.974
    1C        H  818   3.199   2.391   2.009
    1C        H  819   3.443   2.490   1.982
    1C        H  820   3.863   2.501   1.966
    1C        H  821   4.056   2.621   1.960
    1C        H  822   4.274   2.701   1.985
    1C        H  823   4.413   2.885   1.976
    1C        H  824   4.558   3.310   1.965
    1C        H  825   4.563   3.520   1.972
    1C        H  826   4.516   3.751   1.958
    1C        H  827   3.814   4.576   1.980
    1C        H  828   3.973   4.398   1.942
    1C        H  829   4.162   4.256   1.946
    1C        H  830   4.522   3.975   1.980
    1C        H  831   2.651   3.824   1.978
    1C        H  832   2.693   4.068   1.952
    1C        H  833   2.743   4.278   1.957
    1C        H  834   3.389   4.447   1.955
    1C        H  835   3.137   4.442   1.956
    1C        H  836   2.498   2.987   2.011
    1C        H  837   2.473   3.235   1.975
    1C        H  838   2.466   3.689   1.975
    2V3OU   H29  839   2.808   3.550   0.675
    2V3OU   C27  840   2.782   3.498   0.771
    2V3OU   H27  841   2.719   3.567   0.833
    2V3OU   H28  842   2.723   3.404   0.756
    2V3OU   O11  843   2.906   3.472   0.837
    2V3OU   C15  844   2.918   3.394   0.951
    2V3OU   C13  845   3.049   3.370   0.998
    2V3OU   C14  846   3.072   3.265   1.087
    2V3OU   C16  847   2.967   3.187   1.134
    2V3OU    H6  848   2.990   3.102   1.200
    2V3OU   C12  849   3.212   3.225   1.117
    2V3OU    O2  850   3.234   3.130   1.195
    2V3OU   C10  851   3.320   3.307   1.060
    2V3OU    C8  852   3.452   3.267   1.081
    2V3OU   O10  853   3.485   3.146   1.134
    2V3OU   H26  854   3.407   3.109   1.178
    2V3OU    C6  855   3.563   3.345   1.037
    2V3OU    C5  856   3.533   3.466   0.975
    2V3OU    C4  857   3.700   3.287   1.042
    2V3OU    H4  858   3.722   3.228   1.136
    2V3OU    H5  859   3.711   3.223   0.950
    2V3OU    C2  860   3.808   3.395   1.049
    2V3OU    O6  861   3.792   3.462   1.174
    2V3OU   H21  862   3.759   3.550   1.151
    2V3OU    C3  863   3.776   3.487   0.931
    2V3OU    H2  864   3.853   3.569   0.930
    2V3OU    H3  865   3.778   3.436   0.832
    2V3OU   C25  866   3.944   3.328   1.032
    2V3OU    O7  867   3.999   3.304   0.925
    2V3OU   C26  868   4.024   3.290   1.156
    2V3OU   H22  869   4.071   3.381   1.201
    2V3OU   H23  870   4.109   3.223   1.128
    2V3OU    O8  871   3.956   3.207   1.248
    2V3OU   H24  872   3.914   3.262   1.316
    2V3OU    C1  873   3.644   3.562   0.944
    2V3OU    H1  874   3.626   3.618   0.848
    2V3OU    O3  875   3.656   3.653   1.054
    2V3OU   C19  876   3.620   3.790   1.034
    2V3OU    H9  877   3.520   3.802   0.983
    2V3OU    O4  878   3.716   3.846   0.948
    2V3OU   C20  879   3.846   3.873   1.000
    2V3OU   H10  880   3.885   3.769   1.019
    2V3OU   C24  881   3.608   3.853   1.173
    2V3OU   H16  882   3.543   3.786   1.235
    2V3OU   H17  883   3.564   3.956   1.161
    2V3OU   C23  884   3.747   3.876   1.233
    2V3OU   H15  885   3.788   3.773   1.258
    2V3OU    N1  886   3.733   3.950   1.357
    2V3OU   H19  887   3.811   3.921   1.412
    2V3OU   H20  888   3.650   3.933   1.411
    2V3OU   C21  889   3.847   3.945   1.135
    2V3OU   H11  890   3.952   3.917   1.166
    2V3OU    O5  891   3.830   4.086   1.138
    2V3OU   H18  892   3.782   4.100   1.221
    2V3OU   C22  893   3.910   3.948   0.884
    2V3OU   H12  894   3.865   4.050   0.874
    2V3OU   H13  895   3.905   3.886   0.792
    2V3OU   H14  896   4.020   3.958   0.903
    2V3OU   C11  897   3.152   3.470   0.968
    2V3OU    O1  898   3.130   3.587   0.928
    2V3OU    C9  899   3.291   3.424   0.984
    2V3OU    C7  900   3.398   3.506   0.952
    2V3OU    O9  901   3.382   3.613   0.865
    2V3OU   H25  902   3.285   3.626   0.864
    2V3OU   C17  903   2.815   3.310   0.998
    2V3OU    H7  904   2.712   3.341   0.981
    2V3OU   C18  905   2.838   3.204   1.085
    2V3OU    H8  906   2.746   3.154   1.118
    3SOL     OW  907   0.580   4.509   1.037
    3SOL    HW1  908   0.511   4.439   1.019
    3SOL    HW2  909   0.538   4.583   1.090
    4SOL     OW  910   6.253   1.094   2.063
    4SOL    HW1  911   6.291   1.183   2.039
    4SOL    HW2  912   6.220   1.048   1.981
    5SOL     OW  913   3.643   2.948   0.989
    5SOL    HW1  914   3.623   2.934   0.892
    5SOL    HW2  915   3.577   3.014   1.026
    6SOL     OW  916   3.168   2.215   0.172
    6SOL    HW1  917   3.083   2.181   0.131
    6SOL    HW2  918   3.235   2.141   0.175
    7SOL     OW  919   5.556   1.167   1.826
    7SOL    HW1  920   5.462   1.177   1.793
    7SOL    HW2  921   5.569   1.222   1.908
    8SOL     OW  922   3.203   2.116   3.347
    8SOL    HW1  923   3.176   2.186   3.281
    8SOL    HW2  924   3.287   2.072   3.316
    9SOL     OW  925   6.338   4.348   6.586
    9SOL    HW1  926   6.426   4.395   6.596
    9SOL    HW2  927   6.281   4.366   6.666
   10SOL     OW  928   0.191   4.453   1.578
   10SOL    HW1  929   0.211   4.517   1.652
   10SOL    HW2  930   0.209   4.497   1.490
   11SOL     OW  931   3.843   6.729   6.801
   11SOL    HW1  932   3.922   6.718   6.862
   11SOL    HW2  933   3.774   6.661   6.824
   12SOL     OW  934   5.685   6.822   2.297
   12SOL    HW1  935   5.699   6.913   2.260
   12SOL    HW2  936   5.606   6.822   2.358
   13SOL     OW  937   2.218   6.784   2.449
   13SOL    HW1  938   2.249   6.837   2.370
   13SOL    HW2  939   2.193   6.691   2.420
   14SOL     OW  940   2.629   0.523   3.201
   14SOL    HW1  941   2.587   0.577   3.274
   14SOL    HW2  942   2.722   0.497   3.228
   15SOL     OW  943   2.557   6.629   6.188
   15SOL    HW1  944   2.645   6.646   6.233
   15SOL    HW2  945   2.572   6.614   6.090
   16SOL     OW  946   6.441   2.476   0.673
   16SOL    HW1  947   6.480   2.543   0.611
   16SOL    HW2  948   6.341   2.482   0.670
   17SOL     OW  949   3.919   5.764   3.429
   17SOL    HW1  950   4.015   5.742   3.447
   17SOL    HW2  951   3.873   5.785   3.515
   18SOL     OW  952   1.454   0.365   6.966
   18SOL    HW1  953   1.525   0.420   7.011
   18SOL    HW2  954   1.460   0.271   6.998
   19SOL     OW  955   0.724   6.601   1.156
   19SOL    HW1  956   0.625   6.601   1.145
   19SOL    HW2  957   0.764   6.679   1.108
   20SOL     OW  958   3.343   0.244   4.487
   20SOL    HW1  959   3.432   0.285   4.467
   20SOL    HW2  960   3.326   0.248   4.585
   21SOL     OW  961   2.874   2.943   1.396
   21SOL    HW1  962   2.855   2.904   1.487
   21SOL    HW2  963   2.971   2.932   1.375
   22SOL     OW  964   1.346   0.937   5.477
   22SOL    HW1  965   1.266   0.994   5.495
   22SOL    HW2  966   1.383   0.903   5.563
   23SOL     OW  967   2.660   6.458   4.687
   23SOL    HW1  968   2.619   6.440   4.777
   23SOL    HW2  969   2.759   6.448   4.693
   24SOL     OW  970   4.692   1.460   4.993
   24SOL    HW1  971   4.725   1.547   5.031
   24SOL    HW2  972   4.592   1.465   4.983
   25SOL     OW  973   2.660   6.079   0.882
   25SOL    HW1  974   2.591   6.113   0.946
   25SOL    HW2  975   2.615   6.024   0.811
   26SOL     OW  976   5.869   1.075   2.920
   26SOL    HW1  977   5.836   1.117   3.005
   26SOL    HW2  978   5.969   1.081   2.916
   27SOL     OW  979   6.007   0.195   2.519
   27SOL    HW1  980   6.090   0.249   2.504
   27SOL    HW2  981   5.948   0.202   2.439
   28SOL     OW  982   2.778   0.982   0.207
   28SOL    HW1  983   2.849   0.912   0.200
   28SOL    HW2  984   2.811   1.057   0.264
   29SOL     OW  985   4.771   3.005   1.652
   29SOL    HW1  986   4.720   3.040   1.731
   29SOL    HW2  987   4.857   2.965   1.684
   30SOL     OW  988   4.014   1.225   6.283
   30SOL    HW1  989   3.919   1.196   6.273
   30SOL    HW2  990   4.072   1.172   6.221
   31SOL     OW  991   0.932   1.821   5.246
   31SOL    HW1  992   1.021   1.863   5.262
   31SOL    HW2  993   0.920   1.806   5.148
   32SOL     OW  994   6.542   1.862   2.250
   32SOL    HW1  995   6.525   1.918   2.169
   32SOL    HW2  996   6.457   1.847   2.300
   33SOL     OW  997   1.572   1.137   4.922
   33SOL    HW1  998   1.475   1.158   4.909
   33SOL    HW2  999   1.625   1.221   4.920
   34SOL     OW 1000   0.591   0.929   5.165
   34SOL    HW1 1001   0.624   1.014   5.123
   34SOL    HW2 1002   0.665   0.889   5.220
   35SOL     OW 1003   4.745   2.247   6.283
   35SOL    HW1 1004   4.829   2.265   6.335
   35SOL    HW2 1005   4.671   2.223   6.346
   36SOL     OW 1006   0.995   2.474   5.968
   36SOL    HW1 1007   1.021   2.569   5.951
   36SOL    HW2 1008   0.986   2.426   5.880
   37SOL     OW 1009   3.349   6.669   1.778
   37SOL    HW1 1010   3.295   6.599   1.824
   37SOL    HW2 1011   3.298   6.755   1.776
   38SOL     OW 1012   6.663   5.924   1.854
   38SOL    HW1 1013   6.651   5.826   1.864
   38SOL    HW2 1014   6.742   5.943   1.796
   39SOL     OW 1015   6.837   2.586   6.421
   39SOL    HW1 1016   6.885   2.662   6.465
   39SOL    HW2 1017   6.837   2.600   6.322
   40SOL     OW 1018   0.191   1.566   1.736
   40SOL    HW1 1019   0.112   1.564   1.798
   40SOL    HW2 1020   0.254   1.492   1.760
   41SOL     OW 1021   0.768   1.322   6.125
   41SOL    HW1 1022   0.820   1.372   6.194
   41SOL    HW2 1023   0.672   1.318   6.152
   42SOL     OW 1024   3.740   6.831   0.565
   42SOL    HW1 1025   3.799   6.774   0.622
   42SOL    HW2 1026   3.788   6.915   0.542
   43SOL     OW 1027   4.646   5.536   5.220
   43SOL    HW1 1028   4.670   5.633   5.213
   43SOL    HW2 1029   4.561   5.526   5.272
   44SOL     OW 1030   0.931   4.164   6.683
   44SOL    HW1 1031   0.915   4.074   6.642
   44SOL    HW2 1032   0.846   4.198   6.723
   45SOL     OW 1033   2.661   7.017   1.092
   45SOL    HW1 1034   2.661   0.016   0.993
   45SOL    HW2 1035   2.574   6.974   1.118
   46SOL     OW 1036   0.624   5.543   3.768
   46SOL    HW1 1037   0.536   5.575   3.804
   46SOL    HW2 1038   0.637   5.579   3.676
   47SOL     OW 1039   6.437   4.301   2.632
   47SOL    HW1 1040   6.461   4.338   2.722
   47SOL    HW2 1041   6.496   4.344   2.563
   48SOL     OW 1042   0.786   1.439   5.182
   48SOL    HW1 1043   0.751   1.367   5.122
   48SOL    HW2 1044   0.863   1.484   5.139
   49SOL     OW 1045   5.660   3.320   0.122
   49SOL    HW1 1046   5.686   3.231   0.083
   49SOL    HW2 1047   5.732   3.351   0.184
   50SOL     OW 1048   0.609   3.925   4.631
   50SOL    HW1 1049   0.637   3.874   4.712
   50SOL    HW2 1050   0.682   3.923   4.562
   51SOL     OW 1051   2.860   6.003   1.979
   51SOL    HW1 1052   2.838   5.931   2.044
   51SOL    HW2 1053   2.784   6.015   1.915
   52SOL     OW 1054   0.298   2.262   1.974
   52SOL    HW1 1055   0.379   2.204   1.982
   52SOL    HW2 1056   0.323   2.357   1.986
   53SOL     OW 1057   4.719   6.651   3.992
   53SOL    HW1 1058   4.622   6.668   4.005
   53SOL    HW2 1059   4.769   6.676   4.075
   54SOL     OW 1060   4.324   4.658   5.460
   54SOL    HW1 1061   4.234   4.680   5.423
   54SOL    HW2 1062   4.386   4.632   5.386
   55SOL     OW 1063   3.805   2.416   1.265
   55SOL    HW1 1064   3.877   2.478   1.295
   55SOL    HW2 1065   3.716   2.460   1.275
   56SOL     OW 1066   0.369   0.576   1.929
   56SOL    HW1 1067   0.303   0.603   1.998
   56SOL    HW2 1068   0.430   0.653   1.909
   57SOL     OW 1069   5.199   0.779   0.344
   57SOL    HW1 1070   5.208   0.749   0.249
   57SOL    HW2 1071   5.219   0.702   0.405
   58SOL     OW 1072   6.848   0.461   6.979
   58SOL    HW1 1073   6.938   0.505   6.981
   58SOL    HW2 1074   6.777   0.532   6.974
   59SOL     OW 1075   0.181   6.804   5.652
   59SOL    HW1 1076   0.085   6.806   5.625
   59SOL    HW2 1077   0.212   6.709   5.659
   60SOL     OW 1078   4.967   6.863   5.173
   60SOL    HW1 1079   4.868   6.867   5.187
   60SOL    HW2 1080   4.994   6.933   5.106
   61SOL     OW 1081   3.486   0.009   5.479
   61SOL    HW1 1082   3.399   0.019   5.431
   61SOL    HW2 1083   3.536   6.949   5.443
   62SOL     OW 1084   2.667   0.079   4.598
   62SOL    HW1 1085   2.698   0.051   4.688
   62SOL    HW2 1086   2.652   7.017   4.540
   63SOL     OW 1087   6.915   2.938   4.000
   63SOL    HW1 1088   6.836   2.885   4.033
   63SOL    HW2 1089   6.906   2.951   3.901
   64SOL     OW 1090   6.773   2.364   5.293
   64SOL    HW1 1091   6.712   2.422   5.240
   64SOL    HW2 1092   6.867   2.375   5.261
   65SOL     OW 1093   1.342   4.188   5.622
   65SOL    HW1 1094   1.298   4.212   5.536
   65SOL    HW2 1095   1.403   4.262   5.650
   66SOL     OW 1096   2.471   0.994   1.344
   66SOL    HW1 1097   2.378   0.990   1.307
   66SOL    HW2 1098   2.531   1.039   1.278
   67SOL     OW 1099   4.436   5.238   4.184
   67SOL    HW1 1100   4.347   5.238   4.139
   67SOL    HW2 1101   4.449   5.151   4.232
   68SOL     OW 1102   5.270   2.833   6.882
   68SOL    HW1 1103   5.236   2.739   6.885
   68SOL    HW2 1104   5.244   2.876   6.796
   69SOL     OW 1105   2.345   3.020   5.646
   69SOL    HW1 1106   2.299   3.009   5.558
   69SOL    HW2 1107   2.442   3.041   5.630
   70SOL     OW 1108   5.851   0.691   2.653
   70SOL    HW1 1109   5.805   0.780   2.653
   70SOL    HW2 1110   5.802   0.628   2.714
   71SOL     OW 1111   1.945   4.388   2.077
   71SOL    HW1 1112   1.929   4.419   2.170
   71SOL    HW2 1113   1.935   4.465   2.013
   72SOL     OW 1114   4.114   5.509   3.843
   72SOL    HW1 1115   4.197   5.558   3.870
   72SOL    HW2 1116   4.122   5.413   3.870
   73SOL     OW 1117   3.262   2.959   6.827
   73SOL    HW1 1118   3.274   2.989   6.921
   73SOL    HW2 1119   3.165   2.938   6.811
   74SOL     OW 1120   4.950   0.143   6.039
   74SOL    HW1 1121   4.885   0.162   5.967
   74SOL    HW2 1122   4.940   0.210   6.112
   75SOL     OW 1123   3.789   5.451   5.596
   75SOL    HW1 1124   3.757   5.502   5.676
   75SOL    HW2 1125   3.711   5.410   5.549
   76SOL     OW 1126   2.733   2.913   0.938
   76SOL    HW1 1127   2.764   2.819   0.946
   76SOL    HW2 1128   2.666   2.933   1.009
   77SOL     OW 1129   5.655   4.181   6.639
   77SOL    HW1 1130   5.753   4.203   6.639
   77SOL    HW2 1131   5.625   4.165   6.544
   78SOL     OW 1132   6.000   0.162   5.615
   78SOL    HW1 1133   5.998   0.160   5.715
   78SOL    HW2 1134   5.922   0.111   5.579
   79SOL     OW 1135   3.262   6.597   0.967
   79SOL    HW1 1136   3.329   6.623   1.036
   79SOL    HW2 1137   3.183   6.658   0.973
   80SOL     OW 1138   0.405   1.001   4.036
   80SOL    HW1 1139   0.381   0.907   4.015
   80SOL    HW2 1140   0.334   1.043   4.092
   81SOL     OW 1141   1.770   6.111   2.781
   81SOL    HW1 1142   1.853   6.135   2.832
   81SOL    HW2 1143   1.710   6.191   2.776
   82SOL     OW 1144   6.296   4.451   5.633
   82SOL    HW1 1145   6.386   4.417   5.660
   82SOL    HW2 1146   6.285   4.545   5.666
   83SOL     OW 1147   5.836   6.938   5.745
   83SOL    HW1 1148   5.930   6.933   5.711
   83SOL    HW2 1149   5.775   6.967   5.672
   84SOL     OW 1150   6.753   3.152   2.230
   84SOL    HW1 1151   6.815   3.170   2.154
   84SOL    HW2 1152   6.694   3.074   2.208
   85SOL     OW 1153   1.335   1.467   4.999
   85SOL    HW1 1154   1.342   1.376   4.958
   85SOL    HW2 1155   1.358   1.461   5.096
   86SOL     OW 1156   2.194   0.887   4.802
   86SOL    HW1 1157   2.238   0.943   4.873
   86SOL    HW2 1158   2.095   0.899   4.807
   87SOL     OW 1159   4.561   6.948   2.230
   87SOL    HW1 1160   4.540   6.877   2.299
   87SOL    HW2 1161   4.478   6.968   2.177
   88SOL     OW 1162   5.998   0.891   1.552
   88SOL    HW1 1163   6.024   0.985   1.571
   88SOL    HW2 1164   5.938   0.857   1.625
   89SOL     OW 1165   2.217   2.011   5.082
   89SOL    HW1 1166   2.136   1.996   5.026
   89SOL    HW2 1167   2.215   1.949   5.161
   90SOL     OW 1168   5.936   5.957   3.795
   90SOL    HW1 1169   5.852   6.010   3.792
   90SOL    HW2 1170   5.983   5.963   3.707
   91SOL     OW 1171   5.142   5.072   4.417
   91SOL    HW1 1172   5.099   5.146   4.365
   91SOL    HW2 1173   5.080   4.994   4.423
   92SOL     OW 1174   3.692   5.958   1.341
   92SOL    HW1 1175   3.623   5.893   1.374
   92SOL    HW2 1176   3.653   6.012   1.266
   93SOL     OW 1177   2.773   5.130   6.037
   93SOL    HW1 1178   2.705   5.147   5.966
   93SOL    HW2 1179   2.791   5.032   6.043
   94SOL     OW 1180   1.744   6.748   1.958
   94SOL    HW1 1181   1.652   6.786   1.951
   94SOL    HW2 1182   1.782   6.733   1.867
   95SOL     OW 1183   0.100   6.950   4.573
   95SOL    HW1 1184   0.087   6.972   4.476
   95SOL    HW2 1185   0.085   6.852   4.587
   96SOL     OW 1186   1.699   6.511   4.537
   96SOL    HW1 1187   1.726   6.551   4.624
   96SOL    HW2 1188   1.751   6.554   4.463
   97SOL     OW 1189   6.305   2.775   4.225
   97SOL    HW1 1190   6.402   2.756   4.210
   97SOL    HW2 1191   6.264   2.696   4.270
   98SOL     OW 1192   4.610   0.892   5.385
   98SOL    HW1 1193   4.583   0.919   5.293
   98SOL    HW2 1194   4.589   0.795   5.399
   99SOL     OW 1195   4.779   0.938   0.740
   99SOL    HW1 1196   4.874   0.928   0.772
   99SOL    HW2 1197   4.722   0.867   0.782
  100SOL     OW 1198   6.631   5.637   0.640
  100SOL    HW1 1199   6.546   5.646   0.588
  100SOL    HW2 1200   6.663   5.542   0.635
  101SOL     OW 1201   1.658   6.902   3.707
  101SOL    HW1 1202   1.612   6.990   3.694
  101SOL    HW2 1203   1.717   6.908   3.788
  102SOL     OW 1204   4.636   0.725   2.908
  102SOL    HW1 1205   4.723   0.683   2.882
  102SOL    HW2 1206   4.608   0.790   2.837
  103SOL     OW 1207   4.014   1.398   2.301
  103SOL    HW1 1208   3.968   1.482   2.272
  103SOL    HW2 1209   4.054   1.412   2.391
  104SOL     OW 1210   6.140   6.266   2.225
  104SOL    HW1 1211   6.077   6.327   2.273
  104SOL    HW2 1212   6.230   6.269   2.270
  105SOL     OW 1213   5.822   0.901   6.255
  105SOL    HW1 1214   5.891   0.856   6.199
  105SOL    HW2 1215   5.734   0.855   6.243
  106SOL     OW 1216   3.609   6.878   1.044
  106SOL    HW1 1217   3.708   6.886   1.059
  106SOL    HW2 1218   3.561   6.937   1.110
  107SOL     OW 1219   2.609   3.526   0.053
  107SOL    HW1 1220   2.690   3.518   0.110
  107SOL    HW2 1221   2.527   3.525   0.111
  108SOL     OW 1222   4.560   4.120   5.254
  108SOL    HW1 1223   4.595   4.027   5.267
  108SOL    HW2 1224   4.532   4.158   5.341
  109SOL     OW 1225   6.122   0.686   2.094
  109SOL    HW1 1226   6.065   0.751   2.043
  109SOL    HW2 1227   6.189   0.736   2.150
  110SOL     OW 1228   3.392   6.289   4.194
  110SOL    HW1 1229   3.428   6.218   4.133
  110SOL    HW2 1230   3.460   6.362   4.203
  111SOL     OW 1231   2.988   1.304   3.120
  111SOL    HW1 1232   3.066   1.253   3.085
  111SOL    HW2 1233   2.993   1.311   3.219
  112SOL     OW 1234   0.012   1.864   6.480
  112SOL    HW1 1235   7.007   1.811   6.399
  112SOL    HW2 1236   7.002   1.815   6.562
  113SOL     OW 1237   6.791   6.600   3.847
  113SOL    HW1 1238   6.697   6.567   3.840
  113SOL    HW2 1239   6.833   6.564   3.930
  114SOL     OW 1240   1.282   6.342   0.413
  114SOL    HW1 1241   1.220   6.337   0.336
  114SOL    HW2 1242   1.301   6.250   0.447
  115SOL     OW 1243   5.474   1.206   5.727
  115SOL    HW1 1244   5.459   1.171   5.820
  115SOL    HW2 1245   5.395   1.184   5.670
  116SOL     OW 1246   6.202   4.089   2.942
  116SOL    HW1 1247   6.121   4.129   2.986
  116SOL    HW2 1248   6.173   4.026   2.870
  117SOL     OW 1249   0.583   6.696   6.267
  117SOL    HW1 1250   0.524   6.748   6.329
  117SOL    HW2 1251   0.531   6.667   6.187
  118SOL     OW 1252   2.460   1.274   3.140
  118SOL    HW1 1253   2.477   1.265   3.238
  118SOL    HW2 1254   2.362   1.280   3.124
  119SOL     OW 1255   6.699   2.250   6.432
  119SOL    HW1 1256   6.602   2.231   6.447
  119SOL    HW2 1257   6.715   2.349   6.435
  120SOL     OW 1258   4.411   6.056   1.565
  120SOL    HW1 1259   4.503   6.095   1.573
  120SOL    HW2 1260   4.411   5.981   1.499
  121SOL     OW 1261   2.419   2.943   6.076
  121SOL    HW1 1262   2.454   2.858   6.036
  121SOL    HW2 1263   2.354   2.921   6.149
  122SOL     OW 1264   1.373   3.459   4.929
  122SOL    HW1 1265   1.366   3.370   4.885
  122SOL    HW2 1266   1.316   3.525   4.880
  123SOL     OW 1267   6.623   1.475   1.913
  123SOL    HW1 1268   6.562   1.516   1.981
  123SOL    HW2 1269   6.714   1.463   1.952
  124SOL     OW 1270   4.989   3.703   1.277
  124SOL    HW1 1271   4.997   3.606   1.299
  124SOL    HW2 1272   4.908   3.741   1.321
  125SOL     OW 1273   2.541   3.626   1.725
  125SOL    HW1 1274   2.533   3.670   1.635
  125SOL    HW2 1275   2.450   3.609   1.762
  126SOL     OW 1276   3.818   4.593   0.303
  126SOL    HW1 1277   3.729   4.630   0.276
  126SOL    HW2 1278   3.804   4.517   0.367
  127SOL     OW 1279   0.659   5.851   5.823
  127SOL    HW1 1280   0.656   5.758   5.861
  127SOL    HW2 1281   0.640   5.846   5.724
  128SOL     OW 1282   4.859   2.414   0.477
  128SOL    HW1 1283   4.846   2.488   0.411
  128SOL    HW2 1284   4.950   2.373   0.463
  129SOL     OW 1285   2.784   3.764   6.918
  129SOL    HW1 1286   2.837   3.780   7.001
  129SOL    HW2 1287   2.803   3.836   6.852
  130SOL     OW 1288   1.674   2.254   4.336
  130SOL    HW1 1289   1.609   2.207   4.277
  130SOL    HW2 1290   1.647   2.240   4.432
  131SOL     OW 1291   5.825   1.122   2.477
  131SOL    HW1 1292   5.824   1.106   2.378
  131SOL    HW2 1293   5.761   1.196   2.500
  132SOL     OW 1294   0.919   1.883   1.914
  132SOL    HW1 1295   0.981   1.923   1.982
  132SOL    HW2 1296   0.930   1.784   1.913
  133SOL     OW 1297   0.121   5.787   3.171
  133SOL    HW1 1298   0.043   5.787   3.232
  133SOL    HW2 1299   0.177   5.869   3.187
  134SOL     OW 1300   1.206   3.470   3.022
  134SOL    HW1 1301   1.253   3.399   2.971
  134SOL    HW2 1302   1.169   3.538   2.959
  135SOL     OW 1303   4.441   0.938   4.550
  135SOL    HW1 1304   4.525   0.971   4.593
  135SOL    HW2 1305   4.458   0.920   4.453
  136SOL     OW 1306   4.969   4.633   6.430
  136SOL    HW1 1307   4.964   4.548   6.482
  136SOL    HW2 1308   5.063   4.649   6.401
  137SOL     OW 1309   4.089   0.834   5.323
  137SOL    HW1 1310   4.009   0.882   5.287
  137SOL    HW2 1311   4.157   0.901   5.355
  138SOL     OW 1312   5.613   4.339   5.455
  138SOL    HW1 1313   5.696   4.366   5.503
  138SOL    HW2 1314   5.576   4.255   5.497
  139SOL     OW 1315   3.505   5.998   5.670
  139SOL    HW1 1316   3.435   6.069   5.667
  139SOL    HW2 1317   3.464   5.909   5.647
  140SOL     OW 1318   6.383   4.086   4.675
  140SOL    HW1 1319   6.291   4.123   4.688
  140SOL    HW2 1320   6.384   4.027   4.594
  141SOL     OW 1321   1.438   2.026   2.702
  141SOL    HW1 1322   1.421   2.120   2.670
  141SOL    HW2 1323   1.525   2.023   2.750
  142SOL     OW 1324   1.069   5.131   1.008
  142SOL    HW1 1325   1.151   5.121   1.064
  142SOL    HW2 1326   1.039   5.227   1.011
  143SOL     OW 1327   4.958   4.541   1.960
  143SOL    HW1 1328   5.030   4.568   1.897
  143SOL    HW2 1329   4.982   4.570   2.053
  144SOL     OW 1330   2.979   6.844   0.871
  144SOL    HW1 1331   3.023   6.783   0.805
  144SOL    HW2 1332   3.044   6.868   0.943
  145SOL     OW 1333   6.490   5.241   0.952
  145SOL    HW1 1334   6.396   5.230   0.983
  145SOL    HW2 1335   6.517   5.337   0.958
  146SOL     OW 1336   0.263   4.438   0.560
  146SOL    HW1 1337   0.210   4.355   0.541
  146SOL    HW2 1338   0.248   4.505   0.488
  147SOL     OW 1339   5.628   2.485   0.762
  147SOL    HW1 1340   5.537   2.469   0.801
  147SOL    HW2 1341   5.670   2.564   0.808
  148SOL     OW 1342   0.903   5.579   5.176
  148SOL    HW1 1343   0.907   5.636   5.094
  148SOL    HW2 1344   0.840   5.503   5.160
  149SOL     OW 1345   2.914   0.877   6.146
  149SOL    HW1 1346   2.940   0.851   6.240
  149SOL    HW2 1347   2.968   0.957   6.118
  150SOL     OW 1348   0.100   6.051   5.305
  150SOL    HW1 1349   0.005   6.022   5.300
  150SOL    HW2 1350   0.117   6.093   5.395
  151SOL     OW 1351   4.664   0.300   2.150
  151SOL    HW1 1352   4.574   0.308   2.191
  151SOL    HW2 1353   4.704   0.210   2.173
  152SOL     OW 1354   2.710   0.719   4.439
  152SOL    HW1 1355   2.625   0.770   4.448
  152SOL    HW2 1356   2.782   0.780   4.405
  153SOL     OW 1357   1.125   0.315   2.559
  153SOL    HW1 1358   1.114   0.223   2.595
  153SOL    HW2 1359   1.160   0.375   2.631
  154SOL     OW 1360   0.489   1.750   3.043
  154SOL    HW1 1361   0.580   1.790   3.051
  154SOL    HW2 1362   0.420   1.823   3.049
  155SOL     OW 1363   0.953   1.101   3.582
  155SOL    HW1 1364   0.899   1.026   3.619
  155SOL    HW2 1365   0.979   1.081   3.488
  156SOL     OW 1366   0.045   2.631   1.364
  156SOL    HW1 1367   6.975   2.651   1.406
  156SOL    HW2 1368   0.094   2.564   1.421
  157SOL     OW 1369   0.466   2.387   2.608
  157SOL    HW1 1370   0.422   2.445   2.676
  157SOL    HW2 1371   0.461   2.431   2.518
  158SOL     OW 1372   2.222   1.378   3.361
  158SOL    HW1 1373   2.316   1.360   3.389
  158SOL    HW2 1374   2.213   1.363   3.262
  159SOL     OW 1375   5.134   3.719   1.786
  159SOL    HW1 1376   5.075   3.758   1.716
  159SOL    HW2 1377   5.081   3.705   1.870
  160SOL     OW 1378   6.261   4.641   6.552
  160SOL    HW1 1379   6.176   4.671   6.509
  160SOL    HW2 1380   6.322   4.603   6.483
  161SOL     OW 1381   2.747   4.566   5.395
  161SOL    HW1 1382   2.779   4.583   5.302
  161SOL    HW2 1383   2.823   4.535   5.452
  162SOL     OW 1384   4.514   5.752   2.455
  162SOL    HW1 1385   4.589   5.718   2.511
  162SOL    HW2 1386   4.474   5.833   2.498
  163SOL     OW 1387   5.959   0.515   1.391
  163SOL    HW1 1388   5.918   0.427   1.416
  163SOL    HW2 1389   5.984   0.514   1.294
  164SOL     OW 1390   6.488   3.153   1.549
  164SOL    HW1 1391   6.574   3.104   1.565
  164SOL    HW2 1392   6.492   3.241   1.596
  165SOL     OW 1393   6.219   3.381   6.983
  165SOL    HW1 1394   6.166   3.441   0.024
  165SOL    HW2 1395   6.272   3.316   0.021
  166SOL     OW 1396   1.424   6.953   0.541
  166SOL    HW1 1397   1.341   6.956   0.597
  166SOL    HW2 1398   1.440   0.024   0.499
  167SOL     OW 1399   6.519   2.601   1.586
  167SOL    HW1 1400   6.441   2.606   1.524
  167SOL    HW2 1401   6.493   2.635   1.676
  168SOL     OW 1402   2.391   5.305   1.408
  168SOL    HW1 1403   2.481   5.324   1.448
  168SOL    HW2 1404   2.323   5.363   1.453
  169SOL     OW 1405   0.785   0.352   1.516
  169SOL    HW1 1406   0.797   0.443   1.478
  169SOL    HW2 1407   0.776   0.286   1.441
  170SOL     OW 1408   0.329   1.706   3.493
  170SOL    HW1 1409   0.347   1.625   3.437
  170SOL    HW2 1410   0.377   1.698   3.580
  171SOL     OW 1411   3.382   4.072   0.709
  171SOL    HW1 1412   3.479   4.067   0.686
  171SOL    HW2 1413   3.331   4.107   0.631
  172SOL     OW 1414   0.283   2.978   2.250
  172SOL    HW1 1415   0.346   2.998   2.175
  172SOL    HW2 1416   0.336   2.957   2.333
  173SOL     OW 1417   6.797   6.933   5.763
  173SOL    HW1 1418   6.724   6.957   5.827
  173SOL    HW2 1419   6.768   6.957   5.670
  174SOL     OW 1420   2.247   5.928   3.726
  174SOL    HW1 1421   2.249   5.957   3.631
  174SOL    HW2 1422   2.341   5.909   3.757
  175SOL     OW 1423   0.379   4.956   3.957
  175SOL    HW1 1424   0.342   4.926   3.869
  175SOL    HW2 1425   0.471   4.991   3.944
  176SOL     OW 1426   2.719   5.822   0.024
  176SOL    HW1 1427   2.816   5.801   0.012
  176SOL    HW2 1428   2.708   5.894   0.093
  177SOL     OW 1429   4.452   1.364   2.744
  177SOL    HW1 1430   4.475   1.310   2.663
  177SOL    HW2 1431   4.466   1.308   2.826
  178SOL     OW 1432   5.618   3.889   6.195
  178SOL    HW1 1433   5.715   3.872   6.174
  178SOL    HW2 1434   5.570   3.802   6.202
  179SOL     OW 1435   3.116   6.457   0.054
  179SOL    HW1 1436   3.144   6.389   7.005
  179SOL    HW2 1437   3.180   6.458   0.130
  180SOL     OW 1438   0.962   2.305   0.007
  180SOL    HW1 1439   1.004   2.267   0.089
  180SOL    HW2 1440   0.916   2.231   6.975
  181SOL     OW 1441   3.012   3.612   4.124
  181SOL    HW1 1442   3.094   3.648   4.079
  181SOL    HW2 1443   2.967   3.546   4.064
  182SOL     OW 1444   5.459   2.248   5.045
  182SOL    HW1 1445   5.400   2.288   4.975
  182SOL    HW2 1446   5.403   2.223   5.125
  183SOL     OW 1447   6.284   1.524   2.705
  183SOL    HW1 1448   6.280   1.618   2.738
  183SOL    HW2 1449   6.213   1.509   2.637
  184SOL     OW 1450   0.397   5.072   2.150
  184SOL    HW1 1451   0.422   5.098   2.057
  184SOL    HW2 1452   0.386   4.973   2.155
  185SOL     OW 1453   3.277   3.663   6.144
  185SOL    HW1 1454   3.206   3.595   6.159
  185SOL    HW2 1455   3.250   3.725   6.071
  186SOL     OW 1456   6.255   6.632   3.308
  186SOL    HW1 1457   6.317   6.709   3.293
  186SOL    HW2 1458   6.250   6.577   3.224
  187SOL     OW 1459   5.719   0.180   4.122
  187SOL    HW1 1460   5.819   0.173   4.123
  187SOL    HW2 1461   5.684   0.166   4.215
  188SOL     OW 1462   5.940   2.310   4.948
  188SOL    HW1 1463   5.952   2.327   4.850
  188SOL    HW2 1464   5.962   2.393   4.998
  189SOL     OW 1465   1.941   4.705   3.456
  189SOL    HW1 1466   2.005   4.681   3.529
  189SOL    HW2 1467   1.879   4.629   3.439
  190SOL     OW 1468   3.368   1.262   6.936
  190SOL    HW1 1469   3.414   1.181   6.900
  190SOL    HW2 1470   3.416   1.294   7.017
  191SOL     OW 1471   5.332   5.950   6.335
  191SOL    HW1 1472   5.280   6.019   6.386
  191SOL    HW2 1473   5.276   5.916   6.259
  192SOL     OW 1474   6.424   0.451   6.747
  192SOL    HW1 1475   6.510   0.500   6.766
  192SOL    HW2 1476   6.426   0.362   6.793
  193SOL     OW 1477   5.976   3.950   6.926
  193SOL    HW1 1478   5.893   3.958   6.981
  193SOL    HW2 1479   6.045   3.900   6.977
  194SOL     OW 1480   4.019   0.258   4.989
  194SOL    HW1 1481   4.075   0.186   4.949
  194SOL    HW2 1482   4.006   0.240   5.087
  195SOL     OW 1483   0.153   5.710   3.535
  195SOL    HW1 1484   0.249   5.685   3.527
  195SOL    HW2 1485   0.105   5.643   3.591
  196SOL     OW 1486   0.488   1.143   0.787
  196SOL    HW1 1487   0.486   1.135   0.887
  196SOL    HW2 1488   0.458   1.058   0.746
  197SOL     OW 1489   2.145   1.026   0.762
  197SOL    HW1 1490   2.163   0.949   0.822
  197SOL    HW2 1491   2.051   1.022   0.729
  198SOL     OW 1492   3.098   1.382   5.060
  198SOL    HW1 1493   3.185   1.334   5.075
  198SOL    HW2 1494   3.115   1.480   5.057
  199SOL     OW 1495   1.836   1.169   4.253
  199SOL    HW1 1496   1.873   1.261   4.244
  199SOL    HW2 1497   1.751   1.172   4.306
  200SOL     OW 1498   6.127   2.341   0.512
  200SOL    HW1 1499   6.095   2.369   0.603
  200SOL    HW2 1500   6.132   2.241   0.508
  201SOL     OW 1501   0.406   1.780   5.808
  201SOL    HW1 1502   0.485   1.791   5.748
  201SOL    HW2 1503   0.341   1.716   5.766
  202SOL     OW 1504   5.551   6.877   0.518
  202SOL    HW1 1505   5.516   6.791   0.483
  202SOL    HW2 1506   5.483   6.949   0.506
  203SOL     OW 1507   6.633   3.873   0.117
  203SOL    HW1 1508   6.555   3.895   0.176
  203SOL    HW2 1509   6.606   3.881   0.022
  204SOL     OW 1510   6.460   0.820   5.248
  204SOL    HW1 1511   6.474   0.764   5.166
  204SOL    HW2 1512   6.545   0.828   5.299
  205SOL     OW 1513   2.127   4.612   3.620
  205SOL    HW1 1514   2.205   4.624   3.558
  205SOL    HW2 1515   2.156   4.558   3.699
  206SOL     OW 1516   0.685   3.985   1.229
  206SOL    HW1 1517   0.666   4.042   1.149
  206SOL    HW2 1518   0.601   3.937   1.256
  207SOL     OW 1519   0.026   2.692   4.214
  207SOL    HW1 1520   0.015   2.656   4.121
  207SOL    HW2 1521   0.070   2.782   4.210
  208SOL     OW 1522   1.284   3.141   4.987
  208SOL    HW1 1523   1.284   3.087   4.903
  208SOL    HW2 1524   1.365   3.120   5.041
  209SOL     OW 1525   5.918   3.818   2.478
  209SOL    HW1 1526   5.988   3.746   2.474
  209SOL    HW2 1527   5.882   3.834   2.386
  210SOL     OW 1528   4.853   3.842   1.047
  210SOL    HW1 1529   4.842   3.744   1.065
  210SOL    HW2 1530   4.933   3.875   1.096
  211SOL     OW 1531   1.552   1.429   1.509
  211SOL    HW1 1532   1.628   1.377   1.548
  211SOL    HW2 1533   1.466   1.392   1.544
  212SOL     OW 1534   2.414   4.178   1.616
  212SOL    HW1 1535   2.355   4.112   1.664
  212SOL    HW2 1536   2.434   4.144   1.525
  213SOL     OW 1537   0.961   5.368   1.025
  213SOL    HW1 1538   0.894   5.369   1.099
  213SOL    HW2 1539   0.954   5.452   0.971
  214SOL     OW 1540   5.930   6.443   2.360
  214SOL    HW1 1541   5.962   6.509   2.427
  214SOL    HW2 1542   5.880   6.370   2.406
  215SOL     OW 1543   2.408   4.719   2.625
  215SOL    HW1 1544   2.326   4.667   2.599
  215SOL    HW2 1545   2.425   4.789   2.557
  216SOL     OW 1546   1.542   6.035   3.041
  216SOL    HW1 1547   1.476   5.996   3.105
  216SOL    HW2 1548   1.518   6.009   2.948
  217SOL     OW 1549   0.083   4.760   5.004
  217SOL    HW1 1550   0.072   4.845   4.953
  217SOL    HW2 1551   0.152   4.771   5.075
  218SOL     OW 1552   3.126   2.444   5.764
  218SOL    HW1 1553   3.072   2.392   5.698
  218SOL    HW2 1554   3.215   2.401   5.775
  219SOL     OW 1555   5.275   2.260   1.477
  219SOL    HW1 1556   5.186   2.252   1.523
  219SOL    HW2 1557   5.332   2.181   1.500
  220SOL     OW 1558   2.484   6.533   0.487
  220SOL    HW1 1559   2.391   6.504   0.467
  220SOL    HW2 1560   2.486   6.632   0.503
  221SOL     OW 1561   4.693   4.642   2.216
  221SOL    HW1 1562   4.750   4.578   2.267
  221SOL    HW2 1563   4.635   4.591   2.152
  222SOL     OW 1564   1.499   4.009   6.454
  222SOL    HW1 1565   1.486   4.050   6.364
  222SOL    HW2 1566   1.411   3.979   6.490
  223SOL     OW 1567   6.701   2.219   5.001
  223SOL    HW1 1568   6.672   2.162   4.924
  223SOL    HW2 1569   6.624   2.232   5.063
  224SOL     OW 1570   3.632   2.504   5.792
  224SOL    HW1 1571   3.651   2.533   5.886
  224SOL    HW2 1572   3.617   2.584   5.735
  225SOL     OW 1573   4.256   6.003   6.155
  225SOL    HW1 1574   4.350   6.017   6.125
  225SOL    HW2 1575   4.237   6.058   6.236
  226SOL     OW 1576   1.846   2.411   0.094
  226SOL    HW1 1577   1.852   2.460   0.181
  226SOL    HW2 1578   1.757   2.430   0.051
  227SOL     OW 1579   1.413   3.789   1.206
  227SOL    HW1 1580   1.404   3.885   1.178
  227SOL    HW2 1581   1.509   3.764   1.210
  228SOL     OW 1582   0.949   0.391   2.364
  228SOL    HW1 1583   0.884   0.317   2.344
  228SOL    HW2 1584   1.018   0.359   2.428
  229SOL     OW 1585   4.077   0.615   6.265
  229SOL    HW1 1586   4.115   0.704   6.286
  229SOL    HW2 1587   3.977   0.619   6.270
  230SOL     OW 1588   5.829   3.757   5.905
  230SOL    HW1 1589   5.772   3.780   5.826
  230SOL    HW2 1590   5.894   3.686   5.879
  231SOL     OW 1591   4.936   1.302   0.243
  231SOL    HW1 1592   4.901   1.371   0.179
  231SOL    HW2 1593   4.974   1.347   0.323
  232SOL     OW 1594   1.297   2.799   5.058
  232SOL    HW1 1595   1.370   2.866   5.067
  232SOL    HW2 1596   1.237   2.804   5.138
  233SOL     OW 1597   3.664   1.866   3.658
  233SOL    HW1 1598   3.645   1.871   3.559
  233SOL    HW2 1599   3.701   1.776   3.680
  234SOL     OW 1600   5.446   6.644   0.420
  234SOL    HW1 1601   5.503   6.570   0.383
  234SOL    HW2 1602   5.359   6.646   0.370
  235SOL     OW 1603   5.212   3.496   2.402
  235SOL    HW1 1604   5.230   3.567   2.469
  235SOL    HW2 1605   5.118   3.463   2.412
  236SOL     OW 1606   3.569   3.127   5.862
  236SOL    HW1 1607   3.628   3.164   5.791
  236SOL    HW2 1608   3.546   3.032   5.841
  237SOL     OW 1609   6.176   3.476   3.267
  237SOL    HW1 1610   6.129   3.453   3.353
  237SOL    HW2 1611   6.269   3.506   3.287
  238SOL     OW 1612   6.394   1.854   0.214
  238SOL    HW1 1613   6.369   1.830   0.308
  238SOL    HW2 1614   6.333   1.805   0.151
  239SOL     OW 1615   1.850   3.389   0.565
  239SOL    HW1 1616   1.797   3.327   0.622
  239SOL    HW2 1617   1.857   3.352   0.472
  240SOL     OW 1618   5.634   3.322   4.142
  240SOL    HW1 1619   5.558   3.313   4.077
  240SOL    HW2 1620   5.674   3.232   4.159
  241SOL     OW 1621   2.032   2.789   3.921
  241SOL    HW1 1622   2.131   2.775   3.934
  241SOL    HW2 1623   1.988   2.700   3.911
  242SOL     OW 1624   3.745   3.392   2.082
  242SOL    HW1 1625   3.708   3.300   2.095
  242SOL    HW2 1626   3.754   3.437   2.171
  243SOL     OW 1627   4.127   2.987   6.384
  243SOL    HW1 1628   4.061   2.933   6.332
  243SOL    HW2 1629   4.211   2.933   6.396
  244SOL     OW 1630   4.905   3.415   4.777
  244SOL    HW1 1631   4.871   3.321   4.781
  244SOL    HW2 1632   4.870   3.466   4.855
  245SOL     OW 1633   3.543   1.055   3.010
  245SOL    HW1 1634   3.579   1.043   2.918
  245SOL    HW2 1635   3.473   1.126   3.010
  246SOL     OW 1636   6.821   1.304   2.457
  246SOL    HW1 1637   6.871   1.264   2.533
  246SOL    HW2 1638   6.863   1.391   2.431
  247SOL     OW 1639   2.652   0.881   2.060
  247SOL    HW1 1640   2.628   0.871   2.157
  247SOL    HW2 1641   2.749   0.904   2.052
  248SOL     OW 1642   3.385   3.610   1.363
  248SOL    HW1 1643   3.289   3.625   1.341
  248SOL    HW2 1644   3.394   3.524   1.413
  249SOL     OW 1645   4.874   6.525   5.539
  249SOL    HW1 1646   4.969   6.544   5.566
  249SOL    HW2 1647   4.868   6.524   5.439
  250SOL     OW 1648   4.003   2.179   0.037
  250SOL    HW1 1649   3.972   2.269   0.069
  250SOL    HW2 1650   3.994   2.175   6.956
  251SOL     OW 1651   4.394   5.192   5.017
  251SOL    HW1 1652   4.440   5.122   4.962
  251SOL    HW2 1653   4.446   5.277   5.014
  252SOL     OW 1654   6.442   6.054   5.140
  252SOL    HW1 1655   6.443   5.966   5.092
  252SOL    HW2 1656   6.535   6.092   5.142
  253SOL     OW 1657   4.580   5.893   5.816
  253SOL    HW1 1658   4.542   5.926   5.903
  253SOL    HW2 1659   4.661   5.946   5.793
  254SOL     OW 1660   6.082   2.452   5.371
  254SOL    HW1 1661   6.008   2.394   5.405
  254SOL    HW2 1662   6.058   2.486   5.280
  255SOL     OW 1663   1.287   4.428   6.539
  255SOL    HW1 1664   1.256   4.333   6.530
  255SOL    HW2 1665   1.214   4.482   6.580
  256SOL     OW 1666   4.838   2.357   5.163
  256SOL    HW1 1667   4.745   2.362   5.128
  256SOL    HW2 1668   4.838   2.377   5.261
  257SOL     OW 1669   4.798   6.280   2.384
  257SOL    HW1 1670   4.707   6.274   2.344
  257SOL    HW2 1671   4.835   6.372   2.370
  258SOL     OW 1672   1.981   3.260   6.150
  258SOL    HW1 1673   1.989   3.229   6.245
  258SOL    HW2 1674   2.063   3.311   6.125
  259SOL     OW 1675   3.362   0.584   4.038
  259SOL    HW1 1676   3.458   0.577   4.013
  259SOL    HW2 1677   3.318   0.654   3.982
  260SOL     OW 1678   3.646   5.841   3.281
  260SOL    HW1 1679   3.720   5.774   3.286
  260SOL    HW2 1680   3.639   5.889   3.368
  261SOL     OW 1681   3.764   4.795   6.952
  261SOL    HW1 1682   3.783   4.822   6.857
  261SOL    HW2 1683   3.844   4.747   6.989
  262SOL     OW 1684   0.794   3.477   6.184
  262SOL    HW1 1685   0.813   3.386   6.147
  262SOL    HW2 1686   0.870   3.538   6.162
  263SOL     OW 1687   1.978   0.070   3.719
  263SOL    HW1 1688   2.051   0.062   3.787
  263SOL    HW2 1689   1.974   7.005   3.665
  264SOL     OW 1690   6.513   2.783   6.331
  264SOL    HW1 1691   6.578   2.839   6.384
  264SOL    HW2 1692   6.425   2.780   6.379
  265SOL     OW 1693   0.134   0.030   2.899
  265SOL    HW1 1694   0.195   6.996   2.959
  265SOL    HW2 1695   0.043   7.006   2.899
  266SOL     OW 1696   3.627   0.689   5.924
  266SOL    HW1 1697   3.640   0.787   5.943
  266SOL    HW2 1698   3.529   0.668   5.925
  267SOL     OW 1699   2.686   7.015   2.649
  267SOL    HW1 1700   2.596   0.039   2.654
  267SOL    HW2 1701   2.677   6.916   2.663
  268SOL     OW 1702   3.883   2.322   0.590
  268SOL    HW1 1703   3.977   2.288   0.584
  268SOL    HW2 1704   3.875   2.386   0.666
  269SOL     OW 1705   5.476   1.891   6.764
  269SOL    HW1 1706   5.551   1.869   6.825
  269SOL    HW2 1707   5.410   1.950   6.811
  270SOL     OW 1708   5.428   1.307   0.564
  270SOL    HW1 1709   5.386   1.386   0.610
  270SOL    HW2 1710   5.419   1.317   0.465
  271SOL     OW 1711   6.902   4.867   5.913
  271SOL    HW1 1712   6.984   4.851   5.967
  271SOL    HW2 1713   6.826   4.814   5.951
  272SOL     OW 1714   3.205   6.041   3.146
  272SOL    HW1 1715   3.142   6.078   3.214
  272SOL    HW2 1716   3.290   6.013   3.191
  273SOL     OW 1717   1.625   5.497   6.088
  273SOL    HW1 1718   1.668   5.430   6.028
  273SOL    HW2 1719   1.642   5.589   6.053
  274SOL     OW 1720   4.360   2.106   3.785
  274SOL    HW1 1721   4.345   2.041   3.710
  274SOL    HW2 1722   4.316   2.193   3.763
  275SOL     OW 1723   5.520   0.629   1.271
  275SOL    HW1 1724   5.436   0.679   1.249
  275SOL    HW2 1725   5.595   0.662   1.215
  276SOL     OW 1726   0.498   6.907   4.135
  276SOL    HW1 1727   0.420   6.900   4.197
  276SOL    HW2 1728   0.574   6.854   4.172
  277SOL     OW 1729   2.284   4.765   1.309
  277SOL    HW1 1730   2.338   4.825   1.369
  277SOL    HW2 1731   2.228   4.821   1.248
  278SOL     OW 1732   0.953   2.545   3.794
  278SOL    HW1 1733   0.900   2.560   3.710
  278SOL    HW2 1734   0.914   2.600   3.868
  279SOL     OW 1735   6.343   1.407   3.258
  279SOL    HW1 1736   6.310   1.480   3.199
  279SOL    HW2 1737   6.376   1.446   3.344
  280SOL     OW 1738   1.809   5.255   2.932
  280SOL    HW1 1739   1.800   5.186   3.004
  280SOL    HW2 1740   1.883   5.318   2.956
  281SOL     OW 1741   2.622   4.240   1.116
  281SOL    HW1 1742   2.525   4.255   1.134
  281SOL    HW2 1743   2.643   4.265   1.022
  282SOL     OW 1744   1.718   1.358   4.943
  282SOL    HW1 1745   1.747   1.421   5.015
  282SOL    HW2 1746   1.711   1.407   4.856
  283SOL     OW 1747   2.950   2.782   6.538
  283SOL    HW1 1748   2.995   2.825   6.460
  283SOL    HW2 1749   2.935   2.685   6.519
  284SOL     OW 1750   0.587   4.001   3.902
  284SOL    HW1 1751   0.530   3.924   3.930
  284SOL    HW2 1752   0.579   4.075   3.969
  285SOL     OW 1753   5.285   3.958   3.892
  285SOL    HW1 1754   5.222   3.971   3.815
  285SOL    HW2 1755   5.345   4.038   3.900
  286SOL     OW 1756   2.655   3.970   1.048
  286SOL    HW1 1757   2.717   4.004   0.978
  286SOL    HW2 1758   2.645   4.039   1.120
  287SOL     OW 1759   0.918   2.910   0.072
  287SOL    HW1 1760   0.922   2.961   7.005
  287SOL    HW2 1761   0.886   2.970   0.145
  288SOL     OW 1762   5.431   3.092   1.693
  288SOL    HW1 1763   5.379   3.173   1.669
  288SOL    HW2 1764   5.513   3.118   1.744
  289SOL     OW 1765   3.894   5.715   6.817
  289SOL    HW1 1766   3.837   5.635   6.837
  289SOL    HW2 1767   3.848   5.772   6.750
  290SOL     OW 1768   1.965   1.206   4.935
  290SOL    HW1 1769   2.015   1.165   5.012
  290SOL    HW2 1770   1.873   1.231   4.965
  291SOL     OW 1771   6.743   1.587   2.779
  291SOL    HW1 1772   6.666   1.646   2.802
  291SOL    HW2 1773   6.828   1.627   2.815
  292SOL     OW 1774   3.445   6.893   3.940
  292SOL    HW1 1775   3.371   6.903   4.007
  292SOL    HW2 1776   3.528   6.935   3.976
  293SOL     OW 1777   3.198   4.864   3.427
  293SOL    HW1 1778   3.290   4.839   3.397
  293SOL    HW2 1779   3.131   4.831   3.360
  294SOL     OW 1780   4.806   0.040   0.609
  294SOL    HW1 1781   4.760   6.985   0.658
  294SOL    HW2 1782   4.905   0.034   0.625
  295SOL     OW 1783   5.832   0.497   4.051
  295SOL    HW1 1784   5.816   0.595   4.066
  295SOL    HW2 1785   5.745   0.453   4.030
  296SOL     OW 1786   2.637   2.113   3.096
  296SOL    HW1 1787   2.625   2.067   3.008
  296SOL    HW2 1788   2.682   2.051   3.160
  297SOL     OW 1789   1.643   5.149   2.060
  297SOL    HW1 1790   1.735   5.188   2.061
  297SOL    HW2 1791   1.599   5.168   1.972
  298SOL     OW 1792   6.840   4.999   0.880
  298SOL    HW1 1793   6.815   5.028   0.972
  298SOL    HW2 1794   6.758   4.995   0.823
  299SOL     OW 1795   5.683   2.667   3.756
  299SOL    HW1 1796   5.591   2.630   3.744
  299SOL    HW2 1797   5.678   2.751   3.810
  300SOL     OW 1798   6.046   6.847   1.409
  300SOL    HW1 1799   6.046   6.772   1.343
  300SOL    HW2 1800   6.135   6.892   1.410
  301SOL     OW 1801   5.131   2.981   5.885
  301SOL    HW1 1802   5.087   2.909   5.831
  301SOL    HW2 1803   5.111   3.070   5.845
  302SOL     OW 1804   1.258   5.592   4.749
  302SOL    HW1 1805   1.353   5.561   4.750
  302SOL    HW2 1806   1.198   5.516   4.722
  303SOL     OW 1807   6.371   7.013   3.635
  303SOL    HW1 1808   6.280   6.974   3.625
  303SOL    HW2 1809   6.417   6.970   3.713
  304SOL     OW 1810   3.569   0.383   4.398
  304SOL    HW1 1811   3.514   0.455   4.440
  304SOL    HW2 1812   3.615   0.419   4.317
  305SOL     OW 1813   1.663   4.403   0.701
  305SOL    HW1 1814   1.665   4.464   0.780
  305SOL    HW2 1815   1.753   4.362   0.688
  306SOL     OW 1816   1.967   1.141   3.215
  306SOL    HW1 1817   1.957   1.056   3.163
  306SOL    HW2 1818   1.954   1.122   3.313
  307SOL     OW 1819   3.044   0.531   1.469
  307SOL    HW1 1820   2.994   0.511   1.385
  307SOL    HW2 1821   3.114   0.460   1.483
  308SOL     OW 1822   0.758   4.927   4.082
  308SOL    HW1 1823   0.706   4.861   4.136
  308SOL    HW2 1824   0.695   4.981   4.025
  309SOL     OW 1825   3.544   4.546   5.357
  309SOL    HW1 1826   3.576   4.493   5.278
  309SOL    HW2 1827   3.480   4.492   5.411
  310SOL     OW 1828   1.424   6.123   6.531
  310SOL    HW1 1829   1.354   6.057   6.561
  310SOL    HW2 1830   1.491   6.136   6.604
  311SOL     OW 1831   0.103   0.657   1.257
  311SOL    HW1 1832   0.194   0.698   1.248
  311SOL    HW2 1833   0.049   0.676   1.175
  312SOL     OW 1834   3.899   1.487   5.920
  312SOL    HW1 1835   3.805   1.519   5.937
  312SOL    HW2 1836   3.952   1.560   5.879
  313SOL     OW 1837   6.720   4.767   1.359
  313SOL    HW1 1838   6.625   4.791   1.343
  313SOL    HW2 1839   6.729   4.723   1.448
  314SOL     OW 1840   3.548   5.771   2.368
  314SOL    HW1 1841   3.549   5.704   2.294
  314SOL    HW2 1842   3.483   5.844   2.346
  315SOL     OW 1843   0.881   3.932   2.922
  315SOL    HW1 1844   0.800   3.881   2.949
  315SOL    HW2 1845   0.961   3.898   2.971
  316SOL     OW 1846   2.155   3.187   3.832
  316SOL    HW1 1847   2.172   3.102   3.782
  316SOL    HW2 1848   2.165   3.170   3.930
  317SOL     OW 1849   0.002   2.164   0.795
  317SOL    HW1 1850   0.052   2.078   0.799
  317SOL    HW2 1851   0.060   2.238   0.829
  318SOL     OW 1852   2.703   4.339   0.861
  318SOL    HW1 1853   2.733   4.434   0.871
  318SOL    HW2 1854   2.637   4.331   0.786
  319SOL     OW 1855   0.016   1.329   6.003
  319SOL    HW1 1856   7.015   1.334   6.101
  319SOL    HW2 1857   0.114   1.346   5.988
  320SOL     OW 1858   5.541   3.162   2.190
  320SOL    HW1 1859   5.549   3.260   2.203
  320SOL    HW2 1860   5.544   3.116   2.279
  321SOL     OW 1861   2.115   1.546   1.989
  321SOL    HW1 1862   2.096   1.552   1.891
  321SOL    HW2 1863   2.188   1.610   2.013
  322SOL     OW 1864   3.595   3.000   5.608
  322SOL    HW1 1865   3.691   3.028   5.616
  322SOL    HW2 1866   3.591   2.908   5.569
  323SOL     OW 1867   1.478   4.366   1.639
  323SOL    HW1 1868   1.430   4.305   1.576
  323SOL    HW2 1869   1.441   4.354   1.731
  324SOL     OW 1870   0.314   2.526   3.902
  324SOL    HW1 1871   0.380   2.582   3.953
  324SOL    HW2 1872   0.294   2.443   3.954
  325SOL     OW 1873   1.948   2.236   2.449
  325SOL    HW1 1874   2.013   2.174   2.493
  325SOL    HW2 1875   1.863   2.188   2.429
  326SOL     OW 1876   1.855   4.525   4.615
  326SOL    HW1 1877   1.876   4.438   4.569
  326SOL    HW2 1878   1.900   4.526   4.705
  327SOL     OW 1879   6.284   3.771   6.281
  327SOL    HW1 1880   6.233   3.782   6.366
  327SOL    HW2 1881   6.382   3.773   6.302
  328SOL     OW 1882   3.358   5.975   3.441
  328SOL    HW1 1883   3.447   5.938   3.468
  328SOL    HW2 1884   3.285   5.928   3.491
  329SOL     OW 1885   3.683   4.076   1.993
  329SOL    HW1 1886   3.729   4.006   2.048
  329SOL    HW2 1887   3.590   4.046   1.971
  330SOL     OW 1888   2.767   2.640   1.459
  330SOL    HW1 1889   2.707   2.570   1.497
  330SOL    HW2 1890   2.798   2.701   1.532
  331SOL     OW 1891   6.606   4.011   5.640
  331SOL    HW1 1892   6.648   3.993   5.550
  331SOL    HW2 1893   6.554   3.931   5.668
  332SOL     OW 1894   4.021   1.949   3.283
  332SOL    HW1 1895   4.090   1.917   3.219
  332SOL    HW2 1896   4.040   1.911   3.374
  333SOL     OW 1897   4.442   6.642   1.174
  333SOL    HW1 1898   4.395   6.712   1.121
  333SOL    HW2 1899   4.541   6.650   1.159
  334SOL     OW 1900   5.329   6.798   2.614
  334SOL    HW1 1901   5.319   6.714   2.668
  334SOL    HW2 1902   5.423   6.831   2.621
  335SOL     OW 1903   3.331   0.387   2.024
  335SOL    HW1 1904   3.372   0.372   2.113
  335SOL    HW2 1905   3.279   0.473   2.025
  336SOL     OW 1906   3.602   0.990   4.873
  336SOL    HW1 1907   3.594   0.936   4.790
  336SOL    HW2 1908   3.698   0.998   4.899
  337SOL     OW 1909   1.326   4.233   2.442
  337SOL    HW1 1910   1.340   4.240   2.541
  337SOL    HW2 1911   1.316   4.324   2.403
  338SOL     OW 1912   2.263   2.756   0.802
  338SOL    HW1 1913   2.300   2.849   0.807
  338SOL    HW2 1914   2.290   2.705   0.884
  339SOL     OW 1915   4.736   0.705   3.212
  339SOL    HW1 1916   4.766   0.773   3.144
  339SOL    HW2 1917   4.813   0.679   3.269
  340SOL     OW 1918   5.215   3.736   4.575
  340SOL    HW1 1919   5.315   3.728   4.574
  340SOL    HW2 1920   5.176   3.654   4.617
  341SOL     OW 1921   4.324   4.424   5.640
  341SOL    HW1 1922   4.297   4.511   5.601
  341SOL    HW2 1923   4.248   4.387   5.695
  342SOL     OW 1924   5.701   3.122   0.840
  342SOL    HW1 1925   5.790   3.136   0.797
  342SOL    HW2 1926   5.659   3.210   0.860
  343SOL     OW 1927   2.292   0.557   2.526
  343SOL    HW1 1928   2.254   0.528   2.437
  343SOL    HW2 1929   2.220   0.552   2.595
  344SOL     OW 1930   3.792   0.056   0.407
  344SOL    HW1 1931   3.709   0.111   0.405
  344SOL    HW2 1932   3.812   0.023   0.315
  345SOL     OW 1933   1.207   0.423   5.508
  345SOL    HW1 1934   1.137   0.433   5.438
  345SOL    HW2 1935   1.293   0.462   5.476
  346SOL     OW 1936   2.382   0.916   5.114
  346SOL    HW1 1937   2.394   0.822   5.082
  346SOL    HW2 1938   2.379   0.978   5.035
  347SOL     OW 1939   5.407   6.137   5.771
  347SOL    HW1 1940   5.481   6.183   5.722
  347SOL    HW2 1941   5.444   6.059   5.822
  348SOL     OW 1942   3.112   7.008   3.759
  348SOL    HW1 1943   3.051   0.025   3.688
  348SOL    HW2 1944   3.176   0.061   3.787
  349SOL     OW 1945   2.364   5.413   1.999
  349SOL    HW1 1946   2.327   5.359   1.923
  349SOL    HW2 1947   2.343   5.367   2.085
  350SOL     OW 1948   5.295   3.329   1.786
  350SOL    HW1 1949   5.295   3.277   1.872
  350SOL    HW2 1950   5.216   3.301   1.731
  351SOL     OW 1951   3.231   1.433   0.388
  351SOL    HW1 1952   3.201   1.507   0.448
  351SOL    HW2 1953   3.259   1.470   0.300
  352SOL     OW 1954   2.719   1.424   6.610
  352SOL    HW1 1955   2.671   1.494   6.558
  352SOL    HW2 1956   2.792   1.385   6.553
  353SOL     OW 1957   2.403   6.852   1.480
  353SOL    HW1 1958   2.411   6.792   1.560
  353SOL    HW2 1959   2.317   6.832   1.433
  354SOL     OW 1960   5.415   0.383   2.224
  354SOL    HW1 1961   5.414   0.285   2.209
  354SOL    HW2 1962   5.498   0.409   2.274
  355SOL     OW 1963   1.095   0.996   2.318
  355SOL    HW1 1964   1.048   1.060   2.378
  355SOL    HW2 1965   1.027   0.948   2.262
  356SOL     OW 1966   2.899   0.487   3.249
  356SOL    HW1 1967   2.941   0.442   3.328
  356SOL    HW2 1968   2.968   0.502   3.178
  357SOL     OW 1969   1.387   4.764   4.386
  357SOL    HW1 1970   1.295   4.792   4.359
  357SOL    HW2 1971   1.396   4.665   4.375
  358SOL     OW 1972   5.105   0.948   3.329
  358SOL    HW1 1973   5.133   1.028   3.275
  358SOL    HW2 1974   5.185   0.893   3.350
  359SOL     OW 1975   0.706   1.698   0.546
  359SOL    HW1 1976   0.620   1.697   0.597
  359SOL    HW2 1977   0.690   1.667   0.452
  360SOL     OW 1978   5.277   0.073   6.928
  360SOL    HW1 1979   5.362   0.124   6.937
  360SOL    HW2 1980   5.237   0.088   6.838
  361SOL     OW 1981   2.892   0.652   2.113
  361SOL    HW1 1982   2.889   0.752   2.112
  361SOL    HW2 1983   2.879   0.619   2.207
  362SOL     OW 1984   2.810   3.603   0.293
  362SOL    HW1 1985   2.723   3.592   0.342
  362SOL    HW2 1986   2.886   3.589   0.356
  363SOL     OW 1987   4.815   4.679   4.278
  363SOL    HW1 1988   4.751   4.632   4.339
  363SOL    HW2 1989   4.764   4.734   4.211
  364SOL     OW 1990   2.967   5.676   6.506
  364SOL    HW1 1991   3.016   5.610   6.563
  364SOL    HW2 1992   3.032   5.732   6.456
  365SOL     OW 1993   5.290   6.363   3.113
  365SOL    HW1 1994   5.224   6.322   3.050
  365SOL    HW2 1995   5.380   6.321   3.100
  366SOL     OW 1996   5.038   1.410   0.460
  366SOL    HW1 1997   5.051   1.507   0.476
  366SOL    HW2 1998   4.971   1.374   0.525
  367SOL     OW 1999   6.550   2.773   2.464
  367SOL    HW1 2000   6.632   2.717   2.454
  367SOL    HW2 2001   6.469   2.717   2.446
  368SOL     OW 2002   0.037   5.366   4.860
  368SOL    HW1 2003   0.003   5.309   4.785
  368SOL    HW2 2004   0.136   5.356   4.867
  369SOL     OW 2005   1.034   4.270   1.786
  369SOL    HW1 2006   0.979   4.353   1.791
  369SOL    HW2 2007   0.975   4.193   1.760
  370SOL     OW 2008   3.914   2.085   6.501
  370SOL    HW1 2009   3.899   2.156   6.432
  370SOL    HW2 2010   3.963   2.008   6.460
  371SOL     OW 2011   3.186   2.422   6.537
  371SOL    HW1 2012   3.191   2.322   6.525
  371SOL    HW2 2013   3.268   2.453   6.585
  372SOL     OW 2014   2.080   5.362   0.404
  372SOL    HW1 2015   2.026   5.289   0.445
  372SOL    HW2 2016   2.021   5.420   0.348
  373SOL     OW 2017   6.341   6.823   6.633
  373SOL    HW1 2018   6.398   6.879   6.693
  373SOL    HW2 2019   6.245   6.833   6.661
  374SOL     OW 2020   5.027   0.946   0.788
  374SOL    HW1 2021   5.040   0.963   0.886
  374SOL    HW2 2022   5.074   1.017   0.735
  375SOL     OW 2023   6.900   3.882   2.036
  375SOL    HW1 2024   6.905   3.803   2.098
  375SOL    HW2 2025   6.816   3.877   1.982
  376SOL     OW 2026   2.355   4.235   5.239
  376SOL    HW1 2027   2.441   4.286   5.245
  376SOL    HW2 2028   2.373   4.143   5.206
  377SOL     OW 2029   4.742   0.825   3.983
  377SOL    HW1 2030   4.671   0.834   3.913
  377SOL    HW2 2031   4.803   0.905   3.979
  378SOL     OW 2032   5.788   2.043   5.480
  378SOL    HW1 2033   5.692   2.019   5.463
  378SOL    HW2 2034   5.803   2.055   5.578
  379SOL     OW 2035   6.329   2.960   0.630
  379SOL    HW1 2036   6.329   3.029   0.702
  379SOL    HW2 2037   6.418   2.914   0.628
  380SOL     OW 2038   0.180   2.338   0.379
  380SOL    HW1 2039   0.210   2.358   0.286
  380SOL    HW2 2040   0.228   2.256   0.412
  381SOL     OW 2041   4.728   4.592   0.029
  381SOL    HW1 2042   4.728   4.648   0.112
  381SOL    HW2 2043   4.775   4.641   6.974
  382SOL     OW 2044   1.864   5.531   6.840
  382SOL    HW1 2045   1.956   5.497   6.860
  382SOL    HW2 2046   1.831   5.488   6.756
  383SOL     OW 2047   6.013   1.616   6.979
  383SOL    HW1 2048   5.929   1.652   6.939
  383SOL    HW2 2049   5.992   1.565   0.044
  384SOL     OW 2050   1.720   5.339   4.675
  384SOL    HW1 2051   1.808   5.361   4.634
  384SOL    HW2 2052   1.701   5.241   4.660
  385SOL     OW 2053   4.719   4.586   1.047
  385SOL    HW1 2054   4.624   4.573   1.077
  385SOL    HW2 2055   4.781   4.551   1.117
  386SOL     OW 2056   2.556   6.139   4.670
  386SOL    HW1 2057   2.616   6.135   4.750
  386SOL    HW2 2058   2.461   6.146   4.700
  387SOL     OW 2059   0.353   0.417   5.512
  387SOL    HW1 2060   0.291   0.459   5.578
  387SOL    HW2 2061   0.420   0.485   5.482
  388SOL     OW 2062   0.271   2.385   4.569
  388SOL    HW1 2063   0.232   2.300   4.605
  388SOL    HW2 2064   0.252   2.392   4.471
  389SOL     OW 2065   4.936   3.616   2.655
  389SOL    HW1 2066   4.932   3.522   2.621
  389SOL    HW2 2067   5.008   3.666   2.608
  390SOL     OW 2068   3.355   2.805   0.173
  390SOL    HW1 2069   3.400   2.803   0.084
  390SOL    HW2 2070   3.412   2.758   0.240
  391SOL     OW 2071   3.855   3.813   3.642
  391SOL    HW1 2072   3.813   3.727   3.614
  391SOL    HW2 2073   3.810   3.889   3.594
  392SOL     OW 2074   1.664   3.080   2.123
  392SOL    HW1 2075   1.724   3.031   2.187
  392SOL    HW2 2076   1.576   3.099   2.167
  393SOL     OW 2077   1.357   6.250   1.180
  393SOL    HW1 2078   1.347   6.293   1.090
  393SOL    HW2 2079   1.449   6.270   1.216
  394SOL     OW 2080   5.837   1.647   5.999
  394SOL    HW1 2081   5.867   1.679   5.909
  394SOL    HW2 2082   5.887   1.564   6.023
  395SOL     OW 2083   6.900   5.237   6.672
  395SOL    HW1 2084   6.984   5.190   6.643
  395SOL    HW2 2085   6.823   5.206   6.616
  396SOL     OW 2086   0.608   1.115   1.311
  396SOL    HW1 2087   0.573   1.179   1.243
  396SOL    HW2 2088   0.532   1.078   1.364
  397SOL     OW 2089   4.677   2.155   4.999
  397SOL    HW1 2090   4.693   2.064   4.960
  397SOL    HW2 2091   4.738   2.221   4.955
  398SOL     OW 2092   6.969   1.268   3.016
  398SOL    HW1 2093   6.968   1.197   2.946
  398SOL    HW2 2094   6.883   1.265   3.068
  399SOL     OW 2095   5.964   5.635   4.680
  399SOL    HW1 2096   6.005   5.571   4.615
  399SOL    HW2 2097   6.025   5.645   4.759
  400SOL     OW 2098   6.557   6.100   3.376
  400SOL    HW1 2099   6.620   6.143   3.311
  400SOL    HW2 2100   6.551   6.002   3.357
  401SOL     OW 2101   1.250   5.869   4.479
  401SOL    HW1 2102   1.169   5.904   4.526
  401SOL    HW2 2103   1.329   5.927   4.501
  402SOL     OW 2104   6.099   1.324   4.306
  402SOL    HW1 2105   6.131   1.382   4.231
  402SOL    HW2 2106   5.999   1.322   4.306
  403SOL     OW 2107   2.435   1.790   5.186
  403SOL    HW1 2108   2.349   1.805   5.234
  403SOL    HW2 2109   2.498   1.866   5.203
  404SOL     OW 2110   3.113   5.653   3.280
  404SOL    HW1 2111   3.211   5.657   3.264
  404SOL    HW2 2112   3.095   5.610   3.368
  405SOL     OW 2113   3.110   4.935   3.913
  405SOL    HW1 2114   3.063   4.855   3.875
  405SOL    HW2 2115   3.184   4.962   3.852
  406SOL     OW 2116   1.144   0.345   0.592
  406SOL    HW1 2117   1.097   0.411   0.534
  406SOL    HW2 2118   1.243   0.356   0.582
  407SOL     OW 2119   2.189   3.827   4.074
  407SOL    HW1 2120   2.166   3.771   3.994
  407SOL    HW2 2121   2.209   3.768   4.152
  408SOL     OW 2122   2.749   2.393   1.616
  408SOL    HW1 2123   2.706   2.333   1.548
  408SOL    HW2 2124   2.847   2.373   1.621
  409SOL     OW 2125   0.252   2.215   2.252
  409SOL    HW1 2126   0.332   2.156   2.244
  409SOL    HW2 2127   0.230   2.255   2.163
  410SOL     OW 2128   1.544   3.440   2.344
  410SOL    HW1 2129   1.540   3.486   2.256
  410SOL    HW2 2130   1.639   3.422   2.368
  411SOL     OW 2131   6.961   1.520   1.827
  411SOL    HW1 2132   6.956   1.446   1.761
  411SOL    HW2 2133   6.887   1.585   1.810
  412SOL     OW 2134   2.519   4.509   3.022
  412SOL    HW1 2135   2.482   4.443   3.087
  412SOL    HW2 2136   2.515   4.472   2.930
  413SOL     OW 2137   6.779   4.811   2.737
  413SOL    HW1 2138   6.757   4.773   2.827
  413SOL    HW2 2139   6.823   4.740   2.681
  414SOL     OW 2140   2.140   0.107   2.408
  414SOL    HW1 2141   2.214   0.094   2.342
  414SOL    HW2 2142   2.076   0.031   2.402
  415SOL     OW 2143   5.970   3.061   1.614
  415SOL    HW1 2144   6.055   3.049   1.563
  415SOL    HW2 2145   5.916   2.977   1.607
  416SOL     OW 2146   6.079   3.601   0.056
  416SOL    HW1 2147   6.052   3.604   0.152
  416SOL    HW2 2148   6.115   3.690   0.028
  417SOL     OW 2149   2.738   1.825   5.938
  417SOL    HW1 2150   2.684   1.847   5.857
  417SOL    HW2 2151   2.824   1.877   5.937
  418SOL     OW 2152   4.739   5.382   6.333
  418SOL    HW1 2153   4.764   5.406   6.239
  418SOL    HW2 2154   4.642   5.358   6.336
  419SOL     OW 2155   5.464   6.934   0.943
  419SOL    HW1 2156   5.422   0.003   0.969
  419SOL    HW2 2157   5.562   6.947   0.929
  420SOL     OW 2158   3.073   6.593   0.679
  420SOL    HW1 2159   3.043   6.506   0.716
  420SOL    HW2 2160   2.998   6.635   0.628
  421SOL     OW 2161   5.441   4.536   3.345
  421SOL    HW1 2162   5.397   4.614   3.302
  421SOL    HW2 2163   5.535   4.529   3.313
  422SOL     OW 2164   4.213   1.245   2.211
  422SOL    HW1 2165   4.129   1.288   2.246
  422SOL    HW2 2166   4.285   1.253   2.279
  423SOL     OW 2167   2.554   0.784   6.281
  423SOL    HW1 2168   2.494   0.850   6.327
  423SOL    HW2 2169   2.611   0.833   6.215
  424SOL     OW 2170   1.847   4.759   3.942
  424SOL    HW1 2171   1.891   4.828   3.885
  424SOL    HW2 2172   1.849   4.787   4.037
  425SOL     OW 2173   3.659   1.635   5.966
  425SOL    HW1 2174   3.682   1.690   6.046
  425SOL    HW2 2175   3.564   1.603   5.974
  426SOL     OW 2176   2.464   2.607   2.880
  426SOL    HW1 2177   2.380   2.558   2.859
  426SOL    HW2 2178   2.443   2.685   2.939
  427SOL     OW 2179   4.701   1.173   4.453
  427SOL    HW1 2180   4.764   1.118   4.398
  427SOL    HW2 2181   4.711   1.147   4.549
  428SOL     OW 2182   2.113   1.527   6.139
  428SOL    HW1 2183   2.106   1.476   6.053
  428SOL    HW2 2184   2.175   1.604   6.128
  429SOL     OW 2185   0.007   6.921   3.321
  429SOL    HW1 2186   0.072   6.928   3.245
  429SOL    HW2 2187   0.002   7.009   3.368
  430SOL     OW 2188   1.783   1.111   3.653
  430SOL    HW1 2189   1.870   1.088   3.696
  430SOL    HW2 2190   1.715   1.041   3.675
  431SOL     OW 2191   2.487   1.123   1.892
  431SOL    HW1 2192   2.517   1.199   1.835
  431SOL    HW2 2193   2.513   1.139   1.987
  432SOL     OW 2194   6.038   1.852   2.065
  432SOL    HW1 2195   6.043   1.833   1.967
  432SOL    HW2 2196   5.975   1.788   2.108
  433SOL     OW 2197   1.662   3.283   6.967
  433SOL    HW1 2198   1.705   3.374   6.966
  433SOL    HW2 2199   1.565   3.291   6.949
  434SOL     OW 2200   3.710   5.685   2.836
  434SOL    HW1 2201   3.795   5.666   2.885
  434SOL    HW2 2202   3.731   5.707   2.740
  435SOL     OW 2203   2.354   2.053   6.471
  435SOL    HW1 2204   2.420   2.110   6.520
  435SOL    HW2 2205   2.360   2.071   6.373
  436SOL     OW 2206   5.502   6.164   2.375
  436SOL    HW1 2207   5.563   6.164   2.455
  436SOL    HW2 2208   5.506   6.254   2.331
  437SOL     OW 2209   6.819   1.476   5.796
  437SOL    HW1 2210   6.863   1.386   5.797
  437SOL    HW2 2211   6.720   1.465   5.800
  438SOL     OW 2212   0.735   3.654   1.783
  438SOL    HW1 2213   0.820   3.654   1.836
  438SOL    HW2 2214   0.739   3.725   1.713
  439SOL     OW 2215   0.812   1.313   6.523
  439SOL    HW1 2216   0.896   1.261   6.539
  439SOL    HW2 2217   0.829   1.384   6.455
  440SOL     OW 2218   3.588   1.637   1.649
  440SOL    HW1 2219   3.541   1.591   1.573
  440SOL    HW2 2220   3.686   1.635   1.634
  441SOL     OW 2221   1.354   4.601   2.801
  441SOL    HW1 2222   1.391   4.541   2.730
  441SOL    HW2 2223   1.385   4.570   2.890
  442SOL     OW 2224   2.960   3.436   5.092
  442SOL    HW1 2225   2.948   3.412   4.995
  442SOL    HW2 2226   3.058   3.440   5.113
  443SOL     OW 2227   5.330   2.731   1.855
  443SOL    HW1 2228   5.297   2.711   1.763
  443SOL    HW2 2229   5.292   2.818   1.886
  444SOL     OW 2230   4.167   2.134   1.294
  444SOL    HW1 2231   4.202   2.145   1.201
  444SOL    HW2 2232   4.068   2.148   1.294
  445SOL     OW 2233   2.334   6.115   3.962
  445SOL    HW1 2234   2.243   6.100   3.923
  445SOL    HW2 2235   2.371   6.029   3.996
  446SOL     OW 2236   0.155   0.164   0.527
  446SOL    HW1 2237   0.096   0.130   0.455
  446SOL    HW2 2238   0.206   0.089   0.569
  447SOL     OW 2239   5.885   3.460   0.514
  447SOL    HW1 2240   5.936   3.392   0.460
  447SOL    HW2 2241   5.791   3.428   0.526
  448SOL     OW 2242   3.602   6.921   4.856
  448SOL    HW1 2243   3.554   6.834   4.850
  448SOL    HW2 2244   3.606   6.963   4.766
  449SOL     OW 2245   1.001   4.419   4.989
  449SOL    HW1 2246   1.099   4.398   4.986
  449SOL    HW2 2247   0.984   4.506   4.943
  450SOL     OW 2248   6.725   3.651   3.997
  450SOL    HW1 2249   6.632   3.688   3.995
  450SOL    HW2 2250   6.734   3.579   3.927
  451SOL     OW 2251   2.723   1.132   6.303
  451SOL    HW1 2252   2.648   1.149   6.366
  451SOL    HW2 2253   2.688   1.089   6.219
  452SOL     OW 2254   4.775   4.926   1.028
  452SOL    HW1 2255   4.740   5.018   1.012
  452SOL    HW2 2256   4.700   4.866   1.059
  453SOL     OW 2257   4.457   0.707   0.333
  453SOL    HW1 2258   4.553   0.682   0.320
  453SOL    HW2 2259   4.448   0.806   0.323
  454SOL     OW 2260   0.194   2.617   3.694
  454SOL    HW1 2261   0.241   2.565   3.765
  454SOL    HW2 2262   0.249   2.696   3.668
  455SOL     OW 2263   6.022   5.770   0.157
  455SOL    HW1 2264   5.946   5.832   0.135
  455SOL    HW2 2265   5.986   5.677   0.170
  456SOL     OW 2266   1.409   0.790   3.072
  456SOL    HW1 2267   1.360   0.877   3.065
  456SOL    HW2 2268   1.361   0.731   3.138
  457SOL     OW 2269   3.088   5.787   0.552
  457SOL    HW1 2270   3.084   5.831   0.642
  457SOL    HW2 2271   3.176   5.808   0.510
  458SOL     OW 2272   3.290   1.198   4.246
  458SOL    HW1 2273   3.200   1.196   4.290
  458SOL    HW2 2274   3.360   1.226   4.312
  459SOL     OW 2275   3.369   1.321   4.006
  459SOL    HW1 2276   3.459   1.346   4.040
  459SOL    HW2 2277   3.327   1.255   4.069
  460SOL     OW 2278   0.848   1.737   6.793
  460SOL    HW1 2279   0.883   1.772   6.706
  460SOL    HW2 2280   0.832   1.638   6.785
  461SOL     OW 2281   1.084   6.663   4.321
  461SOL    HW1 2282   1.044   6.571   4.323
  461SOL    HW2 2283   1.123   6.683   4.411
  462SOL     OW 2284   3.651   4.127   5.424
  462SOL    HW1 2285   3.642   4.031   5.401
  462SOL    HW2 2286   3.682   4.136   5.519
  463SOL     OW 2287   5.984   6.325   3.201
  463SOL    HW1 2288   6.031   6.338   3.288
  463SOL    HW2 2289   5.979   6.228   3.180
  464SOL     OW 2290   4.757   5.912   4.729
  464SOL    HW1 2291   4.851   5.938   4.710
  464SOL    HW2 2292   4.738   5.822   4.691
  465SOL     OW 2293   0.206   5.119   0.923
  465SOL    HW1 2294   0.130   5.110   0.987
  465SOL    HW2 2295   0.292   5.123   0.974
  466SOL     OW 2296   3.811   4.880   3.685
  466SOL    HW1 2297   3.722   4.915   3.656
  466SOL    HW2 2298   3.873   4.878   3.606
  467SOL     OW 2299   6.897   0.135   1.141
  467SOL    HW1 2300   6.816   0.138   1.084
  467SOL    HW2 2301   6.916   0.040   1.168
  468SOL     OW 2302   2.755   6.800   6.683
  468SOL    HW1 2303   2.845   6.825   6.647
  468SOL    HW2 2304   2.692   6.784   6.607
  469SOL     OW 2305   4.111   4.978   5.307
  469SOL    HW1 2306   4.128   5.034   5.226
  469SOL    HW2 2307   4.130   4.882   5.286
  470SOL     OW 2308   2.770   5.186   2.008
  470SOL    HW1 2309   2.835   5.262   2.002
  470SOL    HW2 2310   2.806   5.108   1.956
  471SOL     OW 2311   1.832   2.586   4.315
  471SOL    HW1 2312   1.850   2.504   4.261
  471SOL    HW2 2313   1.745   2.577   4.362
  472SOL     OW 2314   4.403   3.750   6.410
  472SOL    HW1 2315   4.348   3.826   6.376
  472SOL    HW2 2316   4.365   3.719   6.498
  473SOL     OW 2317   5.577   3.487   2.049
  473SOL    HW1 2318   5.520   3.526   2.122
  473SOL    HW2 2319   5.570   3.545   1.967
  474SOL     OW 2320   4.681   5.250   3.661
  474SOL    HW1 2321   4.763   5.239   3.717
  474SOL    HW2 2322   4.707   5.262   3.565
  475SOL     OW 2323   4.564   1.265   0.998
  475SOL    HW1 2324   4.642   1.312   0.958
  475SOL    HW2 2325   4.485   1.326   1.000
  476SOL     OW 2326   1.118   2.780   0.301
  476SOL    HW1 2327   1.169   2.862   0.327
  476SOL    HW2 2328   1.080   2.792   0.209
  477SOL     OW 2329   5.706   6.155   4.369
  477SOL    HW1 2330   5.641   6.196   4.306
  477SOL    HW2 2331   5.791   6.132   4.320
  478SOL     OW 2332   6.700   4.794   1.646
  478SOL    HW1 2333   6.728   4.711   1.694
  478SOL    HW2 2334   6.748   4.873   1.685
  479SOL     OW 2335   3.859   3.458   3.073
  479SOL    HW1 2336   3.822   3.478   2.982
  479SOL    HW2 2337   3.941   3.514   3.088
  480SOL     OW 2338   6.739   0.486   1.368
  480SOL    HW1 2339   6.822   0.538   1.348
  480SOL    HW2 2340   6.730   0.475   1.467
  481SOL     OW 2341   6.013   6.509   0.968
  481SOL    HW1 2342   6.053   6.504   0.877
  481SOL    HW2 2343   5.927   6.562   0.964
  482SOL     OW 2344   3.730   5.106   2.704
  482SOL    HW1 2345   3.637   5.143   2.703
  482SOL    HW2 2346   3.793   5.176   2.737
  483SOL     OW 2347   6.061   2.650   4.926
  483SOL    HW1 2348   6.128   2.610   4.990
  483SOL    HW2 2349   5.988   2.693   4.979
  484SOL     OW 2350   2.533   5.451   4.183
  484SOL    HW1 2351   2.534   5.418   4.088
  484SOL    HW2 2352   2.446   5.426   4.226
  485SOL     OW 2353   4.674   2.585   1.194
  485SOL    HW1 2354   4.587   2.635   1.190
  485SOL    HW2 2355   4.684   2.527   1.113
  486SOL     OW 2356   6.077   6.211   5.560
  486SOL    HW1 2357   6.148   6.253   5.503
  486SOL    HW2 2358   6.095   6.113   5.569
  487SOL     OW 2359   6.379   1.369   0.047
  487SOL    HW1 2360   6.308   1.376   6.995
  487SOL    HW2 2361   6.369   1.445   0.111
  488SOL     OW 2362   1.622   5.984   3.815
  488SOL    HW1 2363   1.658   6.014   3.727
  488SOL    HW2 2364   1.551   6.048   3.846
  489SOL     OW 2365   2.597   4.331   5.273
  489SOL    HW1 2366   2.620   4.423   5.307
  489SOL    HW2 2367   2.618   4.264   5.343
  490SOL     OW 2368   0.713   3.881   4.864
  490SOL    HW1 2369   0.800   3.922   4.839
  490SOL    HW2 2370   0.702   3.883   4.963
  491SOL     OW 2371   6.578   3.425   1.643
  491SOL    HW1 2372   6.514   3.415   1.719
  491SOL    HW2 2373   6.671   3.410   1.676
  492SOL     OW 2374   1.623   2.307   5.902
  492SOL    HW1 2375   1.713   2.334   5.937
  492SOL    HW2 2376   1.573   2.259   5.973
  493SOL     OW 2377   1.667   5.632   4.056
  493SOL    HW1 2378   1.577   5.591   4.045
  493SOL    HW2 2379   1.717   5.585   4.129
  494SOL     OW 2380   3.079   0.179   2.596
  494SOL    HW1 2381   3.173   0.204   2.574
  494SOL    HW2 2382   3.058   0.209   2.690
  495SOL     OW 2383   3.893   4.467   6.721
  495SOL    HW1 2384   3.930   4.382   6.684
  495SOL    HW2 2385   3.801   4.450   6.757
  496SOL     OW 2386   4.919   0.033   2.853
  496SOL    HW1 2387   4.925   0.066   2.947
  496SOL    HW2 2388   5.007   0.046   2.807
  497SOL     OW 2389   4.467   3.024   1.096
  497SOL    HW1 2390   4.421   3.070   1.172
  497SOL    HW2 2391   4.420   3.047   1.011
  498SOL     OW 2392   0.861   6.807   1.004
  498SOL    HW1 2393   0.807   6.776   0.925
  498SOL    HW2 2394   0.900   6.897   0.984
  499SOL     OW 2395   2.835   6.687   6.270
  499SOL    HW1 2396   2.880   6.713   6.355
  499SOL    HW2 2397   2.898   6.696   6.193
  500SOL     OW 2398   6.200   1.471   6.039
  500SOL    HW1 2399   6.101   1.465   6.034
  500SOL    HW2 2400   6.228   1.487   6.133
  501SOL     OW 2401   1.934   2.185   4.725
  501SOL    HW1 2402   2.001   2.143   4.664
  501SOL    HW2 2403   1.909   2.276   4.690
  502SOL     OW 2404   3.225   3.024   0.081
  502SOL    HW1 2405   3.289   2.948   0.094
  502SOL    HW2 2406   3.134   2.996   0.111
  503SOL     OW 2407   3.924   5.714   1.411
  503SOL    HW1 2408   3.884   5.801   1.385
  503SOL    HW2 2409   3.855   5.642   1.404
  504SOL     OW 2410   6.119   0.639   6.974
  504SOL    HW1 2411   6.129   0.639   0.055
  504SOL    HW2 2412   6.195   0.689   6.933
  505SOL     OW 2413   0.534   4.093   5.308
  505SOL    HW1 2414   0.523   4.116   5.405
  505SOL    HW2 2415   0.469   4.146   5.254
  506SOL     OW 2416   2.975   6.082   2.209
  506SOL    HW1 2417   2.932   6.088   2.119
  506SOL    HW2 2418   2.907   6.101   2.280
  507SOL     OW 2419   2.195   0.074   3.882
  507SOL    HW1 2420   2.223   0.114   3.794
  507SOL    HW2 2421   2.277   0.054   3.936
  508SOL     OW 2422   0.354   5.008   2.855
  508SOL    HW1 2423   0.365   4.909   2.850
  508SOL    HW2 2424   0.445   5.051   2.858
  509SOL     OW 2425   4.676   0.580   5.988
  509SOL    HW1 2426   4.604   0.529   5.942
  509SOL    HW2 2427   4.637   0.637   6.060
  510SOL     OW 2428   6.525   4.573   0.429
  510SOL    HW1 2429   6.551   4.664   0.396
  510SOL    HW2 2430   6.513   4.511   0.351
  511SOL     OW 2431   6.827   2.384   0.749
  511SOL    HW1 2432   6.892   2.312   0.723
  511SOL    HW2 2433   6.868   2.473   0.730
  512SOL     OW 2434   1.570   1.679   4.779
  512SOL    HW1 2435   1.613   1.769   4.785
  512SOL    HW2 2436   1.472   1.688   4.797
  513SOL     OW 2437   5.745   5.470   2.285
  513SOL    HW1 2438   5.714   5.565   2.274
  513SOL    HW2 2439   5.666   5.411   2.302
  514SOL     OW 2440   5.304   1.356   4.708
  514SOL    HW1 2441   5.229   1.411   4.743
  514SOL    HW2 2442   5.390   1.405   4.720
  515SOL     OW 2443   3.089   0.433   6.446
  515SOL    HW1 2444   3.154   0.356   6.437
  515SOL    HW2 2445   3.131   0.504   6.503
  516SOL     OW 2446   0.726   5.897   2.849
  516SOL    HW1 2447   0.660   5.887   2.775
  516SOL    HW2 2448   0.726   5.992   2.881
  517SOL     OW 2449   3.285   5.192   0.659
  517SOL    HW1 2450   3.375   5.179   0.701
  517SOL    HW2 2451   3.218   5.214   0.730
  518SOL     OW 2452   1.983   0.324   3.680
  518SOL    HW1 2453   1.938   0.331   3.591
  518SOL    HW2 2454   1.983   0.229   3.711
  519SOL     OW 2455   6.963   6.671   2.682
  519SOL    HW1 2456   6.920   6.724   2.609
  519SOL    HW2 2457   0.032   6.634   2.650
  520SOL     OW 2458   3.879   5.741   0.717
  520SOL    HW1 2459   3.889   5.667   0.650
  520SOL    HW2 2460   3.810   5.806   0.685
  521SOL     OW 2461   0.219   6.831   5.094
  521SOL    HW1 2462   0.231   6.838   5.193
  521SOL    HW2 2463   0.132   6.786   5.074
  522SOL     OW 2464   3.075   5.540   6.121
  522SOL    HW1 2465   3.053   5.466   6.184
  522SOL    HW2 2466   3.172   5.562   6.127
  523SOL     OW 2467   1.796   6.712   6.625
  523SOL    HW1 2468   1.711   6.757   6.651
  523SOL    HW2 2469   1.810   6.632   6.683
  524SOL     OW 2470   6.816   1.758   1.545
  524SOL    HW1 2471   6.812   1.761   1.645
  524SOL    HW2 2472   6.725   1.773   1.507
  525SOL     OW 2473   0.390   3.230   3.344
  525SOL    HW1 2474   0.413   3.205   3.438
  525SOL    HW2 2475   0.449   3.305   3.314
  526SOL     OW 2476   4.269   6.091   4.734
  526SOL    HW1 2477   4.277   6.006   4.786
  526SOL    HW2 2478   4.193   6.083   4.669
  527SOL     OW 2479   6.937   1.973   0.570
  527SOL    HW1 2480   7.004   1.985   0.496
  527SOL    HW2 2481   6.949   2.046   0.637
  528SOL     OW 2482   6.802   1.678   3.526
  528SOL    HW1 2483   6.814   1.582   3.500
  528SOL    HW2 2484   6.771   1.683   3.621
  529SOL     OW 2485   0.823   1.717   5.472
  529SOL    HW1 2486   0.735   1.679   5.444
  529SOL    HW2 2487   0.863   1.767   5.395
  530SOL     OW 2488   3.608   4.295   1.729
  530SOL    HW1 2489   3.634   4.247   1.813
  530SOL    HW2 2490   3.582   4.389   1.751
  531SOL     OW 2491   7.013   1.676   5.709
  531SOL    HW1 2492   6.967   1.588   5.720
  531SOL    HW2 2493   6.958   1.748   5.752
  532SOL     OW 2494   3.543   0.752   6.450
  532SOL    HW1 2495   3.476   0.680   6.465
  532SOL    HW2 2496   3.635   0.713   6.451
  533SOL     OW 2497   3.351   6.796   4.553
  533SOL    HW1 2498   3.393   6.868   4.498
  533SOL    HW2 2499   3.283   6.747   4.497
  534SOL     OW 2500   2.389   4.596   0.689
  534SOL    HW1 2501   2.325   4.580   0.764
  534SOL    HW2 2502   2.452   4.519   0.681
  535SOL     OW 2503   4.770   4.038   3.521
  535SOL    HW1 2504   4.824   4.112   3.482
  535SOL    HW2 2505   4.685   4.074   3.557
  536SOL     OW 2506   6.507   0.648   1.115
  536SOL    HW1 2507   6.490   0.689   1.204
  536SOL    HW2 2508   6.521   0.549   1.126
  537SOL     OW 2509   3.175   2.142   2.429
  537SOL    HW1 2510   3.144   2.112   2.338
  537SOL    HW2 2511   3.271   2.169   2.424
  538SOL     OW 2512   4.295   5.678   6.519
  538SOL    HW1 2513   4.290   5.773   6.550
  538SOL    HW2 2514   4.306   5.677   6.419
  539SOL     OW 2515   3.224   0.210   6.828
  539SOL    HW1 2516   3.272   0.221   6.915
  539SOL    HW2 2517   3.193   0.116   6.818
  540SOL     OW 2518   1.778   1.816   5.392
  540SOL    HW1 2519   1.791   1.914   5.379
  540SOL    HW2 2520   1.716   1.782   5.322
  541SOL     OW 2521   5.995   5.567   1.450
  541SOL    HW1 2522   5.945   5.605   1.372
  541SOL    HW2 2523   6.032   5.641   1.506
  542SOL     OW 2524   4.056   5.881   5.997
  542SOL    HW1 2525   4.027   5.946   5.926
  542SOL    HW2 2526   4.138   5.916   6.042
  543SOL     OW 2527   6.903   2.092   4.779
  543SOL    HW1 2528   6.927   2.064   4.872
  543SOL    HW2 2529   6.804   2.097   4.770
  544SOL     OW 2530   1.313   2.245   0.853
  544SOL    HW1 2531   1.231   2.235   0.908
  544SOL    HW2 2532   1.288   2.244   0.756
  545SOL     OW 2533   0.282   4.999   0.696
  545SOL    HW1 2534   0.227   5.017   0.778
  545SOL    HW2 2535   0.373   4.969   0.724
  546SOL     OW 2536   6.653   5.953   2.695
  546SOL    HW1 2537   6.622   6.035   2.742
  546SOL    HW2 2538   6.749   5.963   2.669
  547SOL     OW 2539   3.465   6.041   0.002
  547SOL    HW1 2540   3.462   6.132   0.042
  547SOL    HW2 2541   3.530   6.040   6.944
  548SOL     OW 2542   4.143   3.244   5.947
  548SOL    HW1 2543   4.075   3.170   5.952
  548SOL    HW2 2544   4.193   3.250   6.033
  549SOL     OW 2545   5.170   2.657   4.157
  549SOL    HW1 2546   5.259   2.674   4.201
  549SOL    HW2 2547   5.157   2.558   4.147
  550SOL     OW 2548   0.058   5.567   4.191
  550SOL    HW1 2549   0.102   5.592   4.277
  550SOL    HW2 2550   0.049   5.648   4.133
  551SOL     OW 2551   5.680   1.102   6.939
  551SOL    HW1 2552   5.643   1.019   6.979
  551SOL    HW2 2553   5.702   1.086   6.842
  552SOL     OW 2554   1.280   0.380   4.161
  552SOL    HW1 2555   1.284   0.440   4.081
  552SOL    HW2 2556   1.245   0.291   4.134
  553SOL     OW 2557   4.339   2.528   5.664
  553SOL    HW1 2558   4.378   2.596   5.603
  553SOL    HW2 2559   4.411   2.494   5.725
  554SOL     OW 2560   0.139   4.947   0.476
  554SOL    HW1 2561   0.117   4.850   0.474
  554SOL    HW2 2562   0.203   4.965   0.551
  555SOL     OW 2563   4.147   5.206   5.776
  555SOL    HW1 2564   4.126   5.299   5.748
  555SOL    HW2 2565   4.085   5.178   5.849
  556SOL     OW 2566   5.534   6.103   3.240
  556SOL    HW1 2567   5.467   6.037   3.206
  556SOL    HW2 2568   5.549   6.174   3.171
  557SOL     OW 2569   6.844   3.690   0.528
  557SOL    HW1 2570   6.847   3.673   0.626
  557SOL    HW2 2571   6.933   3.665   0.487
  558SOL     OW 2572   3.596   3.776   1.935
  558SOL    HW1 2573   3.589   3.766   2.034
  558SOL    HW2 2574   3.513   3.821   1.900
  559SOL     OW 2575   6.088   1.188   6.455
  559SOL    HW1 2576   6.074   1.206   6.357
  559SOL    HW2 2577   6.076   1.090   6.473
  560SOL     OW 2578   1.975   2.487   2.653
  560SOL    HW1 2579   2.053   2.542   2.624
  560SOL    HW2 2580   1.972   2.403   2.599
  561SOL     OW 2581   6.600   4.225   0.449
  561SOL    HW1 2582   6.632   4.297   0.511
  561SOL    HW2 2583   6.563   4.267   0.366
  562SOL     OW 2584   3.227   6.355   2.991
  562SOL    HW1 2585   3.292   6.417   3.034
  562SOL    HW2 2586   3.153   6.334   3.055
  563SOL     OW 2587   0.758   0.699   4.471
  563SOL    HW1 2588   0.778   0.674   4.376
  563SOL    HW2 2589   0.662   0.724   4.480
  564SOL     OW 2590   5.957   2.319   6.051
  564SOL    HW1 2591   5.971   2.298   5.954
  564SOL    HW2 2592   5.860   2.312   6.073
  565SOL     OW 2593   3.253   3.603   3.674
  565SOL    HW1 2594   3.161   3.635   3.695
  565SOL    HW2 2595   3.248   3.513   3.631
  566SOL     OW 2596   1.163   2.614   3.153
  566SOL    HW1 2597   1.214   2.594   3.069
  566SOL    HW2 2598   1.082   2.669   3.131
  567SOL     OW 2599   1.443   3.035   5.373
  567SOL    HW1 2600   1.513   3.006   5.439
  567SOL    HW2 2601   1.460   3.129   5.346
  568SOL     OW 2602   0.788   0.247   6.451
  568SOL    HW1 2603   0.874   0.268   6.498
  568SOL    HW2 2604   0.771   0.314   6.379
  569SOL     OW 2605   5.118   3.362   5.120
  569SOL    HW1 2606   5.141   3.267   5.101
  569SOL    HW2 2607   5.027   3.382   5.083
  570SOL     OW 2608   2.949   0.095   5.457
  570SOL    HW1 2609   2.940   7.014   5.450
  570SOL    HW2 2610   2.868   0.132   5.503
  571SOL     OW 2611   2.206   4.559   2.530
  571SOL    HW1 2612   2.134   4.555   2.599
  571SOL    HW2 2613   2.193   4.486   2.463
  572SOL     OW 2614   2.256   1.822   4.767
  572SOL    HW1 2615   2.323   1.774   4.824
  572SOL    HW2 2616   2.295   1.839   4.676
  573SOL     OW 2617   0.485   6.796   5.709
  573SOL    HW1 2618   0.541   6.835   5.636
  573SOL    HW2 2619   0.390   6.827   5.698
  574SOL     OW 2620   2.344   1.013   5.956
  574SOL    HW1 2621   2.372   1.062   6.038
  574SOL    HW2 2622   2.341   0.915   5.975
  575SOL     OW 2623   3.722   4.031   0.016
  575SOL    HW1 2624   3.739   3.970   0.094
  575SOL    HW2 2625   3.623   4.036   7.017
  576SOL     OW 2626   0.077   0.500   3.915
  576SOL    HW1 2627   0.080   0.569   3.988
  576SOL    HW2 2628   0.114   0.414   3.948
  577SOL     OW 2629   6.788   0.347   2.070
  577SOL    HW1 2630   6.697   0.331   2.108
  577SOL    HW2 2631   6.856   0.294   2.122
  578SOL     OW 2632   3.893   6.683   0.735
  578SOL    HW1 2633   3.967   6.745   0.759
  578SOL    HW2 2634   3.918   6.589   0.759
  579SOL     OW 2635   0.793   3.821   2.061
  579SOL    HW1 2636   0.713   3.880   2.068
  579SOL    HW2 2637   0.860   3.862   2.000
  580SOL     OW 2638   4.804   4.667   4.870
  580SOL    HW1 2639   4.747   4.669   4.788
  580SOL    HW2 2640   4.750   4.633   4.947
  581SOL     OW 2641   2.705   2.368   3.718
  581SOL    HW1 2642   2.666   2.408   3.635
  581SOL    HW2 2643   2.770   2.297   3.693
  582SOL     OW 2644   5.984   4.737   5.390
  582SOL    HW1 2645   6.002   4.639   5.395
  582SOL    HW2 2646   5.951   4.760   5.299
  583SOL     OW 2647   3.045   5.845   5.522
  583SOL    HW1 2648   2.946   5.840   5.518
  583SOL    HW2 2649   3.074   5.859   5.617
  584SOL     OW 2650   3.717   0.463   5.264
  584SOL    HW1 2651   3.718   0.543   5.204
  584SOL    HW2 2652   3.632   0.412   5.249
  585SOL     OW 2653   4.107   6.707   1.765
  585SOL    HW1 2654   4.037   6.740   1.703
  585SOL    HW2 2655   4.197   6.715   1.722
  586SOL     OW 2656   3.702   6.547   1.017
  586SOL    HW1 2657   3.799   6.570   1.009
  586SOL    HW2 2658   3.657   6.562   0.928
  587SOL     OW 2659   5.364   0.469   2.902
  587SOL    HW1 2660   5.402   0.377   2.904
  587SOL    HW2 2661   5.282   0.473   2.957
  588SOL     OW 2662   2.206   4.169   2.581
  588SOL    HW1 2663   2.258   4.175   2.666
  588SOL    HW2 2664   2.159   4.080   2.577
  589SOL     OW 2665   3.807   4.831   5.752
  589SOL    HW1 2666   3.732   4.871   5.805
  589SOL    HW2 2667   3.769   4.768   5.684
  590SOL     OW 2668   2.196   1.296   6.487
  590SOL    HW1 2669   2.140   1.249   6.419
  590SOL    HW2 2670   2.277   1.241   6.506
  591SOL     OW 2671   2.762   0.170   3.847
  591SOL    HW1 2672   2.829   0.244   3.847
  591SOL    HW2 2673   2.699   0.181   3.924
  592SOL     OW 2674   4.473   1.871   4.380
  592SOL    HW1 2675   4.429   1.893   4.292
  592SOL    HW2 2676   4.562   1.829   4.363
  593SOL     OW 2677   1.274   6.962   0.218
  593SOL    HW1 2678   1.280   6.864   0.199
  593SOL    HW2 2679   1.197   6.980   0.279
  594SOL     OW 2680   2.872   1.258   5.229
  594SOL    HW1 2681   2.962   1.294   5.204
  594SOL    HW2 2682   2.834   1.312   5.304
  595SOL     OW 2683   5.739   3.990   2.604
  595SOL    HW1 2684   5.803   3.925   2.563
  595SOL    HW2 2685   5.730   4.069   2.543
  596SOL     OW 2686   6.515   4.860   5.159
  596SOL    HW1 2687   6.564   4.782   5.119
  596SOL    HW2 2688   6.560   4.945   5.131
  597SOL     OW 2689   3.991   1.270   6.769
  597SOL    HW1 2690   3.923   1.341   6.747
  597SOL    HW2 2691   3.998   1.206   6.693
  598SOL     OW 2692   3.002   3.161   1.884
  598SOL    HW1 2693   3.053   3.246   1.894
  598SOL    HW2 2694   3.053   3.085   1.923
  599SOL     OW 2695   1.732   5.390   1.454
  599SOL    HW1 2696   1.716   5.362   1.548
  599SOL    HW2 2697   1.738   5.309   1.395
  600SOL     OW 2698   0.513   3.395   5.631
  600SOL    HW1 2699   0.425   3.352   5.609
  600SOL    HW2 2700   0.558   3.424   5.547
  601SOL     OW 2701   6.837   0.331   5.797
  601SOL    HW1 2702   6.757   0.275   5.820
  601SOL    HW2 2703   6.832   0.417   5.846
  602SOL     OW 2704   0.271   0.436   3.414
  602SOL    HW1 2705   0.173   0.412   3.409
  602SOL    HW2 2706   0.324   0.367   3.363
  603SOL     OW 2707   1.487   1.184   3.999
  603SOL    HW1 2708   1.423   1.221   3.932
  603SOL    HW2 2709   1.580   1.210   3.973
  604SOL     OW 2710   5.536   1.905   1.197
  604SOL    HW1 2711   5.614   1.916   1.136
  604SOL    HW2 2712   5.557   1.838   1.267
  605SOL     OW 2713   6.071   6.735   1.795
  605SOL    HW1 2714   6.137   6.794   1.841
  605SOL    HW2 2715   6.017   6.789   1.730
  606SOL     OW 2716   2.648   6.359   5.579
  606SOL    HW1 2717   2.559   6.405   5.579
  606SOL    HW2 2718   2.711   6.407   5.639
  607SOL     OW 2719   1.784   3.185   6.426
  607SOL    HW1 2720   1.729   3.125   6.368
  607SOL    HW2 2721   1.722   3.245   6.478
  608SOL     OW 2722   2.659   1.150   6.724
  608SOL    HW1 2723   2.681   1.127   6.819
  608SOL    HW2 2724   2.705   1.236   6.700
  609SOL     OW 2725   4.180   3.396   2.801
  609SOL    HW1 2726   4.150   3.333   2.873
  609SOL    HW2 2727   4.161   3.490   2.829
  610SOL     OW 2728   5.539   2.707   2.052
  610SOL    HW1 2729   5.588   2.794   2.059
  610SOL    HW2 2730   5.472   2.713   1.978
  611SOL     OW 2731   3.903   1.202   2.144
  611SOL    HW1 2732   3.966   1.263   2.193
  611SOL    HW2 2733   3.857   1.253   2.072
  612SOL     OW 2734   4.209   5.624   4.071
  612SOL    HW1 2735   4.198   5.713   4.115
  612SOL    HW2 2736   4.128   5.603   4.017
  613SOL     OW 2737   3.789   5.885   6.626
  613SOL    HW1 2738   3.790   5.979   6.662
  613SOL    HW2 2739   3.756   5.887   6.531
  614SOL     OW 2740   3.613   6.120   5.869
  614SOL    HW1 2741   3.617   6.215   5.841
  614SOL    HW2 2742   3.577   6.064   5.795
  615SOL     OW 2743   0.101   5.306   4.071
  615SOL    HW1 2744   0.171   5.253   4.119
  615SOL    HW2 2745   0.091   5.396   4.115
  616SOL     OW 2746   6.220   2.904   3.609
  616SOL    HW1 2747   6.200   2.877   3.515
  616SOL    HW2 2748   6.190   2.831   3.671
  617SOL     OW 2749   2.556   7.014   6.013
  617SOL    HW1 2750   2.480   0.008   5.950
  617SOL    HW2 2751   2.525   6.964   6.093
  618SOL     OW 2752   2.087   0.482   2.704
  618SOL    HW1 2753   2.071   0.512   2.798
  618SOL    HW2 2754   2.000   0.459   2.661
  619SOL     OW 2755   1.456   2.959   6.929
  619SOL    HW1 2756   1.532   2.958   6.994
  619SOL    HW2 2757   1.375   2.998   6.972
  620SOL     OW 2758   5.271   3.526   1.115
  620SOL    HW1 2759   5.191   3.563   1.067
  620SOL    HW2 2760   5.240   3.470   1.191
  621SOL     OW 2761   0.167   5.760   0.809
  621SOL    HW1 2762   0.093   5.774   0.874
  621SOL    HW2 2763   0.154   5.820   0.730
  622SOL     OW 2764   1.299   1.355   6.749
  622SOL    HW1 2765   1.270   1.344   6.654
  622SOL    HW2 2766   1.307   1.265   6.792
  623SOL     OW 2767   6.250   5.546   5.377
  623SOL    HW1 2768   6.212   5.473   5.320
  623SOL    HW2 2769   6.336   5.578   5.337
  624SOL     OW 2770   6.845   1.593   1.333
  624SOL    HW1 2771   6.851   1.650   1.415
  624SOL    HW2 2772   6.880   1.644   1.254
  625SOL     OW 2773   1.733   1.026   1.865
  625SOL    HW1 2774   1.729   1.058   1.959
  625SOL    HW2 2775   1.719   0.927   1.862
  626SOL     OW 2776   4.097   5.692   5.265
  626SOL    HW1 2777   4.014   5.725   5.220
  626SOL    HW2 2778   4.076   5.609   5.317
  627SOL     OW 2779   4.296   5.326   0.205
  627SOL    HW1 2780   4.203   5.363   0.209
  627SOL    HW2 2781   4.311   5.284   0.115
  628SOL     OW 2782   4.906   3.572   3.747
  628SOL    HW1 2783   4.898   3.519   3.831
  628SOL    HW2 2784   4.872   3.518   3.670
  629SOL     OW 2785   1.069   0.067   1.526
  629SOL    HW1 2786   0.993   0.131   1.539
  629SOL    HW2 2787   1.155   0.118   1.526
  630SOL     OW 2788   2.810   1.585   2.040
  630SOL    HW1 2789   2.758   1.526   2.102
  630SOL    HW2 2790   2.904   1.594   2.074
  631SOL     OW 2791   2.678   1.354   4.325
  631SOL    HW1 2792   2.615   1.308   4.263
  631SOL    HW2 2793   2.642   1.444   4.349
  632SOL     OW 2794   3.325   0.982   0.187
  632SOL    HW1 2795   3.281   1.049   0.247
  632SOL    HW2 2796   3.265   0.961   0.110
  633SOL     OW 2797   2.145   0.158   4.483
  633SOL    HW1 2798   2.146   0.249   4.524
  633SOL    HW2 2799   2.232   0.140   4.438
  634SOL     OW 2800   2.660   5.496   1.891
  634SOL    HW1 2801   2.667   5.588   1.852
  634SOL    HW2 2802   2.655   5.429   1.818
  635SOL     OW 2803   3.203   0.359   1.782
  635SOL    HW1 2804   3.201   0.453   1.747
  635SOL    HW2 2805   3.216   0.360   1.881
  636SOL     OW 2806   5.069   4.891   6.584
  636SOL    HW1 2807   5.074   4.796   6.618
  636SOL    HW2 2808   5.041   4.890   6.488
  637SOL     OW 2809   6.016   4.675   6.401
  637SOL    HW1 2810   5.958   4.690   6.480
  637SOL    HW2 2811   5.968   4.620   6.333
  638SOL     OW 2812   5.418   1.655   3.441
  638SOL    HW1 2813   5.509   1.693   3.462
  638SOL    HW2 2814   5.426   1.592   3.364
  639SOL     OW 2815   3.912   3.732   1.544
  639SOL    HW1 2816   3.848   3.765   1.613
  639SOL    HW2 2817   3.862   3.705   1.462
  640SOL     OW 2818   3.377   2.450   5.440
  640SOL    HW1 2819   3.358   2.399   5.356
  640SOL    HW2 2820   3.291   2.473   5.485
  641SOL     OW 2821   0.203   0.319   5.159
  641SOL    HW1 2822   0.245   0.407   5.138
  641SOL    HW2 2823   0.248   0.278   5.238
  642SOL     OW 2824   0.813   5.065   6.048
  642SOL    HW1 2825   0.716   5.059   6.071
  642SOL    HW2 2826   0.839   4.986   5.992
  643SOL     OW 2827   5.259   6.744   4.605
  643SOL    HW1 2828   5.357   6.766   4.609
  643SOL    HW2 2829   5.205   6.827   4.619
  644SOL     OW 2830   3.356   5.737   1.647
  644SOL    HW1 2831   3.378   5.760   1.742
  644SOL    HW2 2832   3.258   5.742   1.632
  645SOL     OW 2833   0.771   2.768   2.802
  645SOL    HW1 2834   0.808   2.790   2.712
  645SOL    HW2 2835   0.693   2.827   2.822
  646SOL     OW 2836   1.926   3.237   4.432
  646SOL    HW1 2837   1.976   3.308   4.383
  646SOL    HW2 2838   1.963   3.229   4.525
  647SOL     OW 2839   5.375   5.270   1.066
  647SOL    HW1 2840   5.468   5.241   1.086
  647SOL    HW2 2841   5.313   5.191   1.072
  648SOL     OW 2842   4.321   2.360   3.969
  648SOL    HW1 2843   4.256   2.340   4.042
  648SOL    HW2 2844   4.276   2.343   3.880
  649SOL     OW 2845   4.253   4.460   1.534
  649SOL    HW1 2846   4.158   4.441   1.508
  649SOL    HW2 2847   4.271   4.420   1.624
  650SOL     OW 2848   5.591   5.661   0.309
  650SOL    HW1 2849   5.675   5.714   0.318
  650SOL    HW2 2850   5.614   5.566   0.288
  651SOL     OW 2851   1.313   5.491   6.561
  651SOL    HW1 2852   1.231   5.530   6.604
  651SOL    HW2 2853   1.371   5.565   6.528
  652SOL     OW 2854   4.637   2.933   1.412
  652SOL    HW1 2855   4.686   2.970   1.491
  652SOL    HW2 2856   4.587   2.851   1.438
  653SOL     OW 2857   3.394   5.428   2.667
  653SOL    HW1 2858   3.439   5.421   2.756
  653SOL    HW2 2859   3.405   5.343   2.617
  654SOL     OW 2860   6.771   4.749   0.185
  654SOL    HW1 2861   6.838   4.695   0.133
  654SOL    HW2 2862   6.694   4.772   0.126
  655SOL     OW 2863   1.898   1.280   0.439
  655SOL    HW1 2864   1.933   1.187   0.425
  655SOL    HW2 2865   1.894   1.299   0.537
  656SOL     OW 2866   1.931   6.216   0.976
  656SOL    HW1 2867   1.891   6.125   0.973
  656SOL    HW2 2868   1.864   6.283   0.944
  657SOL     OW 2869   3.554   0.246   6.566
  657SOL    HW1 2870   3.523   0.310   6.636
  657SOL    HW2 2871   3.482   0.180   6.546
  658SOL     OW 2872   4.164   5.491   0.508
  658SOL    HW1 2873   4.153   5.503   0.607
  658SOL    HW2 2874   4.229   5.559   0.474
  659SOL     OW 2875   3.355   0.631   5.949
  659SOL    HW1 2876   3.271   0.686   5.952
  659SOL    HW2 2877   3.388   0.616   6.042
  660SOL     OW 2878   2.937   6.129   3.470
  660SOL    HW1 2879   2.958   6.124   3.568
  660SOL    HW2 2880   2.915   6.224   3.446
  661SOL     OW 2881   0.072   5.351   3.301
  661SOL    HW1 2882   0.095   5.269   3.354
  661SOL    HW2 2883   6.995   5.376   3.318
  662SOL     OW 2884   4.423   2.049   6.904
  662SOL    HW1 2885   4.508   1.996   6.914
  662SOL    HW2 2886   4.445   2.146   6.901
  663SOL     OW 2887   1.736   3.908   4.717
  663SOL    HW1 2888   1.781   3.993   4.744
  663SOL    HW2 2889   1.770   3.833   4.774
  664SOL     OW 2890   5.523   0.423   5.990
  664SOL    HW1 2891   5.541   0.393   6.083
  664SOL    HW2 2892   5.577   0.367   5.926
  665SOL     OW 2893   1.652   4.072   2.126
  665SOL    HW1 2894   1.743   4.039   2.148
  665SOL    HW2 2895   1.649   4.103   2.031
  666SOL     OW 2896   3.925   0.805   2.666
  666SOL    HW1 2897   3.954   0.782   2.759
  666SOL    HW2 2898   3.958   0.735   2.602
  667SOL     OW 2899   6.583   0.355   1.189
  667SOL    HW1 2900   6.571   0.273   1.245
  667SOL    HW2 2901   6.637   0.423   1.240
  668SOL     OW 2902   4.899   3.465   6.883
  668SOL    HW1 2903   4.878   3.377   6.841
  668SOL    HW2 2904   4.997   3.470   6.904
  669SOL     OW 2905   5.456   1.117   3.358
  669SOL    HW1 2906   5.434   1.148   3.450
  669SOL    HW2 2907   5.554   1.096   3.352
  670SOL     OW 2908   4.045   1.639   2.001
  670SOL    HW1 2909   4.107   1.670   2.074
  670SOL    HW2 2910   3.953   1.627   2.038
  671SOL     OW 2911   1.221   5.653   2.207
  671SOL    HW1 2912   1.150   5.584   2.201
  671SOL    HW2 2913   1.299   5.617   2.259
  672SOL     OW 2914   0.182   0.111   1.330
  672SOL    HW1 2915   0.120   0.134   1.405
  672SOL    HW2 2916   0.203   0.194   1.278
  673SOL     OW 2917   6.278   6.621   6.236
  673SOL    HW1 2918   6.259   6.539   6.290
  673SOL    HW2 2919   6.343   6.679   6.285
  674SOL     OW 2920   4.562   6.892   4.600
  674SOL    HW1 2921   4.567   6.863   4.695
  674SOL    HW2 2922   4.622   6.835   4.545
  675SOL     OW 2923   0.640   5.249   2.565
  675SOL    HW1 2924   0.542   5.237   2.549
  675SOL    HW2 2925   0.664   5.346   2.557
  676SOL     OW 2926   2.063   5.843   6.778
  676SOL    HW1 2927   2.144   5.825   6.723
  676SOL    HW2 2928   2.078   5.812   6.872
  677SOL     OW 2929   5.294   1.026   1.104
  677SOL    HW1 2930   5.205   1.016   1.059
  677SOL    HW2 2931   5.281   1.072   1.192
  678SOL     OW 2932   0.555   5.428   4.302
  678SOL    HW1 2933   0.628   5.361   4.289
  678SOL    HW2 2934   0.491   5.394   4.371
  679SOL     OW 2935   5.434   1.107   5.999
  679SOL    HW1 2936   5.351   1.075   6.045
  679SOL    HW2 2937   5.501   1.033   5.996
  680SOL     OW 2938   6.253   0.166   3.955
  680SOL    HW1 2939   6.238   0.254   3.911
  680SOL    HW2 2940   6.167   0.114   3.959
  681SOL     OW 2941   4.696   4.442   2.999
  681SOL    HW1 2942   4.618   4.504   3.001
  681SOL    HW2 2943   4.680   4.371   2.930
  682SOL     OW 2944   6.349   1.813   3.215
  682SOL    HW1 2945   6.354   1.773   3.307
  682SOL    HW2 2946   6.270   1.874   3.210
  683SOL     OW 2947   3.242   5.292   0.187
  683SOL    HW1 2948   3.340   5.299   0.205
  683SOL    HW2 2949   3.213   5.196   0.196
  684SOL     OW 2950   5.325   2.120   6.156
  684SOL    HW1 2951   5.410   2.096   6.203
  684SOL    HW2 2952   5.345   2.142   6.060
  685SOL     OW 2953   3.256   6.660   3.466
  685SOL    HW1 2954   3.189   6.649   3.539
  685SOL    HW2 2955   3.250   6.752   3.428
  686SOL     OW 2956   2.768   0.221   5.631
  686SOL    HW1 2957   2.793   0.296   5.571
  686SOL    HW2 2958   2.709   0.254   5.704
  687SOL     OW 2959   0.200   0.822   4.560
  687SOL    HW1 2960   0.199   0.812   4.659
  687SOL    HW2 2961   0.281   0.876   4.533
  688SOL     OW 2962   4.741   3.681   6.826
  688SOL    HW1 2963   4.777   3.738   6.752
  688SOL    HW2 2964   4.810   3.613   6.852
  689SOL     OW 2965   2.120   6.074   0.138
  689SOL    HW1 2966   2.179   6.052   0.060
  689SOL    HW2 2967   2.084   5.989   0.177
  690SOL     OW 2968   6.089   3.543   3.903
  690SOL    HW1 2969   6.101   3.458   3.852
  690SOL    HW2 2970   6.000   3.542   3.949
  691SOL     OW 2971   5.690   0.521   2.776
  691SOL    HW1 2972   5.602   0.534   2.729
  691SOL    HW2 2973   5.686   0.439   2.833
  692SOL     OW 2974   1.245   6.700   3.492
  692SOL    HW1 2975   1.169   6.764   3.491
  692SOL    HW2 2976   1.320   6.735   3.436
  693SOL     OW 2977   6.140   3.918   1.847
  693SOL    HW1 2978   6.188   4.005   1.837
  693SOL    HW2 2979   6.077   3.906   1.771
  694SOL     OW 2980   4.192   4.998   4.604
  694SOL    HW1 2981   4.208   4.928   4.673
  694SOL    HW2 2982   4.142   4.958   4.527
  695SOL     OW 2983   4.593   0.311   4.247
  695SOL    HW1 2984   4.630   0.391   4.294
  695SOL    HW2 2985   4.609   0.229   4.302
  696SOL     OW 2986   6.992   4.783   1.800
  696SOL    HW1 2987   0.003   4.879   1.801
  696SOL    HW2 2988   0.036   4.729   1.857
  697SOL     OW 2989   0.369   6.322   3.037
  697SOL    HW1 2990   0.304   6.357   3.105
  697SOL    HW2 2991   0.336   6.233   3.004
  698SOL     OW 2992   5.872   6.327   5.718
  698SOL    HW1 2993   5.911   6.268   5.647
  698SOL    HW2 2994   5.859   6.419   5.681
  699SOL     OW 2995   4.246   2.897   0.595
  699SOL    HW1 2996   4.337   2.857   0.587
  699SOL    HW2 2997   4.203   2.866   0.681
  700SOL     OW 2998   3.621   6.483   5.327
  700SOL    HW1 2999   3.534   6.524   5.353
  700SOL    HW2 3000   3.632   6.395   5.374
  701SOL     OW 3001   4.454   4.486   1.712
  701SOL    HW1 3002   4.514   4.472   1.633
  701SOL    HW2 3003   4.464   4.409   1.775
  702SOL     OW 3004   3.384   0.873   4.990
  702SOL    HW1 3005   3.316   0.913   4.928
  702SOL    HW2 3006   3.475   0.907   4.967
  703SOL     OW 3007   3.597   3.007   0.448
  703SOL    HW1 3008   3.586   2.911   0.421
  703SOL    HW2 3009   3.606   3.064   0.367
  704SOL     OW 3010   3.777   1.501   0.311
  704SOL    HW1 3011   3.830   1.461   0.386
  704SOL    HW2 3012   3.767   1.599   0.325
  705SOL     OW 3013   6.891   6.707   5.853
  705SOL    HW1 3014   6.830   6.674   5.925
  705SOL    HW2 3015   6.852   6.790   5.813
  706SOL     OW 3016   3.402   0.553   5.035
  706SOL    HW1 3017   3.359   0.520   4.950
  706SOL    HW2 3018   3.391   0.652   5.041
  707SOL     OW 3019   3.554   5.015   4.359
  707SOL    HW1 3020   3.458   5.008   4.384
  707SOL    HW2 3021   3.568   4.974   4.269
  708SOL     OW 3022   2.706   6.171   4.112
  708SOL    HW1 3023   2.799   6.199   4.134
  708SOL    HW2 3024   2.680   6.092   4.167
  709SOL     OW 3025   2.087   6.792   1.649
  709SOL    HW1 3026   2.122   6.792   1.555
  709SOL    HW2 3027   2.032   6.874   1.664
  710SOL     OW 3028   4.868   3.001   2.686
  710SOL    HW1 3029   4.961   2.966   2.670
  710SOL    HW2 3030   4.873   3.092   2.727
  711SOL     OW 3031   6.841   1.231   0.472
  711SOL    HW1 3032   6.842   1.156   0.539
  711SOL    HW2 3033   6.754   1.231   0.423
  712SOL     OW 3034   4.985   4.438   6.766
  712SOL    HW1 3035   4.949   4.456   6.857
  712SOL    HW2 3036   5.007   4.341   6.758
  713SOL     OW 3037   2.913   2.983   5.746
  713SOL    HW1 3038   3.009   2.994   5.721
  713SOL    HW2 3039   2.905   2.914   5.818
  714SOL     OW 3040   3.879   6.969   3.125
  714SOL    HW1 3041   3.889   6.967   3.025
  714SOL    HW2 3042   3.798   0.004   3.149
  715SOL     OW 3043   6.299   4.057   5.888
  715SOL    HW1 3044   6.260   3.964   5.889
  715SOL    HW2 3045   6.377   4.060   5.950
  716SOL     OW 3046   3.193   1.117   3.093
  716SOL    HW1 3047   3.288   1.139   3.074
  716SOL    HW2 3048   3.189   1.039   3.156
  717SOL     OW 3049   5.424   4.443   3.649
  717SOL    HW1 3050   5.519   4.452   3.620
  717SOL    HW2 3051   5.364   4.474   3.576
  718SOL     OW 3052   6.320   2.301   5.372
  718SOL    HW1 3053   6.366   2.372   5.425
  718SOL    HW2 3054   6.226   2.328   5.353
  719SOL     OW 3055   4.497   5.468   2.319
  719SOL    HW1 3056   4.583   5.420   2.301
  719SOL    HW2 3057   4.516   5.551   2.371
  720SOL     OW 3058   2.951   1.628   0.931
  720SOL    HW1 3059   2.977   1.725   0.927
  720SOL    HW2 3060   2.968   1.592   1.022
  721SOL     OW 3061   6.975   2.753   2.852
  721SOL    HW1 3062   0.014   2.692   2.907
  721SOL    HW2 3063   6.880   2.747   2.884
  722SOL     OW 3064   5.505   5.654   2.004
  722SOL    HW1 3065   5.449   5.642   2.086
  722SOL    HW2 3066   5.515   5.752   1.985
  723SOL     OW 3067   2.232   0.292   4.972
  723SOL    HW1 3068   2.237   0.341   5.059
  723SOL    HW2 3069   2.221   0.358   4.898
  724SOL     OW 3070   1.218   2.424   4.788
  724SOL    HW1 3071   1.273   2.437   4.705
  724SOL    HW2 3072   1.243   2.494   4.855
  725SOL     OW 3073   1.715   3.811   3.367
  725SOL    HW1 3074   1.792   3.831   3.306
  725SOL    HW2 3075   1.707   3.712   3.379
  726SOL     OW 3076   2.454   3.287   0.470
  726SOL    HW1 3077   2.393   3.365   0.476
  726SOL    HW2 3078   2.547   3.315   0.494
  727SOL     OW 3079   3.934   5.261   5.171
  727SOL    HW1 3080   4.018   5.220   5.134
  727SOL    HW2 3081   3.901   5.331   5.107
  728SOL     OW 3082   6.414   3.641   3.202
  728SOL    HW1 3083   6.475   3.599   3.135
  728SOL    HW2 3084   6.377   3.726   3.164
  729SOL     OW 3085   0.259   5.108   0.266
  729SOL    HW1 3086   0.353   5.075   0.269
  729SOL    HW2 3087   0.203   5.054   0.328
  730SOL     OW 3088   3.829   1.189   3.369
  730SOL    HW1 3089   3.813   1.094   3.398
  730SOL    HW2 3090   3.825   1.193   3.269
  731SOL     OW 3091   4.996   4.397   4.895
  731SOL    HW1 3092   5.048   4.359   4.972
  731SOL    HW2 3093   4.916   4.340   4.878
  732SOL     OW 3094   4.943   0.474   4.318
  732SOL    HW1 3095   4.873   0.537   4.286
  732SOL    HW2 3096   4.901   0.389   4.349
  733SOL     OW 3097   0.749   4.771   4.511
  733SOL    HW1 3098   0.775   4.774   4.414
  733SOL    HW2 3099   0.738   4.676   4.540
  734SOL     OW 3100   6.462   5.813   3.321
  734SOL    HW1 3101   6.435   5.745   3.390
  734SOL    HW2 3102   6.413   5.794   3.236
  735SOL     OW 3103   4.861   0.613   2.808
  735SOL    HW1 3104   4.868   0.525   2.760
  735SOL    HW2 3105   4.946   0.664   2.796
  736SOL     OW 3106   2.199   1.261   3.094
  736SOL    HW1 3107   2.130   1.222   3.155
  736SOL    HW2 3108   2.158   1.282   3.006
  737SOL     OW 3109   3.030   1.353   6.149
  737SOL    HW1 3110   3.006   1.441   6.192
  737SOL    HW2 3111   3.043   1.284   6.220
  738SOL     OW 3112   1.341   5.349   0.493
  738SOL    HW1 3113   1.312   5.434   0.449
  738SOL    HW2 3114   1.272   5.320   0.559
  739SOL     OW 3115   1.544   0.972   2.724
  739SOL    HW1 3116   1.611   1.045   2.733
  739SOL    HW2 3117   1.560   0.903   2.796
  740SOL     OW 3118   4.814   2.721   2.703
  740SOL    HW1 3119   4.818   2.817   2.678
  740SOL    HW2 3120   4.893   2.673   2.665
  741SOL     OW 3121   3.283   0.969   2.807
  741SOL    HW1 3122   3.184   0.962   2.796
  741SOL    HW2 3123   3.310   1.065   2.806
  742SOL     OW 3124   2.163   0.498   2.289
  742SOL    HW1 3125   2.101   0.573   2.308
  742SOL    HW2 3126   2.117   0.429   2.233
  743SOL     OW 3127   6.972   6.405   2.891
  743SOL    HW1 3128   0.030   6.454   2.933
  743SOL    HW2 3129   6.985   6.402   2.792
  744SOL     OW 3130   5.967   1.194   0.893
  744SOL    HW1 3131   5.984   1.289   0.866
  744SOL    HW2 3132   6.054   1.146   0.903
  745SOL     OW 3133   0.792   6.670   5.466
  745SOL    HW1 3134   0.747   6.653   5.378
  745SOL    HW2 3135   0.890   6.654   5.457
  746SOL     OW 3136   6.215   5.301   5.672
  746SOL    HW1 3137   6.267   5.238   5.614
  746SOL    HW2 3138   6.269   5.383   5.689
  747SOL     OW 3139   3.476   4.873   2.317
  747SOL    HW1 3140   3.551   4.857   2.380
  747SOL    HW2 3141   3.389   4.852   2.363
  748SOL     OW 3142   6.252   5.299   2.982
  748SOL    HW1 3143   6.308   5.378   3.008
  748SOL    HW2 3144   6.207   5.262   3.063
  749SOL     OW 3145   4.775   4.274   4.851
  749SOL    HW1 3146   4.687   4.318   4.830
  749SOL    HW2 3147   4.772   4.238   4.944
  750SOL     OW 3148   2.778   1.971   2.653
  750SOL    HW1 3149   2.823   2.004   2.736
  750SOL    HW2 3150   2.795   2.036   2.578
  751SOL     OW 3151   4.211   6.967   0.520
  751SOL    HW1 3152   4.306   6.999   0.510
  751SOL    HW2 3153   4.188   6.909   0.442
  752SOL     OW 3154   2.879   3.401   3.893
  752SOL    HW1 3155   2.918   3.341   3.824
  752SOL    HW2 3156   2.875   3.352   3.981
  753SOL     OW 3157   3.451   3.752   3.574
  753SOL    HW1 3158   3.462   3.820   3.647
  753SOL    HW2 3159   3.387   3.682   3.604
  754SOL     OW 3160   4.313   0.882   5.970
  754SOL    HW1 3161   4.339   0.924   5.883
  754SOL    HW2 3162   4.324   0.783   5.964
  755SOL     OW 3163   5.190   4.354   5.105
  755SOL    HW1 3164   5.160   4.450   5.107
  755SOL    HW2 3165   5.262   4.341   5.173
  756SOL     OW 3166   3.359   5.585   6.141
  756SOL    HW1 3167   3.423   5.596   6.065
  756SOL    HW2 3168   3.376   5.498   6.187
  757SOL     OW 3169   0.831   6.562   1.638
  757SOL    HW1 3170   0.855   6.613   1.555
  757SOL    HW2 3171   0.914   6.540   1.689
  758SOL     OW 3172   3.493   0.980   5.774
  758SOL    HW1 3173   3.455   1.044   5.840
  758SOL    HW2 3174   3.427   0.963   5.701
  759SOL     OW 3175   6.991   2.453   3.688
  759SOL    HW1 3176   0.044   2.521   3.701
  759SOL    HW2 3177   6.951   2.464   3.597
  760SOL     OW 3178   6.826   5.732   4.403
  760SOL    HW1 3179   6.824   5.831   4.409
  760SOL    HW2 3180   6.743   5.700   4.357
  761SOL     OW 3181   4.997   4.453   6.140
  761SOL    HW1 3182   4.940   4.433   6.060
  761SOL    HW2 3183   4.941   4.490   6.213
  762SOL     OW 3184   4.188   6.111   3.468
  762SOL    HW1 3185   4.176   6.027   3.521
  762SOL    HW2 3186   4.109   6.124   3.408
  763SOL     OW 3187   5.938   1.419   0.514
  763SOL    HW1 3188   5.886   1.468   0.444
  763SOL    HW2 3189   5.875   1.369   0.573
  764SOL     OW 3190   5.175   6.094   4.507
  764SOL    HW1 3191   5.271   6.119   4.510
  764SOL    HW2 3192   5.138   6.114   4.416
  765SOL     OW 3193   5.240   6.317   6.691
  765SOL    HW1 3194   5.182   6.236   6.683
  765SOL    HW2 3195   5.238   6.350   6.786
  766SOL     OW 3196   2.866   1.740   3.937
  766SOL    HW1 3197   2.793   1.795   3.896
  766SOL    HW2 3198   2.890   1.665   3.876
  767SOL     OW 3199   6.627   6.532   3.433
  767SOL    HW1 3200   6.567   6.577   3.367
  767SOL    HW2 3201   6.573   6.475   3.495
  768SOL     OW 3202   2.890   5.651   1.561
  768SOL    HW1 3203   2.902   5.552   1.563
  768SOL    HW2 3204   2.799   5.674   1.594
  769SOL     OW 3205   3.851   2.002   5.367
  769SOL    HW1 3206   3.939   2.013   5.411
  769SOL    HW2 3207   3.801   2.089   5.370
  770SOL     OW 3208   0.369   4.409   5.674
  770SOL    HW1 3209   0.448   4.467   5.696
  770SOL    HW2 3210   0.297   4.423   5.742
  771SOL     OW 3211   1.630   5.198   2.670
  771SOL    HW1 3212   1.691   5.226   2.743
  771SOL    HW2 3213   1.648   5.102   2.646
  772SOL     OW 3214   6.300   4.823   0.301
  772SOL    HW1 3215   6.306   4.741   0.245
  772SOL    HW2 3216   6.222   4.815   0.364
  773SOL     OW 3217   1.277   4.554   3.780
  773SOL    HW1 3218   1.242   4.570   3.688
  773SOL    HW2 3219   1.307   4.641   3.820
  774SOL     OW 3220   2.153   2.595   3.468
  774SOL    HW1 3221   2.069   2.628   3.512
  774SOL    HW2 3222   2.133   2.568   3.374
  775SOL     OW 3223   0.939   5.072   2.345
  775SOL    HW1 3224   0.859   5.123   2.314
  775SOL    HW2 3225   1.021   5.129   2.336
  776SOL     OW 3226   2.193   4.741   0.292
  776SOL    HW1 3227   2.132   4.767   0.217
  776SOL    HW2 3228   2.252   4.819   0.315
  777SOL     OW 3229   1.357   3.129   6.694
  777SOL    HW1 3230   1.288   3.198   6.714
  777SOL    HW2 3231   1.404   3.104   6.779
  778SOL     OW 3232   3.505   5.741   6.886
  778SOL    HW1 3233   3.519   5.771   6.981
  778SOL    HW2 3234   3.412   5.762   6.858
  779SOL     OW 3235   5.890   2.244   3.362
  779SOL    HW1 3236   5.841   2.229   3.448
  779SOL    HW2 3237   5.824   2.267   3.290
  780SOL     OW 3238   6.422   1.566   5.045
  780SOL    HW1 3239   6.384   1.542   4.956
  780SOL    HW2 3240   6.423   1.665   5.056
  781SOL     OW 3241   0.034   5.045   6.929
  781SOL    HW1 3242   6.959   5.022   6.905
  781SOL    HW2 3243   0.064   5.125   6.878
  782SOL     OW 3244   2.345   3.704   5.430
  782SOL    HW1 3245   2.266   3.745   5.383
  782SOL    HW2 3246   2.388   3.772   5.488
  783SOL     OW 3247   0.023   5.074   5.803
  783SOL    HW1 3248   6.976   5.146   5.781
  783SOL    HW2 3249   6.992   4.992   5.831
  784SOL     OW 3250   1.413   6.016   5.932
  784SOL    HW1 3251   1.314   6.016   5.916
  784SOL    HW2 3252   1.450   6.108   5.915
  785SOL     OW 3253   0.619   6.854   3.847
  785SOL    HW1 3254   0.664   6.942   3.829
  785SOL    HW2 3255   0.561   6.863   3.928
  786SOL     OW 3256   6.185   1.951   4.718
  786SOL    HW1 3257   6.191   1.902   4.805
  786SOL    HW2 3258   6.214   2.046   4.731
  787SOL     OW 3259   2.056   6.521   1.020
  787SOL    HW1 3260   2.154   6.510   1.034
  787SOL    HW2 3261   2.033   6.619   1.014
  788SOL     OW 3262   2.116   3.422   2.411
  788SOL    HW1 3263   2.160   3.399   2.324
  788SOL    HW2 3264   2.131   3.348   2.476
  789SOL     OW 3265   3.344   5.378   1.984
  789SOL    HW1 3266   3.286   5.450   1.945
  789SOL    HW2 3267   3.418   5.356   1.919
  790SOL     OW 3268   0.176   3.454   2.913
  790SOL    HW1 3269   0.145   3.361   2.932
  790SOL    HW2 3270   0.274   3.453   2.890
  791SOL     OW 3271   3.659   0.584   3.960
  791SOL    HW1 3272   3.713   0.500   3.957
  791SOL    HW2 3273   3.669   0.632   3.873
  792SOL     OW 3274   3.189   0.771   0.461
  792SOL    HW1 3275   3.100   0.787   0.504
  792SOL    HW2 3276   3.262   0.796   0.525
  793SOL     OW 3277   2.095   5.583   5.010
  793SOL    HW1 3278   2.168   5.546   4.952
  793SOL    HW2 3279   2.008   5.577   4.962
  794SOL     OW 3280   3.630   2.988   2.173
  794SOL    HW1 3281   3.550   2.941   2.211
  794SOL    HW2 3282   3.612   3.013   2.078
  795SOL     OW 3283   3.723   6.662   6.054
  795SOL    HW1 3284   3.802   6.654   5.994
  795SOL    HW2 3285   3.649   6.709   6.006
  796SOL     OW 3286   0.969   2.244   6.392
  796SOL    HW1 3287   0.959   2.280   6.299
  796SOL    HW2 3288   0.892   2.276   6.448
  797SOL     OW 3289   2.905   6.724   0.474
  797SOL    HW1 3290   3.003   6.737   0.461
  797SOL    HW2 3291   2.874   6.646   0.419
  798SOL     OW 3292   5.337   4.425   1.752
  798SOL    HW1 3293   5.254   4.471   1.783
  798SOL    HW2 3294   5.313   4.357   1.683
  799SOL     OW 3295   3.231   3.484   5.095
  799SOL    HW1 3296   3.288   3.404   5.114
  799SOL    HW2 3297   3.252   3.518   5.003
  800SOL     OW 3298   5.183   3.079   3.241
  800SOL    HW1 3299   5.115   3.054   3.310
  800SOL    HW2 3300   5.219   3.170   3.261
  801SOL     OW 3301   2.032   4.822   0.039
  801SOL    HW1 3302   1.938   4.855   0.047
  801SOL    HW2 3303   2.031   4.723   0.024
  802SOL     OW 3304   3.888   2.654   5.632
  802SOL    HW1 3305   3.934   2.566   5.620
  802SOL    HW2 3306   3.952   2.720   5.671
  803SOL     OW 3307   3.436   1.952   3.312
  803SOL    HW1 3308   3.423   1.857   3.343
  803SOL    HW2 3309   3.466   2.008   3.389
  804SOL     OW 3310   4.265   0.046   3.043
  804SOL    HW1 3311   4.245   0.006   2.953
  804SOL    HW2 3312   4.227   0.138   3.048
  805SOL     OW 3313   3.537   1.614   3.779
  805SOL    HW1 3314   3.484   1.533   3.804
  805SOL    HW2 3315   3.600   1.591   3.705
  806SOL     OW 3316   4.301   6.185   5.805
  806SOL    HW1 3317   4.385   6.225   5.768
  806SOL    HW2 3318   4.254   6.133   5.732
  807SOL     OW 3319   1.148   6.484   6.446
  807SOL    HW1 3320   1.193   6.572   6.463
  807SOL    HW2 3321   1.152   6.428   6.529
  808SOL     OW 3322   5.063   2.003   5.875
  808SOL    HW1 3323   5.070   1.937   5.949
  808SOL    HW2 3324   4.968   2.006   5.842
  809SOL     OW 3325   2.507   6.076   5.274
  809SOL    HW1 3326   2.576   6.077   5.347
  809SOL    HW2 3327   2.500   5.983   5.237
  810SOL     OW 3328   3.986   3.859   6.265
  810SOL    HW1 3329   3.887   3.845   6.257
  810SOL    HW2 3330   4.031   3.822   6.184
  811SOL     OW 3331   5.354   4.888   5.527
  811SOL    HW1 3332   5.348   4.963   5.593
  811SOL    HW2 3333   5.285   4.819   5.549
  812SOL     OW 3334   1.598   2.190   0.255
  812SOL    HW1 3335   1.639   2.261   0.312
  812SOL    HW2 3336   1.500   2.208   0.244
  813SOL     OW 3337   2.740   1.682   5.077
  813SOL    HW1 3338   2.650   1.704   5.116
  813SOL    HW2 3339   2.795   1.766   5.073
  814SOL     OW 3340   0.487   4.736   1.216
  814SOL    HW1 3341   0.547   4.797   1.267
  814SOL    HW2 3342   0.477   4.649   1.266
  815SOL     OW 3343   4.284   0.811   3.855
  815SOL    HW1 3344   4.259   0.716   3.872
  815SOL    HW2 3345   4.241   0.843   3.770
  816SOL     OW 3346   4.756   3.548   6.551
  816SOL    HW1 3347   4.701   3.480   6.503
  816SOL    HW2 3348   4.734   3.546   6.649
  817SOL     OW 3349   6.945   5.326   0.344
  817SOL    HW1 3350   6.925   5.237   0.385
  817SOL    HW2 3351   0.010   5.363   0.385
  818SOL     OW 3352   6.480   1.093   5.123
  818SOL    HW1 3353   6.512   1.174   5.074
  818SOL    HW2 3354   6.403   1.052   5.074
  819SOL     OW 3355   5.557   3.756   1.870
  819SOL    HW1 3356   5.461   3.784   1.875
  819SOL    HW2 3357   5.615   3.829   1.909
  820SOL     OW 3358   2.363   2.128   5.414
  820SOL    HW1 3359   2.435   2.081   5.363
  820SOL    HW2 3360   2.354   2.222   5.380
  821SOL     OW 3361   4.717   4.003   6.416
  821SOL    HW1 3362   4.710   3.908   6.386
  821SOL    HW2 3363   4.628   4.035   6.449
  822SOL     OW 3364   0.027   4.387   3.237
  822SOL    HW1 3365   0.030   4.485   3.216
  822SOL    HW2 3366   0.119   4.357   3.263
  823SOL     OW 3367   1.933   2.846   4.408
  823SOL    HW1 3368   1.890   2.763   4.372
  823SOL    HW2 3369   1.898   2.926   4.360
  824SOL     OW 3370   5.162   0.655   5.822
  824SOL    HW1 3371   5.205   0.745   5.813
  824SOL    HW2 3372   5.068   0.666   5.853
  825SOL     OW 3373   6.322   6.242   1.575
  825SOL    HW1 3374   6.408   6.292   1.583
  825SOL    HW2 3375   6.337   6.146   1.597
  826SOL     OW 3376   3.376   1.997   0.068
  826SOL    HW1 3377   3.459   2.052   0.070
  826SOL    HW2 3378   3.382   1.925   0.138
  827SOL     OW 3379   3.470   3.346   5.069
  827SOL    HW1 3380   3.533   3.424   5.074
  827SOL    HW2 3381   3.501   3.274   5.131
  828SOL     OW 3382   0.743   6.339   6.335
  828SOL    HW1 3383   0.809   6.398   6.289
  828SOL    HW2 3384   0.651   6.379   6.327
  829SOL     OW 3385   3.845   3.352   1.437
  829SOL    HW1 3386   3.800   3.439   1.415
  829SOL    HW2 3387   3.813   3.321   1.527
  830SOL     OW 3388   0.620   3.257   5.841
  830SOL    HW1 3389   0.588   3.298   5.756
  830SOL    HW2 3390   0.617   3.325   5.914
  831SOL     OW 3391   5.719   1.973   3.317
  831SOL    HW1 3392   5.694   2.041   3.387
  831SOL    HW2 3393   5.675   1.997   3.230
  832SOL     OW 3394   3.004   2.204   4.797
  832SOL    HW1 3395   3.042   2.222   4.888
  832SOL    HW2 3396   3.078   2.175   4.735
  833SOL     OW 3397   3.264   3.030   6.553
  833SOL    HW1 3398   3.268   3.032   6.653
  833SOL    HW2 3399   3.356   3.045   6.516
  834SOL     OW 3400   6.232   3.565   1.205
  834SOL    HW1 3401   6.302   3.562   1.133
  834SOL    HW2 3402   6.146   3.597   1.166
  835SOL     OW 3403   6.525   6.400   4.985
  835SOL    HW1 3404   6.606   6.351   5.017
  835SOL    HW2 3405   6.449   6.385   5.048
  836SOL     OW 3406   6.705   0.302   3.907
  836SOL    HW1 3407   6.723   0.400   3.915
  836SOL    HW2 3408   6.712   0.275   3.811
  837SOL     OW 3409   0.486   6.897   6.459
  837SOL    HW1 3410   0.400   6.923   6.504
  837SOL    HW2 3411   0.562   6.915   6.521
  838SOL     OW 3412   1.044   6.262   3.190
  838SOL    HW1 3413   0.976   6.205   3.235
  838SOL    HW2 3414   1.011   6.355   3.182
  839SOL     OW 3415   1.721   1.956   6.784
  839SOL    HW1 3416   1.778   2.024   6.738
  839SOL    HW2 3417   1.778   1.879   6.813
  840SOL     OW 3418   4.988   5.293   0.449
  840SOL    HW1 3419   4.936   5.222   0.496
  840SOL    HW2 3420   4.928   5.343   0.386
  841SOL     OW 3421   2.828   4.562   6.720
  841SOL    HW1 3422   2.875   4.636   6.767
  841SOL    HW2 3423   2.801   4.592   6.628
  842SOL     OW 3424   3.863   6.135   1.114
  842SOL    HW1 3425   3.876   6.200   1.039
  842SOL    HW2 3426   3.773   6.092   1.104
  843SOL     OW 3427   1.849   6.942   2.112
  843SOL    HW1 3428   1.820   6.900   2.026
  843SOL    HW2 3429   1.770   6.954   2.172
  844SOL     OW 3430   6.886   6.864   1.142
  844SOL    HW1 3431   6.874   6.887   1.046
  844SOL    HW2 3432   6.915   6.768   1.150
  845SOL     OW 3433   4.304   1.414   1.402
  845SOL    HW1 3434   4.397   1.405   1.369
  845SOL    HW2 3435   4.240   1.401   1.327
  846SOL     OW 3436   1.245   0.637   0.958
  846SOL    HW1 3437   1.295   0.705   1.012
  846SOL    HW2 3438   1.292   0.622   0.871
  847SOL     OW 3439   3.118   3.273   1.534
  847SOL    HW1 3440   3.030   3.305   1.567
  847SOL    HW2 3441   3.116   3.174   1.523
  848SOL     OW 3442   6.396   5.925   0.981
  848SOL    HW1 3443   6.308   5.878   0.990
  848SOL    HW2 3444   6.460   5.867   0.931
  849SOL     OW 3445   5.632   3.213   6.174
  849SOL    HW1 3446   5.635   3.113   6.173
  849SOL    HW2 3447   5.559   3.246   6.115
  850SOL     OW 3448   2.339   1.101   4.576
  850SOL    HW1 3449   2.357   1.190   4.617
  850SOL    HW2 3450   2.251   1.103   4.528
  851SOL     OW 3451   4.810   2.774   6.297
  851SOL    HW1 3452   4.717   2.759   6.262
  851SOL    HW2 3453   4.863   2.690   6.289
  852SOL     OW 3454   0.283   4.887   1.129
  852SOL    HW1 3455   0.363   4.828   1.137
  852SOL    HW2 3456   0.312   4.978   1.097
  853SOL     OW 3457   3.835   2.664   0.548
  853SOL    HW1 3458   3.857   2.738   0.611
  853SOL    HW2 3459   3.791   2.589   0.598
  854SOL     OW 3460   6.828   0.966   6.531
  854SOL    HW1 3461   6.733   0.965   6.563
  854SOL    HW2 3462   6.876   0.887   6.568
  855SOL     OW 3463   4.659   2.131   0.091
  855SOL    HW1 3464   4.710   2.057   0.134
  855SOL    HW2 3465   4.657   2.117   7.010
  856SOL     OW 3466   1.506   5.857   1.540
  856SOL    HW1 3467   1.562   5.793   1.592
  856SOL    HW2 3468   1.527   5.848   1.442
  857SOL     OW 3469   0.091   6.259   5.044
  857SOL    HW1 3470   0.009   6.202   5.051
  857SOL    HW2 3471   0.067   6.348   5.007
  858SOL     OW 3472   2.931   4.324   0.587
  858SOL    HW1 3473   2.876   4.248   0.555
  858SOL    HW2 3474   2.890   4.411   0.559
  859SOL     OW 3475   4.825   6.243   5.537
  859SOL    HW1 3476   4.850   6.338   5.520
  859SOL    HW2 3477   4.905   6.185   5.524
  860SOL     OW 3478   4.720   2.859   0.439
  860SOL    HW1 3479   4.656   2.801   0.489
  860SOL    HW2 3480   4.814   2.826   0.455
  861SOL     OW 3481   0.947   5.771   2.593
  861SOL    HW1 3482   0.921   5.752   2.688
  861SOL    HW2 3483   1.047   5.775   2.586
  862SOL     OW 3484   0.593   4.761   4.199
  862SOL    HW1 3485   0.503   4.792   4.228
  862SOL    HW2 3486   0.604   4.664   4.222
  863SOL     OW 3487   5.086   0.434   1.353
  863SOL    HW1 3488   5.045   0.431   1.261
  863SOL    HW2 3489   5.016   0.457   1.420
  864SOL     OW 3490   6.209   3.703   3.495
  864SOL    HW1 3491   6.230   3.739   3.586
  864SOL    HW2 3492   6.139   3.633   3.502
  865SOL     OW 3493   1.984   5.068   4.701
  865SOL    HW1 3494   1.889   5.090   4.678
  865SOL    HW2 3495   2.040   5.151   4.694
  866SOL     OW 3496   3.414   6.655   1.164
  866SOL    HW1 3497   3.339   6.694   1.218
  866SOL    HW2 3498   3.484   6.725   1.149
  867SOL     OW 3499   6.008   3.626   4.806
  867SOL    HW1 3500   6.065   3.560   4.854
  867SOL    HW2 3501   5.911   3.607   4.826
  868SOL     OW 3502   0.531   1.782   1.953
  868SOL    HW1 3503   0.592   1.716   1.910
  868SOL    HW2 3504   0.488   1.839   1.883
  869SOL     OW 3505   0.750   3.004   1.954
  869SOL    HW1 3506   0.721   3.085   1.903
  869SOL    HW2 3507   0.747   2.924   1.894
  870SOL     OW 3508   3.666   4.962   1.778
  870SOL    HW1 3509   3.623   4.875   1.801
  870SOL    HW2 3510   3.738   4.947   1.710
  871SOL     OW 3511   4.762   2.006   3.576
  871SOL    HW1 3512   4.671   1.969   3.557
  871SOL    HW2 3513   4.756   2.104   3.592
  872SOL     OW 3514   1.789   2.539   5.697
  872SOL    HW1 3515   1.703   2.488   5.701
  872SOL    HW2 3516   1.840   2.525   5.782
  873SOL     OW 3517   3.856   0.885   6.173
  873SOL    HW1 3518   3.934   0.889   6.111
  873SOL    HW2 3519   3.772   0.902   6.121
  874SOL     OW 3520   5.406   3.692   2.817
  874SOL    HW1 3521   5.486   3.691   2.877
  874SOL    HW2 3522   5.334   3.747   2.860
  875SOL     OW 3523   5.255   5.035   2.014
  875SOL    HW1 3524   5.233   5.107   1.949
  875SOL    HW2 3525   5.171   5.006   2.061
  876SOL     OW 3526   6.192   1.504   6.304
  876SOL    HW1 3527   6.103   1.548   6.315
  876SOL    HW2 3528   6.243   1.510   6.390
  877SOL     OW 3529   1.000   3.102   6.418
  877SOL    HW1 3530   1.029   3.190   6.380
  877SOL    HW2 3531   1.064   3.031   6.388
  878SOL     OW 3532   4.377   6.495   4.507
  878SOL    HW1 3533   4.353   6.592   4.502
  878SOL    HW2 3534   4.452   6.477   4.444
  879SOL     OW 3535   5.969   6.998   6.405
  879SOL    HW1 3536   5.893   0.011   6.349
  879SOL    HW2 3537   5.998   6.907   6.374
  880SOL     OW 3538   3.647   2.886   3.007
  880SOL    HW1 3539   3.567   2.875   2.948
  880SOL    HW2 3540   3.719   2.933   2.955
  881SOL     OW 3541   4.929   2.154   0.636
  881SOL    HW1 3542   4.920   2.246   0.599
  881SOL    HW2 3543   4.838   2.111   0.640
  882SOL     OW 3544   1.973   2.352   3.580
  882SOL    HW1 3545   1.875   2.336   3.567
  882SOL    HW2 3546   2.022   2.265   3.574
  883SOL     OW 3547   2.492   6.663   2.931
  883SOL    HW1 3548   2.451   6.667   2.840
  883SOL    HW2 3549   2.465   6.578   2.976
  884SOL     OW 3550   2.583   3.472   6.181
  884SOL    HW1 3551   2.565   3.539   6.109
  884SOL    HW2 3552   2.497   3.447   6.226
  885SOL     OW 3553   4.185   3.172   6.623
  885SOL    HW1 3554   4.178   3.105   6.549
  885SOL    HW2 3555   4.158   3.130   6.709
  886SOL     OW 3556   3.633   1.285   5.630
  886SOL    HW1 3557   3.537   1.259   5.633
  886SOL    HW2 3558   3.674   1.274   5.720
  887SOL     OW 3559   3.733   0.958   5.657
  887SOL    HW1 3560   3.646   0.959   5.705
  887SOL    HW2 3561   3.771   1.051   5.654
  888SOL     OW 3562   0.305   6.843   2.012
  888SOL    HW1 3563   0.397   6.840   2.053
  888SOL    HW2 3564   0.264   6.933   2.028
  889SOL     OW 3565   0.512   3.784   1.380
  889SOL    HW1 3566   0.492   3.827   1.468
  889SOL    HW2 3567   0.446   3.711   1.363
  890SOL     OW 3568   2.846   6.199   5.000
  890SOL    HW1 3569   2.830   6.116   4.948
  890SOL    HW2 3570   2.938   6.234   4.980
  891SOL     OW 3571   4.501   4.491   2.478
  891SOL    HW1 3572   4.537   4.474   2.386
  891SOL    HW2 3573   4.416   4.543   2.471
  892SOL     OW 3574   2.365   4.306   1.182
  892SOL    HW1 3575   2.369   4.377   1.252
  892SOL    HW2 3576   2.289   4.324   1.120
  893SOL     OW 3577   1.606   5.363   2.247
  893SOL    HW1 3578   1.599   5.266   2.221
  893SOL    HW2 3579   1.599   5.371   2.346
  894SOL     OW 3580   1.613   4.094   0.734
  894SOL    HW1 3581   1.645   4.187   0.715
  894SOL    HW2 3582   1.530   4.077   0.681
  895SOL     OW 3583   6.597   5.631   4.903
  895SOL    HW1 3584   6.508   5.636   4.857
  895SOL    HW2 3585   6.670   5.629   4.834
  896SOL     OW 3586   6.921   0.788   6.260
  896SOL    HW1 3587   6.880   0.750   6.177
  896SOL    HW2 3588   6.941   0.714   6.324
  897SOL     OW 3589   6.176   1.338   0.605
  897SOL    HW1 3590   6.097   1.346   0.544
  897SOL    HW2 3591   6.190   1.242   0.630
  898SOL     OW 3592   4.290   1.547   3.601
  898SOL    HW1 3593   4.306   1.617   3.670
  898SOL    HW2 3594   4.368   1.484   3.599
  899SOL     OW 3595   6.499   6.939   6.808
  899SOL    HW1 3596   6.583   6.890   6.831
  899SOL    HW2 3597   6.445   6.955   6.890
  900SOL     OW 3598   5.442   4.850   6.387
  900SOL    HW1 3599   5.465   4.924   6.450
  900SOL    HW2 3600   5.483   4.765   6.420
  901SOL     OW 3601   1.279   0.727   2.438
  901SOL    HW1 3602   1.282   0.814   2.489
  901SOL    HW2 3603   1.190   0.718   2.394
  902SOL     OW 3604   6.955   3.063   2.820
  902SOL    HW1 3605   6.925   3.060   2.725
  902SOL    HW2 3606   6.944   2.973   2.861
  903SOL     OW 3607   6.548   1.693   0.550
  903SOL    HW1 3608   6.557   1.615   0.612
  903SOL    HW2 3609   6.580   1.776   0.596
  904SOL     OW 3610   2.886   1.221   3.508
  904SOL    HW1 3611   2.981   1.241   3.485
  904SOL    HW2 3612   2.829   1.301   3.486
  905SOL     OW 3613   5.374   2.344   6.320
  905SOL    HW1 3614   5.340   2.277   6.254
  905SOL    HW2 3615   5.456   2.389   6.284
  906SOL     OW 3616   6.215   3.315   1.321
  906SOL    HW1 3617   6.214   3.414   1.313
  906SOL    HW2 3618   6.194   3.275   1.231
  907SOL     OW 3619   5.865   4.842   0.298
  907SOL    HW1 3620   5.842   4.900   0.220
  907SOL    HW2 3621   5.912   4.895   0.367
  908SOL     OW 3622   0.618   3.807   3.417
  908SOL    HW1 3623   0.621   3.866   3.498
  908SOL    HW2 3624   0.635   3.713   3.444
  909SOL     OW 3625   4.816   4.390   5.912
  909SOL    HW1 3626   4.878   4.356   5.841
  909SOL    HW2 3627   4.756   4.460   5.874
  910SOL     OW 3628   3.294   4.961   0.482
  910SOL    HW1 3629   3.296   5.046   0.536
  910SOL    HW2 3630   3.388   4.930   0.466
  911SOL     OW 3631   0.920   4.344   6.288
  911SOL    HW1 3632   1.008   4.309   6.320
  911SOL    HW2 3633   0.896   4.298   6.203
  912SOL     OW 3634   5.611   1.586   5.257
  912SOL    HW1 3635   5.709   1.607   5.262
  912SOL    HW2 3636   5.562   1.642   5.324
  913SOL     OW 3637   5.937   5.694   3.704
  913SOL    HW1 3638   5.937   5.786   3.743
  913SOL    HW2 3639   6.031   5.661   3.698
  914SOL     OW 3640   2.300   6.256   5.367
  914SOL    HW1 3641   2.217   6.201   5.381
  914SOL    HW2 3642   2.380   6.196   5.369
  915SOL     OW 3643   5.420   4.814   1.883
  915SOL    HW1 3644   5.515   4.839   1.864
  915SOL    HW2 3645   5.371   4.894   1.918
  916SOL     OW 3646   1.171   3.868   2.930
  916SOL    HW1 3647   1.234   3.891   3.004
  916SOL    HW2 3648   1.197   3.780   2.890
  917SOL     OW 3649   0.656   6.932   0.198
  917SOL    HW1 3650   0.733   6.871   0.215
  917SOL    HW2 3651   0.574   6.877   0.177
  918SOL     OW 3652   3.696   5.659   6.253
  918SOL    HW1 3653   3.659   5.595   6.320
  918SOL    HW2 3654   3.699   5.616   6.163
  919SOL     OW 3655   4.370   0.160   5.757
  919SOL    HW1 3656   4.291   0.213   5.789
  919SOL    HW2 3657   4.396   0.094   5.828
  920SOL     OW 3658   3.024   4.548   1.600
  920SOL    HW1 3659   2.955   4.505   1.659
  920SOL    HW2 3660   3.114   4.533   1.639
  921SOL     OW 3661   5.322   5.826   5.492
  921SOL    HW1 3662   5.280   5.773   5.565
  921SOL    HW2 3663   5.258   5.895   5.459
  922SOL     OW 3664   3.238   3.994   2.659
  922SOL    HW1 3665   3.194   4.036   2.739
  922SOL    HW2 3666   3.305   3.927   2.690
  923SOL     OW 3667   2.651   4.137   5.450
  923SOL    HW1 3668   2.554   4.120   5.465
  923SOL    HW2 3669   2.688   4.066   5.390
  924SOL     OW 3670   0.964   2.677   0.881
  924SOL    HW1 3671   0.946   2.579   0.881
  924SOL    HW2 3672   0.884   2.726   0.915
  925SOL     OW 3673   0.717   1.468   6.998
  925SOL    HW1 3674   0.743   1.447   6.904
  925SOL    HW2 3675   0.618   1.474   7.005
  926SOL     OW 3676   2.015   2.493   0.996
  926SOL    HW1 3677   1.955   2.429   1.044
  926SOL    HW2 3678   2.056   2.447   0.917
  927SOL     OW 3679   0.398   3.451   5.312
  927SOL    HW1 3680   0.419   3.548   5.311
  927SOL    HW2 3681   0.302   3.437   5.336
  928SOL     OW 3682   2.751   5.323   6.255
  928SOL    HW1 3683   2.832   5.336   6.313
  928SOL    HW2 3684   2.774   5.260   6.181
  929SOL     OW 3685   1.590   2.467   4.803
  929SOL    HW1 3686   1.504   2.447   4.758
  929SOL    HW2 3687   1.574   2.486   4.900
  930SOL     OW 3688   5.908   5.508   5.525
  930SOL    HW1 3689   5.918   5.542   5.618
  930SOL    HW2 3690   5.968   5.429   5.512
  931SOL     OW 3691   6.130   0.575   3.498
  931SOL    HW1 3692   6.216   0.590   3.545
  931SOL    HW2 3693   6.144   0.513   3.421
  932SOL     OW 3694   4.457   6.952   3.449
  932SOL    HW1 3695   4.539   6.944   3.505
  932SOL    HW2 3696   4.428   0.029   3.445
  933SOL     OW 3697   1.116   5.946   1.806
  933SOL    HW1 3698   1.062   5.865   1.783
  933SOL    HW2 3699   1.154   5.985   1.722
  934SOL     OW 3700   1.905   2.742   0.997
  934SOL    HW1 3701   1.937   2.649   0.977
  934SOL    HW2 3702   1.930   2.767   1.090
  935SOL     OW 3703   5.624   2.977   5.552
  935SOL    HW1 3704   5.634   3.064   5.505
  935SOL    HW2 3705   5.713   2.950   5.591
  936SOL     OW 3706   1.325   1.307   6.243
  936SOL    HW1 3707   1.287   1.237   6.183
  936SOL    HW2 3708   1.288   1.396   6.217
  937SOL     OW 3709   2.895   1.582   6.256
  937SOL    HW1 3710   2.905   1.648   6.330
  937SOL    HW2 3711   2.798   1.570   6.235
  938SOL     OW 3712   4.882   6.626   4.848
  938SOL    HW1 3713   4.910   6.585   4.761
  938SOL    HW2 3714   4.898   6.561   4.922
  939SOL     OW 3715   1.643   0.203   4.708
  939SOL    HW1 3716   1.716   0.136   4.721
  939SOL    HW2 3717   1.565   0.180   4.766
  940SOL     OW 3718   2.098   5.257   0.671
  940SOL    HW1 3719   2.004   5.284   0.653
  940SOL    HW2 3720   2.102   5.207   0.758
  941SOL     OW 3721   3.888   6.882   1.029
  941SOL    HW1 3722   3.910   6.971   1.069
  941SOL    HW2 3723   3.972   6.838   0.997
  942SOL     OW 3724   0.267   4.974   0.029
  942SOL    HW1 3725   0.189   4.996   6.990
  942SOL    HW2 3726   0.282   5.048   0.095
  943SOL     OW 3727   3.215   6.695   1.336
  943SOL    HW1 3728   3.120   6.665   1.326
  943SOL    HW2 3729   3.263   6.633   1.399
  944SOL     OW 3730   6.233   5.712   3.584
  944SOL    HW1 3731   6.300   5.786   3.576
  944SOL    HW2 3732   6.228   5.681   3.679
  945SOL     OW 3733   0.165   4.926   6.536
  945SOL    HW1 3734   0.261   4.903   6.519
  945SOL    HW2 3735   0.112   4.841   6.544
  946SOL     OW 3736   5.881   2.272   3.982
  946SOL    HW1 3737   5.911   2.366   3.969
  946SOL    HW2 3738   5.832   2.264   4.069
  947SOL     OW 3739   3.535   3.984   2.526
  947SOL    HW1 3740   3.441   4.013   2.504
  947SOL    HW2 3741   3.598   4.026   2.462
  948SOL     OW 3742   3.512   1.875   3.891
  948SOL    HW1 3743   3.562   1.919   3.817
  948SOL    HW2 3744   3.523   1.776   3.885
  949SOL     OW 3745   1.982   0.115   5.340
  949SOL    HW1 3746   2.052   0.077   5.280
  949SOL    HW2 3747   1.992   0.076   5.432
  950SOL     OW 3748   6.783   0.454   1.657
  950SOL    HW1 3749   6.723   0.497   1.725
  950SOL    HW2 3750   6.859   0.516   1.636
  951SOL     OW 3751   1.479   0.274   2.651
  951SOL    HW1 3752   1.538   0.197   2.675
  951SOL    HW2 3753   1.492   0.348   2.717
  952SOL     OW 3754   3.355   1.843   2.757
  952SOL    HW1 3755   3.257   1.823   2.750
  952SOL    HW2 3756   3.380   1.853   2.854
  953SOL     OW 3757   0.919   6.211   5.541
  953SOL    HW1 3758   0.889   6.288   5.598
  953SOL    HW2 3759   0.886   6.224   5.447
  954SOL     OW 3760   4.440   6.520   2.543
  954SOL    HW1 3761   4.480   6.505   2.633
  954SOL    HW2 3762   4.357   6.575   2.552
  955SOL     OW 3763   3.162   4.275   1.334
  955SOL    HW1 3764   3.243   4.302   1.387
  955SOL    HW2 3765   3.186   4.199   1.273
  956SOL     OW 3766   3.284   0.064   0.854
  956SOL    HW1 3767   3.381   0.038   0.859
  956SOL    HW2 3768   3.249   0.044   0.763
  957SOL     OW 3769   6.180   0.223   2.951
  957SOL    HW1 3770   6.105   0.280   2.985
  957SOL    HW2 3771   6.266   0.254   2.992
  958SOL     OW 3772   5.374   5.468   1.781
  958SOL    HW1 3773   5.418   5.477   1.691
  958SOL    HW2 3774   5.444   5.472   1.853
  959SOL     OW 3775   5.200   6.189   2.173
  959SOL    HW1 3776   5.166   6.177   2.266
  959SOL    HW2 3777   5.263   6.267   2.171
  960SOL     OW 3778   0.843   6.772   6.330
  960SOL    HW1 3779   0.878   6.849   6.278
  960SOL    HW2 3780   0.750   6.751   6.302
  961SOL     OW 3781   4.060   1.275   3.757
  961SOL    HW1 3782   4.095   1.280   3.664
  961SOL    HW2 3783   4.121   1.325   3.819
  962SOL     OW 3784   0.045   0.778   5.118
  962SOL    HW1 3785   6.996   0.731   5.174
  962SOL    HW2 3786   0.057   0.872   5.151
  963SOL     OW 3787   5.746   2.463   1.186
  963SOL    HW1 3788   5.824   2.443   1.126
  963SOL    HW2 3789   5.674   2.508   1.133
  964SOL     OW 3790   3.846   6.181   4.792
  964SOL    HW1 3791   3.924   6.133   4.831
  964SOL    HW2 3792   3.795   6.119   4.733
  965SOL     OW 3793   4.778   1.758   4.655
  965SOL    HW1 3794   4.839   1.783   4.580
  965SOL    HW2 3795   4.803   1.669   4.691
  966SOL     OW 3796   4.957   1.149   3.034
  966SOL    HW1 3797   4.939   1.206   3.115
  966SOL    HW2 3798   5.041   1.179   2.990
  967SOL     OW 3799   4.212   5.691   5.770
  967SOL    HW1 3800   4.182   5.735   5.854
  967SOL    HW2 3801   4.232   5.761   5.701
  968SOL     OW 3802   4.462   0.019   1.548
  968SOL    HW1 3803   4.527   0.092   1.529
  968SOL    HW2 3804   4.378   0.058   1.587
  969SOL     OW 3805   3.335   3.263   6.734
  969SOL    HW1 3806   3.385   3.332   6.681
  969SOL    HW2 3807   3.391   3.235   6.812
  970SOL     OW 3808   4.589   6.147   5.452
  970SOL    HW1 3809   4.672   6.191   5.487
  970SOL    HW2 3810   4.596   6.136   5.353
  971SOL     OW 3811   4.858   3.206   3.669
  971SOL    HW1 3812   4.831   3.288   3.618
  971SOL    HW2 3813   4.882   3.232   3.762
  972SOL     OW 3814   0.929   1.737   1.048
  972SOL    HW1 3815   0.903   1.694   0.962
  972SOL    HW2 3816   0.856   1.724   1.115
  973SOL     OW 3817   6.676   2.588   4.995
  973SOL    HW1 3818   6.759   2.583   4.940
  973SOL    HW2 3819   6.641   2.682   4.993
  974SOL     OW 3820   1.521   3.285   1.920
  974SOL    HW1 3821   1.517   3.202   1.866
  974SOL    HW2 3822   1.474   3.271   2.007
  975SOL     OW 3823   3.156   0.529   2.313
  975SOL    HW1 3824   3.072   0.581   2.331
  975SOL    HW2 3825   3.208   0.521   2.398
  976SOL     OW 3826   0.359   2.990   3.813
  976SOL    HW1 3827   0.395   3.057   3.878
  976SOL    HW2 3828   0.275   2.950   3.849
  977SOL     OW 3829   0.007   1.416   2.086
  977SOL    HW1 3830   6.984   1.451   2.170
  977SOL    HW2 3831   7.006   1.477   2.010
  978SOL     OW 3832   5.872   2.126   0.758
  978SOL    HW1 3833   5.916   2.037   0.743
  978SOL    HW2 3834   5.776   2.113   0.783
  979SOL     OW 3835   0.152   5.183   6.587
  979SOL    HW1 3836   0.197   5.238   6.516
  979SOL    HW2 3837   0.160   5.086   6.564
  980SOL     OW 3838   5.192   1.657   4.156
  980SOL    HW1 3839   5.146   1.668   4.067
  980SOL    HW2 3840   5.274   1.713   4.159
  981SOL     OW 3841   0.617   6.030   6.049
  981SOL    HW1 3842   0.649   5.996   5.961
  981SOL    HW2 3843   0.577   5.955   6.101
  982SOL     OW 3844   0.059   0.344   6.408
  982SOL    HW1 3845   0.080   0.375   6.500
  982SOL    HW2 3846   0.104   0.256   6.391
  983SOL     OW 3847   6.880   4.148   2.132
  983SOL    HW1 3848   6.874   4.066   2.075
  983SOL    HW2 3849   6.968   4.147   2.181
  984SOL     OW 3850   0.093   3.771   4.600
  984SOL    HW1 3851   0.180   3.820   4.591
  984SOL    HW2 3852   0.105   3.690   4.657
  985SOL     OW 3853   5.538   4.745   5.878
  985SOL    HW1 3854   5.577   4.678   5.814
  985SOL    HW2 3855   5.468   4.701   5.934
  986SOL     OW 3856   3.995   5.696   1.684
  986SOL    HW1 3857   3.899   5.699   1.711
  986SOL    HW2 3858   4.001   5.682   1.585
  987SOL     OW 3859   4.240   4.953   4.167
  987SOL    HW1 3860   4.216   5.049   4.154
  987SOL    HW2 3861   4.237   4.931   4.265
  988SOL     OW 3862   3.143   5.011   1.770
  988SOL    HW1 3863   3.176   5.062   1.850
  988SOL    HW2 3864   3.114   4.920   1.798
  989SOL     OW 3865   0.745   2.154   1.333
  989SOL    HW1 3866   0.757   2.211   1.252
  989SOL    HW2 3867   0.673   2.087   1.317
  990SOL     OW 3868   3.183   6.906   4.963
  990SOL    HW1 3869   3.225   6.815   4.973
  990SOL    HW2 3870   3.220   6.968   5.031
  991SOL     OW 3871   1.343   6.229   4.100
  991SOL    HW1 3872   1.275   6.156   4.114
  991SOL    HW2 3873   1.418   6.217   4.164
  992SOL     OW 3874   6.549   3.553   1.407
  992SOL    HW1 3875   6.517   3.646   1.424
  992SOL    HW2 3876   6.539   3.498   1.490
  993SOL     OW 3877   2.006   5.160   0.064
  993SOL    HW1 3878   1.977   5.134   0.156
  993SOL    HW2 3879   2.105   5.150   0.056
  994SOL     OW 3880   2.690   6.890   1.676
  994SOL    HW1 3881   2.654   6.797   1.685
  994SOL    HW2 3882   2.615   6.952   1.650
  995SOL     OW 3883   5.315   4.318   4.885
  995SOL    HW1 3884   5.277   4.325   4.978
  995SOL    HW2 3885   5.319   4.222   4.858
  996SOL     OW 3886   3.871   6.552   5.457
  996SOL    HW1 3887   3.936   6.578   5.385
  996SOL    HW2 3888   3.781   6.535   5.416
  997SOL     OW 3889   1.361   6.246   3.238
  997SOL    HW1 3890   1.291   6.316   3.225
  997SOL    HW2 3891   1.447   6.277   3.198
  998SOL     OW 3892   4.431   6.952   6.836
  998SOL    HW1 3893   4.526   6.939   6.862
  998SOL    HW2 3894   4.371   6.906   6.902
  999SOL     OW 3895   6.053   3.214   2.238
  999SOL    HW1 3896   5.973   3.232   2.294
  999SOL    HW2 3897   6.119   3.159   2.290
 1000SOL     OW 3898   6.383   1.334   1.948
 1000SOL    HW1 3899   6.359   1.403   1.880
 1000SOL    HW2 3900   6.480   1.342   1.970
 1001SOL     OW 3901   2.512   6.911   3.265
 1001SOL    HW1 3902   2.435   6.895   3.326
 1001SOL    HW2 3903   2.557   6.997   3.288
 1002SOL     OW 3904   4.454   2.288   0.391
 1002SOL    HW1 3905   4.485   2.345   0.315
 1002SOL    HW2 3906   4.488   2.194   0.379
 1003SOL     OW 3907   0.875   1.737   3.970
 1003SOL    HW1 3908   0.838   1.792   4.044
 1003SOL    HW2 3909   0.824   1.755   3.886
 1004SOL     OW 3910   4.513   1.213   4.860
 1004SOL    HW1 3911   4.434   1.274   4.853
 1004SOL    HW2 3912   4.506   1.160   4.944
 1005SOL     OW 3913   0.779   5.778   1.851
 1005SOL    HW1 3914   0.792   5.685   1.815
 1005SOL    HW2 3915   0.683   5.803   1.844
 1006SOL     OW 3916   1.738   4.190   1.514
 1006SOL    HW1 3917   1.769   4.247   1.590
 1006SOL    HW2 3918   1.730   4.095   1.546
 1007SOL     OW 3919   4.897   0.938   6.150
 1007SOL    HW1 3920   4.876   0.845   6.179
 1007SOL    HW2 3921   4.819   0.977   6.101
 1008SOL     OW 3922   0.319   4.489   4.503
 1008SOL    HW1 3923   0.270   4.520   4.422
 1008SOL    HW2 3924   0.283   4.534   4.584
 1009SOL     OW 3925   6.436   6.131   6.415
 1009SOL    HW1 3926   6.466   6.148   6.509
 1009SOL    HW2 3927   6.489   6.056   6.377
 1010SOL     OW 3928   3.244   3.875   0.107
 1010SOL    HW1 3929   3.261   3.806   0.177
 1010SOL    HW2 3930   3.146   3.892   0.100
 1011SOL     OW 3931   6.825   5.649   2.657
 1011SOL    HW1 3932   6.797   5.665   2.752
 1011SOL    HW2 3933   6.822   5.735   2.606
 1012SOL     OW 3934   4.898   6.205   3.084
 1012SOL    HW1 3935   4.960   6.220   3.162
 1012SOL    HW2 3936   4.827   6.275   3.084
 1013SOL     OW 3937   0.523   1.380   6.221
 1013SOL    HW1 3938   0.500   1.471   6.186
 1013SOL    HW2 3939   0.480   1.367   6.310
 1014SOL     OW 3940   0.663   4.495   4.258
 1014SOL    HW1 3941   0.702   4.407   4.229
 1014SOL    HW2 3942   0.670   4.503   4.357
 1015SOL     OW 3943   3.119   5.986   6.703
 1015SOL    HW1 3944   3.149   6.008   6.610
 1015SOL    HW2 3945   3.028   5.943   6.699
 1016SOL     OW 3946   6.880   4.673   0.569
 1016SOL    HW1 3947   6.904   4.678   0.666
 1016SOL    HW2 3948   6.961   4.691   0.514
 1017SOL     OW 3949   1.365   0.423   1.881
 1017SOL    HW1 3950   1.325   0.348   1.828
 1017SOL    HW2 3951   1.354   0.405   1.979
 1018SOL     OW 3952   5.770   5.937   6.285
 1018SOL    HW1 3953   5.759   5.965   6.190
 1018SOL    HW2 3954   5.697   5.977   6.340
 1019SOL     OW 3955   6.649   3.469   2.032
 1019SOL    HW1 3956   6.682   3.517   1.950
 1019SOL    HW2 3957   6.721   3.470   2.102
 1020SOL     OW 3958   5.164   1.481   1.383
 1020SOL    HW1 3959   5.202   1.445   1.298
 1020SOL    HW2 3960   5.217   1.448   1.461
 1021SOL     OW 3961   1.166   6.909   0.671
 1021SOL    HW1 3962   1.165   7.001   0.711
 1021SOL    HW2 3963   1.135   6.843   0.739
 1022SOL     OW 3964   1.781   4.951   6.163
 1022SOL    HW1 3965   1.852   4.942   6.233
 1022SOL    HW2 3966   1.697   4.985   6.204
 1023SOL     OW 3967   0.707   2.040   2.482
 1023SOL    HW1 3968   0.681   2.097   2.560
 1023SOL    HW2 3969   0.713   2.096   2.400
 1024SOL     OW 3970   1.682   3.016   4.753
 1024SOL    HW1 3971   1.700   3.000   4.656
 1024SOL    HW2 3972   1.766   3.043   4.799
 1025SOL     OW 3973   4.390   4.346   0.817
 1025SOL    HW1 3974   4.340   4.289   0.881
 1025SOL    HW2 3975   4.360   4.328   0.724
 1026SOL     OW 3976   3.374   2.803   1.275
 1026SOL    HW1 3977   3.409   2.757   1.194
 1026SOL    HW2 3978   3.399   2.750   1.356
 1027SOL     OW 3979   6.269   0.568   0.438
 1027SOL    HW1 3980   6.368   0.564   0.428
 1027SOL    HW2 3981   6.233   0.475   0.446
 1028SOL     OW 3982   0.710   5.622   3.525
 1028SOL    HW1 3983   0.717   5.578   3.435
 1028SOL    HW2 3984   0.799   5.658   3.551
 1029SOL     OW 3985   0.875   0.531   5.086
 1029SOL    HW1 3986   0.882   0.433   5.068
 1029SOL    HW2 3987   0.781   0.561   5.069
 1030SOL     OW 3988   4.325   3.614   0.948
 1030SOL    HW1 3989   4.405   3.586   1.001
 1030SOL    HW2 3990   4.266   3.673   1.004
 1031SOL     OW 3991   4.265   2.700   0.324
 1031SOL    HW1 3992   4.310   2.762   0.389
 1031SOL    HW2 3993   4.196   2.646   0.373
 1032SOL     OW 3994   1.246   1.123   1.176
 1032SOL    HW1 3995   1.166   1.113   1.236
 1032SOL    HW2 3996   1.310   1.188   1.217
 1033SOL     OW 3997   6.135   0.167   1.644
 1033SOL    HW1 3998   6.145   0.267   1.644
 1033SOL    HW2 3999   6.169   0.130   1.558
 1034SOL     OW 4000   2.256   0.373   5.284
 1034SOL    HW1 4001   2.232   0.386   5.381
 1034SOL    HW2 4002   2.238   0.278   5.258
 1035SOL     OW 4003   1.706   0.019   0.113
 1035SOL    HW1 4004   1.742   6.966   0.172
 1035SOL    HW2 4005   1.767   0.031   0.034
 1036SOL     OW 4006   5.376   1.441   2.531
 1036SOL    HW1 4007   5.413   1.352   2.505
 1036SOL    HW2 4008   5.445   1.491   2.584
 1037SOL     OW 4009   0.567   4.370   2.627
 1037SOL    HW1 4010   0.649   4.376   2.569
 1037SOL    HW2 4011   0.556   4.277   2.660
 1038SOL     OW 4012   1.434   6.533   6.688
 1038SOL    HW1 4013   1.476   6.520   6.778
 1038SOL    HW2 4014   1.500   6.506   6.617
 1039SOL     OW 4015   2.923   3.792   2.919
 1039SOL    HW1 4016   2.917   3.749   3.009
 1039SOL    HW2 4017   2.951   3.723   2.852
 1040SOL     OW 4018   3.833   1.835   2.920
 1040SOL    HW1 4019   3.894   1.912   2.902
 1040SOL    HW2 4020   3.838   1.810   3.017
 1041SOL     OW 4021   0.243   6.932   6.593
 1041SOL    HW1 4022   0.189   6.853   6.565
 1041SOL    HW2 4023   0.216   6.960   6.686
 1042SOL     OW 4024   5.630   3.368   3.749
 1042SOL    HW1 4025   5.568   3.296   3.719
 1042SOL    HW2 4026   5.722   3.331   3.761
 1043SOL     OW 4027   2.037   2.404   3.840
 1043SOL    HW1 4028   2.090   2.331   3.883
 1043SOL    HW2 4029   2.022   2.382   3.744
 1044SOL     OW 4030   4.817   4.455   2.336
 1044SOL    HW1 4031   4.781   4.446   2.429
 1044SOL    HW2 4032   4.917   4.462   2.340
 1045SOL     OW 4033   1.922   0.273   2.438
 1045SOL    HW1 4034   1.851   0.224   2.387
 1045SOL    HW2 4035   2.010   0.228   2.422
 1046SOL     OW 4036   3.787   2.537   0.822
 1046SOL    HW1 4037   3.779   2.449   0.869
 1046SOL    HW2 4038   3.809   2.608   0.888
 1047SOL     OW 4039   3.837   0.834   3.688
 1047SOL    HW1 4040   3.742   0.810   3.708
 1047SOL    HW2 4041   3.895   0.753   3.697
 1048SOL     OW 4042   6.813   6.966   2.051
 1048SOL    HW1 4043   6.777   6.885   2.006
 1048SOL    HW2 4044   6.900   6.943   2.096
 1049SOL     OW 4045   3.188   6.738   0.433
 1049SOL    HW1 4046   3.261   6.701   0.491
 1049SOL    HW2 4047   3.227   6.785   0.355
 1050SOL     OW 4048   2.567   1.702   4.545
 1050SOL    HW1 4049   2.649   1.726   4.495
 1050SOL    HW2 4050   2.592   1.650   4.627
 1051SOL     OW 4051   1.768   2.092   5.691
 1051SOL    HW1 4052   1.687   2.097   5.632
 1051SOL    HW2 4053   1.759   2.014   5.753
 1052SOL     OW 4054   4.882   2.510   6.293
 1052SOL    HW1 4055   4.976   2.501   6.324
 1052SOL    HW2 4056   4.838   2.420   6.293
 1053SOL     OW 4057   4.634   2.773   4.796
 1053SOL    HW1 4058   4.602   2.728   4.712
 1053SOL    HW2 4059   4.562   2.835   4.829
 1054SOL     OW 4060   5.114   5.552   6.566
 1054SOL    HW1 4061   5.092   5.568   6.469
 1054SOL    HW2 4062   5.083   5.460   6.592
 1055SOL     OW 4063   5.542   5.617   5.992
 1055SOL    HW1 4064   5.499   5.534   5.956
 1055SOL    HW2 4065   5.526   5.624   6.090
 1056SOL     OW 4066   3.660   3.444   6.875
 1056SOL    HW1 4067   3.744   3.462   6.823
 1056SOL    HW2 4068   3.661   3.498   6.959
 1057SOL     OW 4069   2.854   3.895   6.699
 1057SOL    HW1 4070   2.825   3.962   6.631
 1057SOL    HW2 4071   2.893   3.816   6.652
 1058SOL     OW 4072   2.678   2.153   1.467
 1058SOL    HW1 4073   2.765   2.116   1.432
 1058SOL    HW2 4074   2.602   2.111   1.418
 1059SOL     OW 4075   2.301   6.114   2.902
 1059SOL    HW1 4076   2.376   6.180   2.891
 1059SOL    HW2 4077   2.321   6.055   2.980
 1060SOL     OW 4078   6.417   6.638   4.915
 1060SOL    HW1 4079   6.478   6.711   4.944
 1060SOL    HW2 4080   6.451   6.550   4.948
 1061SOL     OW 4081   0.261   3.836   6.120
 1061SOL    HW1 4082   0.317   3.795   6.191
 1061SOL    HW2 4083   0.219   3.764   6.065
 1062SOL     OW 4084   4.088   4.974   5.633
 1062SOL    HW1 4085   4.011   4.919   5.602
 1062SOL    HW2 4086   4.053   5.054   5.683
 1063SOL     OW 4087   2.966   6.173   3.721
 1063SOL    HW1 4088   2.872   6.196   3.744
 1063SOL    HW2 4089   3.026   6.196   3.798
 1064SOL     OW 4090   1.036   3.931   0.215
 1064SOL    HW1 4091   0.941   3.942   0.244
 1064SOL    HW2 4092   1.083   3.870   0.279
 1065SOL     OW 4093   6.006   1.113   5.565
 1065SOL    HW1 4094   5.939   1.148   5.499
 1065SOL    HW2 4095   6.072   1.186   5.586
 1066SOL     OW 4096   4.937   6.085   0.831
 1066SOL    HW1 4097   4.934   6.032   0.916
 1066SOL    HW2 4098   4.881   6.041   0.761
 1067SOL     OW 4099   3.819   1.430   0.623
 1067SOL    HW1 4100   3.769   1.354   0.581
 1067SOL    HW2 4101   3.835   1.409   0.719
 1068SOL     OW 4102   6.132   2.662   2.705
 1068SOL    HW1 4103   6.053   2.605   2.683
 1068SOL    HW2 4104   6.140   2.734   2.637
 1069SOL     OW 4105   0.353   1.590   2.842
 1069SOL    HW1 4106   0.395   1.626   2.925
 1069SOL    HW2 4107   0.365   1.655   2.767
 1070SOL     OW 4108   1.287   0.332   2.145
 1070SOL    HW1 4109   1.193   0.324   2.110
 1070SOL    HW2 4110   1.286   0.385   2.230
 1071SOL     OW 4111   1.025   3.131   5.559
 1071SOL    HW1 4112   1.036   3.228   5.584
 1071SOL    HW2 4113   0.971   3.085   5.629
 1072SOL     OW 4114   2.331   1.623   1.796
 1072SOL    HW1 4115   2.286   1.533   1.793
 1072SOL    HW2 4116   2.422   1.613   1.836
 1073SOL     OW 4117   5.061   1.904   2.549
 1073SOL    HW1 4118   4.965   1.886   2.570
 1073SOL    HW2 4119   5.078   1.882   2.452
 1074SOL     OW 4120   3.354   6.238   1.522
 1074SOL    HW1 4121   3.290   6.174   1.479
 1074SOL    HW2 4122   3.424   6.265   1.456
 1075SOL     OW 4123   6.874   3.926   4.623
 1075SOL    HW1 4124   6.965   3.891   4.643
 1075SOL    HW2 4125   6.846   3.990   4.695
 1076SOL     OW 4126   2.630   4.479   5.806
 1076SOL    HW1 4127   2.579   4.534   5.739
 1076SOL    HW2 4128   2.656   4.392   5.764
 1077SOL     OW 4129   6.600   6.481   0.727
 1077SOL    HW1 4130   6.537   6.435   0.664
 1077SOL    HW2 4131   6.568   6.469   0.821
 1078SOL     OW 4132   6.034   0.029   3.832
 1078SOL    HW1 4133   6.025   0.095   3.758
 1078SOL    HW2 4134   5.943   7.016   3.860
 1079SOL     OW 4135   1.121   5.581   1.431
 1079SOL    HW1 4136   1.027   5.602   1.405
 1079SOL    HW2 4137   1.183   5.607   1.357
 1080SOL     OW 4138   5.097   6.068   0.393
 1080SOL    HW1 4139   5.080   6.061   0.294
 1080SOL    HW2 4140   5.044   6.144   0.431
 1081SOL     OW 4141   6.910   6.708   3.163
 1081SOL    HW1 4142   6.838   6.758   3.114
 1081SOL    HW2 4143   6.959   6.771   3.224
 1082SOL     OW 4144   4.653   6.883   0.247
 1082SOL    HW1 4145   4.657   6.937   0.163
 1082SOL    HW2 4146   4.609   6.795   0.228
 1083SOL     OW 4147   6.211   3.880   2.504
 1083SOL    HW1 4148   6.151   3.808   2.469
 1083SOL    HW2 4149   6.294   3.884   2.447
 1084SOL     OW 4150   3.882   7.001   5.379
 1084SOL    HW1 4151   3.873   0.051   5.452
 1084SOL    HW2 4152   3.839   0.018   5.296
 1085SOL     OW 4153   2.172   3.224   4.595
 1085SOL    HW1 4154   2.200   3.256   4.505
 1085SOL    HW2 4155   2.150   3.126   4.591
 1086SOL     OW 4156   5.033   4.219   2.698
 1086SOL    HW1 4157   4.992   4.142   2.746
 1086SOL    HW2 4158   4.995   4.305   2.734
 1087SOL     OW 4159   3.310   0.497   5.702
 1087SOL    HW1 4160   3.351   0.407   5.721
 1087SOL    HW2 4161   3.339   0.562   5.773
 1088SOL     OW 4162   6.477   5.994   4.312
 1088SOL    HW1 4163   6.468   6.083   4.357
 1088SOL    HW2 4164   6.549   5.999   4.243
 1089SOL     OW 4165   5.945   5.062   4.531
 1089SOL    HW1 4166   5.929   5.039   4.627
 1089SOL    HW2 4167   5.928   4.982   4.473
 1090SOL     OW 4168   5.866   2.820   5.049
 1090SOL    HW1 4169   5.793   2.876   5.088
 1090SOL    HW2 4170   5.916   2.874   4.981
 1091SOL     OW 4171   1.855   3.348   3.517
 1091SOL    HW1 4172   1.769   3.351   3.466
 1091SOL    HW2 4173   1.925   3.400   3.468
 1092SOL     OW 4174   0.933   6.044   0.163
 1092SOL    HW1 4175   1.033   6.043   0.155
 1092SOL    HW2 4176   0.895   5.960   0.123
 1093SOL     OW 4177   1.915   0.424   3.073
 1093SOL    HW1 4178   1.994   0.487   3.076
 1093SOL    HW2 4179   1.933   0.345   3.132
 1094SOL     OW 4180   0.288   0.038   3.576
 1094SOL    HW1 4181   0.205   0.086   3.546
 1094SOL    HW2 4182   0.343   0.099   3.633
 1095SOL     OW 4183   6.443   4.831   1.331
 1095SOL    HW1 4184   6.430   4.777   1.414
 1095SOL    HW2 4185   6.357   4.874   1.306
 1096SOL     OW 4186   2.212   6.149   2.504
 1096SOL    HW1 4187   2.190   6.078   2.571
 1096SOL    HW2 4188   2.141   6.220   2.506
 1097SOL     OW 4189   3.155   5.578   4.515
 1097SOL    HW1 4190   3.234   5.579   4.453
 1097SOL    HW2 4191   3.083   5.520   4.477
 1098SOL     OW 4192   0.028   4.097   0.174
 1098SOL    HW1 4193   6.976   4.069   0.240
 1098SOL    HW2 4194   0.118   4.078   0.212
 1099SOL     OW 4195   5.509   0.248   6.962
 1099SOL    HW1 4196   5.504   0.336   7.009
 1099SOL    HW2 4197   5.594   0.242   6.909
 1100SOL     OW 4198   4.820   0.716   4.239
 1100SOL    HW1 4199   4.912   0.753   4.248
 1100SOL    HW2 4200   4.773   0.762   4.163
 1101SOL     OW 4201   4.589   2.556   6.999
 1101SOL    HW1 4202   4.572   2.518   0.071
 1101SOL    HW2 4203   4.543   2.644   6.990
 1102SOL     OW 4204   3.693   1.136   4.590
 1102SOL    HW1 4205   3.671   1.136   4.492
 1102SOL    HW2 4206   3.697   1.042   4.623
 1103SOL     OW 4207   3.214   6.087   0.596
 1103SOL    HW1 4208   3.254   6.085   0.688
 1103SOL    HW2 4209   3.114   6.080   0.603
 1104SOL     OW 4210   6.636   0.989   3.358
 1104SOL    HW1 4211   6.556   1.039   3.326
 1104SOL    HW2 4212   6.682   1.041   3.430
 1105SOL     OW 4213   4.910   0.419   5.367
 1105SOL    HW1 4214   4.857   0.401   5.284
 1105SOL    HW2 4215   4.847   0.436   5.443
 1106SOL     OW 4216   6.403   1.012   2.257
 1106SOL    HW1 4217   6.337   1.042   2.188
 1106SOL    HW2 4218   6.412   1.082   2.327
 1107SOL     OW 4219   1.168   2.410   6.499
 1107SOL    HW1 4220   1.166   2.458   6.411
 1107SOL    HW2 4221   1.112   2.328   6.493
 1108SOL     OW 4222   2.532   1.525   2.338
 1108SOL    HW1 4223   2.454   1.526   2.401
 1108SOL    HW2 4224   2.500   1.505   2.246
 1109SOL     OW 4225   5.083   1.599   5.279
 1109SOL    HW1 4226   5.098   1.620   5.376
 1109SOL    HW2 4227   5.137   1.520   5.253
 1110SOL     OW 4228   1.619   0.275   2.212
 1110SOL    HW1 4229   1.647   0.254   2.119
 1110SOL    HW2 4230   1.639   0.371   2.232
 1111SOL     OW 4231   5.173   3.378   6.096
 1111SOL    HW1 4232   5.208   3.463   6.057
 1111SOL    HW2 4233   5.106   3.399   6.167
 1112SOL     OW 4234   5.935   0.443   2.972
 1112SOL    HW1 4235   5.997   0.477   3.043
 1112SOL    HW2 4236   5.842   0.439   3.009
 1113SOL     OW 4237   0.535   1.461   2.651
 1113SOL    HW1 4238   0.464   1.412   2.702
 1113SOL    HW2 4239   0.611   1.482   2.712
 1114SOL     OW 4240   3.342   3.132   4.659
 1114SOL    HW1 4241   3.355   3.231   4.654
 1114SOL    HW2 4242   3.430   3.085   4.649
 1115SOL     OW 4243   2.034   5.310   6.002
 1115SOL    HW1 4244   2.112   5.311   6.064
 1115SOL    HW2 4245   2.059   5.262   5.918
 1116SOL     OW 4246   4.540   6.778   0.561
 1116SOL    HW1 4247   4.581   6.852   0.615
 1116SOL    HW2 4248   4.584   6.774   0.471
 1117SOL     OW 4249   1.984   2.403   1.682
 1117SOL    HW1 4250   2.059   2.405   1.749
 1117SOL    HW2 4251   2.020   2.424   1.591
 1118SOL     OW 4252   4.375   6.656   6.935
 1118SOL    HW1 4253   4.371   6.739   6.990
 1118SOL    HW2 4254   4.440   6.592   6.975
 1119SOL     OW 4255   3.093   6.252   3.932
 1119SOL    HW1 4256   3.148   6.319   3.981
 1119SOL    HW2 4257   3.056   6.185   3.997
 1120SOL     OW 4258   0.612   3.185   1.795
 1120SOL    HW1 4259   0.613   3.283   1.774
 1120SOL    HW2 4260   0.561   3.137   1.723
 1121SOL     OW 4261   5.732   4.119   5.882
 1121SOL    HW1 4262   5.647   4.118   5.936
 1121SOL    HW2 4263   5.810   4.134   5.943
 1122SOL     OW 4264   5.784   0.675   2.391
 1122SOL    HW1 4265   5.842   0.682   2.472
 1122SOL    HW2 4266   5.800   0.754   2.332
 1123SOL     OW 4267   3.568   1.702   4.878
 1123SOL    HW1 4268   3.484   1.748   4.846
 1123SOL    HW2 4269   3.637   1.771   4.898
 1124SOL     OW 4270   2.518   2.434   3.293
 1124SOL    HW1 4271   2.538   2.441   3.390
 1124SOL    HW2 4272   2.478   2.520   3.261
 1125SOL     OW 4273   1.287   3.257   3.943
 1125SOL    HW1 4274   1.334   3.176   3.977
 1125SOL    HW2 4275   1.248   3.238   3.853
 1126SOL     OW 4276   4.616   4.778   3.551
 1126SOL    HW1 4277   4.554   4.723   3.607
 1126SOL    HW2 4278   4.682   4.825   3.611
 1127SOL     OW 4279   5.745   6.706   1.302
 1127SOL    HW1 4280   5.827   6.657   1.272
 1127SOL    HW2 4281   5.687   6.724   1.223
 1128SOL     OW 4282   3.365   1.882   4.786
 1128SOL    HW1 4283   3.267   1.866   4.798
 1128SOL    HW2 4284   3.381   1.928   4.699
 1129SOL     OW 4285   1.210   0.786   6.991
 1129SOL    HW1 4286   1.138   0.846   6.955
 1129SOL    HW2 4287   1.298   0.833   6.986
 1130SOL     OW 4288   2.098   5.724   0.911
 1130SOL    HW1 4289   2.134   5.632   0.928
 1130SOL    HW2 4290   2.143   5.764   0.832
 1131SOL     OW 4291   1.424   5.509   3.483
 1131SOL    HW1 4292   1.368   5.590   3.466
 1131SOL    HW2 4293   1.368   5.427   3.473
 1132SOL     OW 4294   1.349   2.356   3.054
 1132SOL    HW1 4295   1.383   2.449   3.041
 1132SOL    HW2 4296   1.273   2.339   2.991
 1133SOL     OW 4297   1.387   6.228   6.927
 1133SOL    HW1 4298   1.469   6.227   6.871
 1133SOL    HW2 4299   1.407   6.267   7.017
 1134SOL     OW 4300   3.938   5.718   0.982
 1134SOL    HW1 4301   3.949   5.740   0.884
 1134SOL    HW2 4302   3.841   5.707   1.003
 1135SOL     OW 4303   1.933   6.753   3.122
 1135SOL    HW1 4304   1.958   6.701   3.203
 1135SOL    HW2 4305   1.928   6.692   3.043
 1136SOL     OW 4306   1.516   5.077   2.921
 1136SOL    HW1 4307   1.487   5.159   2.872
 1136SOL    HW2 4308   1.597   5.038   2.876
 1137SOL     OW 4309   1.155   4.978   4.205
 1137SOL    HW1 4310   1.240   5.017   4.241
 1137SOL    HW2 4311   1.079   5.004   4.265
 1138SOL     OW 4312   2.506   4.495   4.185
 1138SOL    HW1 4313   2.587   4.452   4.145
 1138SOL    HW2 4314   2.515   4.496   4.285
 1139SOL     OW 4315   3.575   5.645   4.852
 1139SOL    HW1 4316   3.608   5.572   4.793
 1139SOL    HW2 4317   3.480   5.627   4.878
 1140SOL     OW 4318   2.279   2.876   1.182
 1140SOL    HW1 4319   2.311   2.905   1.272
 1140SOL    HW2 4320   2.227   2.791   1.192
 1141SOL     OW 4321   5.977   4.731   5.690
 1141SOL    HW1 4322   5.944   4.714   5.597
 1141SOL    HW2 4323   5.928   4.810   5.728
 1142SOL     OW 4324   0.437   5.740   2.570
 1142SOL    HW1 4325   0.339   5.732   2.547
 1142SOL    HW2 4326   0.455   5.692   2.656
 1143SOL     OW 4327   0.037   4.406   1.887
 1143SOL    HW1 4328   0.094   4.484   1.910
 1143SOL    HW2 4329   6.963   4.421   1.923
 1144SOL     OW 4330   5.223   5.000   6.911
 1144SOL    HW1 4331   5.201   5.024   6.816
 1144SOL    HW2 4332   5.278   4.916   6.912
 1145SOL     OW 4333   5.596   0.204   1.273
 1145SOL    HW1 4334   5.538   0.146   1.331
 1145SOL    HW2 4335   5.575   0.300   1.291
 1146SOL     OW 4336   1.591   0.374   1.382
 1146SOL    HW1 4337   1.623   0.465   1.407
 1146SOL    HW2 4338   1.619   0.309   1.453
 1147SOL     OW 4339   1.462   6.090   0.435
 1147SOL    HW1 4340   1.482   6.011   0.493
 1147SOL    HW2 4341   1.543   6.149   0.431
 1148SOL     OW 4342   3.825   6.127   1.765
 1148SOL    HW1 4343   3.923   6.119   1.750
 1148SOL    HW2 4344   3.807   6.148   1.861
 1149SOL     OW 4345   6.260   1.807   1.635
 1149SOL    HW1 4346   6.330   1.855   1.583
 1149SOL    HW2 4347   6.214   1.741   1.577
 1150SOL     OW 4348   1.336   1.720   0.926
 1150SOL    HW1 4349   1.354   1.695   1.021
 1150SOL    HW2 4350   1.361   1.644   0.866
 1151SOL     OW 4351   5.750   5.736   4.590
 1151SOL    HW1 4352   5.836   5.701   4.628
 1151SOL    HW2 4353   5.759   5.835   4.573
 1152SOL     OW 4354   3.215   6.217   5.898
 1152SOL    HW1 4355   3.246   6.155   5.970
 1152SOL    HW2 4356   3.230   6.312   5.927
 1153SOL     OW 4357   5.333   6.908   1.199
 1153SOL    HW1 4358   5.338   6.963   1.282
 1153SOL    HW2 4359   5.410   6.931   1.139
 1154SOL     OW 4360   1.739   3.041   1.143
 1154SOL    HW1 4361   1.651   3.085   1.163
 1154SOL    HW2 4362   1.796   3.103   1.088
 1155SOL     OW 4363   3.603   5.694   3.947
 1155SOL    HW1 4364   3.556   5.620   3.899
 1155SOL    HW2 4365   3.699   5.698   3.917
 1156SOL     OW 4366   2.679   0.796   1.223
 1156SOL    HW1 4367   2.674   0.827   1.128
 1156SOL    HW2 4368   2.689   0.875   1.283
 1157SOL     OW 4369   2.202   2.083   0.915
 1157SOL    HW1 4370   2.289   2.107   0.872
 1157SOL    HW2 4371   2.136   2.055   0.846
 1158SOL     OW 4372   5.770   4.367   4.078
 1158SOL    HW1 4373   5.836   4.295   4.061
 1158SOL    HW2 4374   5.717   4.384   3.995
 1159SOL     OW 4375   5.210   4.870   0.696
 1159SOL    HW1 4376   5.279   4.941   0.683
 1159SOL    HW2 4377   5.133   4.908   0.747
 1160SOL     OW 4378   4.115   1.924   1.089
 1160SOL    HW1 4379   4.169   1.850   1.050
 1160SOL    HW2 4380   4.090   1.900   1.183
 1161SOL     OW 4381   0.485   4.556   0.702
 1161SOL    HW1 4382   0.460   4.617   0.778
 1161SOL    HW2 4383   0.405   4.505   0.672
 1162SOL     OW 4384   2.242   3.047   4.860
 1162SOL    HW1 4385   2.274   3.129   4.812
 1162SOL    HW2 4386   2.309   3.023   4.931
 1163SOL     OW 4387   4.569   1.694   2.047
 1163SOL    HW1 4388   4.472   1.716   2.047
 1163SOL    HW2 4389   4.621   1.777   2.024
 1164SOL     OW 4390   3.917   1.893   6.047
 1164SOL    HW1 4391   3.985   1.956   6.084
 1164SOL    HW2 4392   3.956   1.842   5.971
 1165SOL     OW 4393   3.996   0.269   2.840
 1165SOL    HW1 4394   3.929   0.325   2.793
 1165SOL    HW2 4395   4.089   0.300   2.818
 1166SOL     OW 4396   3.811   3.882   6.782
 1166SOL    HW1 4397   3.805   3.912   6.686
 1166SOL    HW2 4398   3.750   3.938   6.838
 1167SOL     OW 4399   5.371   3.848   3.564
 1167SOL    HW1 4400   5.303   3.900   3.614
 1167SOL    HW2 4401   5.326   3.769   3.520
 1168SOL     OW 4402   0.387   6.915   0.518
 1168SOL    HW1 4403   0.426   7.006   0.510
 1168SOL    HW2 4404   0.310   6.916   0.582
 1169SOL     OW 4405   5.056   2.009   5.557
 1169SOL    HW1 4406   5.102   2.072   5.619
 1169SOL    HW2 4407   5.033   2.057   5.472
 1170SOL     OW 4408   5.312   4.281   3.055
 1170SOL    HW1 4409   5.280   4.222   2.981
 1170SOL    HW2 4410   5.289   4.242   3.143
 1171SOL     OW 4411   6.991   6.150   0.662
 1171SOL    HW1 4412   0.003   6.058   0.638
 1171SOL    HW2 4413   6.892   6.149   0.678
 1172SOL     OW 4414   5.782   2.896   6.763
 1172SOL    HW1 4415   5.850   2.849   6.819
 1172SOL    HW2 4416   5.692   2.889   6.807
 1173SOL     OW 4417   4.567   2.651   1.531
 1173SOL    HW1 4418   4.525   2.704   1.604
 1173SOL    HW2 4419   4.644   2.599   1.567
 1174SOL     OW 4420   2.637   5.262   0.080
 1174SOL    HW1 4421   2.576   5.342   0.078
 1174SOL    HW2 4422   2.593   5.186   0.034
 1175SOL     OW 4423   3.085   4.021   3.859
 1175SOL    HW1 4424   3.175   4.054   3.828
 1175SOL    HW2 4425   3.089   4.000   3.957
 1176SOL     OW 4426   5.431   3.460   0.407
 1176SOL    HW1 4427   5.379   3.543   0.391
 1176SOL    HW2 4428   5.417   3.396   0.331
 1177SOL     OW 4429   1.241   0.741   4.640
 1177SOL    HW1 4430   1.287   0.659   4.607
 1177SOL    HW2 4431   1.142   0.724   4.646
 1178SOL     OW 4432   4.279   6.428   6.804
 1178SOL    HW1 4433   4.274   6.524   6.832
 1178SOL    HW2 4434   4.374   6.404   6.784
 1179SOL     OW 4435   0.407   5.768   1.224
 1179SOL    HW1 4436   0.324   5.743   1.274
 1179SOL    HW2 4437   0.384   5.800   1.132
 1180SOL     OW 4438   3.722   6.477   0.483
 1180SOL    HW1 4439   3.798   6.543   0.483
 1180SOL    HW2 4440   3.760   6.384   0.490
 1181SOL     OW 4441   6.189   6.182   6.625
 1181SOL    HW1 4442   6.218   6.169   6.720
 1181SOL    HW2 4443   6.135   6.104   6.596
 1182SOL     OW 4444   4.911   3.785   4.395
 1182SOL    HW1 4445   4.920   3.705   4.454
 1182SOL    HW2 4446   5.002   3.817   4.368
 1183SOL     OW 4447   1.801   4.324   0.222
 1183SOL    HW1 4448   1.707   4.346   0.247
 1183SOL    HW2 4449   1.840   4.262   0.290
 1184SOL     OW 4450   0.441   1.469   5.147
 1184SOL    HW1 4451   0.393   1.397   5.197
 1184SOL    HW2 4452   0.466   1.543   5.210
 1185SOL     OW 4453   6.640   1.872   6.310
 1185SOL    HW1 4454   6.673   1.790   6.357
 1185SOL    HW2 4455   6.620   1.850   6.214
 1186SOL     OW 4456   4.994   6.519   3.993
 1186SOL    HW1 4457   4.985   6.421   4.013
 1186SOL    HW2 4458   4.966   6.572   4.073
 1187SOL     OW 4459   6.026   1.975   6.856
 1187SOL    HW1 4460   6.090   1.971   6.932
 1187SOL    HW2 4461   6.041   2.060   6.805
 1188SOL     OW 4462   4.232   1.927   6.260
 1188SOL    HW1 4463   4.172   1.855   6.296
 1188SOL    HW2 4464   4.327   1.901   6.275
 1189SOL     OW 4465   6.329   3.798   3.718
 1189SOL    HW1 4466   6.283   3.815   3.805
 1189SOL    HW2 4467   6.425   3.777   3.735
 1190SOL     OW 4468   2.730   1.074   3.861
 1190SOL    HW1 4469   2.648   1.123   3.892
 1190SOL    HW2 4470   2.720   0.977   3.881
 1191SOL     OW 4471   3.138   0.316   2.884
 1191SOL    HW1 4472   3.088   0.250   2.941
 1191SOL    HW2 4473   3.235   0.293   2.884
 1192SOL     OW 4474   5.829   5.662   4.069
 1192SOL    HW1 4475   5.788   5.733   4.126
 1192SOL    HW2 4476   5.758   5.619   4.014
 1193SOL     OW 4477   6.657   6.120   4.559
 1193SOL    HW1 4478   6.732   6.072   4.514
 1193SOL    HW2 4479   6.646   6.210   4.518
 1194SOL     OW 4480   3.591   0.502   1.169
 1194SOL    HW1 4481   3.592   0.563   1.248
 1194SOL    HW2 4482   3.680   0.459   1.158
 1195SOL     OW 4483   5.109   3.144   2.786
 1195SOL    HW1 4484   5.115   3.085   2.867
 1195SOL    HW2 4485   5.155   3.099   2.710
 1196SOL     OW 4486   0.344   6.426   5.108
 1196SOL    HW1 4487   0.376   6.510   5.064
 1196SOL    HW2 4488   0.244   6.422   5.102
 1197SOL     OW 4489   2.760   6.134   6.624
 1197SOL    HW1 4490   2.666   6.168   6.624
 1197SOL    HW2 4491   2.824   6.210   6.612
 1198SOL     OW 4492   1.370   2.813   0.622
 1198SOL    HW1 4493   1.428   2.895   0.613
 1198SOL    HW2 4494   1.309   2.824   0.701
 1199SOL     OW 4495   5.614   4.396   2.936
 1199SOL    HW1 4496   5.531   4.451   2.940
 1199SOL    HW2 4497   5.591   4.303   2.908
 1200SOL     OW 4498   3.303   4.079   2.287
 1200SOL    HW1 4499   3.299   4.166   2.337
 1200SOL    HW2 4500   3.247   4.086   2.204
 1201SOL     OW 4501   1.692   2.436   5.122
 1201SOL    HW1 4502   1.644   2.519   5.152
 1201SOL    HW2 4503   1.651   2.356   5.167
 1202SOL     OW 4504   1.037   6.228   4.879
 1202SOL    HW1 4505   1.111   6.259   4.819
 1202SOL    HW2 4506   1.076   6.186   4.961
 1203SOL     OW 4507   4.464   5.513   4.984
 1203SOL    HW1 4508   4.536   5.510   5.054
 1203SOL    HW2 4509   4.375   5.502   5.028
 1204SOL     OW 4510   2.194   0.238   2.650
 1204SOL    HW1 4511   2.167   0.203   2.561
 1204SOL    HW2 4512   2.157   0.330   2.663
 1205SOL     OW 4513   5.667   3.421   2.422
 1205SOL    HW1 4514   5.579   3.460   2.450
 1205SOL    HW2 4515   5.691   3.456   2.332
 1206SOL     OW 4516   2.942   3.217   4.605
 1206SOL    HW1 4517   2.908   3.252   4.517
 1206SOL    HW2 4518   3.007   3.143   4.588
 1207SOL     OW 4519   0.978   5.807   3.376
 1207SOL    HW1 4520   0.896   5.827   3.323
 1207SOL    HW2 4521   0.973   5.853   3.465
 1208SOL     OW 4522   3.519   2.683   6.577
 1208SOL    HW1 4523   3.585   2.616   6.609
 1208SOL    HW2 4524   3.550   2.723   6.491
 1209SOL     OW 4525   4.059   6.644   5.277
 1209SOL    HW1 4526   4.029   6.676   5.188
 1209SOL    HW2 4527   4.086   6.722   5.333
 1210SOL     OW 4528   2.483   1.320   2.809
 1210SOL    HW1 4529   2.502   1.310   2.906
 1210SOL    HW2 4530   2.565   1.354   2.763
 1211SOL     OW 4531   1.021   2.998   0.666
 1211SOL    HW1 4532   1.077   3.073   0.631
 1211SOL    HW2 4533   1.080   2.923   0.696
 1212SOL     OW 4534   0.802   6.667   0.525
 1212SOL    HW1 4535   0.810   6.568   0.518
 1212SOL    HW2 4536   0.810   6.707   0.434
 1213SOL     OW 4537   5.995   2.843   2.215
 1213SOL    HW1 4538   5.963   2.879   2.128
 1213SOL    HW2 4539   6.053   2.911   2.260
 1214SOL     OW 4540   0.419   2.495   2.005
 1214SOL    HW1 4541   0.513   2.470   1.981
 1214SOL    HW2 4542   0.420   2.553   2.087
 1215SOL     OW 4543   2.556   5.339   2.850
 1215SOL    HW1 4544   2.576   5.241   2.850
 1215SOL    HW2 4545   2.642   5.390   2.838
 1216SOL     OW 4546   4.365   6.897   2.005
 1216SOL    HW1 4547   4.303   6.969   1.972
 1216SOL    HW2 4548   4.317   6.809   2.003
 1217SOL     OW 4549   2.670   4.127   0.164
 1217SOL    HW1 4550   2.600   4.069   0.121
 1217SOL    HW2 4551   2.661   4.221   0.130
 1218SOL     OW 4552   2.291   5.380   4.314
 1218SOL    HW1 4553   2.303   5.298   4.258
 1218SOL    HW2 4554   2.251   5.354   4.403
 1219SOL     OW 4555   3.566   5.369   1.832
 1219SOL    HW1 4556   3.653   5.334   1.865
 1219SOL    HW2 4557   3.536   5.317   1.752
 1220SOL     OW 4558   0.836   4.939   1.792
 1220SOL    HW1 4559   0.768   4.911   1.860
 1220SOL    HW2 4560   0.921   4.963   1.838
 1221SOL     OW 4561   4.530   4.322   6.895
 1221SOL    HW1 4562   4.559   4.383   6.822
 1221SOL    HW2 4563   4.604   4.257   6.915
 1222SOL     OW 4564   6.909   1.410   6.616
 1222SOL    HW1 4565   6.911   1.388   6.519
 1222SOL    HW2 4566   6.894   1.327   6.669
 1223SOL     OW 4567   4.177   5.850   1.016
 1223SOL    HW1 4568   4.253   5.785   1.010
 1223SOL    HW2 4569   4.092   5.800   1.031
 1224SOL     OW 4570   2.940   1.587   1.298
 1224SOL    HW1 4571   2.933   1.682   1.328
 1224SOL    HW2 4572   2.874   1.531   1.348
 1225SOL     OW 4573   3.741   4.499   5.995
 1225SOL    HW1 4574   3.647   4.534   5.987
 1225SOL    HW2 4575   3.763   4.446   5.913
 1226SOL     OW 4576   2.317   5.472   0.956
 1226SOL    HW1 4577   2.375   5.550   0.933
 1226SOL    HW2 4578   2.374   5.391   0.971
 1227SOL     OW 4579   1.232   4.184   5.860
 1227SOL    HW1 4580   1.267   4.165   5.768
 1227SOL    HW2 4581   1.302   4.230   5.914
 1228SOL     OW 4582   3.579   2.192   0.018
 1228SOL    HW1 4583   3.654   2.246   6.998
 1228SOL    HW2 4584   3.532   2.245   0.088
 1229SOL     OW 4585   2.924   3.786   0.140
 1229SOL    HW1 4586   2.878   3.716   0.194
 1229SOL    HW2 4587   2.944   3.865   0.198
 1230SOL     OW 4588   4.400   0.209   3.388
 1230SOL    HW1 4589   4.363   0.300   3.368
 1230SOL    HW2 4590   4.473   0.188   3.324
 1231SOL     OW 4591   0.835   3.265   3.341
 1231SOL    HW1 4592   0.797   3.250   3.249
 1231SOL    HW2 4593   0.923   3.310   3.333
 1232SOL     OW 4594   1.954   1.827   2.635
 1232SOL    HW1 4595   1.926   1.799   2.543
 1232SOL    HW2 4596   1.907   1.770   2.703
 1233SOL     OW 4597   0.911   2.309   4.429
 1233SOL    HW1 4598   0.893   2.394   4.479
 1233SOL    HW2 4599   0.957   2.244   4.490
 1234SOL     OW 4600   6.472   4.630   4.585
 1234SOL    HW1 4601   6.429   4.720   4.579
 1234SOL    HW2 4602   6.435   4.580   4.664
 1235SOL     OW 4603   6.989   4.901   3.534
 1235SOL    HW1 4604   0.041   4.962   3.570
 1235SOL    HW2 4605   6.956   4.937   3.446
 1236SOL     OW 4606   5.841   0.595   7.006
 1236SOL    HW1 4607   5.835   0.577   0.085
 1236SOL    HW2 4608   5.937   0.603   6.979
 1237SOL     OW 4609   2.005   4.468   6.584
 1237SOL    HW1 4610   1.975   4.434   6.673
 1237SOL    HW2 4611   2.068   4.402   6.543
 1238SOL     OW 4612   1.939   1.412   1.286
 1238SOL    HW1 4613   2.025   1.447   1.323
 1238SOL    HW2 4614   1.865   1.475   1.309
 1239SOL     OW 4615   0.801   0.272   5.816
 1239SOL    HW1 4616   0.868   0.252   5.745
 1239SOL    HW2 4617   0.713   0.292   5.774
 1240SOL     OW 4618   5.958   4.952   1.036
 1240SOL    HW1 4619   5.923   4.918   1.123
 1240SOL    HW2 4620   6.031   5.019   1.053
 1241SOL     OW 4621   0.592   1.834   4.425
 1241SOL    HW1 4622   0.585   1.933   4.427
 1241SOL    HW2 4623   0.665   1.806   4.363
 1242SOL     OW 4624   1.761   2.307   6.702
 1242SOL    HW1 4625   1.714   2.292   6.789
 1242SOL    HW2 4626   1.723   2.387   6.657
 1243SOL     OW 4627   3.622   4.898   5.189
 1243SOL    HW1 4628   3.578   4.831   5.248
 1243SOL    HW2 4629   3.687   4.953   5.243
 1244SOL     OW 4630   1.233   1.267   3.229
 1244SOL    HW1 4631   1.310   1.328   3.213
 1244SOL    HW2 4632   1.155   1.319   3.264
 1245SOL     OW 4633   3.425   2.907   5.285
 1245SOL    HW1 4634   3.444   2.867   5.195
 1245SOL    HW2 4635   3.331   2.940   5.287
 1246SOL     OW 4636   1.508   6.455   1.690
 1246SOL    HW1 4637   1.468   6.364   1.699
 1246SOL    HW2 4638   1.446   6.515   1.638
 1247SOL     OW 4639   0.842   6.322   6.626
 1247SOL    HW1 4640   0.932   6.281   6.608
 1247SOL    HW2 4641   0.783   6.308   6.547
 1248SOL     OW 4642   2.147   6.904   4.173
 1248SOL    HW1 4643   2.247   6.908   4.164
 1248SOL    HW2 4644   2.110   6.997   4.179
 1249SOL     OW 4645   6.283   2.808   3.351
 1249SOL    HW1 4646   6.266   2.900   3.316
 1249SOL    HW2 4647   6.199   2.754   3.344
 1250SOL     OW 4648   6.817   3.516   4.561
 1250SOL    HW1 4649   6.798   3.450   4.488
 1250SOL    HW2 4650   6.796   3.608   4.528
 1251SOL     OW 4651   3.222   1.112   6.612
 1251SOL    HW1 4652   3.290   1.160   6.667
 1251SOL    HW2 4653   3.147   1.080   6.671
 1252SOL     OW 4654   3.686   3.883   0.247
 1252SOL    HW1 4655   3.613   3.824   0.280
 1252SOL    HW2 4656   3.690   3.966   0.303
 1253SOL     OW 4657   4.530   1.587   2.904
 1253SOL    HW1 4658   4.533   1.673   2.854
 1253SOL    HW2 4659   4.511   1.512   2.841
 1254SOL     OW 4660   5.687   1.129   3.569
 1254SOL    HW1 4661   5.662   1.226   3.564
 1254SOL    HW2 4662   5.742   1.113   3.651
 1255SOL     OW 4663   5.738   0.681   1.477
 1255SOL    HW1 4664   5.829   0.650   1.447
 1255SOL    HW2 4665   5.668   0.623   1.437
 1256SOL     OW 4666   5.371   3.411   3.565
 1256SOL    HW1 4667   5.337   3.493   3.611
 1256SOL    HW2 4668   5.467   3.424   3.538
 1257SOL     OW 4669   6.223   1.586   4.178
 1257SOL    HW1 4670   6.179   1.576   4.267
 1257SOL    HW2 4671   6.196   1.674   4.138
 1258SOL     OW 4672   7.006   4.720   3.937
 1258SOL    HW1 4673   0.061   4.654   3.953
 1258SOL    HW2 4674   6.923   4.689   3.983
 1259SOL     OW 4675   5.503   2.226   4.544
 1259SOL    HW1 4676   5.518   2.324   4.525
 1259SOL    HW2 4677   5.428   2.216   4.609
 1260SOL     OW 4678   0.870   1.591   4.537
 1260SOL    HW1 4679   0.830   1.636   4.617
 1260SOL    HW2 4680   0.877   1.493   4.554
 1261SOL     OW 4681   6.881   2.972   1.414
 1261SOL    HW1 4682   6.879   3.059   1.464
 1261SOL    HW2 4683   6.811   2.911   1.451
 1262SOL     OW 4684   5.398   6.154   1.934
 1262SOL    HW1 4685   5.311   6.131   1.978
 1262SOL    HW2 4686   5.380   6.214   1.856
 1263SOL     OW 4687   1.322   1.771   2.942
 1263SOL    HW1 4688   1.239   1.825   2.937
 1263SOL    HW2 4689   1.401   1.829   2.924
 1264SOL     OW 4690   1.158   3.016   5.341
 1264SOL    HW1 4691   1.103   3.054   5.415
 1264SOL    HW2 4692   1.254   3.018   5.367
 1265SOL     OW 4693   6.634   0.826   6.064
 1265SOL    HW1 4694   6.668   0.831   5.971
 1265SOL    HW2 4695   6.669   0.742   6.107
 1266SOL     OW 4696   3.700   1.949   5.858
 1266SOL    HW1 4697   3.780   1.932   5.915
 1266SOL    HW2 4698   3.681   1.867   5.804
 1267SOL     OW 4699   3.134   1.342   2.142
 1267SOL    HW1 4700   3.140   1.244   2.124
 1267SOL    HW2 4701   3.204   1.368   2.208
 1268SOL     OW 4702   4.346   2.090   5.264
 1268SOL    HW1 4703   4.365   2.030   5.342
 1268SOL    HW2 4704   4.338   2.035   5.181
 1269SOL     OW 4705   5.076   1.956   3.188
 1269SOL    HW1 4706   5.105   1.860   3.192
 1269SOL    HW2 4707   5.058   1.989   3.281
 1270SOL     OW 4708   5.845   5.405   3.415
 1270SOL    HW1 4709   5.793   5.488   3.437
 1270SOL    HW2 4710   5.813   5.330   3.473
 1271SOL     OW 4711   1.474   6.814   1.899
 1271SOL    HW1 4712   1.424   6.731   1.925
 1271SOL    HW2 4713   1.430   6.893   1.941
 1272SOL     OW 4714   6.318   2.190   1.123
 1272SOL    HW1 4715   6.370   2.108   1.099
 1272SOL    HW2 4716   6.377   2.270   1.117
 1273SOL     OW 4717   2.146   4.356   5.350
 1273SOL    HW1 4718   2.164   4.413   5.430
 1273SOL    HW2 4719   2.232   4.325   5.311
 1274SOL     OW 4720   6.758   4.656   4.654
 1274SOL    HW1 4721   6.770   4.563   4.618
 1274SOL    HW2 4722   6.669   4.691   4.625
 1275SOL     OW 4723   1.904   1.286   2.825
 1275SOL    HW1 4724   1.856   1.219   2.882
 1275SOL    HW2 4725   1.885   1.378   2.860
 1276SOL     OW 4726   5.753   4.118   3.795
 1276SOL    HW1 4727   5.679   4.075   3.743
 1276SOL    HW2 4728   5.782   4.056   3.868
 1277SOL     OW 4729   1.521   6.113   6.286
 1277SOL    HW1 4730   1.499   6.021   6.253
 1277SOL    HW2 4731   1.466   6.133   6.367
 1278SOL     OW 4732   0.143   6.373   2.385
 1278SOL    HW1 4733   0.141   6.406   2.291
 1278SOL    HW2 4734   0.149   6.274   2.385
 1279SOL     OW 4735   3.164   2.307   0.783
 1279SOL    HW1 4736   3.186   2.240   0.712
 1279SOL    HW2 4737   3.124   2.260   0.861
 1280SOL     OW 4738   3.043   2.242   3.173
 1280SOL    HW1 4739   3.058   2.191   3.088
 1280SOL    HW2 4740   2.956   2.291   3.166
 1281SOL     OW 4741   5.704   5.793   5.666
 1281SOL    HW1 4742   5.640   5.869   5.678
 1281SOL    HW2 4743   5.774   5.797   5.737
 1282SOL     OW 4744   0.982   2.600   1.246
 1282SOL    HW1 4745   0.905   2.548   1.210
 1282SOL    HW2 4746   1.065   2.574   1.197
 1283SOL     OW 4747   1.706   0.463   4.757
 1283SOL    HW1 4748   1.697   0.364   4.768
 1283SOL    HW2 4749   1.727   0.505   4.846
 1284SOL     OW 4750   3.898   2.245   1.730
 1284SOL    HW1 4751   3.811   2.289   1.754
 1284SOL    HW2 4752   3.927   2.186   1.806
 1285SOL     OW 4753   3.852   1.465   4.241
 1285SOL    HW1 4754   3.878   1.385   4.295
 1285SOL    HW2 4755   3.785   1.519   4.292
 1286SOL     OW 4756   4.925   1.003   2.279
 1286SOL    HW1 4757   4.982   1.057   2.341
 1286SOL    HW2 4758   4.867   0.942   2.333
 1287SOL     OW 4759   5.705   5.001   6.867
 1287SOL    HW1 4760   5.633   5.009   6.935
 1287SOL    HW2 4761   5.791   4.977   6.912
 1288SOL     OW 4762   4.939   4.740   5.944
 1288SOL    HW1 4763   4.947   4.676   5.869
 1288SOL    HW2 4764   4.907   4.692   6.026
 1289SOL     OW 4765   1.541   6.610   0.902
 1289SOL    HW1 4766   1.568   6.672   0.828
 1289SOL    HW2 4767   1.623   6.581   0.952
 1290SOL     OW 4768   1.371   6.626   4.254
 1290SOL    HW1 4769   1.282   6.632   4.299
 1290SOL    HW2 4770   1.442   6.657   4.316
 1291SOL     OW 4771   5.218   5.919   3.478
 1291SOL    HW1 4772   5.238   5.858   3.555
 1291SOL    HW2 4773   5.180   5.865   3.403
 1292SOL     OW 4774   0.071   6.895   2.508
 1292SOL    HW1 4775   0.160   6.857   2.485
 1292SOL    HW2 4776   0.081   6.989   2.538
 1293SOL     OW 4777   4.648   6.927   1.180
 1293SOL    HW1 4778   4.654   6.934   1.280
 1293SOL    HW2 4779   4.674   6.835   1.151
 1294SOL     OW 4780   2.138   4.519   5.563
 1294SOL    HW1 4781   2.182   4.583   5.500
 1294SOL    HW2 4782   2.171   4.537   5.656
 1295SOL     OW 4783   0.084   4.689   0.411
 1295SOL    HW1 4784   0.132   4.744   0.343
 1295SOL    HW2 4785   0.066   4.598   0.374
 1296SOL     OW 4786   3.448   1.284   6.039
 1296SOL    HW1 4787   3.402   1.201   6.006
 1296SOL    HW2 4788   3.395   1.364   6.011
 1297SOL     OW 4789   6.153   6.937   0.258
 1297SOL    HW1 4790   6.162   6.984   0.346
 1297SOL    HW2 4791   6.183   6.842   0.268
 1298SOL     OW 4792   5.143   0.276   3.219
 1298SOL    HW1 4793   5.069   0.212   3.201
 1298SOL    HW2 4794   5.198   0.288   3.137
 1299SOL     OW 4795   1.046   4.857   4.920
 1299SOL    HW1 4796   1.041   4.886   4.825
 1299SOL    HW2 4797   1.059   4.937   4.979
 1300SOL     OW 4798   1.426   5.414   0.198
 1300SOL    HW1 4799   1.355   5.390   0.132
 1300SOL    HW2 4800   1.481   5.490   0.162
 1301SOL     OW 4801   6.256   1.724   0.019
 1301SOL    HW1 4802   6.331   1.707   6.975
 1301SOL    HW2 4803   6.170   1.696   6.994
 1302SOL     OW 4804   6.658   0.007   4.820
 1302SOL    HW1 4805   6.671   0.106   4.833
 1302SOL    HW2 4806   6.647   6.982   4.909
 1303SOL     OW 4807   2.812   6.212   1.413
 1303SOL    HW1 4808   2.769   6.266   1.341
 1303SOL    HW2 4809   2.906   6.244   1.426
 1304SOL     OW 4810   0.043   0.835   0.315
 1304SOL    HW1 4811   0.087   0.818   0.403
 1304SOL    HW2 4812   0.094   0.789   0.242
 1305SOL     OW 4813   3.870   4.008   6.025
 1305SOL    HW1 4814   3.898   4.017   5.930
 1305SOL    HW2 4815   3.921   4.073   6.081
 1306SOL     OW 4816   2.071   6.483   4.172
 1306SOL    HW1 4817   2.141   6.472   4.101
 1306SOL    HW2 4818   2.038   6.392   4.200
 1307SOL     OW 4819   2.097   3.840   3.419
 1307SOL    HW1 4820   2.011   3.878   3.386
 1307SOL    HW2 4821   2.126   3.888   3.502
 1308SOL     OW 4822   1.205   3.610   5.645
 1308SOL    HW1 4823   1.249   3.571   5.565
 1308SOL    HW2 4824   1.159   3.695   5.620
 1309SOL     OW 4825   5.789   3.940   0.093
 1309SOL    HW1 4826   5.710   3.880   0.079
 1309SOL    HW2 4827   5.798   3.960   0.190
 1310SOL     OW 4828   2.432   2.702   3.806
 1310SOL    HW1 4829   2.361   2.640   3.774
 1310SOL    HW2 4830   2.458   2.764   3.732
 1311SOL     OW 4831   6.327   5.337   0.434
 1311SOL    HW1 4832   6.313   5.391   0.517
 1311SOL    HW2 4833   6.290   5.388   0.356
 1312SOL     OW 4834   2.116   1.292   6.850
 1312SOL    HW1 4835   2.101   1.311   6.753
 1312SOL    HW2 4836   2.178   1.360   6.889
 1313SOL     OW 4837   4.949   5.128   3.080
 1313SOL    HW1 4838   4.899   5.185   3.015
 1313SOL    HW2 4839   4.945   5.170   3.171
 1314SOL     OW 4840   2.708   1.791   3.511
 1314SOL    HW1 4841   2.759   1.705   3.506
 1314SOL    HW2 4842   2.700   1.820   3.607
 1315SOL     OW 4843   5.663   0.546   3.770
 1315SOL    HW1 4844   5.625   0.497   3.849
 1315SOL    HW2 4845   5.657   0.644   3.785
 1316SOL     OW 4846   5.167   0.419   6.186
 1316SOL    HW1 4847   5.186   0.400   6.089
 1316SOL    HW2 4848   5.190   0.339   6.240
 1317SOL     OW 4849   3.792   3.121   4.134
 1317SOL    HW1 4850   3.732   3.189   4.176
 1317SOL    HW2 4851   3.783   3.034   4.183
 1318SOL     OW 4852   1.641   1.088   6.810
 1318SOL    HW1 4853   1.637   1.000   6.763
 1318SOL    HW2 4854   1.682   1.076   6.900
 1319SOL     OW 4855   6.672   2.125   0.371
 1319SOL    HW1 4856   6.585   2.082   0.345
 1319SOL    HW2 4857   6.667   2.154   0.466
 1320SOL     OW 4858   2.577   2.737   5.969
 1320SOL    HW1 4859   2.675   2.755   5.973
 1320SOL    HW2 4860   2.549   2.730   5.873
 1321SOL     OW 4861   0.145   2.410   1.472
 1321SOL    HW1 4862   0.221   2.436   1.531
 1321SOL    HW2 4863   0.159   2.317   1.437
 1322SOL     OW 4864   2.234   2.721   0.313
 1322SOL    HW1 4865   2.195   2.781   0.382
 1322SOL    HW2 4866   2.219   2.626   0.339
 1323SOL     OW 4867   4.601   0.739   0.956
 1323SOL    HW1 4868   4.590   0.767   1.052
 1323SOL    HW2 4869   4.546   0.658   0.939
 1324SOL     OW 4870   2.394   3.858   6.243
 1324SOL    HW1 4871   2.459   3.819   6.178
 1324SOL    HW2 4872   2.428   3.843   6.336
 1325SOL     OW 4873   4.515   5.027   4.399
 1325SOL    HW1 4874   4.526   4.932   4.429
 1325SOL    HW2 4875   4.430   5.064   4.437
 1326SOL     OW 4876   4.127   1.607   5.162
 1326SOL    HW1 4877   4.146   1.675   5.233
 1326SOL    HW2 4878   4.046   1.554   5.188
 1327SOL     OW 4879   4.815   5.815   1.781
 1327SOL    HW1 4880   4.772   5.769   1.858
 1327SOL    HW2 4881   4.769   5.902   1.764
 1328SOL     OW 4882   1.334   2.290   5.265
 1328SOL    HW1 4883   1.242   2.327   5.276
 1328SOL    HW2 4884   1.390   2.316   5.344
 1329SOL     OW 4885   1.551   2.900   4.332
 1329SOL    HW1 4886   1.599   2.975   4.378
 1329SOL    HW2 4887   1.453   2.908   4.349
 1330SOL     OW 4888   6.388   3.255   2.656
 1330SOL    HW1 4889   6.439   3.244   2.571
 1330SOL    HW2 4890   6.449   3.240   2.734
 1331SOL     OW 4891   3.638   1.812   2.679
 1331SOL    HW1 4892   3.689   1.844   2.760
 1331SOL    HW2 4893   3.540   1.811   2.700
 1332SOL     OW 4894   2.349   6.410   6.966
 1332SOL    HW1 4895   2.270   6.471   6.974
 1332SOL    HW2 4896   2.326   6.321   7.005
 1333SOL     OW 4897   3.651   3.480   2.384
 1333SOL    HW1 4898   3.637   3.547   2.458
 1333SOL    HW2 4899   3.562   3.448   2.351
 1334SOL     OW 4900   0.388   4.051   1.493
 1334SOL    HW1 4901   0.485   4.059   1.516
 1334SOL    HW2 4902   0.334   4.065   1.576
 1335SOL     OW 4903   0.171   3.401   3.196
 1335SOL    HW1 4904   0.166   3.419   3.098
 1335SOL    HW2 4905   0.249   3.343   3.215
 1336SOL     OW 4906   2.262   6.491   5.799
 1336SOL    HW1 4907   2.293   6.529   5.886
 1336SOL    HW2 4908   2.314   6.409   5.777
 1337SOL     OW 4909   0.017   6.897   1.739
 1337SOL    HW1 4910   0.093   6.956   1.711
 1337SOL    HW2 4911   0.024   6.877   1.837
 1338SOL     OW 4912   0.608   4.326   4.833
 1338SOL    HW1 4913   0.699   4.285   4.840
 1338SOL    HW2 4914   0.539   4.262   4.866
 1339SOL     OW 4915   4.917   1.212   6.569
 1339SOL    HW1 4916   4.950   1.302   6.598
 1339SOL    HW2 4917   4.906   1.211   6.470
 1340SOL     OW 4918   2.415   2.629   1.036
 1340SOL    HW1 4919   2.359   2.569   1.093
 1340SOL    HW2 4920   2.438   2.712   1.088
 1341SOL     OW 4921   5.866   6.226   6.742
 1341SOL    HW1 4922   5.917   6.188   6.819
 1341SOL    HW2 4923   5.820   6.152   6.693
 1342SOL     OW 4924   1.700   5.712   1.675
 1342SOL    HW1 4925   1.759   5.632   1.684
 1342SOL    HW2 4926   1.755   5.795   1.691
 1343SOL     OW 4927   5.023   5.927   2.874
 1343SOL    HW1 4928   4.970   5.979   2.807
 1343SOL    HW2 4929   4.970   5.846   2.901
 1344SOL     OW 4930   1.516   0.745   3.512
 1344SOL    HW1 4931   1.512   0.657   3.560
 1344SOL    HW2 4932   1.582   0.740   3.438
 1345SOL     OW 4933   0.991   6.478   5.394
 1345SOL    HW1 4934   0.901   6.436   5.383
 1345SOL    HW2 4935   1.040   6.434   5.469
 1346SOL     OW 4936   3.220   5.758   3.540
 1346SOL    HW1 4937   3.152   5.685   3.552
 1346SOL    HW2 4938   3.239   5.801   3.628
 1347SOL     OW 4939   0.095   0.995   6.322
 1347SOL    HW1 4940   0.075   1.033   6.412
 1347SOL    HW2 4941   0.012   0.955   6.283
 1348SOL     OW 4942   1.591   6.795   4.698
 1348SOL    HW1 4943   1.662   6.836   4.756
 1348SOL    HW2 4944   1.584   6.697   4.718
 1349SOL     OW 4945   5.094   3.698   4.124
 1349SOL    HW1 4946   5.152   3.692   4.042
 1349SOL    HW2 4947   5.101   3.613   4.176
 1350SOL     OW 4948   5.315   4.483   6.551
 1350SOL    HW1 4949   5.272   4.536   6.624
 1350SOL    HW2 4950   5.267   4.395   6.541
 1351SOL     OW 4951   6.657   3.522   0.167
 1351SOL    HW1 4952   6.669   3.437   0.115
 1351SOL    HW2 4953   6.676   3.505   0.264
 1352SOL     OW 4954   0.195   1.244   3.409
 1352SOL    HW1 4955   0.154   1.190   3.482
 1352SOL    HW2 4956   0.142   1.328   3.395
 1353SOL     OW 4957   6.867   3.287   6.114
 1353SOL    HW1 4958   6.822   3.199   6.100
 1353SOL    HW2 4959   6.965   3.272   6.132
 1354SOL     OW 4960   5.057   4.757   3.198
 1354SOL    HW1 4961   4.990   4.797   3.136
 1354SOL    HW2 4962   5.012   4.731   3.284
 1355SOL     OW 4963   3.669   3.613   4.245
 1355SOL    HW1 4964   3.664   3.611   4.345
 1355SOL    HW2 4965   3.690   3.706   4.215
 1356SOL     OW 4966   3.004   3.245   6.729
 1356SOL    HW1 4967   2.966   3.156   6.703
 1356SOL    HW2 4968   3.103   3.237   6.738
 1357SOL     OW 4969   0.302   3.254   4.853
 1357SOL    HW1 4970   0.240   3.304   4.793
 1357SOL    HW2 4971   0.266   3.162   4.870
 1358SOL     OW 4972   2.225   6.406   6.641
 1358SOL    HW1 4973   2.192   6.367   6.726
 1358SOL    HW2 4974   2.223   6.506   6.646
 1359SOL     OW 4975   5.988   5.086   0.184
 1359SOL    HW1 4976   5.915   5.125   0.241
 1359SOL    HW2 4977   6.071   5.078   0.239
 1360SOL     OW 4978   2.163   1.675   5.841
 1360SOL    HW1 4979   2.160   1.575   5.843
 1360SOL    HW2 4980   2.252   1.705   5.806
 1361SOL     OW 4981   6.053   4.998   5.000
 1361SOL    HW1 4982   6.077   5.095   5.002
 1361SOL    HW2 4983   5.993   4.980   4.923
 1362SOL     OW 4984   3.118   3.943   4.141
 1362SOL    HW1 4985   3.054   3.924   4.216
 1362SOL    HW2 4986   3.177   3.863   4.126
 1363SOL     OW 4987   0.208   6.554   3.714
 1363SOL    HW1 4988   0.191   6.645   3.675
 1363SOL    HW2 4989   0.134   6.492   3.688
 1364SOL     OW 4990   3.517   4.374   0.252
 1364SOL    HW1 4991   3.462   4.307   0.201
 1364SOL    HW2 4992   3.589   4.327   0.303
 1365SOL     OW 4993   5.084   2.247   5.992
 1365SOL    HW1 4994   5.084   2.168   5.931
 1365SOL    HW2 4995   5.047   2.220   6.081
 1366SOL     OW 4996   1.658   0.909   4.799
 1366SOL    HW1 4997   1.613   0.828   4.838
 1366SOL    HW2 4998   1.626   0.991   4.845
 1367SOL     OW 4999   2.601   1.630   1.873
 1367SOL    HW1 5000   2.673   1.591   1.931
 1367SOL    HW2 5001   2.643   1.690   1.805
 1368SOL     OW 5002   6.665   0.731   3.381
 1368SOL    HW1 5003   6.634   0.708   3.474
 1368SOL    HW2 5004   6.642   0.826   3.361
 1369SOL     OW 5005   0.177   0.155   2.532
 1369SOL    HW1 5006   0.139   0.215   2.603
 1369SOL    HW2 5007   0.227   0.210   2.466
 1370SOL     OW 5008   1.033   1.254   2.795
 1370SOL    HW1 5009   1.129   1.260   2.768
 1370SOL    HW2 5010   1.025   1.194   2.875
 1371SOL     OW 5011   2.302   0.164   5.555
 1371SOL    HW1 5012   2.306   0.156   5.455
 1371SOL    HW2 5013   2.219   0.121   5.588
 1372SOL     OW 5014   2.881   2.033   1.362
 1372SOL    HW1 5015   2.912   1.954   1.413
 1372SOL    HW2 5016   2.941   2.111   1.381
 1373SOL     OW 5017   1.370   5.390   6.135
 1373SOL    HW1 5018   1.457   5.439   6.139
 1373SOL    HW2 5019   1.385   5.299   6.097
 1374SOL     OW 5020   5.639   3.468   4.385
 1374SOL    HW1 5021   5.607   3.419   4.304
 1374SOL    HW2 5022   5.622   3.566   4.374
 1375SOL     OW 5023   0.921   4.146   3.986
 1375SOL    HW1 5024   0.842   4.178   3.932
 1375SOL    HW2 5025   0.981   4.224   4.006
 1376SOL     OW 5026   4.891   0.399   2.447
 1376SOL    HW1 5027   4.865   0.477   2.389
 1376SOL    HW2 5028   4.941   0.332   2.392
 1377SOL     OW 5029   0.231   4.232   5.203
 1377SOL    HW1 5030   0.140   4.196   5.184
 1377SOL    HW2 5031   0.231   4.277   5.292
 1378SOL     OW 5032   1.696   1.534   0.319
 1378SOL    HW1 5033   1.699   1.513   0.417
 1378SOL    HW2 5034   1.662   1.455   0.269
 1379SOL     OW 5035   4.392   5.145   1.614
 1379SOL    HW1 5036   4.332   5.225   1.612
 1379SOL    HW2 5037   4.401   5.108   1.521
 1380SOL     OW 5038   5.903   5.319   2.778
 1380SOL    HW1 5039   5.964   5.324   2.699
 1380SOL    HW2 5040   5.951   5.276   2.855
 1381SOL     OW 5041   4.007   6.716   2.449
 1381SOL    HW1 5042   4.085   6.687   2.505
 1381SOL    HW2 5043   3.954   6.784   2.498
 1382SOL     OW 5044   6.764   4.382   0.624
 1382SOL    HW1 5045   6.810   4.336   0.549
 1382SOL    HW2 5046   6.773   4.481   0.613
 1383SOL     OW 5047   3.189   0.042   0.541
 1383SOL    HW1 5048   3.111   7.008   0.507
 1383SOL    HW2 5049   3.266   0.032   0.479
 1384SOL     OW 5050   0.991   1.284   2.360
 1384SOL    HW1 5051   1.063   1.317   2.420
 1384SOL    HW2 5052   0.926   1.229   2.412
 1385SOL     OW 5053   4.903   3.524   4.517
 1385SOL    HW1 5054   4.902   3.479   4.607
 1385SOL    HW2 5055   4.810   3.531   4.483
 1386SOL     OW 5056   2.656   2.430   2.850
 1386SOL    HW1 5057   2.701   2.407   2.936
 1386SOL    HW2 5058   2.582   2.495   2.867
 1387SOL     OW 5059   3.384   0.759   4.264
 1387SOL    HW1 5060   3.438   0.839   4.238
 1387SOL    HW2 5061   3.343   0.719   4.182
 1388SOL     OW 5062   4.955   2.482   3.567
 1388SOL    HW1 5063   4.895   2.552   3.528
 1388SOL    HW2 5064   5.049   2.515   3.566
 1389SOL     OW 5065   6.740   0.767   4.451
 1389SOL    HW1 5066   6.674   0.711   4.400
 1389SOL    HW2 5067   6.691   0.837   4.502
 1390SOL     OW 5068   5.607   2.277   2.530
 1390SOL    HW1 5069   5.517   2.260   2.488
 1390SOL    HW2 5070   5.666   2.323   2.464
 1391SOL     OW 5071   5.982   0.997   5.241
 1391SOL    HW1 5072   5.920   0.920   5.254
 1391SOL    HW2 5073   5.975   1.031   5.148
 1392SOL     OW 5074   3.153   6.942   4.679
 1392SOL    HW1 5075   3.238   6.895   4.656
 1392SOL    HW2 5076   3.153   6.964   4.777
 1393SOL     OW 5077   4.670   6.639   0.092
 1393SOL    HW1 5078   4.659   6.553   0.041
 1393SOL    HW2 5079   4.762   6.675   0.075
 1394SOL     OW 5080   4.106   1.317   4.857
 1394SOL    HW1 5081   4.023   1.336   4.910
 1394SOL    HW2 5082   4.106   1.373   4.774
 1395SOL     OW 5083   0.884   4.963   2.624
 1395SOL    HW1 5084   0.810   4.981   2.559
 1395SOL    HW2 5085   0.972   4.975   2.578
 1396SOL     OW 5086   1.455   1.410   3.170
 1396SOL    HW1 5087   1.428   1.504   3.153
 1396SOL    HW2 5088   1.516   1.407   3.249
 1397SOL     OW 5089   2.189   4.852   5.785
 1397SOL    HW1 5090   2.122   4.826   5.715
 1397SOL    HW2 5091   2.272   4.885   5.740
 1398SOL     OW 5092   3.186   6.927   6.239
 1398SOL    HW1 5093   3.172   6.844   6.294
 1398SOL    HW2 5094   3.147   7.005   6.287
 1399SOL     OW 5095   3.569   6.864   0.181
 1399SOL    HW1 5096   3.509   6.879   0.259
 1399SOL    HW2 5097   3.657   6.828   0.212
 1400SOL     OW 5098   0.487   2.338   5.698
 1400SOL    HW1 5099   0.546   2.285   5.759
 1400SOL    HW2 5100   0.541   2.377   5.625
 1401SOL     OW 5101   4.216   6.832   2.855
 1401SOL    HW1 5102   4.148   6.774   2.901
 1401SOL    HW2 5103   4.308   6.800   2.879
 1402SOL     OW 5104   5.084   4.175   2.417
 1402SOL    HW1 5105   5.008   4.120   2.382
 1402SOL    HW2 5106   5.081   4.176   2.517
 1403SOL     OW 5107   2.896   2.524   6.575
 1403SOL    HW1 5108   2.990   2.493   6.561
 1403SOL    HW2 5109   2.838   2.445   6.595
 1404SOL     OW 5110   4.108   5.553   6.717
 1404SOL    HW1 5111   4.177   5.583   6.651
 1404SOL    HW2 5112   4.065   5.633   6.759
 1405SOL     OW 5113   0.732   4.558   6.711
 1405SOL    HW1 5114   0.805   4.597   6.655
 1405SOL    HW2 5115   0.771   4.516   6.793
 1406SOL     OW 5116   2.030   2.229   0.384
 1406SOL    HW1 5117   1.932   2.216   0.399
 1406SOL    HW2 5118   2.069   2.147   0.343
 1407SOL     OW 5119   6.614   2.898   1.516
 1407SOL    HW1 5120   6.536   2.931   1.463
 1407SOL    HW2 5121   6.602   2.800   1.534
 1408SOL     OW 5122   5.633   6.019   1.345
 1408SOL    HW1 5123   5.567   5.998   1.273
 1408SOL    HW2 5124   5.699   6.086   1.313
 1409SOL     OW 5125   5.708   2.099   5.750
 1409SOL    HW1 5126   5.610   2.105   5.766
 1409SOL    HW2 5127   5.752   2.185   5.777
 1410SOL     OW 5128   3.491   0.584   0.724
 1410SOL    HW1 5129   3.423   0.655   0.704
 1410SOL    HW2 5130   3.482   0.555   0.819
 1411SOL     OW 5131   3.337   0.232   0.070
 1411SOL    HW1 5132   3.293   0.261   0.154
 1411SOL    HW2 5133   3.437   0.239   0.081
 1412SOL     OW 5134   1.687   1.395   6.269
 1412SOL    HW1 5135   1.716   1.326   6.202
 1412SOL    HW2 5136   1.618   1.454   6.228
 1413SOL     OW 5137   1.702   1.475   4.700
 1413SOL    HW1 5138   1.655   1.562   4.712
 1413SOL    HW2 5139   1.801   1.491   4.695
 1414SOL     OW 5140   0.453   5.613   2.827
 1414SOL    HW1 5141   0.473   5.517   2.847
 1414SOL    HW2 5142   0.468   5.668   2.908
 1415SOL     OW 5143   3.252   1.764   5.273
 1415SOL    HW1 5144   3.211   1.689   5.222
 1415SOL    HW2 5145   3.265   1.842   5.213
 1416SOL     OW 5146   3.962   0.319   5.248
 1416SOL    HW1 5147   3.869   0.297   5.219
 1416SOL    HW2 5148   3.980   0.416   5.231
 1417SOL     OW 5149   3.846   4.055   4.496
 1417SOL    HW1 5150   3.886   4.147   4.486
 1417SOL    HW2 5151   3.752   4.055   4.462
 1418SOL     OW 5152   3.316   3.901   5.636
 1418SOL    HW1 5153   3.334   3.819   5.580
 1418SOL    HW2 5154   3.323   3.982   5.578
 1419SOL     OW 5155   0.644   5.342   1.743
 1419SOL    HW1 5156   0.709   5.302   1.678
 1419SOL    HW2 5157   0.684   5.339   1.835
 1420SOL     OW 5158   2.316   6.787   3.805
 1420SOL    HW1 5159   2.302   6.716   3.874
 1420SOL    HW2 5160   2.370   6.862   3.845
 1421SOL     OW 5161   1.546   5.068   1.010
 1421SOL    HW1 5162   1.503   5.100   0.926
 1421SOL    HW2 5163   1.646   5.073   1.000
 1422SOL     OW 5164   1.475   3.784   0.051
 1422SOL    HW1 5165   1.478   3.824   6.978
 1422SOL    HW2 5166   1.558   3.729   0.066
 1423SOL     OW 5167   5.098   1.013   4.803
 1423SOL    HW1 5168   5.071   1.108   4.817
 1423SOL    HW2 5169   5.102   0.992   4.706
 1424SOL     OW 5170   6.130   4.162   1.685
 1424SOL    HW1 5171   6.095   4.254   1.701
 1424SOL    HW2 5172   6.059   4.106   1.643
 1425SOL     OW 5173   5.692   0.412   3.113
 1425SOL    HW1 5174   5.742   0.384   3.194
 1425SOL    HW2 5175   5.594   0.407   3.131
 1426SOL     OW 5176   3.717   0.777   0.874
 1426SOL    HW1 5177   3.781   0.731   0.934
 1426SOL    HW2 5178   3.680   0.712   0.807
 1427SOL     OW 5179   1.595   0.930   3.723
 1427SOL    HW1 5180   1.625   0.890   3.810
 1427SOL    HW2 5181   1.523   0.874   3.683
 1428SOL     OW 5182   2.261   4.082   4.075
 1428SOL    HW1 5183   2.232   3.986   4.076
 1428SOL    HW2 5184   2.261   4.118   4.168
 1429SOL     OW 5185   5.681   0.695   1.058
 1429SOL    HW1 5186   5.715   0.786   1.080
 1429SOL    HW2 5187   5.757   0.637   1.028
 1430SOL     OW 5188   2.143   4.045   4.593
 1430SOL    HW1 5189   2.138   4.000   4.682
 1430SOL    HW2 5190   2.125   3.978   4.521
 1431SOL     OW 5191   3.428   1.738   0.746
 1431SOL    HW1 5192   3.405   1.642   0.757
 1431SOL    HW2 5193   3.396   1.771   0.657
 1432SOL     OW 5194   2.940   0.290   2.379
 1432SOL    HW1 5195   2.842   0.279   2.361
 1432SOL    HW2 5196   2.966   0.231   2.455
 1433SOL     OW 5197   4.097   1.811   3.508
 1433SOL    HW1 5198   4.081   1.713   3.498
 1433SOL    HW2 5199   4.077   1.838   3.602
 1434SOL     OW 5200   6.422   3.478   1.036
 1434SOL    HW1 5201   6.437   3.394   1.090
 1434SOL    HW2 5202   6.372   3.455   0.953
 1435SOL     OW 5203   6.771   6.355   4.163
 1435SOL    HW1 5204   6.850   6.415   4.150
 1435SOL    HW2 5205   6.688   6.402   4.132
 1436SOL     OW 5206   6.046   0.350   6.950
 1436SOL    HW1 5207   6.074   0.439   6.914
 1436SOL    HW2 5208   6.036   0.356   0.031
 1437SOL     OW 5209   3.969   0.772   0.326
 1437SOL    HW1 5210   4.041   0.707   0.349
 1437SOL    HW2 5211   3.942   0.823   0.408
 1438SOL     OW 5212   2.755   6.917   3.915
 1438SOL    HW1 5213   2.734   6.957   4.005
 1438SOL    HW2 5214   2.774   6.990   3.850
 1439SOL     OW 5215   6.703   5.376   4.708
 1439SOL    HW1 5216   6.645   5.377   4.626
 1439SOL    HW2 5217   6.646   5.365   4.789
 1440SOL     OW 5218   3.396   2.881   2.226
 1440SOL    HW1 5219   3.386   2.798   2.171
 1440SOL    HW2 5220   3.356   2.867   2.316
 1441SOL     OW 5221   0.086   2.383   6.545
 1441SOL    HW1 5222   0.100   2.301   6.490
 1441SOL    HW2 5223   0.063   2.461   6.486
 1442SOL     OW 5224   5.316   6.293   6.964
 1442SOL    HW1 5225   5.271   6.380   6.979
 1442SOL    HW2 5226   5.370   6.269   0.026
 1443SOL     OW 5227   2.069   2.956   4.621
 1443SOL    HW1 5228   2.006   2.921   4.552
 1443SOL    HW2 5229   2.122   2.880   4.660
 1444SOL     OW 5230   4.348   6.763   4.480
 1444SOL    HW1 5231   4.439   6.801   4.497
 1444SOL    HW2 5232   4.279   6.816   4.530
 1445SOL     OW 5233   6.524   2.621   6.961
 1445SOL    HW1 5234   6.559   2.621   0.035
 1445SOL    HW2 5235   6.599   2.611   6.896
 1446SOL     OW 5236   2.992   6.466   2.684
 1446SOL    HW1 5237   3.057   6.517   2.627
 1446SOL    HW2 5238   3.043   6.411   2.751
 1447SOL     OW 5239   6.136   0.927   4.865
 1447SOL    HW1 5240   6.073   0.991   4.910
 1447SOL    HW2 5241   6.149   0.847   4.923
 1448SOL     OW 5242   5.364   1.661   1.111
 1448SOL    HW1 5243   5.443   1.603   1.092
 1448SOL    HW2 5244   5.351   1.724   1.035
 1449SOL     OW 5245   5.016   5.972   0.148
 1449SOL    HW1 5246   5.109   5.936   0.154
 1449SOL    HW2 5247   4.970   5.934   0.067
 1450SOL     OW 5248   5.636   1.424   4.194
 1450SOL    HW1 5249   5.570   1.380   4.134
 1450SOL    HW2 5250   5.626   1.389   4.287
 1451SOL     OW 5251   0.254   6.712   2.346
 1451SOL    HW1 5252   0.292   6.620   2.359
 1451SOL    HW2 5253   0.329   6.778   2.340
 1452SOL     OW 5254   1.698   0.025   6.515
 1452SOL    HW1 5255   1.789   7.008   6.537
 1452SOL    HW2 5256   1.628   6.983   6.554
 1453SOL     OW 5257   6.101   4.435   3.938
 1453SOL    HW1 5258   6.020   4.429   3.880
 1453SOL    HW2 5259   6.093   4.516   3.996
 1454SOL     OW 5260   6.012   4.434   1.595
 1454SOL    HW1 5261   5.912   4.431   1.597
 1454SOL    HW2 5262   6.042   4.469   1.506
 1455SOL     OW 5263   2.274   1.875   1.815
 1455SOL    HW1 5264   2.342   1.948   1.806
 1455SOL    HW2 5265   2.321   1.787   1.821
 1456SOL     OW 5266   5.582   5.296   4.974
 1456SOL    HW1 5267   5.491   5.311   5.013
 1456SOL    HW2 5268   5.606   5.371   4.913
 1457SOL     OW 5269   2.194   1.782   4.306
 1457SOL    HW1 5270   2.140   1.733   4.237
 1457SOL    HW2 5271   2.220   1.872   4.271
 1458SOL     OW 5272   6.174   5.576   6.933
 1458SOL    HW1 5273   6.205   5.649   6.873
 1458SOL    HW2 5274   6.229   5.576   7.017
 1459SOL     OW 5275   3.139   6.975   1.347
 1459SOL    HW1 5276   3.114   6.973   1.444
 1459SOL    HW2 5277   3.210   6.907   1.331
 1460SOL     OW 5278   0.730   1.519   6.696
 1460SOL    HW1 5279   0.634   1.490   6.695
 1460SOL    HW2 5280   0.784   1.456   6.640
 1461SOL     OW 5281   4.907   3.932   2.773
 1461SOL    HW1 5282   4.891   3.867   2.847
 1461SOL    HW2 5283   4.901   3.885   2.685
 1462SOL     OW 5284   5.722   0.189   5.345
 1462SOL    HW1 5285   5.676   0.124   5.284
 1462SOL    HW2 5286   5.821   0.182   5.332
 1463SOL     OW 5287   0.771   2.571   5.660
 1463SOL    HW1 5288   0.744   2.533   5.749
 1463SOL    HW2 5289   0.731   2.515   5.587
 1464SOL     OW 5290   0.576   0.770   1.051
 1464SOL    HW1 5291   0.646   0.838   1.077
 1464SOL    HW2 5292   0.610   0.678   1.072
 1465SOL     OW 5293   2.073   1.096   3.711
 1465SOL    HW1 5294   2.135   1.022   3.735
 1465SOL    HW2 5295   2.125   1.182   3.708
 1466SOL     OW 5296   5.696   6.190   5.060
 1466SOL    HW1 5297   5.621   6.246   5.096
 1466SOL    HW2 5298   5.762   6.173   5.133
 1467SOL     OW 5299   0.739   4.229   4.205
 1467SOL    HW1 5300   0.657   4.172   4.192
 1467SOL    HW2 5301   0.812   4.196   4.146
 1468SOL     OW 5302   4.682   0.195   2.818
 1468SOL    HW1 5303   4.658   0.179   2.722
 1468SOL    HW2 5304   4.769   0.150   2.839
 1469SOL     OW 5305   6.562   0.332   2.447
 1469SOL    HW1 5306   6.563   0.325   2.347
 1469SOL    HW2 5307   6.553   0.428   2.474
 1470SOL     OW 5308   0.016   0.390   1.915
 1470SOL    HW1 5309   0.039   0.323   1.845
 1470SOL    HW2 5310   6.945   0.368   1.955
 1471SOL     OW 5311   6.719   1.093   0.945
 1471SOL    HW1 5312   6.722   1.153   1.024
 1471SOL    HW2 5313   6.627   1.054   0.936
 1472SOL     OW 5314   4.931   4.887   4.419
 1472SOL    HW1 5315   4.881   4.824   4.360
 1472SOL    HW2 5316   4.866   4.947   4.466
 1473SOL     OW 5317   0.623   3.261   3.930
 1473SOL    HW1 5318   0.679   3.322   3.986
 1473SOL    HW2 5319   0.668   3.172   3.920
 1474SOL     OW 5320   4.715   6.012   2.401
 1474SOL    HW1 5321   4.650   5.936   2.400
 1474SOL    HW2 5322   4.740   6.035   2.307
 1475SOL     OW 5323   6.630   0.103   3.065
 1475SOL    HW1 5324   6.640   0.114   2.966
 1475SOL    HW2 5325   6.534   0.088   3.088
 1476SOL     OW 5326   0.762   2.270   0.853
 1476SOL    HW1 5327   0.740   2.311   0.942
 1476SOL    HW2 5328   0.792   2.175   0.867
 1477SOL     OW 5329   2.483   6.481   4.468
 1477SOL    HW1 5330   2.542   6.474   4.549
 1477SOL    HW2 5331   2.388   6.469   4.495
 1478SOL     OW 5332   0.118   4.391   0.787
 1478SOL    HW1 5333   0.171   4.429   0.712
 1478SOL    HW2 5334   0.067   4.311   0.754
 1479SOL     OW 5335   1.048   4.667   0.040
 1479SOL    HW1 5336   1.077   4.603   0.111
 1479SOL    HW2 5337   1.104   4.653   6.976
 1480SOL     OW 5338   3.660   0.663   6.990
 1480SOL    HW1 5339   3.650   0.569   0.004
 1480SOL    HW2 5340   3.701   0.662   6.899
 1481SOL     OW 5341   0.178   3.150   1.070
 1481SOL    HW1 5342   0.091   3.174   1.114
 1481SOL    HW2 5343   0.163   3.073   1.008
 1482SOL     OW 5344   5.801   0.406   5.719
 1482SOL    HW1 5345   5.773   0.493   5.760
 1482SOL    HW2 5346   5.899   0.409   5.699
 1483SOL     OW 5347   0.440   2.262   1.301
 1483SOL    HW1 5348   0.395   2.182   1.340
 1483SOL    HW2 5349   0.499   2.304   1.370
 1484SOL     OW 5350   5.383   7.017   3.156
 1484SOL    HW1 5351   5.391   0.036   3.248
 1484SOL    HW2 5352   5.289   6.991   3.139
 1485SOL     OW 5353   5.492   3.994   4.402
 1485SOL    HW1 5354   5.455   3.988   4.309
 1485SOL    HW2 5355   5.570   4.057   4.404
 1486SOL     OW 5356   5.031   2.918   1.693
 1486SOL    HW1 5357   5.066   2.896   1.602
 1486SOL    HW2 5358   5.100   2.969   1.744
 1487SOL     OW 5359   0.568   6.929   5.448
 1487SOL    HW1 5360   0.652   6.983   5.451
 1487SOL    HW2 5361   0.574   6.862   5.375
 1488SOL     OW 5362   4.716   2.310   3.613
 1488SOL    HW1 5363   4.788   2.374   3.586
 1488SOL    HW2 5364   4.663   2.349   3.689
 1489SOL     OW 5365   3.510   5.329   4.861
 1489SOL    HW1 5366   3.428   5.273   4.873
 1489SOL    HW2 5367   3.508   5.406   4.925
 1490SOL     OW 5368   2.921   2.927   0.474
 1490SOL    HW1 5369   2.842   2.876   0.511
 1490SOL    HW2 5370   3.005   2.876   0.493
 1491SOL     OW 5371   1.496   1.505   3.846
 1491SOL    HW1 5372   1.528   1.411   3.836
 1491SOL    HW2 5373   1.445   1.514   3.932
 1492SOL     OW 5374   6.754   2.354   1.763
 1492SOL    HW1 5375   6.765   2.288   1.837
 1492SOL    HW2 5376   6.809   2.435   1.781
 1493SOL     OW 5377   6.592   3.128   4.930
 1493SOL    HW1 5378   6.546   3.174   4.854
 1493SOL    HW2 5379   6.542   3.144   5.015
 1494SOL     OW 5380   5.523   2.018   3.897
 1494SOL    HW1 5381   5.586   1.956   3.943
 1494SOL    HW2 5382   5.434   2.015   3.942
 1495SOL     OW 5383   1.264   3.718   1.440
 1495SOL    HW1 5384   1.305   3.733   1.350
 1495SOL    HW2 5385   1.315   3.646   1.488
 1496SOL     OW 5386   0.156   0.431   2.693
 1496SOL    HW1 5387   0.146   0.529   2.677
 1496SOL    HW2 5388   0.071   0.394   2.731
 1497SOL     OW 5389   5.305   4.031   5.693
 1497SOL    HW1 5390   5.273   4.071   5.779
 1497SOL    HW2 5391   5.227   4.020   5.631
 1498SOL     OW 5392   3.080   5.467   6.631
 1498SOL    HW1 5393   3.178   5.485   6.620
 1498SOL    HW2 5394   3.057   5.469   6.728
 1499SOL     OW 5395   1.753   4.170   3.963
 1499SOL    HW1 5396   1.703   4.144   3.881
 1499SOL    HW2 5397   1.725   4.111   4.039
 1500SOL     OW 5398   4.299   6.086   5.466
 1500SOL    HW1 5399   4.395   6.109   5.453
 1500SOL    HW2 5400   4.256   6.073   5.376
 1501SOL     OW 5401   3.888   1.115   1.530
 1501SOL    HW1 5402   3.894   1.212   1.507
 1501SOL    HW2 5403   3.947   1.063   1.468
 1502SOL     OW 5404   0.067   0.448   6.676
 1502SOL    HW1 5405   0.093   0.354   6.695
 1502SOL    HW2 5406   0.082   0.504   6.757
 1503SOL     OW 5407   3.529   3.546   5.297
 1503SOL    HW1 5408   3.467   3.478   5.337
 1503SOL    HW2 5409   3.622   3.531   5.331
 1504SOL     OW 5410   2.822   0.699   3.702
 1504SOL    HW1 5411   2.833   0.692   3.602
 1504SOL    HW2 5412   2.725   0.715   3.723
 1505SOL     OW 5413   5.883   6.471   3.004
 1505SOL    HW1 5414   5.908   6.566   3.024
 1505SOL    HW2 5415   5.925   6.410   3.072
 1506SOL     OW 5416   0.080   0.002   4.315
 1506SOL    HW1 5417   0.125   6.959   4.251
 1506SOL    HW2 5418   0.119   0.094   4.307
 1507SOL     OW 5419   2.263   1.688   6.737
 1507SOL    HW1 5420   2.267   1.787   6.739
 1507SOL    HW2 5421   2.289   1.655   6.646
 1508SOL     OW 5422   4.028   6.427   0.961
 1508SOL    HW1 5423   4.056   6.512   1.006
 1508SOL    HW2 5424   4.091   6.354   0.987
 1509SOL     OW 5425   5.146   1.953   6.287
 1509SOL    HW1 5426   5.225   1.991   6.239
 1509SOL    HW2 5427   5.062   1.991   6.249
 1510SOL     OW 5428   6.938   1.559   2.324
 1510SOL    HW1 5429   6.888   1.645   2.326
 1510SOL    HW2 5430   0.010   1.572   2.364
 1511SOL     OW 5431   0.149   2.600   0.607
 1511SOL    HW1 5432   0.211   2.581   0.530
 1511SOL    HW2 5433   0.055   2.597   0.575
 1512SOL     OW 5434   0.470   0.582   2.830
 1512SOL    HW1 5435   0.387   0.573   2.885
 1512SOL    HW2 5436   0.446   0.591   2.734
 1513SOL     OW 5437   2.397   0.610   2.798
 1513SOL    HW1 5438   2.481   0.664   2.802
 1513SOL    HW2 5439   2.369   0.599   2.703
 1514SOL     OW 5440   4.466   0.401   6.072
 1514SOL    HW1 5441   4.394   0.471   6.077
 1514SOL    HW2 5442   4.447   0.328   6.137
 1515SOL     OW 5443   5.330   5.471   5.724
 1515SOL    HW1 5444   5.301   5.410   5.651
 1515SOL    HW2 5445   5.430   5.475   5.728
 1516SOL     OW 5446   6.255   1.850   2.324
 1516SOL    HW1 5447   6.213   1.914   2.258
 1516SOL    HW2 5448   6.201   1.766   2.327
 1517SOL     OW 5449   3.238   5.248   1.543
 1517SOL    HW1 5450   3.211   5.192   1.465
 1517SOL    HW2 5451   3.304   5.197   1.599
 1518SOL     OW 5452   0.924   5.035   0.642
 1518SOL    HW1 5453   0.838   5.043   0.593
 1518SOL    HW2 5454   0.906   5.015   0.738
 1519SOL     OW 5455   1.051   4.253   1.035
 1519SOL    HW1 5456   0.963   4.269   1.081
 1519SOL    HW2 5457   1.080   4.159   1.051
 1520SOL     OW 5458   1.739   4.105   2.845
 1520SOL    HW1 5459   1.677   4.170   2.801
 1520SOL    HW2 5460   1.809   4.154   2.897
 1521SOL     OW 5461   2.054   5.762   5.702
 1521SOL    HW1 5462   2.104   5.829   5.758
 1521SOL    HW2 5463   1.964   5.745   5.744
 1522SOL     OW 5464   1.568   1.801   5.905
 1522SOL    HW1 5465   1.602   1.707   5.896
 1522SOL    HW2 5466   1.642   1.859   5.940
 1523SOL     OW 5467   5.691   1.048   0.846
 1523SOL    HW1 5468   5.787   1.077   0.848
 1523SOL    HW2 5469   5.642   1.091   0.922
 1524SOL     OW 5470   1.136   1.903   1.120
 1524SOL    HW1 5471   1.061   1.839   1.109
 1524SOL    HW2 5472   1.223   1.856   1.104
 1525SOL     OW 5473   4.738   1.961   5.227
 1525SOL    HW1 5474   4.803   2.028   5.263
 1525SOL    HW2 5475   4.659   2.009   5.189
 1526SOL     OW 5476   5.333   2.638   0.901
 1526SOL    HW1 5477   5.268   2.571   0.864
 1526SOL    HW2 5478   5.326   2.722   0.848
 1527SOL     OW 5479   1.936   0.316   4.914
 1527SOL    HW1 5480   2.010   0.271   4.964
 1527SOL    HW2 5481   1.895   0.251   4.849
 1528SOL     OW 5482   5.041   5.889   3.231
 1528SOL    HW1 5483   5.072   5.942   3.152
 1528SOL    HW2 5484   4.950   5.921   3.258
 1529SOL     OW 5485   1.172   6.419   5.622
 1529SOL    HW1 5486   1.171   6.489   5.693
 1529SOL    HW2 5487   1.267   6.396   5.600
 1530SOL     OW 5488   3.511   0.027   1.315
 1530SOL    HW1 5489   3.473   0.117   1.292
 1530SOL    HW2 5490   3.537   0.026   1.411
 1531SOL     OW 5491   5.450   1.395   6.601
 1531SOL    HW1 5492   5.452   1.351   6.511
 1531SOL    HW2 5493   5.506   1.477   6.600
 1532SOL     OW 5494   2.812   1.134   4.957
 1532SOL    HW1 5495   2.818   1.195   5.037
 1532SOL    HW2 5496   2.892   1.074   4.955
 1533SOL     OW 5497   4.113   2.897   0.940
 1533SOL    HW1 5498   4.194   2.946   0.909
 1533SOL    HW2 5499   4.100   2.912   1.038
 1534SOL     OW 5500   6.173   0.431   0.717
 1534SOL    HW1 5501   6.259   0.390   0.687
 1534SOL    HW2 5502   6.120   0.363   0.768
 1535SOL     OW 5503   4.570   4.549   4.295
 1535SOL    HW1 5504   4.558   4.462   4.345
 1535SOL    HW2 5505   4.507   4.552   4.218
 1536SOL     OW 5506   3.038   6.324   3.173
 1536SOL    HW1 5507   3.049   6.321   3.273
 1536SOL    HW2 5508   2.956   6.378   3.151
 1537SOL     OW 5509   1.541   5.873   4.747
 1537SOL    HW1 5510   1.546   5.806   4.673
 1537SOL    HW2 5511   1.632   5.889   4.784
 1538SOL     OW 5512   3.523   6.266   0.176
 1538SOL    HW1 5513   3.513   6.362   0.149
 1538SOL    HW2 5514   3.488   6.254   0.269
 1539SOL     OW 5515   2.330   6.669   1.729
 1539SOL    HW1 5516   2.323   6.675   1.829
 1539SOL    HW2 5517   2.245   6.703   1.688
 1540SOL     OW 5518   6.374   0.780   6.058
 1540SOL    HW1 5519   6.473   0.796   6.054
 1540SOL    HW2 5520   6.327   0.853   6.009
 1541SOL     OW 5521   5.057   1.871   2.278
 1541SOL    HW1 5522   5.034   1.788   2.227
 1541SOL    HW2 5523   4.999   1.946   2.248
 1542SOL     OW 5524   6.877   4.905   1.171
 1542SOL    HW1 5525   6.831   4.838   1.230
 1542SOL    HW2 5526   6.808   4.962   1.126
 1543SOL     OW 5527   3.355   2.883   2.507
 1543SOL    HW1 5528   3.448   2.886   2.544
 1543SOL    HW2 5529   3.295   2.938   2.566
 1544SOL     OW 5530   3.456   3.336   1.394
 1544SOL    HW1 5531   3.548   3.307   1.365
 1544SOL    HW2 5532   3.411   3.261   1.441
 1545SOL     OW 5533   0.502   6.271   5.974
 1545SOL    HW1 5534   0.524   6.179   6.007
 1545SOL    HW2 5535   0.417   6.268   5.921
 1546SOL     OW 5536   0.255   6.435   0.909
 1546SOL    HW1 5537   0.189   6.397   0.844
 1546SOL    HW2 5538   0.220   6.522   0.945
 1547SOL     OW 5539   2.734   6.480   0.535
 1547SOL    HW1 5540   2.789   6.444   0.460
 1547SOL    HW2 5541   2.642   6.502   0.502
 1548SOL     OW 5542   6.255   4.311   3.253
 1548SOL    HW1 5543   6.244   4.396   3.305
 1548SOL    HW2 5544   6.166   4.280   3.221
 1549SOL     OW 5545   6.185   1.863   1.295
 1549SOL    HW1 5546   6.118   1.855   1.221
 1549SOL    HW2 5547   6.147   1.919   1.369
 1550SOL     OW 5548   2.762   4.722   2.286
 1550SOL    HW1 5549   2.815   4.804   2.310
 1550SOL    HW2 5550   2.758   4.713   2.186
 1551SOL     OW 5551   1.297   1.798   1.981
 1551SOL    HW1 5552   1.388   1.766   2.008
 1551SOL    HW2 5553   1.273   1.758   1.893
 1552SOL     OW 5554   1.741   6.418   2.569
 1552SOL    HW1 5555   1.755   6.513   2.541
 1552SOL    HW2 5556   1.651   6.387   2.538
 1553SOL     OW 5557   5.978   1.895   5.355
 1553SOL    HW1 5558   5.925   1.955   5.414
 1553SOL    HW2 5559   6.044   1.949   5.304
 1554SOL     OW 5560   3.002   3.335   0.141
 1554SOL    HW1 5561   3.070   3.320   0.070
 1554SOL    HW2 5562   2.918   3.284   0.119
 1555SOL     OW 5563   4.250   1.075   1.009
 1555SOL    HW1 5564   4.250   1.079   1.109
 1555SOL    HW2 5565   4.165   1.116   0.974
 1556SOL     OW 5566   2.562   2.034   0.307
 1556SOL    HW1 5567   2.612   2.119   0.324
 1556SOL    HW2 5568   2.468   2.055   0.279
 1557SOL     OW 5569   2.554   2.478   1.253
 1557SOL    HW1 5570   2.630   2.476   1.189
 1557SOL    HW2 5571   2.541   2.571   1.287
 1558SOL     OW 5572   5.027   1.931   0.207
 1558SOL    HW1 5573   5.054   2.018   0.167
 1558SOL    HW2 5574   5.103   1.891   0.258
 1559SOL     OW 5575   2.445   5.874   4.098
 1559SOL    HW1 5576   2.465   5.904   4.191
 1559SOL    HW2 5577   2.392   5.789   4.101
 1560SOL     OW 5578   5.094   3.227   1.646
 1560SOL    HW1 5579   5.050   3.201   1.732
 1560SOL    HW2 5580   5.028   3.216   1.571
 1561SOL     OW 5581   5.993   6.558   1.258
 1561SOL    HW1 5582   5.991   6.495   1.336
 1561SOL    HW2 5583   5.992   6.506   1.173
 1562SOL     OW 5584   2.638   0.047   2.994
 1562SOL    HW1 5585   2.691   0.117   2.946
 1562SOL    HW2 5586   2.601   0.085   3.079
 1563SOL     OW 5587   2.200   4.490   3.835
 1563SOL    HW1 5588   2.118   4.485   3.892
 1563SOL    HW2 5589   2.268   4.424   3.866
 1564SOL     OW 5590   2.398   1.963   3.110
 1564SOL    HW1 5591   2.408   2.028   3.035
 1564SOL    HW2 5592   2.485   1.953   3.158
 1565SOL     OW 5593   5.527   1.938   5.441
 1565SOL    HW1 5594   5.474   1.854   5.447
 1565SOL    HW2 5595   5.550   1.956   5.346
 1566SOL     OW 5596   1.100   3.415   3.576
 1566SOL    HW1 5597   1.110   3.458   3.487
 1566SOL    HW2 5598   1.141   3.324   3.574
 1567SOL     OW 5599   5.653   1.016   4.063
 1567SOL    HW1 5600   5.617   1.015   4.156
 1567SOL    HW2 5601   5.591   0.966   4.003
 1568SOL     OW 5602   2.091   5.088   0.887
 1568SOL    HW1 5603   2.159   5.115   0.954
 1568SOL    HW2 5604   2.126   5.012   0.832
 1569SOL     OW 5605   2.042   1.275   2.059
 1569SOL    HW1 5606   2.128   1.225   2.047
 1569SOL    HW2 5607   2.059   1.373   2.048
 1570SOL     OW 5608   2.470   5.912   6.007
 1570SOL    HW1 5609   2.546   5.847   6.008
 1570SOL    HW2 5610   2.506   6.004   5.987
 1571SOL     OW 5611   1.376   1.478   4.284
 1571SOL    HW1 5612   1.355   1.508   4.191
 1571SOL    HW2 5613   1.310   1.519   4.347
 1572SOL     OW 5614   2.509   5.332   3.753
 1572SOL    HW1 5615   2.565   5.287   3.822
 1572SOL    HW2 5616   2.532   5.429   3.750
 1573SOL     OW 5617   5.684   6.020   6.636
 1573SOL    HW1 5618   5.623   6.042   6.712
 1573SOL    HW2 5619   5.649   6.060   6.552
 1574SOL     OW 5620   0.497   2.597   3.307
 1574SOL    HW1 5621   0.479   2.629   3.214
 1574SOL    HW2 5622   0.578   2.539   3.307
 1575SOL     OW 5623   6.973   2.155   0.201
 1575SOL    HW1 5624   6.894   2.095   0.208
 1575SOL    HW2 5625   6.948   2.247   0.233
 1576SOL     OW 5626   0.973   6.069   2.779
 1576SOL    HW1 5627   0.960   6.086   2.877
 1576SOL    HW2 5628   1.046   6.002   2.766
 1577SOL     OW 5629   4.596   5.730   4.212
 1577SOL    HW1 5630   4.569   5.702   4.120
 1577SOL    HW2 5631   4.696   5.735   4.218
 1578SOL     OW 5632   5.530   1.531   2.075
 1578SOL    HW1 5633   5.572   1.617   2.046
 1578SOL    HW2 5634   5.461   1.549   2.145
 1579SOL     OW 5635   1.770   4.070   2.480
 1579SOL    HW1 5636   1.853   4.060   2.425
 1579SOL    HW2 5637   1.701   4.004   2.449
 1580SOL     OW 5638   3.274   3.177   4.935
 1580SOL    HW1 5639   3.344   3.228   4.986
 1580SOL    HW2 5640   3.300   3.172   4.839
 1581SOL     OW 5641   5.209   3.713   5.243
 1581SOL    HW1 5642   5.207   3.674   5.152
 1581SOL    HW2 5643   5.120   3.753   5.265
 1582SOL     OW 5644   4.309   6.415   3.811
 1582SOL    HW1 5645   4.353   6.505   3.814
 1582SOL    HW2 5646   4.288   6.385   3.903
 1583SOL     OW 5647   0.508   5.173   4.789
 1583SOL    HW1 5648   0.510   5.075   4.766
 1583SOL    HW2 5649   0.438   5.189   4.858
 1584SOL     OW 5650   0.373   4.540   0.240
 1584SOL    HW1 5651   0.436   4.502   0.173
 1584SOL    HW2 5652   0.295   4.478   0.251
 1585SOL     OW 5653   3.984   6.465   4.206
 1585SOL    HW1 5654   4.057   6.533   4.205
 1585SOL    HW2 5655   3.945   6.460   4.298
 1586SOL     OW 5656   2.962   5.876   3.400
 1586SOL    HW1 5657   2.981   5.971   3.426
 1586SOL    HW2 5658   3.034   5.843   3.339
 1587SOL     OW 5659   4.285   0.457   6.627
 1587SOL    HW1 5660   4.291   0.501   6.717
 1587SOL    HW2 5661   4.196   0.411   6.618
 1588SOL     OW 5662   6.289   1.537   3.724
 1588SOL    HW1 5663   6.306   1.493   3.812
 1588SOL    HW2 5664   6.285   1.636   3.736
 1589SOL     OW 5665   6.868   0.883   3.720
 1589SOL    HW1 5666   6.904   0.870   3.812
 1589SOL    HW2 5667   6.916   0.823   3.656
 1590SOL     OW 5668   5.755   0.039   3.873
 1590SOL    HW1 5669   5.778   6.974   3.923
 1590SOL    HW2 5670   5.704   0.100   3.934
 1591SOL     OW 5671   6.934   4.719   0.827
 1591SOL    HW1 5672   6.983   4.708   0.913
 1591SOL    HW2 5673   6.898   4.812   0.821
 1592SOL     OW 5674   6.798   4.284   4.052
 1592SOL    HW1 5675   6.817   4.380   4.073
 1592SOL    HW2 5676   6.766   4.238   4.135
 1593SOL     OW 5677   4.053   5.169   1.013
 1593SOL    HW1 5678   4.074   5.177   0.915
 1593SOL    HW2 5679   4.131   5.204   1.066
 1594SOL     OW 5680   5.345   0.957   2.997
 1594SOL    HW1 5681   5.358   1.025   2.924
 1594SOL    HW2 5682   5.417   0.888   2.991
 1595SOL     OW 5683   6.832   3.964   0.538
 1595SOL    HW1 5684   6.826   3.864   0.546
 1595SOL    HW2 5685   6.756   4.006   0.586
 1596SOL     OW 5686   5.275   4.324   4.562
 1596SOL    HW1 5687   5.281   4.295   4.658
 1596SOL    HW2 5688   5.241   4.419   4.559
 1597SOL     OW 5689   4.144   6.638   1.091
 1597SOL    HW1 5690   4.141   6.738   1.095
 1597SOL    HW2 5691   4.115   6.600   1.179
 1598SOL     OW 5692   0.914   5.994   5.760
 1598SOL    HW1 5693   0.825   5.984   5.804
 1598SOL    HW2 5694   0.903   6.042   5.673
 1599SOL     OW 5695   5.176   5.287   4.078
 1599SOL    HW1 5696   5.252   5.295   4.142
 1599SOL    HW2 5697   5.093   5.262   4.128
 1600SOL     OW 5698   5.306   1.385   1.596
 1600SOL    HW1 5699   5.374   1.456   1.614
 1600SOL    HW2 5700   5.256   1.365   1.680
 1601SOL     OW 5701   5.856   0.480   4.963
 1601SOL    HW1 5702   5.827   0.575   4.977
 1601SOL    HW2 5703   5.775   0.420   4.966
 1602SOL     OW 5704   3.657   5.946   3.515
 1602SOL    HW1 5705   3.631   5.894   3.597
 1602SOL    HW2 5706   3.710   6.026   3.541
 1603SOL     OW 5707   3.485   5.785   1.405
 1603SOL    HW1 5708   3.436   5.777   1.492
 1603SOL    HW2 5709   3.421   5.807   1.332
 1604SOL     OW 5710   4.380   5.423   1.793
 1604SOL    HW1 5711   4.392   5.389   1.887
 1604SOL    HW2 5712   4.469   5.447   1.755
 1605SOL     OW 5713   3.931   5.097   0.203
 1605SOL    HW1 5714   3.957   5.193   0.201
 1605SOL    HW2 5715   3.955   5.058   0.292
 1606SOL     OW 5716   5.202   5.615   4.946
 1606SOL    HW1 5717   5.123   5.621   5.006
 1606SOL    HW2 5718   5.232   5.707   4.921
 1607SOL     OW 5719   4.678   4.205   4.048
 1607SOL    HW1 5720   4.757   4.180   4.105
 1607SOL    HW2 5721   4.619   4.125   4.037
 1608SOL     OW 5722   6.259   3.269   3.033
 1608SOL    HW1 5723   6.214   3.338   2.976
 1608SOL    HW2 5724   6.230   3.178   3.004
 1609SOL     OW 5725   1.238   0.136   1.010
 1609SOL    HW1 5726   1.201   0.060   1.063
 1609SOL    HW2 5727   1.338   0.129   1.007
 1610SOL     OW 5728   5.403   5.534   0.944
 1610SOL    HW1 5729   5.470   5.576   1.005
 1610SOL    HW2 5730   5.385   5.440   0.974
 1611SOL     OW 5731   0.286   4.647   6.725
 1611SOL    HW1 5732   0.222   4.688   6.790
 1611SOL    HW2 5733   0.377   4.685   6.739
 1612SOL     OW 5734   5.096   0.734   2.326
 1612SOL    HW1 5735   5.025   0.772   2.386
 1612SOL    HW2 5736   5.059   0.722   2.234
 1613SOL     OW 5737   6.984   6.320   2.640
 1613SOL    HW1 5738   0.004   6.228   2.644
 1613SOL    HW2 5739   0.016   6.374   2.573
 1614SOL     OW 5740   6.054   1.143   6.167
 1614SOL    HW1 5741   5.997   1.063   6.148
 1614SOL    HW2 5742   6.022   1.220   6.112
 1615SOL     OW 5743   6.151   3.310   5.793
 1615SOL    HW1 5744   6.115   3.373   5.862
 1615SOL    HW2 5745   6.078   3.284   5.731
 1616SOL     OW 5746   1.675   1.327   3.343
 1616SOL    HW1 5747   1.632   1.364   3.426
 1616SOL    HW2 5748   1.652   1.230   3.335
 1617SOL     OW 5749   0.265   6.240   4.379
 1617SOL    HW1 5750   0.278   6.157   4.325
 1617SOL    HW2 5751   0.321   6.236   4.462
 1618SOL     OW 5752   3.307   5.212   2.929
 1618SOL    HW1 5753   3.263   5.214   2.839
 1618SOL    HW2 5754   3.396   5.256   2.924
 1619SOL     OW 5755   1.325   3.850   6.275
 1619SOL    HW1 5756   1.357   3.759   6.247
 1619SOL    HW2 5757   1.398   3.917   6.260
 1620SOL     OW 5758   2.918   6.805   4.563
 1620SOL    HW1 5759   2.836   6.806   4.620
 1620SOL    HW2 5760   2.993   6.851   4.612
 1621SOL     OW 5761   5.420   5.089   0.769
 1621SOL    HW1 5762   5.336   5.126   0.809
 1621SOL    HW2 5763   5.493   5.090   0.837
 1622SOL     OW 5764   6.700   3.018   3.536
 1622SOL    HW1 5765   6.614   3.034   3.583
 1622SOL    HW2 5766   6.715   2.919   3.527
 1623SOL     OW 5767   0.666   2.353   3.883
 1623SOL    HW1 5768   0.751   2.339   3.933
 1623SOL    HW2 5769   0.608   2.272   3.894
 1624SOL     OW 5770   4.486   3.221   0.372
 1624SOL    HW1 5771   4.465   3.291   0.304
 1624SOL    HW2 5772   4.416   3.221   0.444
 1625SOL     OW 5773   1.079   6.330   0.214
 1625SOL    HW1 5774   1.078   6.246   0.159
 1625SOL    HW2 5775   1.041   6.406   0.160
 1626SOL     OW 5776   2.966   1.691   1.716
 1626SOL    HW1 5777   2.871   1.717   1.699
 1626SOL    HW2 5778   2.991   1.718   1.809
 1627SOL     OW 5779   4.276   1.025   5.366
 1627SOL    HW1 5780   4.229   1.112   5.381
 1627SOL    HW2 5781   4.372   1.043   5.343
 1628SOL     OW 5782   5.697   5.679   0.918
 1628SOL    HW1 5783   5.769   5.748   0.919
 1628SOL    HW2 5784   5.634   5.697   0.842
 1629SOL     OW 5785   1.920   6.214   2.499
 1629SOL    HW1 5786   1.842   6.266   2.536
 1629SOL    HW2 5787   1.919   6.219   2.399
 1630SOL     OW 5788   0.541   4.932   5.996
 1630SOL    HW1 5789   0.459   4.949   5.943
 1630SOL    HW2 5790   0.545   4.996   6.074
 1631SOL     OW 5791   5.070   4.160   6.837
 1631SOL    HW1 5792   5.087   4.084   6.774
 1631SOL    HW2 5793   4.991   4.137   6.895
 1632SOL     OW 5794   6.455   5.207   2.615
 1632SOL    HW1 5795   6.550   5.176   2.607
 1632SOL    HW2 5796   6.427   5.252   2.530
 1633SOL     OW 5797   6.838   4.143   4.792
 1633SOL    HW1 5798   6.760   4.205   4.791
 1633SOL    HW2 5799   6.911   4.182   4.848
 1634SOL     OW 5800   1.142   3.911   5.835
 1634SOL    HW1 5801   1.192   3.996   5.819
 1634SOL    HW2 5802   1.205   3.841   5.869
 1635SOL     OW 5803   2.713   1.427   3.856
 1635SOL    HW1 5804   2.637   1.491   3.845
 1635SOL    HW2 5805   2.684   1.350   3.913
 1636SOL     OW 5806   0.223   6.163   1.936
 1636SOL    HW1 5807   0.259   6.170   1.843
 1636SOL    HW2 5808   0.297   6.135   1.998
 1637SOL     OW 5809   1.367   1.202   1.620
 1637SOL    HW1 5810   1.411   1.164   1.702
 1637SOL    HW2 5811   1.375   1.137   1.545
 1638SOL     OW 5812   5.298   1.850   3.762
 1638SOL    HW1 5813   5.299   1.947   3.785
 1638SOL    HW2 5814   5.259   1.798   3.839
 1639SOL     OW 5815   5.040   1.984   1.169
 1639SOL    HW1 5816   5.058   1.886   1.174
 1639SOL    HW2 5817   5.126   2.035   1.181
 1640SOL     OW 5818   6.337   1.275   6.513
 1640SOL    HW1 5819   6.256   1.220   6.497
 1640SOL    HW2 5820   6.310   1.370   6.531
 1641SOL     OW 5821   5.888   1.435   2.347
 1641SOL    HW1 5822   5.941   1.364   2.301
 1641SOL    HW2 5823   5.926   1.453   2.438
 1642SOL     OW 5824   0.177   3.564   6.863
 1642SOL    HW1 5825   0.228   3.485   6.829
 1642SOL    HW2 5826   0.107   3.590   6.797
 1643SOL     OW 5827   2.239   5.675   4.682
 1643SOL    HW1 5828   2.230   5.576   4.687
 1643SOL    HW2 5829   2.334   5.699   4.661
 1644SOL     OW 5830   6.105   1.618   1.484
 1644SOL    HW1 5831   6.035   1.652   1.421
 1644SOL    HW2 5832   6.087   1.521   1.504
 1645SOL     OW 5833   2.551   1.244   4.018
 1645SOL    HW1 5834   2.464   1.270   3.978
 1645SOL    HW2 5835   2.536   1.211   4.112
 1646SOL     OW 5836   6.841   5.636   1.911
 1646SOL    HW1 5837   6.900   5.698   1.962
 1646SOL    HW2 5838   6.757   5.620   1.964
 1647SOL     OW 5839   0.062   3.776   5.429
 1647SOL    HW1 5840   0.003   3.700   5.456
 1647SOL    HW2 5841   0.105   3.755   5.341
 1648SOL     OW 5842   5.905   5.738   1.793
 1648SOL    HW1 5843   5.838   5.695   1.853
 1648SOL    HW2 5844   5.994   5.739   1.837
 1649SOL     OW 5845   3.766   0.944   3.447
 1649SOL    HW1 5846   3.798   0.921   3.539
 1649SOL    HW2 5847   3.705   0.872   3.414
 1650SOL     OW 5848   2.796   2.633   5.512
 1650SOL    HW1 5849   2.747   2.696   5.451
 1650SOL    HW2 5850   2.760   2.642   5.605
 1651SOL     OW 5851   1.830   1.917   3.785
 1651SOL    HW1 5852   1.818   1.818   3.789
 1651SOL    HW2 5853   1.778   1.960   3.858
 1652SOL     OW 5854   0.254   4.203   1.715
 1652SOL    HW1 5855   0.174   4.151   1.744
 1652SOL    HW2 5856   0.225   4.275   1.652
 1653SOL     OW 5857   5.945   3.976   1.618
 1653SOL    HW1 5858   5.875   4.046   1.600
 1653SOL    HW2 5859   5.905   3.885   1.604
 1654SOL     OW 5860   0.093   3.183   2.199
 1654SOL    HW1 5861   0.157   3.107   2.213
 1654SOL    HW2 5862   0.137   3.268   2.228
 1655SOL     OW 5863   6.638   0.644   5.628
 1655SOL    HW1 5864   6.734   0.671   5.637
 1655SOL    HW2 5865   6.580   0.725   5.624
 1656SOL     OW 5866   1.727   4.591   2.889
 1656SOL    HW1 5867   1.759   4.592   2.984
 1656SOL    HW2 5868   1.661   4.517   2.877
 1657SOL     OW 5869   0.447   1.654   6.119
 1657SOL    HW1 5870   0.529   1.698   6.156
 1657SOL    HW2 5871   0.369   1.674   6.178
 1658SOL     OW 5872   4.673   0.136   5.413
 1658SOL    HW1 5873   4.746   0.108   5.476
 1658SOL    HW2 5874   4.616   0.205   5.457
 1659SOL     OW 5875   2.837   1.018   6.544
 1659SOL    HW1 5876   2.823   1.039   6.448
 1659SOL    HW2 5877   2.755   1.041   6.596
 1660SOL     OW 5878   2.247   1.031   1.187
 1660SOL    HW1 5879   2.149   1.016   1.179
 1660SOL    HW2 5880   2.270   1.123   1.156
 1661SOL     OW 5881   4.322   5.137   3.378
 1661SOL    HW1 5882   4.281   5.104   3.463
 1661SOL    HW2 5883   4.308   5.236   3.370
 1662SOL     OW 5884   0.532   1.939   4.127
 1662SOL    HW1 5885   0.552   1.957   4.224
 1662SOL    HW2 5886   0.433   1.942   4.113
 1663SOL     OW 5887   6.761   3.808   1.241
 1663SOL    HW1 5888   6.696   3.832   1.168
 1663SOL    HW2 5889   6.797   3.716   1.224
 1664SOL     OW 5890   1.269   0.899   6.639
 1664SOL    HW1 5891   1.216   0.825   6.680
 1664SOL    HW2 5892   1.262   0.981   6.696
 1665SOL     OW 5893   1.470   3.833   0.367
 1665SOL    HW1 5894   1.534   3.763   0.336
 1665SOL    HW2 5895   1.468   3.908   0.300
 1666SOL     OW 5896   5.650   6.307   5.418
 1666SOL    HW1 5897   5.641   6.211   5.393
 1666SOL    HW2 5898   5.615   6.321   5.510
 1667SOL     OW 5899   6.692   5.116   1.083
 1667SOL    HW1 5900   6.632   5.107   1.162
 1667SOL    HW2 5901   6.648   5.173   1.014
 1668SOL     OW 5902   6.949   2.816   2.292
 1668SOL    HW1 5903   6.872   2.793   2.232
 1668SOL    HW2 5904   0.017   2.796   2.245
 1669SOL     OW 5905   6.404   2.995   5.355
 1669SOL    HW1 5906   6.336   3.016   5.425
 1669SOL    HW2 5907   6.496   3.012   5.392
 1670SOL     OW 5908   3.012   4.367   5.292
 1670SOL    HW1 5909   3.015   4.278   5.247
 1670SOL    HW2 5910   2.957   4.430   5.237
 1671SOL     OW 5911   5.609   2.344   0.491
 1671SOL    HW1 5912   5.664   2.368   0.571
 1671SOL    HW2 5913   5.532   2.407   0.482
 1672SOL     OW 5914   1.100   1.922   1.638
 1672SOL    HW1 5915   1.075   2.019   1.645
 1672SOL    HW2 5916   1.129   1.889   1.728
 1673SOL     OW 5917   0.728   0.665   6.108
 1673SOL    HW1 5918   0.757   0.719   6.029
 1673SOL    HW2 5919   0.739   0.720   6.191
 1674SOL     OW 5920   4.707   2.764   3.129
 1674SOL    HW1 5921   4.796   2.762   3.083
 1674SOL    HW2 5922   4.718   2.736   3.225
 1675SOL     OW 5923   4.804   0.712   1.845
 1675SOL    HW1 5924   4.796   0.630   1.902
 1675SOL    HW2 5925   4.897   0.719   1.809
 1676SOL     OW 5926   1.729   1.667   3.810
 1676SOL    HW1 5927   1.646   1.627   3.847
 1676SOL    HW2 5928   1.719   1.681   3.712
 1677SOL     OW 5929   2.882   3.422   1.572
 1677SOL    HW1 5930   2.817   3.448   1.643
 1677SOL    HW2 5931   2.963   3.481   1.577
 1678SOL     OW 5932   6.680   0.287   0.676
 1678SOL    HW1 5933   6.710   0.351   0.606
 1678SOL    HW2 5934   6.671   0.335   0.763
 1679SOL     OW 5935   6.198   1.997   0.037
 1679SOL    HW1 5936   6.276   2.058   0.053
 1679SOL    HW2 5937   6.229   1.902   0.036
 1680SOL     OW 5938   5.125   1.851   3.496
 1680SOL    HW1 5939   5.208   1.906   3.489
 1680SOL    HW2 5940   5.135   1.769   3.440
 1681SOL     OW 5941   4.436   6.691   4.062
 1681SOL    HW1 5942   4.357   6.631   4.070
 1681SOL    HW2 5943   4.414   6.767   4.000
 1682SOL     OW 5944   4.421   1.914   5.479
 1682SOL    HW1 5945   4.480   1.845   5.522
 1682SOL    HW2 5946   4.397   1.984   5.546
 1683SOL     OW 5947   0.973   4.001   3.500
 1683SOL    HW1 5948   0.995   3.926   3.438
 1683SOL    HW2 5949   1.046   4.069   3.498
 1684SOL     OW 5950   3.687   5.658   1.100
 1684SOL    HW1 5951   3.708   5.697   1.190
 1684SOL    HW2 5952   3.616   5.589   1.109
 1685SOL     OW 5953   7.012   2.310   5.624
 1685SOL    HW1 5954   0.056   2.267   5.690
 1685SOL    HW2 5955   0.038   2.314   5.535
 1686SOL     OW 5956   3.252   6.114   1.305
 1686SOL    HW1 5957   3.273   6.197   1.252
 1686SOL    HW2 5958   3.286   6.034   1.256
 1687SOL     OW 5959   4.447   4.074   0.194
 1687SOL    HW1 5960   4.388   4.114   0.124
 1687SOL    HW2 5961   4.390   4.025   0.261
 1688SOL     OW 5962   2.760   0.538   2.798
 1688SOL    HW1 5963   2.769   0.595   2.879
 1688SOL    HW2 5964   2.688   0.470   2.813
 1689SOL     OW 5965   4.137   0.889   2.332
 1689SOL    HW1 5966   4.094   0.947   2.401
 1689SOL    HW2 5967   4.083   0.890   2.248
 1690SOL     OW 5968   0.201   4.548   4.214
 1690SOL    HW1 5969   0.121   4.488   4.211
 1690SOL    HW2 5970   0.240   4.556   4.123
 1691SOL     OW 5971   4.550   3.105   5.350
 1691SOL    HW1 5972   4.587   3.197   5.362
 1691SOL    HW2 5973   4.550   3.058   5.438
 1692SOL     OW 5974   5.459   5.336   3.047
 1692SOL    HW1 5975   5.360   5.340   3.035
 1692SOL    HW2 5976   5.483   5.373   3.137
 1693SOL     OW 5977   5.663   0.609   5.859
 1693SOL    HW1 5978   5.598   0.559   5.915
 1693SOL    HW2 5979   5.619   0.690   5.820
 1694SOL     OW 5980   4.439   1.252   6.867
 1694SOL    HW1 5981   4.412   1.208   6.782
 1694SOL    HW2 5982   4.392   1.208   6.944
 1695SOL     OW 5983   5.531   0.829   5.226
 1695SOL    HW1 5984   5.580   0.789   5.304
 1695SOL    HW2 5985   5.563   0.923   5.211
 1696SOL     OW 5986   5.106   6.893   1.055
 1696SOL    HW1 5987   5.191   6.910   1.104
 1696SOL    HW2 5988   5.123   6.894   0.957
 1697SOL     OW 5989   3.888   4.114   1.799
 1697SOL    HW1 5990   3.927   4.025   1.822
 1697SOL    HW2 5991   3.831   4.146   1.876
 1698SOL     OW 5992   4.807   1.994   1.330
 1698SOL    HW1 5993   4.868   1.965   1.256
 1698SOL    HW2 5994   4.712   1.983   1.301
 1699SOL     OW 5995   1.950   0.395   0.898
 1699SOL    HW1 5996   2.014   0.457   0.944
 1699SOL    HW2 5997   1.860   0.439   0.893
 1700SOL     OW 5998   5.968   3.288   3.121
 1700SOL    HW1 5999   6.032   3.348   3.168
 1700SOL    HW2 6000   5.922   3.229   3.187
 1701SOL     OW 6001   1.087   5.651   5.378
 1701SOL    HW1 6002   1.131   5.735   5.346
 1701SOL    HW2 6003   1.034   5.610   5.304
 1702SOL     OW 6004   2.258   2.335   0.071
 1702SOL    HW1 6005   2.180   2.275   0.053
 1702SOL    HW2 6006   2.284   2.383   7.006
 1703SOL     OW 6007   1.591   1.783   2.040
 1703SOL    HW1 6008   1.602   1.721   2.118
 1703SOL    HW2 6009   1.665   1.768   1.974
 1704SOL     OW 6010   2.801   3.022   6.914
 1704SOL    HW1 6011   2.771   3.068   6.831
 1704SOL    HW2 6012   2.877   2.961   6.893
 1705SOL     OW 6013   5.662   3.219   1.237
 1705SOL    HW1 6014   5.720   3.249   1.313
 1705SOL    HW2 6015   5.569   3.206   1.270
 1706SOL     OW 6016   6.041   0.565   5.632
 1706SOL    HW1 6017   6.055   0.664   5.636
 1706SOL    HW2 6018   6.120   0.518   5.671
 1707SOL     OW 6019   2.843   1.288   2.180
 1707SOL    HW1 6020   2.920   1.347   2.154
 1707SOL    HW2 6021   2.855   1.198   2.138
 1708SOL     OW 6022   2.606   4.885   1.709
 1708SOL    HW1 6023   2.620   4.788   1.690
 1708SOL    HW2 6024   2.690   4.924   1.747
 1709SOL     OW 6025   5.979   5.239   2.543
 1709SOL    HW1 6026   5.941   5.146   2.545
 1709SOL    HW2 6027   6.027   5.253   2.456
 1710SOL     OW 6028   4.989   2.881   1.956
 1710SOL    HW1 6029   4.913   2.945   1.970
 1710SOL    HW2 6030   5.006   2.869   1.858
 1711SOL     OW 6031   4.013   5.380   0.164
 1711SOL    HW1 6032   3.946   5.415   0.099
 1711SOL    HW2 6033   4.044   5.455   0.224
 1712SOL     OW 6034   0.055   2.654   2.617
 1712SOL    HW1 6035   0.061   2.562   2.658
 1712SOL    HW2 6036   0.007   2.715   2.680
 1713SOL     OW 6037   2.698   1.426   2.678
 1713SOL    HW1 6038   2.706   1.521   2.646
 1713SOL    HW2 6039   2.726   1.364   2.605
 1714SOL     OW 6040   3.471   4.739   1.020
 1714SOL    HW1 6041   3.524   4.655   1.034
 1714SOL    HW2 6042   3.520   4.798   0.956
 1715SOL     OW 6043   1.453   5.591   0.632
 1715SOL    HW1 6044   1.522   5.543   0.578
 1715SOL    HW2 6045   1.489   5.610   0.723
 1716SOL     OW 6046   5.100   1.607   2.139
 1716SOL    HW1 6047   5.117   1.591   2.042
 1716SOL    HW2 6048   5.006   1.581   2.161
 1717SOL     OW 6049   3.804   6.799   4.164
 1717SOL    HW1 6050   3.746   6.875   4.134
 1717SOL    HW2 6051   3.801   6.793   4.264
 1718SOL     OW 6052   1.405   4.015   1.840
 1718SOL    HW1 6053   1.502   3.994   1.831
 1718SOL    HW2 6054   1.383   4.095   1.783
 1719SOL     OW 6055   1.459   5.002   3.325
 1719SOL    HW1 6056   1.471   4.949   3.241
 1719SOL    HW2 6057   1.547   5.039   3.355
 1720SOL     OW 6058   1.387   2.785   5.593
 1720SOL    HW1 6059   1.476   2.830   5.589
 1720SOL    HW2 6060   1.370   2.738   5.506
 1721SOL     OW 6061   2.028   2.220   0.013
 1721SOL    HW1 6062   2.012   2.128   0.049
 1721SOL    HW2 6063   1.949   2.278   0.035
 1722SOL     OW 6064   3.783   2.147   2.963
 1722SOL    HW1 6065   3.798   2.180   2.870
 1722SOL    HW2 6066   3.694   2.101   2.968
 1723SOL     OW 6067   6.627   5.402   1.290
 1723SOL    HW1 6068   6.531   5.430   1.298
 1723SOL    HW2 6069   6.653   5.352   1.372
 1724SOL     OW 6070   6.317   3.885   1.280
 1724SOL    HW1 6071   6.304   3.972   1.234
 1724SOL    HW2 6072   6.242   3.823   1.257
 1725SOL     OW 6073   1.863   6.605   4.331
 1725SOL    HW1 6074   1.938   6.563   4.280
 1725SOL    HW2 6075   1.776   6.576   4.292
 1726SOL     OW 6076   5.324   5.094   3.404
 1726SOL    HW1 6077   5.337   5.057   3.311
 1726SOL    HW2 6078   5.404   5.148   3.430
 1727SOL     OW 6079   2.894   3.661   3.840
 1727SOL    HW1 6080   2.839   3.708   3.909
 1727SOL    HW2 6081   2.887   3.562   3.854
 1728SOL     OW 6082   5.459   1.978   4.422
 1728SOL    HW1 6083   5.553   1.947   4.432
 1728SOL    HW2 6084   5.456   2.078   4.423
 1729SOL     OW 6085   1.699   3.306   2.876
 1729SOL    HW1 6086   1.620   3.262   2.919
 1729SOL    HW2 6087   1.782   3.257   2.900
 1730SOL     OW 6088   2.561   0.451   4.390
 1730SOL    HW1 6089   2.618   0.533   4.379
 1730SOL    HW2 6090   2.556   0.427   4.487
 1731SOL     OW 6091   6.354   5.075   2.906
 1731SOL    HW1 6092   6.282   5.036   2.850
 1731SOL    HW2 6093   6.326   5.165   2.939
 1732SOL     OW 6094   3.902   3.272   4.592
 1732SOL    HW1 6095   3.969   3.300   4.661
 1732SOL    HW2 6096   3.950   3.242   4.509
 1733SOL     OW 6097   1.113   2.042   6.838
 1733SOL    HW1 6098   1.032   2.042   6.780
 1733SOL    HW2 6099   1.132   2.136   6.869
 1734SOL     OW 6100   0.858   4.673   2.389
 1734SOL    HW1 6101   0.946   4.708   2.419
 1734SOL    HW2 6102   0.789   4.690   2.459
 1735SOL     OW 6103   3.522   5.505   5.732
 1735SOL    HW1 6104   3.433   5.468   5.757
 1735SOL    HW2 6105   3.526   5.518   5.633
 1736SOL     OW 6106   4.372   1.864   5.117
 1736SOL    HW1 6107   4.348   1.812   5.200
 1736SOL    HW2 6108   4.460   1.834   5.083
 1737SOL     OW 6109   2.094   0.459   0.270
 1737SOL    HW1 6110   2.067   0.550   0.303
 1737SOL    HW2 6111   2.107   0.398   0.348
 1738SOL     OW 6112   1.254   3.938   2.056
 1738SOL    HW1 6113   1.311   3.980   1.986
 1738SOL    HW2 6114   1.295   3.953   2.146
 1739SOL     OW 6115   4.582   6.101   2.872
 1739SOL    HW1 6116   4.523   6.164   2.922
 1739SOL    HW2 6117   4.572   6.118   2.774
 1740SOL     OW 6118   6.915   2.359   4.613
 1740SOL    HW1 6119   6.886   2.291   4.545
 1740SOL    HW2 6120   6.947   2.313   4.695
 1741SOL     OW 6121   1.672   2.752   4.576
 1741SOL    HW1 6122   1.666   2.807   4.492
 1741SOL    HW2 6123   1.767   2.747   4.606
 1742SOL     OW 6124   5.777   0.182   6.520
 1742SOL    HW1 6125   5.731   0.135   6.444
 1742SOL    HW2 6126   5.856   0.129   6.549
 1743SOL     OW 6127   0.902   1.791   2.258
 1743SOL    HW1 6128   0.841   1.857   2.215
 1743SOL    HW2 6129   0.877   1.780   2.354
 1744SOL     OW 6130   2.773   2.170   5.350
 1744SOL    HW1 6131   2.800   2.236   5.280
 1744SOL    HW2 6132   2.847   2.161   5.416
 1745SOL     OW 6133   5.812   0.089   1.152
 1745SOL    HW1 6134   5.892   0.047   1.194
 1745SOL    HW2 6135   5.750   0.122   1.223
 1746SOL     OW 6136   2.733   5.127   2.298
 1746SOL    HW1 6137   2.659   5.080   2.251
 1746SOL    HW2 6138   2.784   5.183   2.233
 1747SOL     OW 6139   2.962   6.833   1.923
 1747SOL    HW1 6140   3.015   6.752   1.947
 1747SOL    HW2 6141   2.979   6.857   1.827
 1748SOL     OW 6142   0.008   1.364   3.632
 1748SOL    HW1 6143   6.996   1.373   3.537
 1748SOL    HW2 6144   6.990   1.281   3.672
 1749SOL     OW 6145   6.302   5.636   2.607
 1749SOL    HW1 6146   6.296   5.566   2.679
 1749SOL    HW2 6147   6.307   5.591   2.518
 1750SOL     OW 6148   2.627   2.142   0.726
 1750SOL    HW1 6149   2.693   2.102   0.662
 1750SOL    HW2 6150   2.607   2.236   0.698
 1751SOL     OW 6151   6.602   4.431   4.460
 1751SOL    HW1 6152   6.551   4.516   4.471
 1751SOL    HW2 6153   6.539   4.353   4.461
 1752SOL     OW 6154   5.814   0.351   3.365
 1752SOL    HW1 6155   5.731   0.368   3.418
 1752SOL    HW2 6156   5.890   0.403   3.404
 1753SOL     OW 6157   0.022   1.349   0.866
 1753SOL    HW1 6158   0.108   1.362   0.915
 1753SOL    HW2 6159   6.964   1.381   0.922
 1754SOL     OW 6160   1.903   4.505   3.894
 1754SOL    HW1 6161   1.863   4.469   3.979
 1754SOL    HW2 6162   1.898   4.605   3.895
 1755SOL     OW 6163   5.291   6.981   5.224
 1755SOL    HW1 6164   5.245   0.026   5.286
 1755SOL    HW2 6165   5.268   6.887   5.249
 1756SOL     OW 6166   4.343   5.053   1.343
 1756SOL    HW1 6167   4.440   5.049   1.366
 1756SOL    HW2 6168   4.328   5.011   1.253
 1757SOL     OW 6169   3.276   5.012   5.349
 1757SOL    HW1 6170   3.180   5.022   5.325
 1757SOL    HW2 6171   3.308   4.921   5.322
 1758SOL     OW 6172   0.198   6.455   4.238
 1758SOL    HW1 6173   0.212   6.371   4.290
 1758SOL    HW2 6174   0.280   6.512   4.244
 1759SOL     OW 6175   1.782   5.311   5.894
 1759SOL    HW1 6176   1.866   5.333   5.945
 1759SOL    HW2 6177   1.790   5.218   5.857
 1760SOL     OW 6178   5.823   1.578   4.356
 1760SOL    HW1 6179   5.764   1.528   4.293
 1760SOL    HW2 6180   5.806   1.546   4.450
 1761SOL     OW 6181   4.803   2.627   3.949
 1761SOL    HW1 6182   4.813   2.672   4.037
 1761SOL    HW2 6183   4.879   2.563   3.935
 1762SOL     OW 6184   1.090   1.370   5.079
 1762SOL    HW1 6185   1.015   1.396   5.019
 1762SOL    HW2 6186   1.177   1.393   5.036
 1763SOL     OW 6187   1.308   5.206   4.311
 1763SOL    HW1 6188   1.255   5.289   4.300
 1763SOL    HW2 6189   1.406   5.226   4.300
 1764SOL     OW 6190   0.408   5.157   3.386
 1764SOL    HW1 6191   0.463   5.077   3.411
 1764SOL    HW2 6192   0.347   5.133   3.311
 1765SOL     OW 6193   5.324   4.211   2.258
 1765SOL    HW1 6194   5.336   4.300   2.214
 1765SOL    HW2 6195   5.227   4.197   2.277
 1766SOL     OW 6196   3.898   5.158   3.206
 1766SOL    HW1 6197   3.930   5.064   3.209
 1766SOL    HW2 6198   3.926   5.200   3.119
 1767SOL     OW 6199   2.268   4.404   1.846
 1767SOL    HW1 6200   2.261   4.308   1.819
 1767SOL    HW2 6201   2.299   4.459   1.768
 1768SOL     OW 6202   3.451   5.151   2.639
 1768SOL    HW1 6203   3.406   5.152   2.550
 1768SOL    HW2 6204   3.452   5.057   2.674
 1769SOL     OW 6205   5.176   0.319   0.585
 1769SOL    HW1 6206   5.143   0.337   0.493
 1769SOL    HW2 6207   5.151   0.396   0.645
 1770SOL     OW 6208   2.165   3.712   0.270
 1770SOL    HW1 6209   2.202   3.641   0.211
 1770SOL    HW2 6210   2.085   3.753   0.226
 1771SOL     OW 6211   1.651   2.763   6.315
 1771SOL    HW1 6212   1.721   2.694   6.296
 1771SOL    HW2 6213   1.655   2.787   6.412
 1772SOL     OW 6214   2.267   5.274   1.767
 1772SOL    HW1 6215   2.312   5.190   1.735
 1772SOL    HW2 6216   2.245   5.331   1.688
 1773SOL     OW 6217   2.006   6.100   5.019
 1773SOL    HW1 6218   1.928   6.069   5.074
 1773SOL    HW2 6219   2.065   6.023   4.998
 1774SOL     OW 6220   5.598   4.749   1.385
 1774SOL    HW1 6221   5.560   4.714   1.470
 1774SOL    HW2 6222   5.524   4.785   1.327
 1775SOL     OW 6223   1.724   6.588   1.218
 1775SOL    HW1 6224   1.804   6.611   1.273
 1775SOL    HW2 6225   1.752   6.562   1.126
 1776SOL     OW 6226   4.493   3.180   5.737
 1776SOL    HW1 6227   4.463   3.111   5.803
 1776SOL    HW2 6228   4.415   3.238   5.712
 1777SOL     OW 6229   4.824   4.701   6.199
 1777SOL    HW1 6230   4.878   4.674   6.280
 1777SOL    HW2 6231   4.737   4.654   6.200
 1778SOL     OW 6232   6.924   0.405   3.022
 1778SOL    HW1 6233   7.007   0.372   2.977
 1778SOL    HW2 6234   6.876   0.468   2.961
 1779SOL     OW 6235   0.055   6.560   4.968
 1779SOL    HW1 6236   0.120   6.575   4.894
 1779SOL    HW2 6237   6.998   6.502   4.936
 1780SOL     OW 6238   2.733   6.731   5.171
 1780SOL    HW1 6239   2.706   6.748   5.076
 1780SOL    HW2 6240   2.703   6.640   5.198
 1781SOL     OW 6241   3.851   1.188   5.499
 1781SOL    HW1 6242   3.811   1.139   5.422
 1781SOL    HW2 6243   3.785   1.255   5.534
 1782SOL     OW 6244   5.712   0.236   2.591
 1782SOL    HW1 6245   5.737   0.306   2.524
 1782SOL    HW2 6246   5.789   0.221   2.653
 1783SOL     OW 6247   1.156   3.296   6.719
 1783SOL    HW1 6248   1.119   3.371   6.773
 1783SOL    HW2 6249   1.167   3.326   6.624
 1784SOL     OW 6250   1.856   5.922   1.548
 1784SOL    HW1 6251   1.878   5.936   1.644
 1784SOL    HW2 6252   1.800   5.998   1.515
 1785SOL     OW 6253   2.260   4.998   5.501
 1785SOL    HW1 6254   2.311   5.048   5.572
 1785SOL    HW2 6255   2.163   4.999   5.524
 1786SOL     OW 6256   0.583   5.531   2.480
 1786SOL    HW1 6257   0.652   5.522   2.551
 1786SOL    HW2 6258   0.551   5.625   2.477
 1787SOL     OW 6259   2.581   1.540   6.421
 1787SOL    HW1 6260   2.486   1.564   6.444
 1787SOL    HW2 6261   2.588   1.522   6.323
 1788SOL     OW 6262   3.707   4.101   0.440
 1788SOL    HW1 6263   3.728   4.196   0.461
 1788SOL    HW2 6264   3.697   4.049   0.525
 1789SOL     OW 6265   6.219   3.045   3.247
 1789SOL    HW1 6266   6.126   3.068   3.219
 1789SOL    HW2 6267   6.274   3.128   3.251
 1790SOL     OW 6268   2.540   2.581   4.624
 1790SOL    HW1 6269   2.464   2.547   4.569
 1790SOL    HW2 6270   2.620   2.597   4.565
 1791SOL     OW 6271   6.303   0.434   3.297
 1791SOL    HW1 6272   6.322   0.350   3.348
 1791SOL    HW2 6273   6.388   0.485   3.283
 1792SOL     OW 6274   0.048   3.594   5.802
 1792SOL    HW1 6275   0.144   3.599   5.774
 1792SOL    HW2 6276   0.040   3.622   5.898
 1793SOL     OW 6277   0.602   2.067   4.970
 1793SOL    HW1 6278   0.648   2.101   4.887
 1793SOL    HW2 6279   0.503   2.071   4.956
 1794SOL     OW 6280   6.782   2.105   6.208
 1794SOL    HW1 6281   6.789   2.018   6.258
 1794SOL    HW2 6282   6.749   2.176   6.270
 1795SOL     OW 6283   6.045   3.741   0.819
 1795SOL    HW1 6284   5.994   3.781   0.743
 1795SOL    HW2 6285   6.134   3.787   0.827
 1796SOL     OW 6286   6.452   6.793   6.359
 1796SOL    HW1 6287   6.544   6.759   6.340
 1796SOL    HW2 6288   6.448   6.828   6.453
 1797SOL     OW 6289   2.934   6.203   5.753
 1797SOL    HW1 6290   3.030   6.187   5.776
 1797SOL    HW2 6291   2.912   6.300   5.763
 1798SOL     OW 6292   2.561   4.360   6.992
 1798SOL    HW1 6293   2.532   4.358   6.896
 1798SOL    HW2 6294   2.487   4.325   0.031
 1799SOL     OW 6295   3.854   1.680   1.567
 1799SOL    HW1 6296   3.944   1.639   1.553
 1799SOL    HW2 6297   3.866   1.774   1.600
 1800SOL     OW 6298   5.659   2.508   5.723
 1800SOL    HW1 6299   5.696   2.463   5.804
 1800SOL    HW2 6300   5.560   2.495   5.720
 1801SOL     OW 6301   0.748   1.768   2.490
 1801SOL    HW1 6302   0.745   1.737   2.585
 1801SOL    HW2 6303   0.712   1.861   2.484
 1802SOL     OW 6304   6.148   4.553   4.983
 1802SOL    HW1 6305   6.184   4.611   5.056
 1802SOL    HW2 6306   6.117   4.612   4.907
 1803SOL     OW 6307   6.114   6.443   3.729
 1803SOL    HW1 6308   6.197   6.441   3.673
 1803SOL    HW2 6309   6.039   6.398   3.680
 1804SOL     OW 6310   1.403   2.995   6.459
 1804SOL    HW1 6311   1.362   3.055   6.527
 1804SOL    HW2 6312   1.336   2.927   6.428
 1805SOL     OW 6313   6.361   5.010   5.810
 1805SOL    HW1 6314   6.349   4.911   5.811
 1805SOL    HW2 6315   6.288   5.053   5.863
 1806SOL     OW 6316   0.131   1.129   1.994
 1806SOL    HW1 6317   0.119   1.228   2.000
 1806SOL    HW2 6318   0.047   1.087   1.959
 1807SOL     OW 6319   6.476   2.948   2.270
 1807SOL    HW1 6320   6.523   2.941   2.183
 1807SOL    HW2 6321   6.508   2.877   2.332
 1808SOL     OW 6322   6.346   1.103   0.060
 1808SOL    HW1 6323   6.357   1.065   6.986
 1808SOL    HW2 6324   6.365   1.201   0.058
 1809SOL     OW 6325   4.350   0.377   5.146
 1809SOL    HW1 6326   4.251   0.391   5.143
 1809SOL    HW2 6327   4.374   0.299   5.088
 1810SOL     OW 6328   1.365   1.127   4.248
 1810SOL    HW1 6329   1.391   1.031   4.253
 1810SOL    HW2 6330   1.395   1.165   4.160
 1811SOL     OW 6331   3.325   5.494   1.449
 1811SOL    HW1 6332   3.322   5.403   1.490
 1811SOL    HW2 6333   3.332   5.563   1.522
 1812SOL     OW 6334   3.846   0.733   6.424
 1812SOL    HW1 6335   3.933   0.700   6.460
 1812SOL    HW2 6336   3.863   0.806   6.358
 1813SOL     OW 6337   5.545   3.823   1.593
 1813SOL    HW1 6338   5.628   3.775   1.563
 1813SOL    HW2 6339   5.517   3.788   1.682
 1814SOL     OW 6340   6.496   5.700   1.649
 1814SOL    HW1 6341   6.596   5.703   1.642
 1814SOL    HW2 6342   6.456   5.730   1.563
 1815SOL     OW 6343   6.372   5.509   1.277
 1815SOL    HW1 6344   6.328   5.421   1.293
 1815SOL    HW2 6345   6.423   5.505   1.190
 1816SOL     OW 6346   4.037   4.899   4.391
 1816SOL    HW1 6347   4.031   4.833   4.316
 1816SOL    HW2 6348   3.953   4.896   4.446
 1817SOL     OW 6349   6.100   2.942   4.380
 1817SOL    HW1 6350   6.186   2.904   4.347
 1817SOL    HW2 6351   6.036   2.868   4.401
 1818SOL     OW 6352   2.434   2.419   0.368
 1818SOL    HW1 6353   2.414   2.422   0.270
 1818SOL    HW2 6354   2.375   2.351   0.411
 1819SOL     OW 6355   0.740   3.482   0.686
 1819SOL    HW1 6356   0.680   3.532   0.749
 1819SOL    HW2 6357   0.729   3.383   0.701
 1820SOL     OW 6358   3.648   6.352   4.794
 1820SOL    HW1 6359   3.673   6.438   4.749
 1820SOL    HW2 6360   3.731   6.302   4.819
 1821SOL     OW 6361   4.298   0.989   2.541
 1821SOL    HW1 6362   4.271   0.918   2.475
 1821SOL    HW2 6363   4.326   0.945   2.626
 1822SOL     OW 6364   2.543   4.543   5.089
 1822SOL    HW1 6365   2.619   4.574   5.033
 1822SOL    HW2 6366   2.563   4.452   5.126
 1823SOL     OW 6367   4.658   0.065   4.416
 1823SOL    HW1 6368   4.628   7.013   4.480
 1823SOL    HW2 6369   4.706   0.022   4.340
 1824SOL     OW 6370   4.470   2.869   1.689
 1824SOL    HW1 6371   4.506   2.950   1.736
 1824SOL    HW2 6372   4.370   2.870   1.694
 1825SOL     OW 6373   1.202   3.771   0.363
 1825SOL    HW1 6374   1.295   3.803   0.381
 1825SOL    HW2 6375   1.205   3.686   0.311
 1826SOL     OW 6376   4.062   2.980   6.835
 1826SOL    HW1 6377   3.970   2.948   6.811
 1826SOL    HW2 6378   4.076   2.969   6.933
 1827SOL     OW 6379   4.943   4.557   0.786
 1827SOL    HW1 6380   5.023   4.601   0.827
 1827SOL    HW2 6381   4.911   4.484   0.846
 1828SOL     OW 6382   2.853   5.739   5.156
 1828SOL    HW1 6383   2.830   5.687   5.239
 1828SOL    HW2 6384   2.833   5.836   5.171
 1829SOL     OW 6385   2.098   6.432   2.640
 1829SOL    HW1 6386   2.021   6.369   2.631
 1829SOL    HW2 6387   2.139   6.422   2.731
 1830SOL     OW 6388   4.566   1.436   0.101
 1830SOL    HW1 6389   4.495   1.377   0.139
 1830SOL    HW2 6390   4.593   1.402   0.011
 1831SOL     OW 6391   3.605   4.080   6.354
 1831SOL    HW1 6392   3.575   4.064   6.259
 1831SOL    HW2 6393   3.560   4.013   6.414
 1832SOL     OW 6394   2.022   2.003   5.715
 1832SOL    HW1 6395   2.032   2.021   5.813
 1832SOL    HW2 6396   1.941   2.050   5.681
 1833SOL     OW 6397   5.600   1.582   0.376
 1833SOL    HW1 6398   5.686   1.566   0.328
 1833SOL    HW2 6399   5.524   1.545   0.322
 1834SOL     OW 6400   1.761   3.544   6.608
 1834SOL    HW1 6401   1.685   3.587   6.559
 1834SOL    HW2 6402   1.743   3.446   6.617
 1835SOL     OW 6403   6.118   0.193   6.613
 1835SOL    HW1 6404   6.207   0.239   6.623
 1835SOL    HW2 6405   6.045   0.261   6.615
 1836SOL     OW 6406   5.798   1.046   4.596
 1836SOL    HW1 6407   5.746   1.099   4.530
 1836SOL    HW2 6408   5.886   1.020   4.556
 1837SOL     OW 6409   1.433   1.704   1.168
 1837SOL    HW1 6410   1.487   1.620   1.160
 1837SOL    HW2 6411   1.419   1.726   1.265
 1838SOL     OW 6412   4.789   0.160   0.357
 1838SOL    HW1 6413   4.708   0.102   0.364
 1838SOL    HW2 6414   4.871   0.106   0.374
 1839SOL     OW 6415   0.075   2.206   6.773
 1839SOL    HW1 6416   0.088   2.269   6.696
 1839SOL    HW2 6417   0.164   2.179   6.809
 1840SOL     OW 6418   2.096   6.783   5.496
 1840SOL    HW1 6419   2.106   6.774   5.397
 1840SOL    HW2 6420   2.091   6.692   5.538
 1841SOL     OW 6421   2.431   0.035   1.872
 1841SOL    HW1 6422   2.356   6.988   1.888
 1841SOL    HW2 6423   2.435   0.057   1.775
 1842SOL     OW 6424   0.381   4.761   1.511
 1842SOL    HW1 6425   0.350   4.851   1.540
 1842SOL    HW2 6426   0.323   4.727   1.437
 1843SOL     OW 6427   3.780   0.988   6.545
 1843SOL    HW1 6428   3.771   0.888   6.542
 1843SOL    HW2 6429   3.876   1.013   6.554
 1844SOL     OW 6430   5.471   3.414   1.416
 1844SOL    HW1 6431   5.522   3.436   1.499
 1844SOL    HW2 6432   5.459   3.315   1.408
 1845SOL     OW 6433   0.518   2.729   4.617
 1845SOL    HW1 6434   0.472   2.676   4.545
 1845SOL    HW2 6435   0.556   2.812   4.577
 1846SOL     OW 6436   3.743   1.178   2.391
 1846SOL    HW1 6437   3.734   1.268   2.433
 1846SOL    HW2 6438   3.786   1.188   2.301
 1847SOL     OW 6439   3.023   5.516   6.896
 1847SOL    HW1 6440   3.020   5.607   6.937
 1847SOL    HW2 6441   2.982   5.450   6.959
 1848SOL     OW 6442   3.077   5.854   4.436
 1848SOL    HW1 6443   3.109   5.762   4.459
 1848SOL    HW2 6444   3.049   5.857   4.340
 1849SOL     OW 6445   5.123   2.694   2.085
 1849SOL    HW1 6446   5.199   2.739   2.133
 1849SOL    HW2 6447   5.067   2.762   2.039
 1850SOL     OW 6448   4.783   0.963   0.435
 1850SOL    HW1 6449   4.799   0.971   0.534
 1850SOL    HW2 6450   4.868   0.985   0.387
 1851SOL     OW 6451   1.729   4.853   3.588
 1851SOL    HW1 6452   1.807   4.805   3.547
 1851SOL    HW2 6453   1.658   4.786   3.610
 1852SOL     OW 6454   0.007   0.609   4.543
 1852SOL    HW1 6455   0.069   0.687   4.542
 1852SOL    HW2 6456   6.943   0.633   4.595
 1853SOL     OW 6457   1.168   1.968   5.032
 1853SOL    HW1 6458   1.264   1.949   5.017
 1853SOL    HW2 6459   1.113   1.888   5.007
 1854SOL     OW 6460   1.025   6.979   3.722
 1854SOL    HW1 6461   1.111   6.988   3.670
 1854SOL    HW2 6462   1.030   0.018   3.804
 1855SOL     OW 6463   6.559   1.328   5.009
 1855SOL    HW1 6464   6.653   1.360   5.003
 1855SOL    HW2 6465   6.498   1.405   5.028
 1856SOL     OW 6466   4.275   3.941   6.845
 1856SOL    HW1 6467   4.269   4.038   6.822
 1856SOL    HW2 6468   4.186   3.909   6.877
 1857SOL     OW 6469   4.860   0.648   6.732
 1857SOL    HW1 6470   4.765   0.627   6.706
 1857SOL    HW2 6471   4.910   0.681   6.652
 1858SOL     OW 6472   4.475   2.353   4.639
 1858SOL    HW1 6473   4.411   2.331   4.712
 1858SOL    HW2 6474   4.439   2.318   4.552
 1859SOL     OW 6475   6.198   6.010   3.286
 1859SOL    HW1 6476   6.140   6.040   3.210
 1859SOL    HW2 6477   6.167   5.920   3.317
 1860SOL     OW 6478   1.885   0.002   0.601
 1860SOL    HW1 6479   1.864   6.935   0.647
 1860SOL    HW2 6480   1.842   0.078   0.651
 1861SOL     OW 6481   6.485   0.049   5.157
 1861SOL    HW1 6482   6.579   0.080   5.143
 1861SOL    HW2 6483   6.428   0.081   5.081
 1862SOL     OW 6484   4.497   4.752   4.765
 1862SOL    HW1 6485   4.488   4.665   4.813
 1862SOL    HW2 6486   4.409   4.778   4.726
 1863SOL     OW 6487   0.163   0.806   1.020
 1863SOL    HW1 6488   0.071   0.833   0.993
 1863SOL    HW2 6489   0.206   0.880   1.072
 1864SOL     OW 6490   2.924   5.548   2.581
 1864SOL    HW1 6491   2.851   5.481   2.568
 1864SOL    HW2 6492   2.911   5.595   2.668
 1865SOL     OW 6493   6.024   2.595   6.075
 1865SOL    HW1 6494   6.010   2.496   6.064
 1865SOL    HW2 6495   5.935   2.641   6.077
 1866SOL     OW 6496   6.977   4.322   4.959
 1866SOL    HW1 6497   6.956   4.292   5.052
 1866SOL    HW2 6498   6.958   4.420   4.951
 1867SOL     OW 6499   1.421   0.367   0.558
 1867SOL    HW1 6500   1.502   0.346   0.612
 1867SOL    HW2 6501   1.423   0.316   0.472
 1868SOL     OW 6502   6.029   3.481   5.979
 1868SOL    HW1 6503   5.937   3.465   6.015
 1868SOL    HW2 6504   6.066   3.565   6.018
 1869SOL     OW 6505   4.836   0.969   5.040
 1869SOL    HW1 6506   4.881   1.026   4.971
 1869SOL    HW2 6507   4.888   0.974   5.126
 1870SOL     OW 6508   5.942   1.381   6.006
 1870SOL    HW1 6509   5.874   1.362   6.077
 1870SOL    HW2 6510   5.933   1.314   5.932
 1871SOL     OW 6511   2.816   4.368   6.913
 1871SOL    HW1 6512   2.824   4.450   6.858
 1871SOL    HW2 6513   2.727   4.368   6.960
 1872SOL     OW 6514   2.064   3.840   6.637
 1872SOL    HW1 6515   2.038   3.933   6.664
 1872SOL    HW2 6516   2.045   3.827   6.540
 1873SOL     OW 6517   5.944   0.886   1.970
 1873SOL    HW1 6518   5.860   0.864   1.921
 1873SOL    HW2 6519   5.927   0.961   2.035
 1874SOL     OW 6520   2.279   5.366   6.739
 1874SOL    HW1 6521   2.249   5.351   6.645
 1874SOL    HW2 6522   2.345   5.294   6.765
 1875SOL     OW 6523   1.149   6.284   2.171
 1875SOL    HW1 6524   1.244   6.269   2.198
 1875SOL    HW2 6525   1.103   6.196   2.160
 1876SOL     OW 6526   1.196   4.871   5.593
 1876SOL    HW1 6527   1.172   4.956   5.641
 1876SOL    HW2 6528   1.295   4.856   5.599
 1877SOL     OW 6529   0.554   1.192   3.540
 1877SOL    HW1 6530   0.623   1.252   3.583
 1877SOL    HW2 6531   0.504   1.244   3.471
 1878SOL     OW 6532   5.673   3.747   3.984
 1878SOL    HW1 6533   5.626   3.693   4.054
 1878SOL    HW2 6534   5.646   3.714   3.893
 1879SOL     OW 6535   3.918   6.378   5.076
 1879SOL    HW1 6536   3.841   6.440   5.063
 1879SOL    HW2 6537   3.887   6.284   5.065
 1880SOL     OW 6538   2.052   3.902   4.344
 1880SOL    HW1 6539   2.001   3.828   4.299
 1880SOL    HW2 6540   2.061   3.979   4.281
 1881SOL     OW 6541   3.099   2.084   2.938
 1881SOL    HW1 6542   3.133   1.994   2.964
 1881SOL    HW2 6543   3.096   2.092   2.839
 1882SOL     OW 6544   4.274   0.186   6.801
 1882SOL    HW1 6545   4.356   0.233   6.832
 1882SOL    HW2 6546   4.282   0.088   6.818
 1883SOL     OW 6547   1.958   3.931   2.803
 1883SOL    HW1 6548   1.875   3.985   2.816
 1883SOL    HW2 6549   1.969   3.911   2.705
 1884SOL     OW 6550   4.926   0.727   0.430
 1884SOL    HW1 6551   4.999   0.760   0.370
 1884SOL    HW2 6552   4.860   0.800   0.445
 1885SOL     OW 6553   0.096   1.883   1.271
 1885SOL    HW1 6554   0.113   1.801   1.325
 1885SOL    HW2 6555   0.032   1.863   1.197
 1886SOL     OW 6556   3.760   2.931   4.805
 1886SOL    HW1 6557   3.803   2.842   4.813
 1886SOL    HW2 6558   3.663   2.924   4.831
 1887SOL     OW 6559   0.498   6.078   5.669
 1887SOL    HW1 6560   0.442   6.087   5.751
 1887SOL    HW2 6561   0.550   6.162   5.655
 1888SOL     OW 6562   2.309   1.538   5.509
 1888SOL    HW1 6563   2.322   1.440   5.498
 1888SOL    HW2 6564   2.215   1.562   5.485
 1889SOL     OW 6565   3.583   3.731   6.872
 1889SOL    HW1 6566   3.661   3.757   6.815
 1889SOL    HW2 6567   3.615   3.708   6.964
 1890SOL     OW 6568   5.774   6.675   6.348
 1890SOL    HW1 6569   5.760   6.695   6.445
 1890SOL    HW2 6570   5.811   6.756   6.303
 1891SOL     OW 6571   4.961   3.124   0.050
 1891SOL    HW1 6572   4.963   3.108   0.149
 1891SOL    HW2 6573   5.051   3.104   0.012
 1892SOL     OW 6574   3.617   0.788   3.087
 1892SOL    HW1 6575   3.590   0.883   3.078
 1892SOL    HW2 6576   3.625   0.764   3.183
 1893SOL     OW 6577   2.898   2.388   6.844
 1893SOL    HW1 6578   2.979   2.446   6.844
 1893SOL    HW2 6579   2.826   2.432   6.898
 1894SOL     OW 6580   5.424   3.026   1.058
 1894SOL    HW1 6581   5.410   3.124   1.050
 1894SOL    HW2 6582   5.517   3.007   1.086
 1895SOL     OW 6583   3.958   6.480   2.700
 1895SOL    HW1 6584   3.944   6.495   2.798
 1895SOL    HW2 6585   3.898   6.542   2.649
 1896SOL     OW 6586   0.196   1.807   4.178
 1896SOL    HW1 6587   0.167   1.760   4.095
 1896SOL    HW2 6588   0.285   1.773   4.207
 1897SOL     OW 6589   5.290   5.692   3.668
 1897SOL    HW1 6590   5.265   5.652   3.580
 1897SOL    HW2 6591   5.240   5.648   3.741
 1898SOL     OW 6592   5.507   5.870   0.454
 1898SOL    HW1 6593   5.508   5.799   0.384
 1898SOL    HW2 6594   5.477   5.956   0.414
 1899SOL     OW 6595   1.927   3.269   4.029
 1899SOL    HW1 6596   1.975   3.199   4.081
 1899SOL    HW2 6597   1.910   3.237   3.936
 1900SOL     OW 6598   2.430   5.838   1.452
 1900SOL    HW1 6599   2.471   5.929   1.459
 1900SOL    HW2 6600   2.331   5.845   1.459
 1901SOL     OW 6601   0.329   1.832   6.443
 1901SOL    HW1 6602   0.246   1.867   6.486
 1901SOL    HW2 6603   0.304   1.760   6.379
 1902SOL     OW 6604   1.598   2.789   4.899
 1902SOL    HW1 6605   1.638   2.846   4.826
 1902SOL    HW2 6606   1.606   2.692   4.873
 1903SOL     OW 6607   6.961   6.147   4.245
 1903SOL    HW1 6608   6.867   6.156   4.213
 1903SOL    HW2 6609   0.005   6.175   4.173
 1904SOL     OW 6610   0.840   1.157   3.990
 1904SOL    HW1 6611   0.923   1.118   4.030
 1904SOL    HW2 6612   0.760   1.108   4.025
 1905SOL     OW 6613   5.647   2.854   6.374
 1905SOL    HW1 6614   5.734   2.903   6.368
 1905SOL    HW2 6615   5.651   2.788   6.449
 1906SOL     OW 6616   2.619   5.556   5.781
 1906SOL    HW1 6617   2.634   5.595   5.872
 1906SOL    HW2 6618   2.521   5.539   5.768
 1907SOL     OW 6619   4.464   0.673   3.128
 1907SOL    HW1 6620   4.527   0.717   3.191
 1907SOL    HW2 6621   4.504   0.672   3.036
 1908SOL     OW 6622   5.581   4.330   0.782
 1908SOL    HW1 6623   5.496   4.318   0.731
 1908SOL    HW2 6624   5.591   4.255   0.847
 1909SOL     OW 6625   4.809   5.358   4.076
 1909SOL    HW1 6626   4.780   5.423   4.005
 1909SOL    HW2 6627   4.737   5.351   4.145
 1910SOL     OW 6628   5.416   3.641   4.109
 1910SOL    HW1 6629   5.396   3.667   4.015
 1910SOL    HW2 6630   5.391   3.545   4.124
 1911SOL     OW 6631   0.661   2.502   5.886
 1911SOL    HW1 6632   0.670   2.412   5.928
 1911SOL    HW2 6633   0.584   2.551   5.927
 1912SOL     OW 6634   3.590   0.512   2.419
 1912SOL    HW1 6635   3.639   0.445   2.364
 1912SOL    HW2 6636   3.613   0.605   2.389
 1913SOL     OW 6637   3.024   3.978   6.937
 1913SOL    HW1 6638   2.947   3.950   6.879
 1913SOL    HW2 6639   3.015   4.074   6.961
 1914SOL     OW 6640   4.459   1.461   5.287
 1914SOL    HW1 6641   4.526   1.530   5.315
 1914SOL    HW2 6642   4.441   1.470   5.189
 1915SOL     OW 6643   2.693   6.462   5.294
 1915SOL    HW1 6644   2.718   6.420   5.381
 1915SOL    HW2 6645   2.695   6.392   5.222
 1916SOL     OW 6646   3.878   6.583   2.999
 1916SOL    HW1 6647   3.807   6.636   2.952
 1916SOL    HW2 6648   3.958   6.640   3.014
 1917SOL     OW 6649   3.485   4.029   3.238
 1917SOL    HW1 6650   3.462   4.054   3.332
 1917SOL    HW2 6651   3.584   4.034   3.226
 1918SOL     OW 6652   0.997   6.566   6.238
 1918SOL    HW1 6653   0.949   6.638   6.287
 1918SOL    HW2 6654   1.072   6.531   6.294
 1919SOL     OW 6655   5.431   0.921   1.713
 1919SOL    HW1 6656   5.499   0.991   1.736
 1919SOL    HW2 6657   5.471   0.831   1.730
 1920SOL     OW 6658   6.074   6.645   4.274
 1920SOL    HW1 6659   6.161   6.607   4.307
 1920SOL    HW2 6660   6.004   6.633   4.344
 1921SOL     OW 6661   2.298   6.654   0.246
 1921SOL    HW1 6662   2.381   6.639   0.193
 1921SOL    HW2 6663   2.272   6.570   0.293
 1922SOL     OW 6664   3.366   4.756   6.783
 1922SOL    HW1 6665   3.267   4.767   6.792
 1922SOL    HW2 6666   3.389   4.734   6.688
 1923SOL     OW 6667   1.505   3.013   1.477
 1923SOL    HW1 6668   1.538   2.923   1.505
 1923SOL    HW2 6669   1.487   3.014   1.379
 1924SOL     OW 6670   0.905   4.014   1.751
 1924SOL    HW1 6671   0.890   3.963   1.667
 1924SOL    HW2 6672   0.930   3.952   1.825
 1925SOL     OW 6673   2.889   4.971   0.177
 1925SOL    HW1 6674   2.882   5.062   0.216
 1925SOL    HW2 6675   2.916   4.977   0.081
 1926SOL     OW 6676   0.244   0.260   2.997
 1926SOL    HW1 6677   0.307   0.289   2.925
 1926SOL    HW2 6678   0.195   0.178   2.968
 1927SOL     OW 6679   5.358   3.594   1.716
 1927SOL    HW1 6680   5.338   3.499   1.742
 1927SOL    HW2 6681   5.283   3.653   1.747
 1928SOL     OW 6682   0.302   5.158   5.017
 1928SOL    HW1 6683   0.329   5.164   5.113
 1928SOL    HW2 6684   0.290   5.251   4.981
 1929SOL     OW 6685   1.770   4.641   3.159
 1929SOL    HW1 6686   1.851   4.700   3.164
 1929SOL    HW2 6687   1.754   4.599   3.248
 1930SOL     OW 6688   6.613   5.950   6.305
 1930SOL    HW1 6689   6.669   5.867   6.303
 1930SOL    HW2 6690   6.560   5.956   6.221
 1931SOL     OW 6691   2.359   2.691   3.265
 1931SOL    HW1 6692   2.342   2.742   3.349
 1931SOL    HW2 6693   2.424   2.741   3.208
 1932SOL     OW 6694   5.874   3.211   2.461
 1932SOL    HW1 6695   5.778   3.239   2.470
 1932SOL    HW2 6696   5.923   3.232   2.546
 1933SOL     OW 6697   2.322   5.222   0.335
 1933SOL    HW1 6698   2.236   5.272   0.350
 1933SOL    HW2 6699   2.389   5.249   0.404
 1934SOL     OW 6700   0.186   6.546   2.593
 1934SOL    HW1 6701   0.258   6.521   2.658
 1934SOL    HW2 6702   0.191   6.486   2.513
 1935SOL     OW 6703   0.922   1.514   2.170
 1935SOL    HW1 6704   0.970   1.454   2.234
 1935SOL    HW2 6705   0.914   1.606   2.209
 1936SOL     OW 6706   0.353   5.968   4.851
 1936SOL    HW1 6707   0.329   5.975   4.948
 1936SOL    HW2 6708   0.295   5.899   4.807
 1937SOL     OW 6709   4.898   2.151   3.327
 1937SOL    HW1 6710   4.833   2.076   3.317
 1937SOL    HW2 6711   4.886   2.194   3.416
 1938SOL     OW 6712   4.523   0.242   3.622
 1938SOL    HW1 6713   4.485   0.328   3.656
 1938SOL    HW2 6714   4.486   0.223   3.531
 1939SOL     OW 6715   2.622   0.916   4.196
 1939SOL    HW1 6716   2.690   0.981   4.230
 1939SOL    HW2 6717   2.548   0.907   4.263
 1940SOL     OW 6718   6.788   0.322   6.700
 1940SOL    HW1 6719   6.804   0.354   6.793
 1940SOL    HW2 6720   6.862   0.354   6.641
 1941SOL     OW 6721   4.799   4.934   2.510
 1941SOL    HW1 6722   4.878   4.925   2.449
 1941SOL    HW2 6723   4.825   4.906   2.602
 1942SOL     OW 6724   7.017   3.472   2.718
 1942SOL    HW1 6725   6.941   3.412   2.742
 1942SOL    HW2 6726   0.065   3.473   2.792
 1943SOL     OW 6727   3.397   5.364   3.476
 1943SOL    HW1 6728   3.398   5.413   3.388
 1943SOL    HW2 6729   3.343   5.280   3.466
 1944SOL     OW 6730   6.580   6.309   1.684
 1944SOL    HW1 6731   6.637   6.255   1.745
 1944SOL    HW2 6732   6.536   6.383   1.736
 1945SOL     OW 6733   3.304   5.164   2.400
 1945SOL    HW1 6734   3.380   5.203   2.348
 1945SOL    HW2 6735   3.218   5.199   2.363
 1946SOL     OW 6736   1.250   6.334   6.720
 1946SOL    HW1 6737   1.273   6.302   6.812
 1946SOL    HW2 6738   1.309   6.411   6.696
 1947SOL     OW 6739   4.384   1.328   3.862
 1947SOL    HW1 6740   4.365   1.242   3.910
 1947SOL    HW2 6741   4.306   1.389   3.870
 1948SOL     OW 6742   6.144   2.883   5.185
 1948SOL    HW1 6743   6.120   2.980   5.198
 1948SOL    HW2 6744   6.061   2.831   5.164
 1949SOL     OW 6745   4.601   3.518   0.049
 1949SOL    HW1 6746   4.683   3.462   0.062
 1949SOL    HW2 6747   4.617   3.585   6.995
 1950SOL     OW 6748   2.404   5.004   0.994
 1950SOL    HW1 6749   2.485   5.027   0.940
 1950SOL    HW2 6750   2.424   5.016   1.091
 1951SOL     OW 6751   5.590   3.066   6.609
 1951SOL    HW1 6752   5.592   3.035   6.514
 1951SOL    HW2 6753   5.665   3.024   6.659
 1952SOL     OW 6754   2.922   3.300   3.270
 1952SOL    HW1 6755   2.972   3.220   3.305
 1952SOL    HW2 6756   2.883   3.351   3.347
 1953SOL     OW 6757   0.799   1.874   4.771
 1953SOL    HW1 6758   0.705   1.849   4.795
 1953SOL    HW2 6759   0.818   1.967   4.802
 1954SOL     OW 6760   1.920   2.157   4.027
 1954SOL    HW1 6761   1.928   2.253   4.054
 1954SOL    HW2 6762   2.001   2.129   3.977
 1955SOL     OW 6763   6.133   5.629   3.008
 1955SOL    HW1 6764   6.086   5.625   2.920
 1955SOL    HW2 6765   6.125   5.540   3.054
 1956SOL     OW 6766   3.912   6.330   3.415
 1956SOL    HW1 6767   3.906   6.233   3.391
 1956SOL    HW2 6768   3.901   6.341   3.514
 1957SOL     OW 6769   2.205   5.913   5.876
 1957SOL    HW1 6770   2.287   5.928   5.932
 1957SOL    HW2 6771   2.133   5.976   5.905
 1958SOL     OW 6772   3.956   3.416   5.858
 1958SOL    HW1 6773   4.030   3.367   5.905
 1958SOL    HW2 6774   3.975   3.515   5.861
 1959SOL     OW 6775   3.252   0.292   1.007
 1959SOL    HW1 6776   3.154   0.307   1.017
 1959SOL    HW2 6777   3.268   0.211   0.951
 1960SOL     OW 6778   4.632   5.624   3.156
 1960SOL    HW1 6779   4.539   5.659   3.163
 1960SOL    HW2 6780   4.630   5.527   3.131
 1961SOL     OW 6781   5.673   4.950   5.304
 1961SOL    HW1 6782   5.730   4.910   5.232
 1961SOL    HW2 6783   5.650   5.044   5.280
 1962SOL     OW 6784   0.904   6.335   4.136
 1962SOL    HW1 6785   0.954   6.399   4.076
 1962SOL    HW2 6786   0.949   6.333   4.225
 1963SOL     OW 6787   2.346   1.368   3.861
 1963SOL    HW1 6788   2.246   1.359   3.855
 1963SOL    HW2 6789   2.373   1.458   3.826
 1964SOL     OW 6790   6.368   2.299   2.297
 1964SOL    HW1 6791   6.435   2.368   2.326
 1964SOL    HW2 6792   6.279   2.322   2.336
 1965SOL     OW 6793   1.483   6.764   3.354
 1965SOL    HW1 6794   1.497   6.735   3.260
 1965SOL    HW2 6795   1.571   6.781   3.398
 1966SOL     OW 6796   6.518   6.247   0.257
 1966SOL    HW1 6797   6.616   6.262   0.272
 1966SOL    HW2 6798   6.505   6.181   0.183
 1967SOL     OW 6799   6.637   2.762   4.688
 1967SOL    HW1 6800   6.541   2.786   4.700
 1967SOL    HW2 6801   6.666   2.785   4.595
 1968SOL     OW 6802   4.566   5.553   4.440
 1968SOL    HW1 6803   4.572   5.627   4.372
 1968SOL    HW2 6804   4.547   5.592   4.530
 1969SOL     OW 6805   6.126   0.782   1.344
 1969SOL    HW1 6806   6.085   0.705   1.295
 1969SOL    HW2 6807   6.064   0.812   1.417
 1970SOL     OW 6808   2.404   1.635   4.946
 1970SOL    HW1 6809   2.315   1.592   4.935
 1970SOL    HW2 6810   2.408   1.680   5.035
 1971SOL     OW 6811   0.259   1.567   5.684
 1971SOL    HW1 6812   0.172   1.583   5.730
 1971SOL    HW2 6813   0.243   1.524   5.595
 1972SOL     OW 6814   1.341   6.562   3.725
 1972SOL    HW1 6815   1.328   6.628   3.651
 1972SOL    HW2 6816   1.393   6.604   3.799
 1973SOL     OW 6817   3.714   2.926   0.189
 1973SOL    HW1 6818   3.787   2.943   0.123
 1973SOL    HW2 6819   3.704   2.827   0.203
 1974SOL     OW 6820   5.982   6.005   4.314
 1974SOL    HW1 6821   6.055   5.958   4.266
 1974SOL    HW2 6822   6.007   6.017   4.410
 1975SOL     OW 6823   2.483   6.981   3.879
 1975SOL    HW1 6824   2.476   0.054   3.919
 1975SOL    HW2 6825   2.580   6.956   3.868
 1976SOL     OW 6826   6.323   4.346   6.276
 1976SOL    HW1 6827   6.236   4.337   6.228
 1976SOL    HW2 6828   6.308   4.340   6.375
 1977SOL     OW 6829   3.084   2.078   5.184
 1977SOL    HW1 6830   3.080   2.162   5.130
 1977SOL    HW2 6831   3.108   2.100   5.279
 1978SOL     OW 6832   0.165   2.557   5.053
 1978SOL    HW1 6833   0.221   2.637   5.072
 1978SOL    HW2 6834   0.160   2.542   4.954
 1979SOL     OW 6835   6.814   4.380   2.753
 1979SOL    HW1 6836   6.843   4.285   2.757
 1979SOL    HW2 6837   6.769   4.397   2.666
 1980SOL     OW 6838   2.787   0.680   3.013
 1980SOL    HW1 6839   2.726   0.637   3.079
 1980SOL    HW2 6840   2.832   0.758   3.055
 1981SOL     OW 6841   5.573   3.069   2.508
 1981SOL    HW1 6842   5.606   3.137   2.573
 1981SOL    HW2 6843   5.479   3.091   2.482
 1982SOL     OW 6844   0.125   6.598   5.351
 1982SOL    HW1 6845   0.131   6.498   5.353
 1982SOL    HW2 6846   0.029   6.625   5.357
 1983SOL     OW 6847   1.067   4.870   1.348
 1983SOL    HW1 6848   1.034   4.958   1.312
 1983SOL    HW2 6849   1.056   4.800   1.278
 1984SOL     OW 6850   3.596   0.413   5.749
 1984SOL    HW1 6851   3.664   0.484   5.771
 1984SOL    HW2 6852   3.612   0.379   5.657
 1985SOL     OW 6853   1.038   5.467   2.180
 1985SOL    HW1 6854   0.955   5.517   2.202
 1985SOL    HW2 6855   1.017   5.393   2.116
 1986SOL     OW 6856   6.033   2.245   1.104
 1986SOL    HW1 6857   6.006   2.310   1.032
 1986SOL    HW2 6858   6.124   2.210   1.083
 1987SOL     OW 6859   2.014   3.437   0.790
 1987SOL    HW1 6860   2.062   3.524   0.800
 1987SOL    HW2 6861   1.959   3.439   0.707
 1988SOL     OW 6862   4.833   2.792   1.299
 1988SOL    HW1 6863   4.777   2.716   1.264
 1988SOL    HW2 6864   4.774   2.864   1.335
 1989SOL     OW 6865   2.739   2.354   3.182
 1989SOL    HW1 6866   2.725   2.269   3.132
 1989SOL    HW2 6867   2.653   2.381   3.226
 1990SOL     OW 6868   1.393   6.946   3.052
 1990SOL    HW1 6869   1.384   0.026   3.068
 1990SOL    HW2 6870   1.478   6.928   3.004
 1991SOL     OW 6871   5.141   5.787   2.583
 1991SOL    HW1 6872   5.178   5.878   2.604
 1991SOL    HW2 6873   5.210   5.718   2.603
 1992SOL     OW 6874   2.204   5.649   5.489
 1992SOL    HW1 6875   2.159   5.704   5.559
 1992SOL    HW2 6876   2.137   5.617   5.422
 1993SOL     OW 6877   2.945   3.264   4.171
 1993SOL    HW1 6878   2.973   3.324   4.245
 1993SOL    HW2 6879   3.006   3.184   4.168
 1994SOL     OW 6880   6.650   1.966   1.212
 1994SOL    HW1 6881   6.634   1.906   1.290
 1994SOL    HW2 6882   6.565   1.975   1.159
 1995SOL     OW 6883   4.212   2.598   1.632
 1995SOL    HW1 6884   4.230   2.694   1.653
 1995SOL    HW2 6885   4.115   2.578   1.645
 1996SOL     OW 6886   2.058   5.139   5.786
 1996SOL    HW1 6887   2.139   5.081   5.775
 1996SOL    HW2 6888   1.976   5.083   5.781
 1997SOL     OW 6889   5.534   6.003   4.746
 1997SOL    HW1 6890   5.469   6.022   4.820
 1997SOL    HW2 6891   5.558   5.906   4.746
 1998SOL     OW 6892   3.237   5.174   4.853
 1998SOL    HW1 6893   3.205   5.096   4.907
 1998SOL    HW2 6894   3.163   5.241   4.845
 1999SOL     OW 6895   3.672   1.393   2.061
 1999SOL    HW1 6896   3.642   1.425   1.970
 1999SOL    HW2 6897   3.625   1.447   2.131
 2000SOL     OW 6898   2.836   0.893   5.823
 2000SOL    HW1 6899   2.854   0.987   5.795
 2000SOL    HW2 6900   2.846   0.832   5.745
 2001SOL     OW 6901   2.044   3.229   0.110
 2001SOL    HW1 6902   2.047   3.299   0.038
 2001SOL    HW2 6903   2.123   3.168   0.101
 2002SOL     OW 6904   1.946   4.798   5.068
 2002SOL    HW1 6905   1.958   4.738   4.989
 2002SOL    HW2 6906   1.863   4.852   5.057
 2003SOL     OW 6907   6.732   3.950   3.431
 2003SOL    HW1 6908   6.815   3.997   3.458
 2003SOL    HW2 6909   6.664   4.016   3.400
 2004SOL     OW 6910   3.276   0.256   6.389
 2004SOL    HW1 6911   3.304   0.166   6.423
 2004SOL    HW2 6912   3.274   0.255   6.289
 2005SOL     OW 6913   2.549   6.955   5.540
 2005SOL    HW1 6914   2.538   6.874   5.597
 2005SOL    HW2 6915   2.546   0.018   5.598
 2006SOL     OW 6916   5.035   0.399   2.682
 2006SOL    HW1 6917   4.956   0.366   2.630
 2006SOL    HW2 6918   5.103   0.326   2.688
 2007SOL     OW 6919   6.794   5.268   0.113
 2007SOL    HW1 6920   6.841   5.277   0.201
 2007SOL    HW2 6921   6.847   5.314   0.042
 2008SOL     OW 6922   0.209   5.743   5.751
 2008SOL    HW1 6923   0.263   5.742   5.835
 2008SOL    HW2 6924   0.114   5.766   5.773
 2009SOL     OW 6925   1.257   0.621   0.185
 2009SOL    HW1 6926   1.261   0.686   0.109
 2009SOL    HW2 6927   1.341   0.628   0.238
 2010SOL     OW 6928   2.648   0.892   0.965
 2010SOL    HW1 6929   2.722   0.923   0.906
 2010SOL    HW2 6930   2.580   0.843   0.910
 2011SOL     OW 6931   0.014   1.574   4.813
 2011SOL    HW1 6932   0.093   1.575   4.874
 2011SOL    HW2 6933   0.041   1.537   4.724
 2012SOL     OW 6934   0.039   3.619   2.196
 2012SOL    HW1 6935   0.078   3.560   2.126
 2012SOL    HW2 6936   6.975   3.576   2.233
 2013SOL     OW 6937   3.539   2.423   1.608
 2013SOL    HW1 6938   3.580   2.403   1.697
 2013SOL    HW2 6939   3.556   2.346   1.546
 2014SOL     OW 6940   3.527   4.924   3.615
 2014SOL    HW1 6941   3.440   4.973   3.624
 2014SOL    HW2 6942   3.520   4.856   3.542
 2015SOL     OW 6943   2.921   5.330   0.027
 2015SOL    HW1 6944   2.950   5.363   0.118
 2015SOL    HW2 6945   2.830   5.289   0.034
 2016SOL     OW 6946   6.873   5.253   5.057
 2016SOL    HW1 6947   6.779   5.235   5.027
 2016SOL    HW2 6948   6.928   5.280   4.978
 2017SOL     OW 6949   2.045   4.965   1.202
 2017SOL    HW1 6950   2.054   5.013   1.290
 2017SOL    HW2 6951   1.954   4.982   1.164
 2018SOL     OW 6952   0.478   4.823   4.892
 2018SOL    HW1 6953   0.526   4.737   4.907
 2018SOL    HW2 6954   0.403   4.831   4.958
 2019SOL     OW 6955   5.627   0.443   2.391
 2019SOL    HW1 6956   5.667   0.510   2.327
 2019SOL    HW2 6957   5.606   0.489   2.478
 2020SOL     OW 6958   2.311   4.919   3.462
 2020SOL    HW1 6959   2.372   4.955   3.391
 2020SOL    HW2 6960   2.297   4.821   3.448
 2021SOL     OW 6961   1.684   6.167   1.835
 2021SOL    HW1 6962   1.621   6.098   1.870
 2021SOL    HW2 6963   1.697   6.238   1.903
 2022SOL     OW 6964   4.098   5.427   1.345
 2022SOL    HW1 6965   4.014   5.482   1.347
 2022SOL    HW2 6966   4.119   5.394   1.437
 2023SOL     OW 6967   0.141   2.742   5.863
 2023SOL    HW1 6968   0.200   2.799   5.806
 2023SOL    HW2 6969   0.087   2.680   5.805
 2024SOL     OW 6970   5.787   6.990   3.369
 2024SOL    HW1 6971   5.736   6.978   3.284
 2024SOL    HW2 6972   5.863   6.925   3.371
 2025SOL     OW 6973   6.324   1.170   1.255
 2025SOL    HW1 6974   6.412   1.200   1.290
 2025SOL    HW2 6975   6.268   1.249   1.232
 2026SOL     OW 6976   2.377   2.057   4.867
 2026SOL    HW1 6977   2.321   2.040   4.947
 2026SOL    HW2 6978   2.330   2.021   4.785
 2027SOL     OW 6979   6.344   6.998   2.176
 2027SOL    HW1 6980   6.354   6.920   2.238
 2027SOL    HW2 6981   6.313   6.965   2.087
 2028SOL     OW 6982   3.753   4.204   5.663
 2028SOL    HW1 6983   3.833   4.171   5.713
 2028SOL    HW2 6984   3.720   4.288   5.704
 2029SOL     OW 6985   2.108   0.371   0.015
 2029SOL    HW1 6986   2.029   0.400   6.979
 2029SOL    HW2 6987   2.103   0.412   0.106
 2030SOL     OW 6988   2.113   3.109   2.480
 2030SOL    HW1 6989   2.120   3.108   2.381
 2030SOL    HW2 6990   2.162   3.031   2.518
 2031SOL     OW 6991   6.079   6.984   2.372
 2031SOL    HW1 6992   6.156   7.010   2.313
 2031SOL    HW2 6993   6.072   0.028   2.449
 2032SOL     OW 6994   4.066   6.377   2.352
 2032SOL    HW1 6995   4.140   6.433   2.315
 2032SOL    HW2 6996   4.046   6.407   2.445
 2033SOL     OW 6997   0.062   4.766   6.869
 2033SOL    HW1 6998   0.078   4.854   6.912
 2033SOL    HW2 6999   0.033   4.700   6.938
 2034SOL     OW 7000   2.041   5.627   4.040
 2034SOL    HW1 7001   2.011   5.532   4.056
 2034SOL    HW2 7002   2.006   5.658   3.952
 2035SOL     OW 7003   0.947   1.114   3.053
 2035SOL    HW1 7004   0.988   1.023   3.063
 2035SOL    HW2 7005   0.848   1.105   3.043
 2036SOL     OW 7006   1.169   4.470   1.179
 2036SOL    HW1 7007   1.113   4.391   1.152
 2036SOL    HW2 7008   1.144   4.498   1.271
 2037SOL     OW 7009   0.815   3.207   6.081
 2037SOL    HW1 7010   0.825   3.223   5.983
 2037SOL    HW2 7011   0.723   3.174   6.101
 2038SOL     OW 7012   1.725   6.898   4.943
 2038SOL    HW1 7013   1.739   6.961   5.019
 2038SOL    HW2 7014   1.780   6.815   4.958
 2039SOL     OW 7015   1.023   5.244   2.009
 2039SOL    HW1 7016   1.017   5.145   1.999
 2039SOL    HW2 7017   1.119   5.273   2.002
 2040SOL     OW 7018   3.713   2.937   4.308
 2040SOL    HW1 7019   3.791   2.952   4.368
 2040SOL    HW2 7020   3.637   2.900   4.361
 2041SOL     OW 7021   4.921   3.078   0.316
 2041SOL    HW1 7022   4.886   2.989   0.347
 2041SOL    HW2 7023   5.018   3.086   0.339
 2042SOL     OW 7024   3.183   6.476   0.349
 2042SOL    HW1 7025   3.187   6.567   0.390
 2042SOL    HW2 7026   3.266   6.425   0.373
 2043SOL     OW 7027   4.999   5.445   2.456
 2043SOL    HW1 7028   5.005   5.452   2.555
 2043SOL    HW2 7029   5.081   5.401   2.420
 2044SOL     OW 7030   6.722   0.607   2.017
 2044SOL    HW1 7031   6.634   0.629   2.060
 2044SOL    HW2 7032   6.753   0.517   2.049
 2045SOL     OW 7033   3.425   6.657   5.422
 2045SOL    HW1 7034   3.356   6.665   5.350
 2045SOL    HW2 7035   3.503   6.716   5.400
 2046SOL     OW 7036   6.237   0.430   5.803
 2046SOL    HW1 7037   6.260   0.480   5.886
 2046SOL    HW2 7038   6.254   0.332   5.817
 2047SOL     OW 7039   4.758   3.262   0.456
 2047SOL    HW1 7040   4.661   3.257   0.433
 2047SOL    HW2 7041   4.811   3.209   0.390
 2048SOL     OW 7042   4.448   6.426   5.125
 2048SOL    HW1 7043   4.503   6.472   5.195
 2048SOL    HW2 7044   4.352   6.450   5.138
 2049SOL     OW 7045   5.496   5.767   6.473
 2049SOL    HW1 7046   5.507   5.695   6.404
 2049SOL    HW2 7047   5.449   5.845   6.432
 2050SOL     OW 7048   5.941   1.000   3.411
 2050SOL    HW1 7049   5.899   1.059   3.479
 2050SOL    HW2 7050   6.034   1.030   3.393
 2051SOL     OW 7051   3.263   5.868   1.150
 2051SOL    HW1 7052   3.177   5.828   1.182
 2051SOL    HW2 7053   3.281   5.836   1.057
 2052SOL     OW 7054   1.421   2.476   0.934
 2052SOL    HW1 7055   1.415   2.379   0.910
 2052SOL    HW2 7056   1.516   2.506   0.926
 2053SOL     OW 7057   4.723   0.604   0.220
 2053SOL    HW1 7058   4.784   0.638   0.292
 2053SOL    HW2 7059   4.768   0.611   0.132
 2054SOL     OW 7060   0.709   2.907   0.731
 2054SOL    HW1 7061   0.746   2.837   0.671
 2054SOL    HW2 7062   0.749   2.897   0.823
 2055SOL     OW 7063   6.447   0.787   3.901
 2055SOL    HW1 7064   6.486   0.824   3.817
 2055SOL    HW2 7065   6.363   0.836   3.924
 2056SOL     OW 7066   6.980   6.760   2.270
 2056SOL    HW1 7067   0.040   6.729   2.322
 2056SOL    HW2 7068   6.991   6.733   2.174
 2057SOL     OW 7069   5.002   3.200   4.183
 2057SOL    HW1 7070   5.079   3.137   4.174
 2057SOL    HW2 7071   4.916   3.149   4.182
 2058SOL     OW 7072   1.178   1.570   1.119
 2058SOL    HW1 7073   1.141   1.530   1.203
 2058SOL    HW2 7074   1.104   1.614   1.068
 2059SOL     OW 7075   1.677   0.472   0.075
 2059SOL    HW1 7076   1.697   0.450   0.170
 2059SOL    HW2 7077   1.759   0.459   0.019
 2060SOL     OW 7078   0.587   4.864   3.616
 2060SOL    HW1 7079   0.488   4.860   3.608
 2060SOL    HW2 7080   0.625   4.909   3.535
 2061SOL     OW 7081   1.555   0.631   0.287
 2061SOL    HW1 7082   1.634   0.688   0.264
 2061SOL    HW2 7083   1.581   0.534   0.280
 2062SOL     OW 7084   3.893   0.071   4.137
 2062SOL    HW1 7085   3.940   7.004   4.157
 2062SOL    HW2 7086   3.945   0.125   4.071
 2063SOL     OW 7087   2.532   2.980   1.115
 2063SOL    HW1 7088   2.432   2.981   1.119
 2063SOL    HW2 7089   2.568   3.007   1.205
 2064SOL     OW 7090   0.893   2.035   0.892
 2064SOL    HW1 7091   0.872   1.996   0.803
 2064SOL    HW2 7092   0.865   1.972   0.964
 2065SOL     OW 7093   0.384   3.074   2.922
 2065SOL    HW1 7094   0.288   3.104   2.924
 2065SOL    HW2 7095   0.413   3.049   3.014
 2066SOL     OW 7096   0.876   6.490   3.210
 2066SOL    HW1 7097   0.890   6.512   3.306
 2066SOL    HW2 7098   0.778   6.481   3.192
 2067SOL     OW 7099   6.893   0.533   0.828
 2067SOL    HW1 7100   6.935   0.486   0.750
 2067SOL    HW2 7101   6.917   0.484   0.912
 2068SOL     OW 7102   2.502   2.547   5.387
 2068SOL    HW1 7103   2.478   2.499   5.472
 2068SOL    HW2 7104   2.449   2.631   5.380
 2069SOL     OW 7105   1.695   2.182   1.865
 2069SOL    HW1 7106   1.646   2.250   1.810
 2069SOL    HW2 7107   1.776   2.152   1.816
 2070SOL     OW 7108   0.458   2.038   2.284
 2070SOL    HW1 7109   0.421   1.946   2.274
 2070SOL    HW2 7110   0.557   2.036   2.275
 2071SOL     OW 7111   2.863   5.853   5.850
 2071SOL    HW1 7112   2.898   5.941   5.882
 2071SOL    HW2 7113   2.865   5.787   5.924
 2072SOL     OW 7114   5.340   4.460   2.582
 2072SOL    HW1 7115   5.278   4.458   2.661
 2072SOL    HW2 7116   5.390   4.374   2.577
 2073SOL     OW 7117   3.295   6.396   5.104
 2073SOL    HW1 7118   3.327   6.319   5.049
 2073SOL    HW2 7119   3.232   6.363   5.174
 2074SOL     OW 7120   5.187   1.896   2.913
 2074SOL    HW1 7121   5.218   1.907   3.008
 2074SOL    HW2 7122   5.248   1.947   2.852
 2075SOL     OW 7123   3.609   2.908   6.168
 2075SOL    HW1 7124   3.621   2.999   6.129
 2075SOL    HW2 7125   3.512   2.882   6.164
 2076SOL     OW 7126   4.989   6.769   0.625
 2076SOL    HW1 7127   4.952   6.684   0.587
 2076SOL    HW2 7128   4.986   6.765   0.725
 2077SOL     OW 7129   3.862   1.025   4.918
 2077SOL    HW1 7130   3.923   0.964   4.866
 2077SOL    HW2 7131   3.916   1.100   4.956
 2078SOL     OW 7132   4.031   6.504   3.928
 2078SOL    HW1 7133   3.981   6.502   4.014
 2078SOL    HW2 7134   4.064   6.597   3.911
 2079SOL     OW 7135   5.454   6.978   4.153
 2079SOL    HW1 7136   5.534   6.919   4.162
 2079SOL    HW2 7137   5.378   6.925   4.116
 2080SOL     OW 7138   2.924   1.708   2.951
 2080SOL    HW1 7139   2.882   1.619   2.930
 2080SOL    HW2 7140   3.009   1.693   3.001
 2081SOL     OW 7141   1.236   5.684   3.426
 2081SOL    HW1 7142   1.291   5.703   3.345
 2081SOL    HW2 7143   1.143   5.719   3.414
 2082SOL     OW 7144   4.809   0.920   3.042
 2082SOL    HW1 7145   4.727   0.912   2.985
 2082SOL    HW2 7146   4.851   1.010   3.027
 2083SOL     OW 7147   3.960   4.672   5.944
 2083SOL    HW1 7148   3.888   4.713   5.888
 2083SOL    HW2 7149   3.925   4.589   5.988
 2084SOL     OW 7150   0.182   2.203   2.753
 2084SOL    HW1 7151   0.199   2.157   2.666
 2084SOL    HW2 7152   0.264   2.199   2.810
 2085SOL     OW 7153   5.941   6.714   0.612
 2085SOL    HW1 7154   6.025   6.685   0.566
 2085SOL    HW2 7155   5.964   6.747   0.703
 2086SOL     OW 7156   3.688   5.498   6.513
 2086SOL    HW1 7157   3.775   5.499   6.464
 2086SOL    HW2 7158   3.705   5.513   6.611
 2087SOL     OW 7159   5.706   5.668   2.970
 2087SOL    HW1 7160   5.795   5.626   2.954
 2087SOL    HW2 7161   5.637   5.625   2.913
 2088SOL     OW 7162   2.414   6.306   1.121
 2088SOL    HW1 7163   2.400   6.379   1.054
 2088SOL    HW2 7164   2.326   6.265   1.144
 2089SOL     OW 7165   2.360   0.885   6.641
 2089SOL    HW1 7166   2.441   0.838   6.677
 2089SOL    HW2 7167   2.337   0.961   6.701
 2090SOL     OW 7168   3.079   3.679   3.407
 2090SOL    HW1 7169   3.060   3.755   3.469
 2090SOL    HW2 7170   3.176   3.678   3.383
 2091SOL     OW 7171   2.494   4.448   1.615
 2091SOL    HW1 7172   2.481   4.350   1.624
 2091SOL    HW2 7173   2.464   4.478   1.524
 2092SOL     OW 7174   6.008   0.216   0.818
 2092SOL    HW1 7175   6.045   0.128   0.847
 2092SOL    HW2 7176   5.946   0.203   0.741
 2093SOL     OW 7177   2.027   1.346   1.591
 2093SOL    HW1 7178   2.042   1.392   1.504
 2093SOL    HW2 7179   2.113   1.339   1.641
 2094SOL     OW 7180   0.084   0.730   2.677
 2094SOL    HW1 7181   0.165   0.786   2.662
 2094SOL    HW2 7182   0.006   0.769   2.628
 2095SOL     OW 7183   6.289   4.561   5.266
 2095SOL    HW1 7184   6.196   4.527   5.273
 2095SOL    HW2 7185   6.289   4.647   5.214
 2096SOL     OW 7186   4.910   4.438   3.670
 2096SOL    HW1 7187   4.933   4.499   3.745
 2096SOL    HW2 7188   4.834   4.379   3.696
 2097SOL     OW 7189   6.516   3.349   5.491
 2097SOL    HW1 7190   6.431   3.300   5.505
 2097SOL    HW2 7191   6.576   3.295   5.432
 2098SOL     OW 7192   4.171   0.340   4.531
 2098SOL    HW1 7193   4.178   0.366   4.627
 2098SOL    HW2 7194   4.255   0.293   4.502
 2099SOL     OW 7195   2.664   1.660   4.194
 2099SOL    HW1 7196   2.723   1.685   4.117
 2099SOL    HW2 7197   2.578   1.711   4.188
 2100SOL     OW 7198   4.542   4.726   5.842
 2100SOL    HW1 7199   4.535   4.628   5.865
 2100SOL    HW2 7200   4.472   4.749   5.775
 2101SOL     OW 7201   5.505   0.124   2.061
 2101SOL    HW1 7202   5.528   0.124   1.964
 2101SOL    HW2 7203   5.439   0.051   2.081
 2102SOL     OW 7204   0.035   5.137   1.118
 2102SOL    HW1 7205   6.999   5.219   1.134
 2102SOL    HW2 7206   0.002   5.063   1.177
 2103SOL     OW 7207   3.238   3.734   6.722
 2103SOL    HW1 7208   3.260   3.830   6.742
 2103SOL    HW2 7209   3.153   3.731   6.669
 2104SOL     OW 7210   0.734   5.017   6.405
 2104SOL    HW1 7211   0.748   5.042   6.501
 2104SOL    HW2 7212   0.711   4.920   6.399
 2105SOL     OW 7213   5.358   5.938   2.393
 2105SOL    HW1 7214   5.413   6.020   2.378
 2105SOL    HW2 7215   5.306   5.917   2.310
 2106SOL     OW 7216   6.536   6.337   6.261
 2106SOL    HW1 7217   6.461   6.398   6.283
 2106SOL    HW2 7218   6.515   6.245   6.295
 2107SOL     OW 7219   2.649   5.025   6.945
 2107SOL    HW1 7220   2.671   4.980   6.859
 2107SOL    HW2 7221   2.727   5.018   7.007
 2108SOL     OW 7222   5.558   4.605   6.492
 2108SOL    HW1 7223   5.481   4.555   6.532
 2108SOL    HW2 7224   5.620   4.541   6.448
 2109SOL     OW 7225   5.382   5.668   2.634
 2109SOL    HW1 7226   5.432   5.658   2.549
 2109SOL    HW2 7227   5.418   5.604   2.702
 2110SOL     OW 7228   1.168   5.145   5.704
 2110SOL    HW1 7229   1.103   5.221   5.693
 2110SOL    HW2 7230   1.169   5.117   5.800
 2111SOL     OW 7231   1.682   1.865   6.436
 2111SOL    HW1 7232   1.752   1.834   6.501
 2111SOL    HW2 7233   1.674   1.965   6.441
 2112SOL     OW 7234   5.216   3.621   0.599
 2112SOL    HW1 7235   5.204   3.643   0.502
 2112SOL    HW2 7236   5.126   3.607   0.641
 2113SOL     OW 7237   6.817   1.165   3.503
 2113SOL    HW1 7238   6.899   1.110   3.521
 2113SOL    HW2 7239   6.789   1.210   3.587
 2114SOL     OW 7240   1.172   3.410   6.478
 2114SOL    HW1 7241   1.180   3.379   6.383
 2114SOL    HW2 7242   1.259   3.449   6.507
 2115SOL     OW 7243   4.183   5.334   1.614
 2115SOL    HW1 7244   4.112   5.287   1.666
 2115SOL    HW2 7245   4.239   5.389   1.676
 2116SOL     OW 7246   0.460   4.122   4.216
 2116SOL    HW1 7247   0.435   4.188   4.145
 2116SOL    HW2 7248   0.466   4.168   4.304
 2117SOL     OW 7249   5.977   6.129   5.958
 2117SOL    HW1 7250   6.001   6.207   6.017
 2117SOL    HW2 7251   5.891   6.090   5.989
 2118SOL     OW 7252   6.964   3.002   2.514
 2118SOL    HW1 7253   0.008   3.059   2.461
 2118SOL    HW2 7254   6.915   2.940   2.453
 2119SOL     OW 7255   4.063   6.677   6.981
 2119SOL    HW1 7256   4.162   6.683   6.997
 2119SOL    HW2 7257   4.024   6.605   0.020
 2120SOL     OW 7258   6.028   4.151   2.271
 2120SOL    HW1 7259   6.084   4.176   2.350
 2120SOL    HW2 7260   6.023   4.051   2.264
 2121SOL     OW 7261   0.428   3.656   4.697
 2121SOL    HW1 7262   0.395   3.745   4.665
 2121SOL    HW2 7263   0.502   3.669   4.763
 2122SOL     OW 7264   3.661   5.007   4.770
 2122SOL    HW1 7265   3.717   5.085   4.743
 2122SOL    HW2 7266   3.717   4.943   4.823
 2123SOL     OW 7267   3.855   6.206   3.073
 2123SOL    HW1 7268   3.769   6.254   3.092
 2123SOL    HW2 7269   3.836   6.109   3.059
 2124SOL     OW 7270   2.208   2.419   1.821
 2124SOL    HW1 7271   2.275   2.403   1.749
 2124SOL    HW2 7272   2.231   2.503   1.870
 2125SOL     OW 7273   4.562   5.974   6.855
 2125SOL    HW1 7274   4.581   5.973   6.757
 2125SOL    HW2 7275   4.641   5.940   6.905
 2126SOL     OW 7276   2.923   1.913   0.881
 2126SOL    HW1 7277   2.862   1.931   0.958
 2126SOL    HW2 7278   2.873   1.865   0.809
 2127SOL     OW 7279   5.665   2.474   4.160
 2127SOL    HW1 7280   5.642   2.378   4.141
 2127SOL    HW2 7281   5.600   2.533   4.113
 2128SOL     OW 7282   0.537   3.592   4.243
 2128SOL    HW1 7283   0.567   3.687   4.245
 2128SOL    HW2 7284   0.610   3.535   4.205
 2129SOL     OW 7285   4.453   2.315   5.047
 2129SOL    HW1 7286   4.410   2.318   4.957
 2129SOL    HW2 7287   4.532   2.253   5.044
 2130SOL     OW 7288   4.961   6.661   3.036
 2130SOL    HW1 7289   4.888   6.640   3.101
 2130SOL    HW2 7290   4.973   6.584   2.974
 2131SOL     OW 7291   4.918   1.686   6.794
 2131SOL    HW1 7292   4.904   1.601   6.744
 2131SOL    HW2 7293   4.971   1.749   6.737
 2132SOL     OW 7294   1.267   3.200   1.565
 2132SOL    HW1 7295   1.184   3.199   1.623
 2132SOL    HW2 7296   1.246   3.159   1.477
 2133SOL     OW 7297   2.397   4.180   6.318
 2133SOL    HW1 7298   2.411   4.084   6.293
 2133SOL    HW2 7299   2.484   4.220   6.346
 2134SOL     OW 7300   0.022   6.511   0.273
 2134SOL    HW1 7301   0.057   6.469   0.356
 2134SOL    HW2 7302   0.096   6.556   0.224
 2135SOL     OW 7303   6.564   5.159   5.654
 2135SOL    HW1 7304   6.593   5.133   5.563
 2135SOL    HW2 7305   6.512   5.085   5.696
 2136SOL     OW 7306   1.550   5.278   6.793
 2136SOL    HW1 7307   1.609   5.302   6.716
 2136SOL    HW2 7308   1.555   5.179   6.810
 2137SOL     OW 7309   1.627   6.477   3.447
 2137SOL    HW1 7310   1.588   6.482   3.355
 2137SOL    HW2 7311   1.579   6.408   3.500
 2138SOL     OW 7312   4.774   2.146   1.766
 2138SOL    HW1 7313   4.712   2.120   1.692
 2138SOL    HW2 7314   4.863   2.171   1.727
 2139SOL     OW 7315   2.757   5.833   5.590
 2139SOL    HW1 7316   2.743   5.743   5.548
 2139SOL    HW2 7317   2.761   5.823   5.689
 2140SOL     OW 7318   2.327   2.267   3.203
 2140SOL    HW1 7319   2.400   2.315   3.252
 2140SOL    HW2 7320   2.344   2.168   3.205
 2141SOL     OW 7321   6.857   3.315   2.837
 2141SOL    HW1 7322   6.906   3.242   2.886
 2141SOL    HW2 7323   6.828   3.281   2.747
 2142SOL     OW 7324   1.866   1.543   1.771
 2142SOL    HW1 7325   1.897   1.481   1.699
 2142SOL    HW2 7326   1.846   1.491   1.854
 2143SOL     OW 7327   6.474   5.370   5.796
 2143SOL    HW1 7328   6.542   5.442   5.778
 2143SOL    HW2 7329   6.507   5.283   5.760
 2144SOL     OW 7330   5.837   4.339   2.747
 2144SOL    HW1 7331   5.898   4.293   2.812
 2144SOL    HW2 7332   5.753   4.365   2.793
 2145SOL     OW 7333   3.445   1.149   3.319
 2145SOL    HW1 7334   3.464   1.184   3.227
 2145SOL    HW2 7335   3.512   1.187   3.383
 2146SOL     OW 7336   1.820   1.314   6.849
 2146SOL    HW1 7337   1.914   1.301   6.881
 2146SOL    HW2 7338   1.818   1.309   6.749
 2147SOL     OW 7339   6.213   0.263   5.458
 2147SOL    HW1 7340   6.121   0.255   5.494
 2147SOL    HW2 7341   6.250   0.354   5.480
 2148SOL     OW 7342   1.802   2.733   5.263
 2148SOL    HW1 7343   1.856   2.685   5.332
 2148SOL    HW2 7344   1.842   2.719   5.173
 2149SOL     OW 7345   0.208   6.638   0.147
 2149SOL    HW1 7346   0.245   6.582   0.073
 2149SOL    HW2 7347   0.280   6.699   0.181
 2150SOL     OW 7348   1.888   2.624   0.281
 2150SOL    HW1 7349   1.972   2.584   0.318
 2150SOL    HW2 7350   1.905   2.720   0.258
 2151SOL     OW 7351   0.761   5.582   6.584
 2151SOL    HW1 7352   0.771   5.548   6.678
 2151SOL    HW2 7353   0.823   5.532   6.524
 2152SOL     OW 7354   5.286   6.454   4.056
 2152SOL    HW1 7355   5.322   6.393   3.985
 2152SOL    HW2 7356   5.202   6.497   4.024
 2153SOL     OW 7357   4.978   6.961   3.924
 2153SOL    HW1 7358   4.914   0.005   3.969
 2153SOL    HW2 7359   4.927   6.893   3.871
 2154SOL     OW 7360   2.533   6.668   2.105
 2154SOL    HW1 7361   2.591   6.718   2.041
 2154SOL    HW2 7362   2.566   6.683   2.199
 2155SOL     OW 7363   5.065   0.646   0.704
 2155SOL    HW1 7364   4.993   0.633   0.636
 2155SOL    HW2 7365   5.062   0.739   0.739
 2156SOL     OW 7366   6.466   1.791   4.246
 2156SOL    HW1 7367   6.417   1.739   4.176
 2156SOL    HW2 7368   6.552   1.826   4.208
 2157SOL     OW 7369   4.208   6.111   3.087
 2157SOL    HW1 7370   4.177   6.193   3.038
 2157SOL    HW2 7371   4.291   6.132   3.138
 2158SOL     OW 7372   3.027   0.043   0.220
 2158SOL    HW1 7373   2.983   0.013   0.304
 2158SOL    HW2 7374   3.068   0.133   0.233
 2159SOL     OW 7375   0.702   2.117   5.475
 2159SOL    HW1 7376   0.631   2.074   5.418
 2159SOL    HW2 7377   0.772   2.156   5.417
 2160SOL     OW 7378   5.369   6.830   6.950
 2160SOL    HW1 7379   5.343   6.924   6.967
 2160SOL    HW2 7380   5.459   6.813   6.989
 2161SOL     OW 7381   1.285   3.577   0.187
 2161SOL    HW1 7382   1.320   3.487   0.161
 2161SOL    HW2 7383   1.338   3.648   0.142
 2162SOL     OW 7384   2.063   6.750   0.550
 2162SOL    HW1 7385   2.146   6.803   0.531
 2162SOL    HW2 7386   2.088   6.665   0.598
 2163SOL     OW 7387   1.007   2.916   4.277
 2163SOL    HW1 7388   0.954   2.842   4.320
 2163SOL    HW2 7389   0.946   2.993   4.258
 2164SOL     OW 7390   2.029   4.589   1.868
 2164SOL    HW1 7391   2.034   4.689   1.860
 2164SOL    HW2 7392   2.113   4.555   1.909
 2165SOL     OW 7393   6.023   2.056   5.750
 2165SOL    HW1 7394   6.104   2.029   5.801
 2165SOL    HW2 7395   5.951   1.988   5.763
 2166SOL     OW 7396   6.674   2.179   2.316
 2166SOL    HW1 7397   6.661   2.082   2.298
 2166SOL    HW2 7398   6.759   2.210   2.274
 2167SOL     OW 7399   1.665   2.084   2.847
 2167SOL    HW1 7400   1.688   2.163   2.790
 2167SOL    HW2 7401   1.610   2.114   2.925
 2168SOL     OW 7402   1.474   2.384   3.308
 2168SOL    HW1 7403   1.443   2.358   3.217
 2168SOL    HW2 7404   1.417   2.340   3.377
 2169SOL     OW 7405   6.671   0.082   1.003
 2169SOL    HW1 7406   6.719   0.078   0.915
 2169SOL    HW2 7407   6.577   0.112   0.989
 2170SOL     OW 7408   1.892   2.634   6.303
 2170SOL    HW1 7409   1.852   2.543   6.305
 2170SOL    HW2 7410   1.928   2.657   6.394
 2171SOL     OW 7411   6.747   6.428   1.499
 2171SOL    HW1 7412   6.838   6.404   1.467
 2171SOL    HW2 7413   6.709   6.352   1.552
 2172SOL     OW 7414   2.440   2.575   4.910
 2172SOL    HW1 7415   2.451   2.593   4.813
 2172SOL    HW2 7416   2.480   2.487   4.933
 2173SOL     OW 7417   4.070   0.584   5.218
 2173SOL    HW1 7418   4.092   0.670   5.264
 2173SOL    HW2 7419   4.029   0.604   5.128
 2174SOL     OW 7420   4.809   0.241   5.821
 2174SOL    HW1 7421   4.715   0.276   5.815
 2174SOL    HW2 7422   4.874   0.314   5.800
 2175SOL     OW 7423   2.940   2.752   5.920
 2175SOL    HW1 7424   3.023   2.716   5.878
 2175SOL    HW2 7425   2.943   2.734   6.019
 2176SOL     OW 7426   6.541   1.783   2.791
 2176SOL    HW1 7427   6.629   1.822   2.765
 2176SOL    HW2 7428   6.473   1.806   2.721
 2177SOL     OW 7429   0.329   0.995   5.250
 2177SOL    HW1 7430   0.316   0.942   5.334
 2177SOL    HW2 7431   0.423   0.984   5.218
 2178SOL     OW 7432   1.853   3.451   2.373
 2178SOL    HW1 7433   1.950   3.433   2.388
 2178SOL    HW2 7434   1.835   3.549   2.380
 2179SOL     OW 7435   1.661   3.778   6.803
 2179SOL    HW1 7436   1.683   3.854   6.742
 2179SOL    HW2 7437   1.562   3.765   6.806
 2180SOL     OW 7438   0.236   5.282   2.924
 2180SOL    HW1 7439   0.156   5.310   2.977
 2180SOL    HW2 7440   0.243   5.182   2.926
 2181SOL     OW 7441   4.319   4.728   3.170
 2181SOL    HW1 7442   4.247   4.664   3.198
 2181SOL    HW2 7443   4.367   4.762   3.251
 2182SOL     OW 7444   0.244   6.924   1.017
 2182SOL    HW1 7445   0.337   6.957   1.027
 2182SOL    HW2 7446   0.184   7.000   0.990
 2183SOL     OW 7447   3.788   2.901   6.746
 2183SOL    HW1 7448   3.798   2.902   6.647
 2183SOL    HW2 7449   3.741   2.985   6.775
 2184SOL     OW 7450   6.433   2.354   6.953
 2184SOL    HW1 7451   6.398   2.310   0.018
 2184SOL    HW2 7452   6.455   2.450   6.973
 2185SOL     OW 7453   6.860   1.350   6.339
 2185SOL    HW1 7454   6.847   1.261   6.295
 2185SOL    HW2 7455   6.843   1.422   6.273
 2186SOL     OW 7456   6.628   6.145   5.726
 2186SOL    HW1 7457   6.534   6.170   5.700
 2186SOL    HW2 7458   6.638   6.046   5.723
 2187SOL     OW 7459   5.834   3.703   1.561
 2187SOL    HW1 7460   5.865   3.671   1.472
 2187SOL    HW2 7461   5.829   3.627   1.625
 2188SOL     OW 7462   3.234   2.111   1.351
 2188SOL    HW1 7463   3.279   2.057   1.422
 2188SOL    HW2 7464   3.192   2.049   1.284
 2189SOL     OW 7465   2.377   0.867   2.503
 2189SOL    HW1 7466   2.322   0.937   2.549
 2189SOL    HW2 7467   2.337   0.845   2.414
 2190SOL     OW 7468   6.960   4.690   1.537
 2190SOL    HW1 7469   6.935   4.748   1.614
 2190SOL    HW2 7470   0.017   4.732   1.487
 2191SOL     OW 7471   3.447   7.008   6.759
 2191SOL    HW1 7472   3.410   0.057   6.823
 2191SOL    HW2 7473   3.478   6.927   6.809
 2192SOL     OW 7474   5.023   2.457   1.536
 2192SOL    HW1 7475   5.074   2.543   1.543
 2192SOL    HW2 7476   4.997   2.440   1.441
 2193SOL     OW 7477   1.615   0.140   6.104
 2193SOL    HW1 7478   1.572   0.056   6.072
 2193SOL    HW2 7479   1.556   0.218   6.084
 2194SOL     OW 7480   0.737   4.313   5.773
 2194SOL    HW1 7481   0.832   4.324   5.803
 2194SOL    HW2 7482   0.686   4.397   5.792
 2195SOL     OW 7483   0.632   4.403   5.375
 2195SOL    HW1 7484   0.611   4.317   5.420
 2195SOL    HW2 7485   0.548   4.455   5.360
 2196SOL     OW 7486   3.928   1.497   6.514
 2196SOL    HW1 7487   3.911   1.465   6.421
 2196SOL    HW2 7488   3.856   1.561   6.541
 2197SOL     OW 7489   4.163   5.212   6.645
 2197SOL    HW1 7490   4.094   5.276   6.679
 2197SOL    HW2 7491   4.242   5.213   6.706
 2198SOL     OW 7492   1.603   0.788   6.154
 2198SOL    HW1 7493   1.695   0.781   6.115
 2198SOL    HW2 7494   1.607   0.836   6.241
 2199SOL     OW 7495   4.433   6.645   3.744
 2199SOL    HW1 7496   4.370   6.703   3.796
 2199SOL    HW2 7497   4.507   6.701   3.707
 2200SOL     OW 7498   2.654   2.018   4.935
 2200SOL    HW1 7499   2.702   2.023   4.847
 2200SOL    HW2 7500   2.556   2.028   4.920
 2201SOL     OW 7501   5.945   3.509   4.416
 2201SOL    HW1 7502   5.993   3.454   4.347
 2201SOL    HW2 7503   5.855   3.468   4.434
 2202SOL     OW 7504   4.529   0.159   5.007
 2202SOL    HW1 7505   4.491   0.135   4.917
 2202SOL    HW2 7506   4.504   0.088   5.073
 2203SOL     OW 7507   2.147   6.181   1.123
 2203SOL    HW1 7508   2.143   6.082   1.134
 2203SOL    HW2 7509   2.063   6.214   1.080
 2204SOL     OW 7510   4.810   3.145   0.685
 2204SOL    HW1 7511   4.886   3.082   0.669
 2204SOL    HW2 7512   4.782   3.186   0.598
 2205SOL     OW 7513   4.953   5.552   1.417
 2205SOL    HW1 7514   4.985   5.462   1.386
 2205SOL    HW2 7515   5.010   5.623   1.375
 2206SOL     OW 7516   3.346   3.160   5.655
 2206SOL    HW1 7517   3.375   3.249   5.691
 2206SOL    HW2 7518   3.426   3.102   5.640
 2207SOL     OW 7519   4.549   4.733   1.371
 2207SOL    HW1 7520   4.572   4.650   1.422
 2207SOL    HW2 7521   4.512   4.707   1.281
 2208SOL     OW 7522   6.575   5.999   3.008
 2208SOL    HW1 7523   6.482   6.003   3.044
 2208SOL    HW2 7524   6.634   5.949   3.072
 2209SOL     OW 7525   2.650   5.635   3.774
 2209SOL    HW1 7526   2.710   5.609   3.849
 2209SOL    HW2 7527   2.702   5.637   3.688
 2210SOL     OW 7528   5.534   6.385   2.240
 2210SOL    HW1 7529   5.601   6.455   2.217
 2210SOL    HW2 7530   5.477   6.365   2.160
 2211SOL     OW 7531   1.672   0.871   1.459
 2211SOL    HW1 7532   1.581   0.908   1.440
 2211SOL    HW2 7533   1.716   0.927   1.530
 2212SOL     OW 7534   3.037   6.085   6.375
 2212SOL    HW1 7535   3.136   6.073   6.376
 2212SOL    HW2 7536   3.013   6.165   6.431
 2213SOL     OW 7537   3.435   1.572   4.246
 2213SOL    HW1 7538   3.343   1.589   4.281
 2213SOL    HW2 7539   3.477   1.497   4.297
 2214SOL     OW 7540   4.266   4.724   6.896
 2214SOL    HW1 7541   4.198   4.651   6.906
 2214SOL    HW2 7542   4.345   4.702   6.953
 2215SOL     OW 7543   6.819   5.313   6.271
 2215SOL    HW1 7544   6.788   5.218   6.264
 2215SOL    HW2 7545   6.746   5.368   6.311
 2216SOL     OW 7546   0.031   6.108   0.301
 2216SOL    HW1 7547   0.079   6.103   0.214
 2216SOL    HW2 7548   0.096   6.133   0.373
 2217SOL     OW 7549   3.763   1.599   3.588
 2217SOL    HW1 7550   3.860   1.574   3.582
 2217SOL    HW2 7551   3.718   1.576   3.501
 2218SOL     OW 7552   6.028   5.237   5.879
 2218SOL    HW1 7553   5.962   5.298   5.921
 2218SOL    HW2 7554   6.095   5.291   5.827
 2219SOL     OW 7555   5.321   2.170   0.749
 2219SOL    HW1 7556   5.247   2.124   0.797
 2219SOL    HW2 7557   5.356   2.110   0.677
 2220SOL     OW 7558   6.727   6.654   4.354
 2220SOL    HW1 7559   6.773   6.687   4.271
 2220SOL    HW2 7560   6.649   6.714   4.374
 2221SOL     OW 7561   5.212   0.063   3.735
 2221SOL    HW1 7562   5.144   0.005   3.781
 2221SOL    HW2 7563   5.167   0.119   3.666
 2222SOL     OW 7564   4.000   0.720   4.117
 2222SOL    HW1 7565   3.927   0.655   4.141
 2222SOL    HW2 7566   3.967   0.781   4.045
 2223SOL     OW 7567   0.600   0.089   5.911
 2223SOL    HW1 7568   0.507   0.051   5.910
 2223SOL    HW2 7569   0.613   0.145   5.830
 2224SOL     OW 7570   5.140   4.660   6.719
 2224SOL    HW1 7571   5.069   4.592   6.736
 2224SOL    HW2 7572   5.164   4.705   6.806
 2225SOL     OW 7573   6.567   0.633   0.751
 2225SOL    HW1 7574   6.565   0.583   0.664
 2225SOL    HW2 7575   6.585   0.569   0.826
 2226SOL     OW 7576   2.892   3.471   6.870
 2226SOL    HW1 7577   2.935   3.453   6.958
 2226SOL    HW2 7578   2.910   3.395   6.807
 2227SOL     OW 7579   4.425   1.735   1.242
 2227SOL    HW1 7580   4.445   1.687   1.156
 2227SOL    HW2 7581   4.496   1.715   1.309
 2228SOL     OW 7582   4.941   6.682   6.525
 2228SOL    HW1 7583   4.887   6.748   6.472
 2228SOL    HW2 7584   4.960   6.602   6.470
 2229SOL     OW 7585   3.229   3.056   4.205
 2229SOL    HW1 7586   3.300   2.986   4.205
 2229SOL    HW2 7587   3.184   3.059   4.116
 2230SOL     OW 7588   6.586   1.337   6.175
 2230SOL    HW1 7589   6.566   1.245   6.144
 2230SOL    HW2 7590   6.554   1.348   6.270
 2231SOL     OW 7591   1.018   6.845   6.038
 2231SOL    HW1 7592   0.943   6.886   6.090
 2231SOL    HW2 7593   0.987   6.821   5.947
 2232SOL     OW 7594   1.558   0.866   6.679
 2232SOL    HW1 7595   1.461   0.875   6.656
 2232SOL    HW2 7596   1.593   0.779   6.643
 2233SOL     OW 7597   3.285   5.626   0.966
 2233SOL    HW1 7598   3.193   5.585   0.967
 2233SOL    HW2 7599   3.340   5.584   1.039
 2234SOL     OW 7600   5.404   1.994   1.896
 2234SOL    HW1 7601   5.460   2.030   1.822
 2234SOL    HW2 7602   5.312   2.032   1.889
 2235SOL     OW 7603   1.531   2.077   3.406
 2235SOL    HW1 7604   1.474   2.120   3.475
 2235SOL    HW2 7605   1.626   2.075   3.438
 2236SOL     OW 7606   2.791   4.853   5.159
 2236SOL    HW1 7607   2.838   4.909   5.091
 2236SOL    HW2 7608   2.801   4.756   5.137
 2237SOL     OW 7609   6.054   6.793   6.264
 2237SOL    HW1 7610   6.060   6.789   6.164
 2237SOL    HW2 7611   6.136   6.750   6.303
 2238SOL     OW 7612   5.272   4.225   1.560
 2238SOL    HW1 7613   5.352   4.179   1.598
 2238SOL    HW2 7614   5.201   4.157   1.540
 2239SOL     OW 7615   3.374   0.202   3.110
 2239SOL    HW1 7616   3.296   0.195   3.173
 2239SOL    HW2 7617   3.422   0.289   3.125
 2240SOL     OW 7618   5.119   5.320   2.783
 2240SOL    HW1 7619   5.160   5.358   2.866
 2240SOL    HW2 7620   5.189   5.311   2.712
 2241SOL     OW 7621   1.411   1.658   3.164
 2241SOL    HW1 7622   1.347   1.698   3.098
 2241SOL    HW2 7623   1.481   1.726   3.188
 2242SOL     OW 7624   5.304   2.272   4.281
 2242SOL    HW1 7625   5.326   2.190   4.227
 2242SOL    HW2 7626   5.247   2.333   4.227
 2243SOL     OW 7627   2.337   0.540   0.163
 2243SOL    HW1 7628   2.318   0.587   0.077
 2243SOL    HW2 7629   2.251   0.506   0.202
 2244SOL     OW 7630   2.379   1.831   0.940
 2244SOL    HW1 7631   2.423   1.918   0.962
 2244SOL    HW2 7632   2.286   1.831   0.978
 2245SOL     OW 7633   0.023   1.342   0.286
 2245SOL    HW1 7634   0.023   1.269   0.218
 2245SOL    HW2 7635   7.001   1.309   0.371
 2246SOL     OW 7636   5.640   0.913   5.511
 2246SOL    HW1 7637   5.669   1.008   5.505
 2246SOL    HW2 7638   5.704   0.856   5.460
 2247SOL     OW 7639   3.827   3.625   1.882
 2247SOL    HW1 7640   3.828   3.538   1.930
 2247SOL    HW2 7641   3.755   3.683   1.919
 2248SOL     OW 7642   5.484   3.154   4.446
 2248SOL    HW1 7643   5.583   3.170   4.441
 2248SOL    HW2 7644   5.465   3.091   4.521
 2249SOL     OW 7645   2.359   6.144   3.516
 2249SOL    HW1 7646   2.449   6.138   3.474
 2249SOL    HW2 7647   2.291   6.171   3.447
 2250SOL     OW 7648   4.142   6.330   5.977
 2250SOL    HW1 7649   4.205   6.286   5.913
 2250SOL    HW2 7650   4.053   6.285   5.973
 2251SOL     OW 7651   3.841   6.774   4.860
 2251SOL    HW1 7652   3.876   6.777   4.954
 2251SOL    HW2 7653   3.782   6.853   4.844
 2252SOL     OW 7654   3.484   1.335   2.578
 2252SOL    HW1 7655   3.468   1.253   2.523
 2252SOL    HW2 7656   3.437   1.413   2.538
 2253SOL     OW 7657   1.188   2.705   1.813
 2253SOL    HW1 7658   1.225   2.716   1.721
 2253SOL    HW2 7659   1.108   2.645   1.809
 2254SOL     OW 7660   3.180   2.963   2.708
 2254SOL    HW1 7661   3.218   3.035   2.766
 2254SOL    HW2 7662   3.083   2.983   2.691
 2255SOL     OW 7663   1.424   1.855   6.268
 2255SOL    HW1 7664   1.358   1.872   6.340
 2255SOL    HW2 7665   1.514   1.838   6.308
 2256SOL     OW 7666   4.881   0.195   1.391
 2256SOL    HW1 7667   4.906   0.237   1.303
 2256SOL    HW2 7668   4.892   0.096   1.386
 2257SOL     OW 7669   0.277   0.779   6.320
 2257SOL    HW1 7670   0.322   0.775   6.230
 2257SOL    HW2 7671   0.202   0.845   6.316
 2258SOL     OW 7672   2.324   0.118   3.371
 2258SOL    HW1 7673   2.233   0.138   3.335
 2258SOL    HW2 7674   2.333   0.020   3.388
 2259SOL     OW 7675   5.977   0.143   5.255
 2259SOL    HW1 7676   5.922   0.109   5.179
 2259SOL    HW2 7677   6.034   0.219   5.223
 2260SOL     OW 7678   1.054   3.524   1.157
 2260SOL    HW1 7679   1.006   3.439   1.136
 2260SOL    HW2 7680   1.152   3.512   1.137
 2261SOL     OW 7681   4.532   4.661   6.486
 2261SOL    HW1 7682   4.481   4.593   6.432
 2261SOL    HW2 7683   4.564   4.734   6.425
 2262SOL     OW 7684   6.784   0.227   3.658
 2262SOL    HW1 7685   6.772   0.128   3.655
 2262SOL    HW2 7686   6.713   0.271   3.602
 2263SOL     OW 7687   2.436   4.274   6.738
 2263SOL    HW1 7688   2.395   4.360   6.707
 2263SOL    HW2 7689   2.492   4.235   6.665
 2264SOL     OW 7690   1.942   0.727   6.730
 2264SOL    HW1 7691   2.010   0.695   6.664
 2264SOL    HW2 7692   1.965   0.820   6.759
 2265SOL     OW 7693   0.611   6.248   3.779
 2265SOL    HW1 7694   0.550   6.324   3.755
 2265SOL    HW2 7695   0.706   6.276   3.764
 2266SOL     OW 7696   4.301   4.193   6.765
 2266SOL    HW1 7697   4.339   4.249   6.839
 2266SOL    HW2 7698   4.204   4.212   6.755
 2267SOL     OW 7699   5.665   3.011   4.848
 2267SOL    HW1 7700   5.754   2.977   4.818
 2267SOL    HW2 7701   5.669   3.110   4.862
 2268SOL     OW 7702   0.818   6.089   4.756
 2268SOL    HW1 7703   0.749   6.035   4.805
 2268SOL    HW2 7704   0.886   6.122   4.820
 2269SOL     OW 7705   2.025   2.234   5.434
 2269SOL    HW1 7706   1.973   2.150   5.422
 2269SOL    HW2 7707   2.064   2.261   5.346
 2270SOL     OW 7708   4.433   1.600   6.371
 2270SOL    HW1 7709   4.485   1.515   6.366
 2270SOL    HW2 7710   4.349   1.584   6.423
 2271SOL     OW 7711   4.270   5.835   4.907
 2271SOL    HW1 7712   4.198   5.789   4.854
 2271SOL    HW2 7713   4.339   5.768   4.935
 2272SOL     OW 7714   6.032   0.654   6.424
 2272SOL    HW1 7715   6.027   0.627   6.520
 2272SOL    HW2 7716   6.123   0.633   6.388
 2273SOL     OW 7717   1.573   2.508   4.362
 2273SOL    HW1 7718   1.538   2.543   4.275
 2273SOL    HW2 7719   1.600   2.412   4.351
 2274SOL     OW 7720   1.264   1.102   6.875
 2274SOL    HW1 7721   1.182   1.048   6.892
 2274SOL    HW2 7722   1.298   1.141   6.960
 2275SOL     OW 7723   5.521   3.448   3.102
 2275SOL    HW1 7724   5.561   3.358   3.120
 2275SOL    HW2 7725   5.431   3.455   3.145
 2276SOL     OW 7726   2.148   1.714   1.593
 2276SOL    HW1 7727   2.183   1.735   1.684
 2276SOL    HW2 7728   2.048   1.713   1.595
 2277SOL     OW 7729   3.874   3.004   3.265
 2277SOL    HW1 7730   3.842   3.060   3.188
 2277SOL    HW2 7731   3.851   2.908   3.248
 2278SOL     OW 7732   6.803   3.473   3.764
 2278SOL    HW1 7733   6.886   3.508   3.721
 2278SOL    HW2 7734   6.824   3.389   3.813
 2279SOL     OW 7735   0.652   5.503   5.920
 2279SOL    HW1 7736   0.602   5.442   5.859
 2279SOL    HW2 7737   0.731   5.455   5.959
 2280SOL     OW 7738   4.973   2.766   5.625
 2280SOL    HW1 7739   5.016   2.745   5.537
 2280SOL    HW2 7740   4.902   2.835   5.612
 2281SOL     OW 7741   5.407   6.670   2.322
 2281SOL    HW1 7742   5.454   6.606   2.261
 2281SOL    HW2 7743   5.340   6.619   2.377
 2282SOL     OW 7744   3.311   5.340   5.786
 2282SOL    HW1 7745   3.224   5.373   5.748
 2282SOL    HW2 7746   3.296   5.254   5.835
 2283SOL     OW 7747   6.728   1.013   5.058
 2283SOL    HW1 7748   6.644   1.034   5.108
 2283SOL    HW2 7749   6.738   0.914   5.051
 2284SOL     OW 7750   1.574   3.378   6.088
 2284SOL    HW1 7751   1.523   3.403   6.170
 2284SOL    HW2 7752   1.594   3.280   6.090
 2285SOL     OW 7753   1.272   5.378   7.003
 2285SOL    HW1 7754   1.198   5.385   6.936
 2285SOL    HW2 7755   1.354   5.421   6.966
 2286SOL     OW 7756   4.730   4.397   2.605
 2286SOL    HW1 7757   4.779   4.461   2.665
 2286SOL    HW2 7758   4.643   4.437   2.576
 2287SOL     OW 7759   1.761   1.371   3.978
 2287SOL    HW1 7760   1.733   1.408   4.067
 2287SOL    HW2 7761   1.843   1.419   3.947
 2288SOL     OW 7762   6.643   5.169   2.904
 2288SOL    HW1 7763   6.681   5.110   2.975
 2288SOL    HW2 7764   6.545   5.151   2.895
 2289SOL     OW 7765   0.224   4.757   0.170
 2289SOL    HW1 7766   0.302   4.700   0.196
 2289SOL    HW2 7767   0.256   4.832   0.111
 2290SOL     OW 7768   0.811   5.055   7.006
 2290SOL    HW1 7769   0.860   5.086   0.068
 2290SOL    HW2 7770   0.791   4.957   7.015
 2291SOL     OW 7771   2.012   1.495   0.018
 2291SOL    HW1 7772   1.935   1.467   6.980
 2291SOL    HW2 7773   2.047   1.583   7.005
 2292SOL     OW 7774   2.264   0.705   4.588
 2292SOL    HW1 7775   2.336   0.704   4.658
 2292SOL    HW2 7776   2.187   0.761   4.620
 2293SOL     OW 7777   4.890   4.268   3.414
 2293SOL    HW1 7778   4.936   4.314   3.490
 2293SOL    HW2 7779   4.838   4.335   3.361
 2294SOL     OW 7780   3.979   6.961   6.760
 2294SOL    HW1 7781   3.883   6.977   6.739
 2294SOL    HW2 7782   3.991   6.866   6.791
 2295SOL     OW 7783   1.087   0.912   1.819
 2295SOL    HW1 7784   1.010   0.886   1.761
 2295SOL    HW2 7785   1.166   0.854   1.798
 2296SOL     OW 7786   2.804   6.253   6.918
 2296SOL    HW1 7787   2.758   6.254   7.007
 2296SOL    HW2 7788   2.758   6.187   6.858
 2297SOL     OW 7789   4.190   6.131   6.389
 2297SOL    HW1 7790   4.200   6.197   6.464
 2297SOL    HW2 7791   4.093   6.119   6.369
 2298SOL     OW 7792   4.357   2.858   6.427
 2298SOL    HW1 7793   4.438   2.899   6.471
 2298SOL    HW2 7794   4.312   2.797   6.492
 2299SOL     OW 7795   4.587   0.237   1.440
 2299SOL    HW1 7796   4.685   0.247   1.426
 2299SOL    HW2 7797   4.538   0.303   1.383
 2300SOL     OW 7798   0.882   4.943   0.916
 2300SOL    HW1 7799   0.946   5.004   0.961
 2300SOL    HW2 7800   0.890   4.851   0.955
 2301SOL     OW 7801   3.423   2.996   1.528
 2301SOL    HW1 7802   3.332   2.988   1.487
 2301SOL    HW2 7803   3.416   2.979   1.627
 2302SOL     OW 7804   3.002   5.408   3.104
 2302SOL    HW1 7805   2.958   5.466   3.173
 2302SOL    HW2 7806   3.061   5.342   3.149
 2303SOL     OW 7807   0.567   3.411   6.059
 2303SOL    HW1 7808   0.525   3.493   6.020
 2303SOL    HW2 7809   0.637   3.437   6.126
 2304SOL     OW 7810   1.867   1.216   4.662
 2304SOL    HW1 7811   1.890   1.224   4.759
 2304SOL    HW2 7812   1.772   1.185   4.653
 2305SOL     OW 7813   4.232   4.940   1.767
 2305SOL    HW1 7814   4.291   5.010   1.726
 2305SOL    HW2 7815   4.203   4.875   1.697
 2306SOL     OW 7816   0.542   4.428   0.067
 2306SOL    HW1 7817   0.620   4.398   0.121
 2306SOL    HW2 7818   0.527   4.363   7.010
 2307SOL     OW 7819   0.361   1.037   3.270
 2307SOL    HW1 7820   0.347   0.955   3.325
 2307SOL    HW2 7821   0.298   1.109   3.302
 2308SOL     OW 7822   0.926   0.311   0.071
 2308SOL    HW1 7823   0.831   0.284   0.055
 2308SOL    HW2 7824   0.977   0.234   0.110
 2309SOL     OW 7825   1.836   4.958   6.446
 2309SOL    HW1 7826   1.877   4.874   6.484
 2309SOL    HW2 7827   1.892   5.036   6.473
 2310SOL     OW 7828   5.434   1.514   3.203
 2310SOL    HW1 7829   5.361   1.467   3.154
 2310SOL    HW2 7830   5.522   1.471   3.181
 2311SOL     OW 7831   2.848   0.188   2.766
 2311SOL    HW1 7832   2.912   0.141   2.827
 2311SOL    HW2 7833   2.811   0.122   2.700
 2312SOL     OW 7834   2.879   0.978   2.345
 2312SOL    HW1 7835   2.804   0.925   2.385
 2312SOL    HW2 7836   2.881   0.964   2.246
 2313SOL     OW 7837   4.834   4.656   1.614
 2313SOL    HW1 7838   4.795   4.682   1.703
 2313SOL    HW2 7839   4.864   4.739   1.567
 2314SOL     OW 7840   6.886   6.049   3.380
 2314SOL    HW1 7841   6.839   6.012   3.460
 2314SOL    HW2 7842   6.847   6.008   3.297
 2315SOL     OW 7843   4.927   6.433   5.046
 2315SOL    HW1 7844   5.019   6.448   5.008
 2315SOL    HW2 7845   4.904   6.336   5.041
 2316SOL     OW 7846   3.934   2.299   6.340
 2316SOL    HW1 7847   3.928   2.396   6.363
 2316SOL    HW2 7848   3.909   2.286   6.244
 2317SOL     OW 7849   0.320   5.294   2.285
 2317SOL    HW1 7850   0.342   5.205   2.244
 2317SOL    HW2 7851   0.339   5.291   2.383
 2318SOL     OW 7852   1.345   4.860   3.845
 2318SOL    HW1 7853   1.341   4.872   3.746
 2318SOL    HW2 7854   1.265   4.902   3.887
 2319SOL     OW 7855   2.450   5.453   3.086
 2319SOL    HW1 7856   2.352   5.432   3.089
 2319SOL    HW2 7857   2.494   5.394   3.018
 2320SOL     OW 7858   1.135   2.076   5.267
 2320SOL    HW1 7859   1.221   2.120   5.293
 2320SOL    HW2 7860   1.152   2.013   5.191
 2321SOL     OW 7861   1.738   4.964   5.275
 2321SOL    HW1 7862   1.717   4.951   5.178
 2321SOL    HW2 7863   1.827   4.925   5.295
 2322SOL     OW 7864   1.836   3.430   1.613
 2322SOL    HW1 7865   1.907   3.491   1.646
 2322SOL    HW2 7866   1.747   3.460   1.649
 2323SOL     OW 7867   2.539   5.750   6.597
 2323SOL    HW1 7868   2.445   5.740   6.631
 2323SOL    HW2 7869   2.549   5.839   6.553
 2324SOL     OW 7870   6.645   4.658   2.443
 2324SOL    HW1 7871   6.676   4.741   2.396
 2324SOL    HW2 7872   6.714   4.630   2.510
 2325SOL     OW 7873   6.586   4.028   2.704
 2325SOL    HW1 7874   6.546   3.937   2.699
 2325SOL    HW2 7875   6.515   4.096   2.681
 2326SOL     OW 7876   2.309   0.089   0.383
 2326SOL    HW1 7877   2.253   0.159   0.427
 2326SOL    HW2 7878   2.358   0.129   0.305
 2327SOL     OW 7879   6.359   6.110   1.934
 2327SOL    HW1 7880   6.294   6.186   1.936
 2327SOL    HW2 7881   6.452   6.145   1.924
 2328SOL     OW 7882   2.160   3.922   2.292
 2328SOL    HW1 7883   2.227   3.986   2.253
 2328SOL    HW2 7884   2.163   3.836   2.242
 2329SOL     OW 7885   0.697   4.733   1.953
 2329SOL    HW1 7886   0.754   4.719   2.035
 2329SOL    HW2 7887   0.652   4.647   1.929
 2330SOL     OW 7888   6.129   3.222   1.768
 2330SOL    HW1 7889   6.188   3.242   1.691
 2330SOL    HW2 7890   6.056   3.160   1.739
 2331SOL     OW 7891   4.635   5.415   1.701
 2331SOL    HW1 7892   4.718   5.429   1.754
 2331SOL    HW2 7893   4.657   5.364   1.618
 2332SOL     OW 7894   6.036   0.115   5.897
 2332SOL    HW1 7895   6.088   0.182   5.949
 2332SOL    HW2 7896   5.945   0.103   5.938
 2333SOL     OW 7897   1.543   4.521   2.573
 2333SOL    HW1 7898   1.479   4.542   2.499
 2333SOL    HW2 7899   1.597   4.441   2.548
 2334SOL     OW 7900   3.366   1.590   5.967
 2334SOL    HW1 7901   3.330   1.565   5.878
 2334SOL    HW2 7902   3.301   1.649   6.015
 2335SOL     OW 7903   6.588   0.917   3.673
 2335SOL    HW1 7904   6.609   1.014   3.689
 2335SOL    HW2 7905   6.672   0.864   3.679
 2336SOL     OW 7906   1.964   1.542   2.967
 2336SOL    HW1 7907   1.929   1.471   3.027
 2336SOL    HW2 7908   2.056   1.517   2.936
 2337SOL     OW 7909   3.911   0.907   2.132
 2337SOL    HW1 7910   3.903   0.896   2.033
 2337SOL    HW2 7911   3.900   1.004   2.156
 2338SOL     OW 7912   0.058   3.940   3.442
 2338SOL    HW1 7913   0.030   3.846   3.460
 2338SOL    HW2 7914   0.141   3.940   3.386
 2339SOL     OW 7915   3.403   2.875   2.850
 2339SOL    HW1 7916   3.338   2.811   2.809
 2339SOL    HW2 7917   3.369   2.968   2.841
 2340SOL     OW 7918   1.966   3.612   6.797
 2340SOL    HW1 7919   2.011   3.694   6.762
 2340SOL    HW2 7920   1.887   3.590   6.740
 2341SOL     OW 7921   2.760   5.187   4.189
 2341SOL    HW1 7922   2.763   5.087   4.186
 2341SOL    HW2 7923   2.763   5.217   4.284
 2342SOL     OW 7924   3.849   1.372   4.530
 2342SOL    HW1 7925   3.820   1.281   4.559
 2342SOL    HW2 7926   3.777   1.438   4.553
 2343SOL     OW 7927   0.096   0.130   0.970
 2343SOL    HW1 7928   0.160   0.205   0.953
 2343SOL    HW2 7929   0.045   0.149   1.054
 2344SOL     OW 7930   6.278   4.598   0.147
 2344SOL    HW1 7931   6.205   4.630   0.086
 2344SOL    HW2 7932   6.292   4.500   0.133
 2345SOL     OW 7933   3.867   6.390   4.470
 2345SOL    HW1 7934   3.950   6.337   4.486
 2345SOL    HW2 7935   3.800   6.333   4.422
 2346SOL     OW 7936   5.015   3.397   0.775
 2346SOL    HW1 7937   5.045   3.342   0.853
 2346SOL    HW2 7938   4.954   3.342   0.717
 2347SOL     OW 7939   1.591   1.080   1.220
 2347SOL    HW1 7940   1.582   1.056   1.123
 2347SOL    HW2 7941   1.680   1.050   1.253
 2348SOL     OW 7942   0.175   5.731   2.523
 2348SOL    HW1 7943   0.128   5.785   2.593
 2348SOL    HW2 7944   0.139   5.638   2.522
 2349SOL     OW 7945   0.621   4.588   4.917
 2349SOL    HW1 7946   0.717   4.609   4.939
 2349SOL    HW2 7947   0.612   4.492   4.892
 2350SOL     OW 7948   5.297   3.908   0.405
 2350SOL    HW1 7949   5.256   3.922   0.315
 2350SOL    HW2 7950   5.295   3.994   0.456
 2351SOL     OW 7951   2.213   6.038   1.710
 2351SOL    HW1 7952   2.192   5.943   1.687
 2351SOL    HW2 7953   2.230   6.090   1.626
 2352SOL     OW 7954   6.823   2.518   3.445
 2352SOL    HW1 7955   6.915   2.508   3.405
 2352SOL    HW2 7956   6.758   2.462   3.394
 2353SOL     OW 7957   3.228   5.613   3.911
 2353SOL    HW1 7958   3.262   5.568   3.828
 2353SOL    HW2 7959   3.210   5.545   3.981
 2354SOL     OW 7960   2.580   2.483   3.923
 2354SOL    HW1 7961   2.595   2.428   3.840
 2354SOL    HW2 7962   2.573   2.580   3.897
 2355SOL     OW 7963   2.422   5.643   4.411
 2355SOL    HW1 7964   2.392   5.689   4.328
 2355SOL    HW2 7965   2.497   5.694   4.453
 2356SOL     OW 7966   6.769   2.674   6.817
 2356SOL    HW1 7967   6.733   2.641   6.730
 2356SOL    HW2 7968   6.865   2.646   6.827
 2357SOL     OW 7969   2.136   6.580   2.938
 2357SOL    HW1 7970   2.206   6.510   2.954
 2357SOL    HW2 7971   2.177   6.671   2.947
 2358SOL     OW 7972   4.798   5.534   6.089
 2358SOL    HW1 7973   4.873   5.486   6.135
 2358SOL    HW2 7974   4.836   5.607   6.031
 2359SOL     OW 7975   1.762   6.899   5.682
 2359SOL    HW1 7976   1.819   6.914   5.763
 2359SOL    HW2 7977   1.764   6.981   5.624
 2360SOL     OW 7978   6.798   4.013   0.283
 2360SOL    HW1 7979   6.814   3.990   0.379
 2360SOL    HW2 7980   6.746   3.939   0.239
 2361SOL     OW 7981   3.613   1.215   0.354
 2361SOL    HW1 7982   3.610   1.259   0.264
 2361SOL    HW2 7983   3.576   1.276   0.423
 2362SOL     OW 7984   2.507   5.153   3.408
 2362SOL    HW1 7985   2.442   5.228   3.390
 2362SOL    HW2 7986   2.574   5.183   3.476
 2363SOL     OW 7987   3.883   0.552   3.736
 2363SOL    HW1 7988   3.877   0.560   3.636
 2363SOL    HW2 7989   3.874   0.456   3.762
 2364SOL     OW 7990   1.219   2.508   1.135
 2364SOL    HW1 7991   1.250   2.451   1.211
 2364SOL    HW2 7992   1.273   2.488   1.054
 2365SOL     OW 7993   5.097   1.714   0.446
 2365SOL    HW1 7994   5.167   1.671   0.389
 2365SOL    HW2 7995   5.128   1.805   0.473
 2366SOL     OW 7996   4.524   5.466   0.579
 2366SOL    HW1 7997   4.585   5.541   0.553
 2366SOL    HW2 7998   4.487   5.424   0.496
 2367SOL     OW 7999   2.319   3.590   6.028
 2367SOL    HW1 8000   2.358   3.530   5.958
 2367SOL    HW2 8001   2.238   3.548   6.067
 2368SOL     OW 8002   5.805   6.033   1.940
 2368SOL    HW1 8003   5.800   6.130   1.913
 2368SOL    HW2 8004   5.877   6.021   2.008
 2369SOL     OW 8005   2.233   1.754   3.150
 2369SOL    HW1 8006   2.294   1.829   3.125
 2369SOL    HW2 8007   2.140   1.775   3.119
 2370SOL     OW 8008   5.784   2.732   6.028
 2370SOL    HW1 8009   5.773   2.723   5.929
 2370SOL    HW2 8010   5.711   2.791   6.064
 2371SOL     OW 8011   1.452   5.968   1.877
 2371SOL    HW1 8012   1.358   5.960   1.911
 2371SOL    HW2 8013   1.490   5.877   1.863
 2372SOL     OW 8014   6.568   2.257   3.089
 2372SOL    HW1 8015   6.538   2.171   3.131
 2372SOL    HW2 8016   6.530   2.264   2.997
 2373SOL     OW 8017   2.363   3.579   6.537
 2373SOL    HW1 8018   2.428   3.600   6.610
 2373SOL    HW2 8019   2.399   3.505   6.480
 2374SOL     OW 8020   5.284   2.647   4.807
 2374SOL    HW1 8021   5.197   2.598   4.806
 2374SOL    HW2 8022   5.331   2.629   4.894
 2375SOL     OW 8023   1.013   6.762   5.736
 2375SOL    HW1 8024   0.923   6.754   5.778
 2375SOL    HW2 8025   1.017   6.702   5.655
 2376SOL     OW 8026   0.324   2.103   3.993
 2376SOL    HW1 8027   0.321   2.181   4.055
 2376SOL    HW2 8028   0.412   2.101   3.946
 2377SOL     OW 8029   3.132   3.052   3.950
 2377SOL    HW1 8030   3.193   2.982   3.912
 2377SOL    HW2 8031   3.119   3.124   3.883
 2378SOL     OW 8032   5.120   1.925   0.865
 2378SOL    HW1 8033   5.054   1.971   0.925
 2378SOL    HW2 8034   5.207   1.914   0.912
 2379SOL     OW 8035   6.600   6.939   5.976
 2379SOL    HW1 8036   6.544   6.856   5.978
 2379SOL    HW2 8037   6.550   7.014   6.020
 2380SOL     OW 8038   6.286   1.990   2.950
 2380SOL    HW1 8039   6.365   1.950   2.995
 2380SOL    HW2 8040   6.274   1.949   2.860
 2381SOL     OW 8041   1.863   5.837   2.466
 2381SOL    HW1 8042   1.946   5.781   2.463
 2381SOL    HW2 8043   1.815   5.828   2.379
 2382SOL     OW 8044   1.639   2.925   5.525
 2382SOL    HW1 8045   1.690   2.956   5.445
 2382SOL    HW2 8046   1.695   2.860   5.577
 2383SOL     OW 8047   5.693   5.382   1.710
 2383SOL    HW1 8048   5.787   5.347   1.710
 2383SOL    HW2 8049   5.688   5.460   1.773
 2384SOL     OW 8050   4.425   1.077   1.353
 2384SOL    HW1 8051   4.465   1.158   1.309
 2384SOL    HW2 8052   4.327   1.073   1.331
 2385SOL     OW 8053   1.412   2.688   6.973
 2385SOL    HW1 8054   1.344   2.658   6.906
 2385SOL    HW2 8055   1.458   2.771   6.940
 2386SOL     OW 8056   4.158   4.713   3.453
 2386SOL    HW1 8057   4.243   4.760   3.431
 2386SOL    HW2 8058   4.177   4.636   3.514
 2387SOL     OW 8059   1.625   1.260   2.677
 2387SOL    HW1 8060   1.710   1.271   2.728
 2387SOL    HW2 8061   1.643   1.266   2.579
 2388SOL     OW 8062   6.955   1.180   4.090
 2388SOL    HW1 8063   6.899   1.154   4.169
 2388SOL    HW2 8064   6.975   1.278   4.094
 2389SOL     OW 8065   3.616   6.549   2.094
 2389SOL    HW1 8066   3.635   6.505   2.006
 2389SOL    HW2 8067   3.685   6.522   2.161
 2390SOL     OW 8068   3.055   4.858   1.260
 2390SOL    HW1 8069   3.010   4.799   1.327
 2390SOL    HW2 8070   3.109   4.802   1.196
 2391SOL     OW 8071   4.343   5.457   4.586
 2391SOL    HW1 8072   4.396   5.450   4.501
 2391SOL    HW2 8073   4.271   5.388   4.586
 2392SOL     OW 8074   4.245   1.462   6.904
 2392SOL    HW1 8075   4.176   1.435   6.836
 2392SOL    HW2 8076   4.326   1.405   6.894
 2393SOL     OW 8077   3.479   5.000   4.986
 2393SOL    HW1 8078   3.512   4.982   4.894
 2393SOL    HW2 8079   3.540   4.958   5.053
 2394SOL     OW 8080   0.465   4.775   5.634
 2394SOL    HW1 8081   0.493   4.843   5.702
 2394SOL    HW2 8082   0.366   4.764   5.637
 2395SOL     OW 8083   4.347   6.365   6.275
 2395SOL    HW1 8084   4.283   6.299   6.315
 2395SOL    HW2 8085   4.300   6.421   6.207
 2396SOL     OW 8086   2.815   5.641   0.906
 2396SOL    HW1 8087   2.886   5.573   0.923
 2396SOL    HW2 8088   2.782   5.677   0.994
 2397SOL     OW 8089   0.786   3.317   4.410
 2397SOL    HW1 8090   0.737   3.362   4.485
 2397SOL    HW2 8091   0.732   3.239   4.379
 2398SOL     OW 8092   4.657   3.637   5.538
 2398SOL    HW1 8093   4.609   3.550   5.547
 2398SOL    HW2 8094   4.734   3.627   5.474
 2399SOL     OW 8095   4.515   2.275   1.219
 2399SOL    HW1 8096   4.579   2.316   1.155
 2399SOL    HW2 8097   4.487   2.185   1.186
 2400SOL     OW 8098   1.452   4.751   0.374
 2400SOL    HW1 8099   1.359   4.726   0.400
 2400SOL    HW2 8100   1.449   4.827   0.309
 2401SOL     OW 8101   6.089   5.767   6.620
 2401SOL    HW1 8102   6.010   5.815   6.582
 2401SOL    HW2 8103   6.150   5.739   6.546
 2402SOL     OW 8104   7.001   6.811   3.852
 2402SOL    HW1 8105   0.053   6.831   3.784
 2402SOL    HW2 8106   6.965   6.719   3.836
 2403SOL     OW 8107   1.305   0.888   3.555
 2403SOL    HW1 8108   1.339   0.979   3.529
 2403SOL    HW2 8109   1.371   0.819   3.527
 2404SOL     OW 8110   1.205   0.385   6.867
 2404SOL    HW1 8111   1.213   0.437   6.952
 2404SOL    HW2 8112   1.292   0.340   6.847
 2405SOL     OW 8113   2.883   4.720   1.422
 2405SOL    HW1 8114   2.791   4.726   1.459
 2405SOL    HW2 8115   2.932   4.643   1.464
 2406SOL     OW 8116   4.977   1.266   1.353
 2406SOL    HW1 8117   5.075   1.287   1.354
 2406SOL    HW2 8118   4.930   1.332   1.294
 2407SOL     OW 8119   5.203   6.713   3.801
 2407SOL    HW1 8120   5.234   6.776   3.730
 2407SOL    HW2 8121   5.214   6.619   3.770
 2408SOL     OW 8122   4.210   4.649   2.170
 2408SOL    HW1 8123   4.123   4.623   2.210
 2408SOL    HW2 8124   4.272   4.680   2.242
 2409SOL     OW 8125   1.481   4.447   0.238
 2409SOL    HW1 8126   1.453   4.523   0.297
 2409SOL    HW2 8127   1.463   4.361   0.285
 2410SOL     OW 8128   4.106   3.664   2.877
 2410SOL    HW1 8129   4.149   3.710   2.955
 2410SOL    HW2 8130   4.150   3.695   2.792
 2411SOL     OW 8131   3.422   0.254   4.747
 2411SOL    HW1 8132   3.443   0.342   4.789
 2411SOL    HW2 8133   3.387   0.191   4.817
 2412SOL     OW 8134   4.205   3.811   1.109
 2412SOL    HW1 8135   4.292   3.859   1.115
 2412SOL    HW2 8136   4.162   3.807   1.199
 2413SOL     OW 8137   3.673   0.405   3.329
 2413SOL    HW1 8138   3.613   0.404   3.249
 2413SOL    HW2 8139   3.727   0.321   3.331
 2414SOL     OW 8140   5.123   3.181   4.495
 2414SOL    HW1 8141   5.119   3.141   4.403
 2414SOL    HW2 8142   5.187   3.258   4.495
 2415SOL     OW 8143   4.123   0.352   3.521
 2415SOL    HW1 8144   4.049   0.413   3.549
 2415SOL    HW2 8145   4.209   0.384   3.561
 2416SOL     OW 8146   5.553   2.026   6.249
 2416SOL    HW1 8147   5.534   1.991   6.341
 2416SOL    HW2 8148   5.589   1.952   6.192
 2417SOL     OW 8149   3.296   4.107   5.472
 2417SOL    HW1 8150   3.366   4.130   5.404
 2417SOL    HW2 8151   3.205   4.124   5.434
 2418SOL     OW 8152   3.054   3.071   2.319
 2418SOL    HW1 8153   3.028   3.112   2.406
 2418SOL    HW2 8154   3.098   2.982   2.335
 2419SOL     OW 8155   6.811   0.603   3.879
 2419SOL    HW1 8156   6.769   0.684   3.918
 2419SOL    HW2 8157   6.897   0.584   3.925
 2420SOL     OW 8158   2.192   6.867   1.924
 2420SOL    HW1 8159   2.154   6.855   1.832
 2420SOL    HW2 8160   2.212   6.778   1.963
 2421SOL     OW 8161   4.331   2.046   3.106
 2421SOL    HW1 8162   4.283   1.962   3.129
 2421SOL    HW2 8163   4.354   2.095   3.190
 2422SOL     OW 8164   5.452   1.694   1.413
 2422SOL    HW1 8165   5.373   1.707   1.472
 2422SOL    HW2 8166   5.427   1.636   1.336
 2423SOL     OW 8167   1.292   5.005   2.388
 2423SOL    HW1 8168   1.235   5.087   2.383
 2423SOL    HW2 8169   1.322   4.991   2.482
 2424SOL     OW 8170   6.577   6.807   0.161
 2424SOL    HW1 8171   6.580   6.779   0.065
 2424SOL    HW2 8172   6.663   6.781   0.206
 2425SOL     OW 8173   6.865   0.102   4.513
 2425SOL    HW1 8174   6.844   0.187   4.560
 2425SOL    HW2 8175   6.958   0.073   4.534
 2426SOL     OW 8176   1.891   5.492   4.424
 2426SOL    HW1 8177   1.908   5.591   4.430
 2426SOL    HW2 8178   1.806   5.477   4.372
 2427SOL     OW 8179   6.188   0.735   5.032
 2427SOL    HW1 8180   6.151   0.644   5.013
 2427SOL    HW2 8181   6.286   0.736   5.014
 2428SOL     OW 8182   5.784   1.861   0.515
 2428SOL    HW1 8183   5.818   1.952   0.494
 2428SOL    HW2 8184   5.854   1.810   0.565
 2429SOL     OW 8185   4.491   4.686   2.697
 2429SOL    HW1 8186   4.523   4.639   2.615
 2429SOL    HW2 8187   4.395   4.665   2.711
 2430SOL     OW 8188   4.999   0.160   2.238
 2430SOL    HW1 8189   5.058   0.217   2.181
 2430SOL    HW2 8190   4.932   0.113   2.180
 2431SOL     OW 8191   3.916   6.738   2.186
 2431SOL    HW1 8192   3.831   6.791   2.180
 2431SOL    HW2 8193   3.938   6.721   2.282
 2432SOL     OW 8194   2.954   5.546   2.305
 2432SOL    HW1 8195   2.925   5.551   2.400
 2432SOL    HW2 8196   2.874   5.528   2.247
 2433SOL     OW 8197   5.071   0.072   0.656
 2433SOL    HW1 8198   5.122   0.139   0.601
 2433SOL    HW2 8199   5.136   0.009   0.699
 2434SOL     OW 8200   3.328   3.355   5.429
 2434SOL    HW1 8201   3.234   3.386   5.439
 2434SOL    HW2 8202   3.344   3.273   5.484
 2435SOL     OW 8203   5.775   5.247   6.336
 2435SOL    HW1 8204   5.777   5.331   6.390
 2435SOL    HW2 8205   5.711   5.257   6.260
 2436SOL     OW 8206   3.357   4.402   1.132
 2436SOL    HW1 8207   3.269   4.356   1.123
 2436SOL    HW2 8208   3.354   4.468   1.207
 2437SOL     OW 8209   6.759   0.859   5.826
 2437SOL    HW1 8210   6.831   0.907   5.877
 2437SOL    HW2 8211   6.800   0.789   5.768
 2438SOL     OW 8212   3.714   3.565   0.572
 2438SOL    HW1 8213   3.656   3.645   0.587
 2438SOL    HW2 8214   3.810   3.589   0.591
 2439SOL     OW 8215   6.273   4.067   6.522
 2439SOL    HW1 8216   6.327   4.151   6.526
 2439SOL    HW2 8217   6.192   4.082   6.465
 2440SOL     OW 8218   6.128   4.858   6.250
 2440SOL    HW1 8219   6.064   4.840   6.174
 2440SOL    HW2 8220   6.106   4.798   6.327
 2441SOL     OW 8221   6.611   2.264   0.638
 2441SOL    HW1 8222   6.705   2.287   0.662
 2441SOL    HW2 8223   6.553   2.345   0.652
 2442SOL     OW 8224   6.781   1.916   4.528
 2442SOL    HW1 8225   6.689   1.944   4.557
 2442SOL    HW2 8226   6.817   1.849   4.593
 2443SOL     OW 8227   2.690   4.931   6.298
 2443SOL    HW1 8228   2.725   4.929   6.204
 2443SOL    HW2 8229   2.628   4.854   6.311
 2444SOL     OW 8230   3.463   2.415   6.163
 2444SOL    HW1 8231   3.426   2.329   6.198
 2444SOL    HW2 8232   3.443   2.488   6.228
 2445SOL     OW 8233   1.023   0.542   0.828
 2445SOL    HW1 8234   1.113   0.544   0.872
 2445SOL    HW2 8235   1.033   0.557   0.730
 2446SOL     OW 8236   4.843   3.008   6.428
 2446SOL    HW1 8237   4.849   2.919   6.382
 2446SOL    HW2 8238   4.901   3.074   6.382
 2447SOL     OW 8239   0.955   3.913   6.479
 2447SOL    HW1 8240   0.994   3.934   6.390
 2447SOL    HW2 8241   0.947   3.814   6.490
 2448SOL     OW 8242   6.503   0.744   4.963
 2448SOL    HW1 8243   6.587   0.694   4.984
 2448SOL    HW2 8244   6.523   0.819   4.901
 2449SOL     OW 8245   6.911   3.249   5.501
 2449SOL    HW1 8246   6.893   3.237   5.599
 2449SOL    HW2 8247   6.923   3.159   5.459
 2450SOL     OW 8248   2.629   3.053   1.349
 2450SOL    HW1 8249   2.630   3.150   1.374
 2450SOL    HW2 8250   2.721   3.015   1.362
 2451SOL     OW 8251   1.863   6.130   3.562
 2451SOL    HW1 8252   1.885   6.121   3.659
 2451SOL    HW2 8253   1.844   6.039   3.524
 2452SOL     OW 8254   2.783   1.843   4.388
 2452SOL    HW1 8255   2.807   1.933   4.351
 2452SOL    HW2 8256   2.759   1.781   4.313
 2453SOL     OW 8257   0.258   4.047   0.756
 2453SOL    HW1 8258   0.342   4.024   0.805
 2453SOL    HW2 8259   0.204   4.112   0.809
 2454SOL     OW 8260   0.934   6.703   1.923
 2454SOL    HW1 8261   0.851   6.715   1.868
 2454SOL    HW2 8262   0.993   6.635   1.879
 2455SOL     OW 8263   5.613   3.931   1.189
 2455SOL    HW1 8264   5.524   3.945   1.233
 2455SOL    HW2 8265   5.679   3.996   1.227
 2456SOL     OW 8266   2.471   6.407   1.430
 2456SOL    HW1 8267   2.432   6.347   1.500
 2456SOL    HW2 8268   2.518   6.352   1.361
 2457SOL     OW 8269   5.041   5.890   0.605
 2457SOL    HW1 8270   4.945   5.907   0.626
 2457SOL    HW2 8271   5.069   5.947   0.528
 2458SOL     OW 8272   0.442   6.477   1.460
 2458SOL    HW1 8273   0.510   6.422   1.509
 2458SOL    HW2 8274   0.471   6.573   1.460
 2459SOL     OW 8275   1.470   1.803   6.964
 2459SOL    HW1 8276   1.531   1.726   6.948
 2459SOL    HW2 8277   1.522   1.881   6.999
 2460SOL     OW 8278   2.141   4.663   0.545
 2460SOL    HW1 8279   2.230   4.641   0.586
 2460SOL    HW2 8280   2.153   4.682   0.448
 2461SOL     OW 8281   4.552   1.292   3.221
 2461SOL    HW1 8282   4.586   1.235   3.296
 2461SOL    HW2 8283   4.618   1.366   3.203
 2462SOL     OW 8284   2.919   4.493   6.330
 2462SOL    HW1 8285   2.983   4.470   6.257
 2462SOL    HW2 8286   2.957   4.567   6.386
 2463SOL     OW 8287   1.456   3.298   5.320
 2463SOL    HW1 8288   1.541   3.325   5.274
 2463SOL    HW2 8289   1.381   3.298   5.253
 2464SOL     OW 8290   1.005   3.559   0.778
 2464SOL    HW1 8291   1.071   3.500   0.822
 2464SOL    HW2 8292   0.923   3.507   0.755
 2465SOL     OW 8293   5.942   4.255   3.010
 2465SOL    HW1 8294   5.948   4.251   3.110
 2465SOL    HW2 8295   5.869   4.193   2.980
 2466SOL     OW 8296   4.255   1.664   1.534
 2466SOL    HW1 8297   4.280   1.572   1.504
 2466SOL    HW2 8298   4.293   1.680   1.625
 2467SOL     OW 8299   1.138   1.224   4.376
 2467SOL    HW1 8300   1.230   1.185   4.363
 2467SOL    HW2 8301   1.116   1.283   4.298
 2468SOL     OW 8302   6.339   4.987   6.600
 2468SOL    HW1 8303   6.433   4.993   6.634
 2468SOL    HW2 8304   6.337   5.013   6.504
 2469SOL     OW 8305   2.303   1.715   6.075
 2469SOL    HW1 8306   2.377   1.672   6.024
 2469SOL    HW2 8307   2.277   1.801   6.030
 2470SOL     OW 8308   4.986   2.950   0.903
 2470SOL    HW1 8309   4.898   2.973   0.944
 2470SOL    HW2 8310   5.017   2.861   0.938
 2471SOL     OW 8311   0.444   1.358   3.378
 2471SOL    HW1 8312   0.351   1.329   3.399
 2471SOL    HW2 8313   0.456   1.366   3.279
 2472SOL     OW 8314   6.492   0.779   4.318
 2472SOL    HW1 8315   6.487   0.709   4.247
 2472SOL    HW2 8316   6.449   0.745   4.401
 2473SOL     OW 8317   0.724   5.678   4.754
 2473SOL    HW1 8318   0.778   5.712   4.677
 2473SOL    HW2 8319   0.646   5.625   4.718
 2474SOL     OW 8320   5.833   6.650   4.680
 2474SOL    HW1 8321   5.893   6.729   4.677
 2474SOL    HW2 8322   5.874   6.574   4.629
 2475SOL     OW 8323   3.590   2.643   6.019
 2475SOL    HW1 8324   3.527   2.719   6.035
 2475SOL    HW2 8325   3.551   2.559   6.058
 2476SOL     OW 8326   0.791   1.406   3.899
 2476SOL    HW1 8327   0.776   1.400   3.800
 2476SOL    HW2 8328   0.805   1.314   3.936
 2477SOL     OW 8329   4.517   4.494   2.050
 2477SOL    HW1 8330   4.529   4.399   2.023
 2477SOL    HW2 8331   4.424   4.524   2.029
 2478SOL     OW 8332   6.961   0.250   2.271
 2478SOL    HW1 8333   6.923   0.241   2.363
 2478SOL    HW2 8334   0.003   0.173   2.251
 2479SOL     OW 8335   1.143   3.226   0.516
 2479SOL    HW1 8336   1.208   3.280   0.570
 2479SOL    HW2 8337   1.088   3.286   0.459
 2480SOL     OW 8338   6.637   4.682   0.703
 2480SOL    HW1 8339   6.733   4.696   0.679
 2480SOL    HW2 8340   6.592   4.628   0.632
 2481SOL     OW 8341   3.953   4.897   2.701
 2481SOL    HW1 8342   3.980   4.905   2.605
 2481SOL    HW2 8343   3.862   4.938   2.713
 2482SOL     OW 8344   4.169   2.113   4.634
 2482SOL    HW1 8345   4.261   2.078   4.620
 2482SOL    HW2 8346   4.134   2.152   4.549
 2483SOL     OW 8347   0.898   3.305   0.054
 2483SOL    HW1 8348   0.949   3.357   7.004
 2483SOL    HW2 8349   0.905   3.207   0.034
 2484SOL     OW 8350   3.484   4.322   5.550
 2484SOL    HW1 8351   3.555   4.258   5.520
 2484SOL    HW2 8352   3.395   4.277   5.548
 2485SOL     OW 8353   0.580   4.706   0.061
 2485SOL    HW1 8354   0.677   4.731   0.063
 2485SOL    HW2 8355   0.569   4.610   0.087
 2486SOL     OW 8356   0.594   5.040   4.413
 2486SOL    HW1 8357   0.646   5.101   4.472
 2486SOL    HW2 8358   0.643   4.954   4.402
 2487SOL     OW 8359   2.331   1.258   1.079
 2487SOL    HW1 8360   2.381   1.295   1.000
 2487SOL    HW2 8361   2.345   1.318   1.158
 2488SOL     OW 8362   2.746   5.592   6.671
 2488SOL    HW1 8363   2.671   5.634   6.620
 2488SOL    HW2 8364   2.833   5.617   6.628
 2489SOL     OW 8365   6.410   5.836   4.563
 2489SOL    HW1 8366   6.490   5.837   4.623
 2489SOL    HW2 8367   6.425   5.897   4.485
 2490SOL     OW 8368   5.526   2.598   1.091
 2490SOL    HW1 8369   5.487   2.628   1.178
 2490SOL    HW2 8370   5.456   2.605   1.020
 2491SOL     OW 8371   6.697   4.370   2.494
 2491SOL    HW1 8372   6.700   4.447   2.431
 2491SOL    HW2 8373   6.711   4.285   2.443
 2492SOL     OW 8374   3.777   1.766   0.387
 2492SOL    HW1 8375   3.818   1.780   0.477
 2492SOL    HW2 8376   3.815   1.832   0.322
 2493SOL     OW 8377   6.221   0.962   5.917
 2493SOL    HW1 8378   6.184   0.902   5.846
 2493SOL    HW2 8379   6.182   1.053   5.907
 2494SOL     OW 8380   5.820   5.423   0.424
 2494SOL    HW1 8381   5.830   5.418   0.523
 2494SOL    HW2 8382   5.744   5.364   0.396
 2495SOL     OW 8383   6.980   1.124   2.571
 2495SOL    HW1 8384   6.988   1.078   2.660
 2495SOL    HW2 8385   6.938   1.062   2.505
 2496SOL     OW 8386   1.919   4.978   0.571
 2496SOL    HW1 8387   2.012   4.944   0.590
 2496SOL    HW2 8388   1.864   4.970   0.654
 2497SOL     OW 8389   6.238   1.519   6.604
 2497SOL    HW1 8390   6.265   1.509   6.700
 2497SOL    HW2 8391   6.229   1.616   6.582
 2498SOL     OW 8392   1.474   3.293   4.410
 2498SOL    HW1 8393   1.406   3.274   4.338
 2498SOL    HW2 8394   1.452   3.381   4.453
 2499SOL     OW 8395   5.181   0.533   0.106
 2499SOL    HW1 8396   5.092   0.563   0.140
 2499SOL    HW2 8397   5.184   0.546   0.007
 2500SOL     OW 8398   5.388   3.113   6.354
 2500SOL    HW1 8399   5.306   3.162   6.384
 2500SOL    HW2 8400   5.401   3.125   6.256
 2501SOL     OW 8401   6.185   5.181   0.793
 2501SOL    HW1 8402   6.234   5.262   0.762
 2501SOL    HW2 8403   6.166   5.188   0.891
 2502SOL     OW 8404   1.209   6.776   2.651
 2502SOL    HW1 8405   1.193   6.798   2.747
 2502SOL    HW2 8406   1.249   6.855   2.604
 2503SOL     OW 8407   5.731   6.071   3.500
 2503SOL    HW1 8408   5.651   6.074   3.559
 2503SOL    HW2 8409   5.730   6.151   3.439
 2504SOL     OW 8410   2.723   4.932   2.979
 2504SOL    HW1 8411   2.669   4.870   2.921
 2504SOL    HW2 8412   2.675   4.946   3.066
 2505SOL     OW 8413   4.777   4.038   4.447
 2505SOL    HW1 8414   4.807   3.946   4.422
 2505SOL    HW2 8415   4.816   4.064   4.535
 2506SOL     OW 8416   1.635   1.614   6.846
 2506SOL    HW1 8417   1.594   1.617   6.755
 2506SOL    HW2 8418   1.624   1.523   6.885
 2507SOL     OW 8419   6.961   5.714   0.972
 2507SOL    HW1 8420   6.918   5.789   1.023
 2507SOL    HW2 8421   7.004   5.651   1.036
 2508SOL     OW 8422   1.734   1.591   1.342
 2508SOL    HW1 8423   1.701   1.580   1.248
 2508SOL    HW2 8424   1.659   1.574   1.406
 2509SOL     OW 8425   6.510   6.897   3.887
 2509SOL    HW1 8426   6.491   6.799   3.879
 2509SOL    HW2 8427   6.426   6.945   3.913
 2510SOL     OW 8428   3.515   5.983   2.770
 2510SOL    HW1 8429   3.543   5.922   2.695
 2510SOL    HW2 8430   3.578   6.060   2.775
 2511SOL     OW 8431   0.890   5.031   4.304
 2511SOL    HW1 8432   0.830   5.007   4.228
 2511SOL    HW2 8433   0.923   5.125   4.292
 2512SOL     OW 8434   5.866   3.042   4.468
 2512SOL    HW1 8435   5.861   3.132   4.510
 2512SOL    HW2 8436   5.961   3.021   4.443
 2513SOL     OW 8437   0.662   4.653   1.593
 2513SOL    HW1 8438   0.569   4.687   1.580
 2513SOL    HW2 8439   0.723   4.731   1.612
 2514SOL     OW 8440   6.907   2.158   4.432
 2514SOL    HW1 8441   6.882   2.072   4.475
 2514SOL    HW2 8442   6.986   2.145   4.373
 2515SOL     OW 8443   0.273   4.690   6.289
 2515SOL    HW1 8444   0.265   4.738   6.201
 2515SOL    HW2 8445   0.363   4.647   6.295
 2516SOL     OW 8446   4.613   6.718   4.824
 2516SOL    HW1 8447   4.552   6.640   4.838
 2516SOL    HW2 8448   4.708   6.687   4.830
 2517SOL     OW 8449   2.850   5.894   6.678
 2517SOL    HW1 8450   2.790   5.971   6.656
 2517SOL    HW2 8451   2.794   5.814   6.699
 2518SOL     OW 8452   2.009   1.954   0.026
 2518SOL    HW1 8453   1.912   1.968   0.042
 2518SOL    HW2 8454   2.040   1.873   0.076
 2519SOL     OW 8455   6.008   4.187   4.555
 2519SOL    HW1 8456   6.043   4.187   4.461
 2519SOL    HW2 8457   6.051   4.261   4.606
 2520SOL     OW 8458   4.412   5.680   1.033
 2520SOL    HW1 8459   4.448   5.626   1.109
 2520SOL    HW2 8460   4.425   5.631   0.947
 2521SOL     OW 8461   5.564   6.705   5.792
 2521SOL    HW1 8462   5.582   6.778   5.857
 2521SOL    HW2 8463   5.614   6.623   5.818
 2522SOL     OW 8464   3.722   5.541   5.060
 2522SOL    HW1 8465   3.680   5.596   4.988
 2522SOL    HW2 8466   3.746   5.599   5.138
 2523SOL     OW 8467   0.886   2.022   6.657
 2523SOL    HW1 8468   0.864   2.094   6.592
 2523SOL    HW2 8469   0.921   1.942   6.609
 2524SOL     OW 8470   1.909   0.146   4.331
 2524SOL    HW1 8471   1.991   0.158   4.388
 2524SOL    HW2 8472   1.932   0.164   4.236
 2525SOL     OW 8473   2.947   4.948   2.316
 2525SOL    HW1 8474   3.010   4.897   2.256
 2525SOL    HW2 8475   2.949   5.045   2.292
 2526SOL     OW 8476   1.977   2.957   4.919
 2526SOL    HW1 8477   1.975   3.009   5.004
 2526SOL    HW2 8478   2.048   2.995   4.859
 2527SOL     OW 8479   6.536   0.014   4.221
 2527SOL    HW1 8480   6.464   0.002   4.152
 2527SOL    HW2 8481   6.620   0.044   4.176
 2528SOL     OW 8482   5.252   4.775   2.515
 2528SOL    HW1 8483   5.309   4.724   2.450
 2528SOL    HW2 8484   5.290   4.765   2.607
 2529SOL     OW 8485   5.104   5.211   4.947
 2529SOL    HW1 8486   5.177   5.275   4.974
 2529SOL    HW2 8487   5.069   5.164   5.028
 2530SOL     OW 8488   1.201   6.474   3.353
 2530SOL    HW1 8489   1.197   6.546   3.423
 2530SOL    HW2 8490   1.180   6.386   3.395
 2531SOL     OW 8491   5.170   2.804   6.329
 2531SOL    HW1 8492   5.143   2.878   6.267
 2531SOL    HW2 8493   5.216   2.843   6.409
 2532SOL     OW 8494   6.916   5.377   6.901
 2532SOL    HW1 8495   7.007   5.419   6.908
 2532SOL    HW2 8496   6.913   5.318   6.821
 2533SOL     OW 8497   5.080   0.352   4.099
 2533SOL    HW1 8498   5.055   0.411   4.176
 2533SOL    HW2 8499   5.160   0.298   4.122
 2534SOL     OW 8500   6.561   1.126   2.575
 2534SOL    HW1 8501   6.647   1.120   2.525
 2534SOL    HW2 8502   6.557   1.213   2.624
 2535SOL     OW 8503   2.799   1.411   1.483
 2535SOL    HW1 8504   2.812   1.401   1.581
 2535SOL    HW2 8505   2.783   1.321   1.442
 2536SOL     OW 8506   0.688   0.015   3.036
 2536SOL    HW1 8507   0.665   0.111   3.023
 2536SOL    HW2 8508   0.741   7.001   2.957
 2537SOL     OW 8509   2.227   6.290   2.105
 2537SOL    HW1 8510   2.147   6.349   2.111
 2537SOL    HW2 8511   2.310   6.346   2.107
 2538SOL     OW 8512   7.003   5.178   5.475
 2538SOL    HW1 8513   6.925   5.150   5.530
 2538SOL    HW2 8514   0.034   5.251   5.523
 2539SOL     OW 8515   0.698   0.159   5.276
 2539SOL    HW1 8516   0.715   0.252   5.245
 2539SOL    HW2 8517   0.606   0.130   5.247
 2540SOL     OW 8518   5.612   2.720   1.728
 2540SOL    HW1 8519   5.517   2.698   1.747
 2540SOL    HW2 8520   5.668   2.701   1.809
 2541SOL     OW 8521   1.988   0.671   0.419
 2541SOL    HW1 8522   1.911   0.628   0.465
 2541SOL    HW2 8523   1.955   0.725   0.342
 2542SOL     OW 8524   3.979   2.197   3.136
 2542SOL    HW1 8525   3.988   2.101   3.165
 2542SOL    HW2 8526   3.922   2.201   3.053
 2543SOL     OW 8527   5.851   6.494   5.398
 2543SOL    HW1 8528   5.871   6.522   5.492
 2543SOL    HW2 8529   5.772   6.434   5.397
 2544SOL     OW 8530   0.176   0.206   0.078
 2544SOL    HW1 8531   0.138   0.261   0.152
 2544SOL    HW2 8532   0.109   0.137   0.049
 2545SOL     OW 8533   0.784   1.898   0.200
 2545SOL    HW1 8534   0.844   1.880   0.122
 2545SOL    HW2 8535   0.710   1.959   0.172
 2546SOL     OW 8536   5.860   3.098   3.284
 2546SOL    HW1 8537   5.815   3.011   3.265
 2546SOL    HW2 8538   5.925   3.086   3.359
 2547SOL     OW 8539   6.048   3.492   0.752
 2547SOL    HW1 8540   6.035   3.567   0.817
 2547SOL    HW2 8541   5.978   3.497   0.681
 2548SOL     OW 8542   5.966   0.520   5.366
 2548SOL    HW1 8543   5.918   0.606   5.352
 2548SOL    HW2 8544   6.000   0.515   5.460
 2549SOL     OW 8545   2.594   4.183   6.533
 2549SOL    HW1 8546   2.635   4.195   6.443
 2549SOL    HW2 8547   2.666   4.174   6.602
 2550SOL     OW 8548   3.801   0.851   1.189
 2550SOL    HW1 8549   3.861   0.928   1.165
 2550SOL    HW2 8550   3.833   0.768   1.143
 2551SOL     OW 8551   2.909   4.644   1.123
 2551SOL    HW1 8552   2.988   4.603   1.078
 2551SOL    HW2 8553   2.916   4.629   1.222
 2552SOL     OW 8554   3.123   5.653   1.304
 2552SOL    HW1 8555   3.205   5.611   1.342
 2552SOL    HW2 8556   3.043   5.629   1.360
 2553SOL     OW 8557   4.385   2.058   1.438
 2553SOL    HW1 8558   4.295   2.093   1.415
 2553SOL    HW2 8559   4.427   2.115   1.508
 2554SOL     OW 8560   1.440   5.956   0.703
 2554SOL    HW1 8561   1.408   6.012   0.780
 2554SOL    HW2 8562   1.369   5.889   0.679
 2555SOL     OW 8563   0.707   5.686   4.278
 2555SOL    HW1 8564   0.663   5.596   4.276
 2555SOL    HW2 8565   0.710   5.723   4.185
 2556SOL     OW 8566   5.584   0.858   0.005
 2556SOL    HW1 8567   5.600   0.772   6.974
 2556SOL    HW2 8568   5.616   0.848   0.100
 2557SOL     OW 8569   2.868   1.170   0.372
 2557SOL    HW1 8570   2.832   1.173   0.465
 2557SOL    HW2 8571   2.843   1.254   0.324
 2558SOL     OW 8572   5.881   2.766   1.612
 2558SOL    HW1 8573   5.891   2.721   1.523
 2558SOL    HW2 8574   5.784   2.768   1.637
 2559SOL     OW 8575   0.143   5.968   3.469
 2559SOL    HW1 8576   0.050   5.983   3.434
 2559SOL    HW2 8577   0.151   5.874   3.502
 2560SOL     OW 8578   4.165   2.855   1.707
 2560SOL    HW1 8579   4.073   2.840   1.670
 2560SOL    HW2 8580   4.178   2.952   1.724
 2561SOL     OW 8581   3.643   0.862   4.605
 2561SOL    HW1 8582   3.551   0.873   4.568
 2561SOL    HW2 8583   3.696   0.801   4.546
 2562SOL     OW 8584   1.538   6.406   4.909
 2562SOL    HW1 8585   1.628   6.371   4.934
 2562SOL    HW2 8586   1.473   6.387   4.982
 2563SOL     OW 8587   4.707   2.336   0.249
 2563SOL    HW1 8588   4.730   2.310   0.343
 2563SOL    HW2 8589   4.696   2.253   0.194
 2564SOL     OW 8590   1.740   1.219   1.679
 2564SOL    HW1 8591   1.738   1.152   1.752
 2564SOL    HW2 8592   1.832   1.256   1.670
 2565SOL     OW 8593   6.463   0.151   0.815
 2565SOL    HW1 8594   6.534   0.170   0.747
 2565SOL    HW2 8595   6.409   0.072   0.786
 2566SOL     OW 8596   2.681   1.297   0.986
 2566SOL    HW1 8597   2.616   1.290   0.910
 2566SOL    HW2 8598   2.687   1.392   1.017
 2567SOL     OW 8599   1.876   0.845   6.146
 2567SOL    HW1 8600   1.906   0.753   6.173
 2567SOL    HW2 8601   1.920   0.912   6.205
 2568SOL     OW 8602   3.159   6.423   6.773
 2568SOL    HW1 8603   3.160   6.323   6.770
 2568SOL    HW2 8604   3.065   6.456   6.781
 2569SOL     OW 8605   2.825   6.468   6.681
 2569SOL    HW1 8606   2.794   6.397   6.744
 2569SOL    HW2 8607   2.786   6.556   6.709
 2570SOL     OW 8608   0.064   0.169   3.486
 2570SOL    HW1 8609   0.002   0.157   3.564
 2570SOL    HW2 8610   0.028   0.240   3.426
 2571SOL     OW 8611   3.199   3.625   2.328
 2571SOL    HW1 8612   3.244   3.627   2.417
 2571SOL    HW2 8613   3.100   3.617   2.341
 2572SOL     OW 8614   3.015   6.703   2.346
 2572SOL    HW1 8615   2.976   6.627   2.295
 2572SOL    HW2 8616   3.031   6.675   2.441
 2573SOL     OW 8617   6.013   0.443   2.690
 2573SOL    HW1 8618   6.005   0.428   2.789
 2573SOL    HW2 8619   5.956   0.521   2.663
 2574SOL     OW 8620   0.785   4.531   2.145
 2574SOL    HW1 8621   0.791   4.578   2.233
 2574SOL    HW2 8622   0.726   4.450   2.154
 2575SOL     OW 8623   4.418   3.495   5.263
 2575SOL    HW1 8624   4.382   3.572   5.210
 2575SOL    HW2 8625   4.515   3.511   5.282
 2576SOL     OW 8626   0.782   0.801   3.347
 2576SOL    HW1 8627   0.872   0.757   3.351
 2576SOL    HW2 8628   0.743   0.789   3.256
 2577SOL     OW 8629   1.820   4.773   0.286
 2577SOL    HW1 8630   1.790   4.746   0.378
 2577SOL    HW2 8631   1.866   4.697   0.242
 2578SOL     OW 8632   5.312   1.118   5.117
 2578SOL    HW1 8633   5.401   1.087   5.150
 2578SOL    HW2 8634   5.252   1.039   5.103
 2579SOL     OW 8635   0.122   2.127   6.414
 2579SOL    HW1 8636   0.047   2.060   6.418
 2579SOL    HW2 8637   0.176   2.111   6.331
 2580SOL     OW 8638   1.486   2.393   5.443
 2580SOL    HW1 8639   1.489   2.411   5.541
 2580SOL    HW2 8640   1.459   2.476   5.394
 2581SOL     OW 8641   4.855   6.712   4.251
 2581SOL    HW1 8642   4.794   6.730   4.327
 2581SOL    HW2 8643   4.936   6.664   4.283
 2582SOL     OW 8644   6.904   4.630   2.572
 2582SOL    HW1 8645   6.963   4.590   2.642
 2582SOL    HW2 8646   6.958   4.687   2.511
 2583SOL     OW 8647   2.745   0.692   6.931
 2583SOL    HW1 8648   2.690   0.661   7.009
 2583SOL    HW2 8649   2.800   0.616   6.897
 2584SOL     OW 8650   3.261   0.721   3.645
 2584SOL    HW1 8651   3.314   0.790   3.694
 2584SOL    HW2 8652   3.323   0.659   3.597
 2585SOL     OW 8653   3.880   0.630   3.091
 2585SOL    HW1 8654   3.888   0.532   3.077
 2585SOL    HW2 8655   3.785   0.653   3.110
 2586SOL     OW 8656   1.918   2.142   4.317
 2586SOL    HW1 8657   1.907   2.148   4.218
 2586SOL    HW2 8658   1.847   2.196   4.362
 2587SOL     OW 8659   6.758   4.528   3.338
 2587SOL    HW1 8660   6.756   4.429   3.320
 2587SOL    HW2 8661   6.853   4.560   3.337
 2588SOL     OW 8662   2.899   0.562   2.369
 2588SOL    HW1 8663   2.836   0.590   2.441
 2588SOL    HW2 8664   2.917   0.464   2.377
 2589SOL     OW 8665   4.768   6.735   2.462
 2589SOL    HW1 8666   4.685   6.715   2.411
 2589SOL    HW2 8667   4.783   6.834   2.466
 2590SOL     OW 8668   4.418   6.276   3.606
 2590SOL    HW1 8669   4.368   6.314   3.684
 2590SOL    HW2 8670   4.353   6.238   3.540
 2591SOL     OW 8671   5.252   0.755   1.174
 2591SOL    HW1 8672   5.282   0.711   1.089
 2591SOL    HW2 8673   5.282   0.850   1.174
 2592SOL     OW 8674   2.690   5.485   2.159
 2592SOL    HW1 8675   2.617   5.484   2.227
 2592SOL    HW2 8676   2.650   5.478   2.067
 2593SOL     OW 8677   2.419   6.921   4.190
 2593SOL    HW1 8678   2.497   6.971   4.153
 2593SOL    HW2 8679   2.450   6.834   4.227
 2594SOL     OW 8680   1.863   5.719   6.247
 2594SOL    HW1 8681   1.908   5.634   6.218
 2594SOL    HW2 8682   1.926   5.773   6.301
 2595SOL     OW 8683   6.991   3.307   5.189
 2595SOL    HW1 8684   6.902   3.264   5.205
 2595SOL    HW2 8685   6.981   3.382   5.124
 2596SOL     OW 8686   4.357   1.341   0.692
 2596SOL    HW1 8687   4.419   1.287   0.635
 2596SOL    HW2 8688   4.297   1.396   0.634
 2597SOL     OW 8689   2.097   1.970   6.258
 2597SOL    HW1 8690   2.096   1.906   6.335
 2597SOL    HW2 8691   2.054   1.927   6.179
 2598SOL     OW 8692   6.720   1.436   3.139
 2598SOL    HW1 8693   6.666   1.520   3.131
 2598SOL    HW2 8694   6.666   1.358   3.106
 2599SOL     OW 8695   4.934   5.816   5.690
 2599SOL    HW1 8696   4.891   5.725   5.693
 2599SOL    HW2 8697   5.018   5.815   5.745
 2600SOL     OW 8698   0.029   2.786   4.933
 2600SOL    HW1 8699   6.989   2.706   4.925
 2600SOL    HW2 8700   0.120   2.757   4.965
 2601SOL     OW 8701   4.136   4.286   5.321
 2601SOL    HW1 8702   4.183   4.365   5.282
 2601SOL    HW2 8703   4.047   4.274   5.278
 2602SOL     OW 8704   6.163   0.105   0.504
 2602SOL    HW1 8705   6.197   0.092   0.597
 2602SOL    HW2 8706   6.073   0.148   0.507
 2603SOL     OW 8707   1.877   1.725   6.823
 2603SOL    HW1 8708   1.780   1.702   6.831
 2603SOL    HW2 8709   1.927   1.646   6.789
 2604SOL     OW 8710   5.958   1.673   0.628
 2604SOL    HW1 8711   5.905   1.648   0.709
 2604SOL    HW2 8712   5.983   1.591   0.577
 2605SOL     OW 8713   5.287   2.172   5.573
 2605SOL    HW1 8714   5.310   2.079   5.546
 2605SOL    HW2 8715   5.371   2.225   5.586
 2606SOL     OW 8716   6.074   4.152   1.369
 2606SOL    HW1 8717   6.133   4.186   1.442
 2606SOL    HW2 8718   6.075   4.216   1.292
 2607SOL     OW 8719   0.343   0.705   3.418
 2607SOL    HW1 8720   0.442   0.698   3.433
 2607SOL    HW2 8721   0.307   0.615   3.392
 2608SOL     OW 8722   4.469   0.756   0.056
 2608SOL    HW1 8723   4.563   0.756   0.021
 2608SOL    HW2 8724   4.471   0.749   0.156
 2609SOL     OW 8725   1.216   4.325   3.386
 2609SOL    HW1 8726   1.295   4.337   3.447
 2609SOL    HW2 8727   1.133   4.356   3.432
 2610SOL     OW 8728   5.899   4.953   4.789
 2610SOL    HW1 8729   5.802   4.975   4.784
 2610SOL    HW2 8730   5.912   4.858   4.761
 2611SOL     OW 8731   2.800   6.364   1.935
 2611SOL    HW1 8732   2.726   6.320   1.986
 2611SOL    HW2 8733   2.761   6.429   1.870
 2612SOL     OW 8734   0.677   6.747   4.256
 2612SOL    HW1 8735   0.670   6.647   4.252
 2612SOL    HW2 8736   0.766   6.775   4.221
 2613SOL     OW 8737   4.380   1.703   6.933
 2613SOL    HW1 8738   4.396   1.735   6.840
 2613SOL    HW2 8739   4.318   1.624   6.931
 2614SOL     OW 8740   6.455   6.517   6.713
 2614SOL    HW1 8741   6.425   6.535   6.619
 2614SOL    HW2 8742   6.391   6.560   6.777
 2615SOL     OW 8743   0.394   4.293   1.302
 2615SOL    HW1 8744   0.457   4.349   1.356
 2615SOL    HW2 8745   0.363   4.215   1.357
 2616SOL     OW 8746   3.726   3.860   1.704
 2616SOL    HW1 8747   3.673   3.829   1.783
 2616SOL    HW2 8748   3.732   3.960   1.705
 2617SOL     OW 8749   2.783   6.717   1.048
 2617SOL    HW1 8750   2.841   6.762   0.980
 2617SOL    HW2 8751   2.758   6.784   1.119
 2618SOL     OW 8752   1.391   5.728   0.194
 2618SOL    HW1 8753   1.315   5.665   0.183
 2618SOL    HW2 8754   1.364   5.805   0.251
 2619SOL     OW 8755   6.073   1.105   2.581
 2619SOL    HW1 8756   5.981   1.118   2.544
 2619SOL    HW2 8757   6.080   1.014   2.621
 2620SOL     OW 8758   1.701   5.724   3.785
 2620SOL    HW1 8759   1.694   5.679   3.874
 2620SOL    HW2 8760   1.671   5.819   3.793
 2621SOL     OW 8761   1.584   5.826   4.465
 2621SOL    HW1 8762   1.650   5.754   4.443
 2621SOL    HW2 8763   1.578   5.890   4.389
 2622SOL     OW 8764   2.179   2.631   4.188
 2622SOL    HW1 8765   2.219   2.702   4.130
 2622SOL    HW2 8766   2.191   2.657   4.284
 2623SOL     OW 8767   3.196   0.059   5.514
 2623SOL    HW1 8768   3.100   0.084   5.496
 2623SOL    HW2 8769   3.213   0.064   5.612
 2624SOL     OW 8770   4.699   2.155   4.630
 2624SOL    HW1 8771   4.727   2.184   4.721
 2624SOL    HW2 8772   4.633   2.221   4.593
 2625SOL     OW 8773   2.073   0.004   5.618
 2625SOL    HW1 8774   2.075   6.936   5.567
 2625SOL    HW2 8775   2.056   7.004   5.715
 2626SOL     OW 8776   2.842   0.142   3.411
 2626SOL    HW1 8777   2.788   0.097   3.482
 2626SOL    HW2 8778   2.891   0.220   3.451
 2627SOL     OW 8779   1.124   0.430   4.807
 2627SOL    HW1 8780   1.104   0.518   4.765
 2627SOL    HW2 8781   1.043   0.372   4.802
 2628SOL     OW 8782   4.669   5.071   6.948
 2628SOL    HW1 8783   4.593   5.020   6.988
 2628SOL    HW2 8784   4.689   5.036   6.857
 2629SOL     OW 8785   3.092   3.981   2.025
 2629SOL    HW1 8786   3.057   3.945   2.112
 2629SOL    HW2 8787   3.025   3.963   1.953
 2630SOL     OW 8788   3.708   1.801   2.414
 2630SOL    HW1 8789   3.688   1.815   2.511
 2630SOL    HW2 8790   3.633   1.839   2.359
 2631SOL     OW 8791   3.380   6.609   3.924
 2631SOL    HW1 8792   3.421   6.700   3.928
 2631SOL    HW2 8793   3.451   6.541   3.909
 2632SOL     OW 8794   5.032   1.361   0.991
 2632SOL    HW1 8795   5.041   1.381   0.894
 2632SOL    HW2 8796   4.957   1.417   1.029
 2633SOL     OW 8797   0.442   1.941   0.353
 2633SOL    HW1 8798   0.531   1.962   0.395
 2633SOL    HW2 8799   0.375   2.010   0.381
 2634SOL     OW 8800   2.548   5.299   0.540
 2634SOL    HW1 8801   2.636   5.255   0.560
 2634SOL    HW2 8802   2.479   5.267   0.605
 2635SOL     OW 8803   6.483   4.132   3.343
 2635SOL    HW1 8804   6.490   4.189   3.424
 2635SOL    HW2 8805   6.402   4.158   3.290
 2636SOL     OW 8806   5.398   5.082   5.977
 2636SOL    HW1 8807   5.371   5.110   5.885
 2636SOL    HW2 8808   5.491   5.046   5.974
 2637SOL     OW 8809   5.216   5.338   2.125
 2637SOL    HW1 8810   5.119   5.317   2.134
 2637SOL    HW2 8811   5.269   5.253   2.127
 2638SOL     OW 8812   4.687   5.719   0.478
 2638SOL    HW1 8813   4.760   5.693   0.541
 2638SOL    HW2 8814   4.726   5.761   0.396
 2639SOL     OW 8815   6.354   0.836   0.177
 2639SOL    HW1 8816   6.399   0.925   0.172
 2639SOL    HW2 8817   6.268   0.840   0.126
 2640SOL     OW 8818   6.735   6.174   0.959
 2640SOL    HW1 8819   6.745   6.172   0.859
 2640SOL    HW2 8820   6.658   6.232   0.984
 2641SOL     OW 8821   6.983   5.627   1.331
 2641SOL    HW1 8822   6.892   5.626   1.291
 2641SOL    HW2 8823   0.026   5.571   1.275
 2642SOL     OW 8824   6.760   0.103   4.085
 2642SOL    HW1 8825   6.729   0.152   4.003
 2642SOL    HW2 8826   6.825   0.160   4.134
 2643SOL     OW 8827   1.694   0.754   1.877
 2643SOL    HW1 8828   1.732   0.733   1.967
 2643SOL    HW2 8829   1.676   0.668   1.828
 2644SOL     OW 8830   6.064   6.611   4.850
 2644SOL    HW1 8831   6.082   6.577   4.758
 2644SOL    HW2 8832   5.972   6.649   4.855
 2645SOL     OW 8833   5.585   6.086   6.399
 2645SOL    HW1 8834   5.513   6.022   6.372
 2645SOL    HW2 8835   5.589   6.162   6.334
 2646SOL     OW 8836   5.617   5.420   5.749
 2646SOL    HW1 8837   5.621   5.327   5.713
 2646SOL    HW2 8838   5.614   5.485   5.674
 2647SOL     OW 8839   3.180   4.427   0.488
 2647SOL    HW1 8840   3.216   4.503   0.543
 2647SOL    HW2 8841   3.094   4.395   0.528
 2648SOL     OW 8842   4.556   1.479   3.675
 2648SOL    HW1 8843   4.641   1.517   3.712
 2648SOL    HW2 8844   4.500   1.445   3.751
 2649SOL     OW 8845   2.852   3.917   5.262
 2649SOL    HW1 8846   2.897   3.853   5.201
 2649SOL    HW2 8847   2.775   3.872   5.308
 2650SOL     OW 8848   0.221   0.123   1.997
 2650SOL    HW1 8849   0.152   0.145   2.066
 2650SOL    HW2 8850   0.191   0.158   1.908
 2651SOL     OW 8851   1.673   0.091   2.703
 2651SOL    HW1 8852   1.736   0.166   2.719
 2651SOL    HW2 8853   1.699   0.042   2.620
 2652SOL     OW 8854   3.375   2.602   1.475
 2652SOL    HW1 8855   3.287   2.556   1.494
 2652SOL    HW2 8856   3.450   2.543   1.505
 2653SOL     OW 8857   5.807   6.999   1.406
 2653SOL    HW1 8858   5.887   6.940   1.411
 2653SOL    HW2 8859   5.740   6.959   1.343
 2654SOL     OW 8860   0.214   3.333   5.635
 2654SOL    HW1 8861   0.155   3.266   5.682
 2654SOL    HW2 8862   0.253   3.395   5.702
 2655SOL     OW 8863   5.515   4.542   3.926
 2655SOL    HW1 8864   5.467   4.532   4.013
 2655SOL    HW2 8865   5.449   4.536   3.851
 2656SOL     OW 8866   5.908   3.507   5.197
 2656SOL    HW1 8867   5.889   3.604   5.208
 2656SOL    HW2 8868   5.824   3.455   5.208
 2657SOL     OW 8869   4.095   2.010   5.435
 2657SOL    HW1 8870   4.119   2.083   5.370
 2657SOL    HW2 8871   4.121   2.039   5.528
 2658SOL     OW 8872   7.018   4.318   5.648
 2658SOL    HW1 8873   0.055   4.304   5.730
 2658SOL    HW2 8874   7.001   4.230   5.604
 2659SOL     OW 8875   6.179   0.855   3.672
 2659SOL    HW1 8876   6.196   0.839   3.575
 2659SOL    HW2 8877   6.221   0.782   3.726
 2660SOL     OW 8878   0.731   1.823   3.754
 2660SOL    HW1 8879   0.673   1.745   3.729
 2660SOL    HW2 8880   0.796   1.841   3.680
 2661SOL     OW 8881   3.535   6.637   3.400
 2661SOL    HW1 8882   3.446   6.665   3.434
 2661SOL    HW2 8883   3.605   6.700   3.432
 2662SOL     OW 8884   3.936   1.090   4.352
 2662SOL    HW1 8885   3.970   1.031   4.278
 2662SOL    HW2 8886   3.975   1.061   4.439
 2663SOL     OW 8887   0.977   4.083   3.173
 2663SOL    HW1 8888   1.036   4.163   3.167
 2663SOL    HW2 8889   0.925   4.073   3.088
 2664SOL     OW 8890   4.831   4.205   1.846
 2664SOL    HW1 8891   4.750   4.226   1.900
 2664SOL    HW2 8892   4.886   4.136   1.894
 2665SOL     OW 8893   3.874   0.858   5.151
 2665SOL    HW1 8894   3.817   0.776   5.143
 2665SOL    HW2 8895   3.889   0.897   5.060
 2666SOL     OW 8896   4.999   6.193   1.750
 2666SOL    HW1 8897   4.966   6.278   1.710
 2666SOL    HW2 8898   4.926   6.153   1.806
 2667SOL     OW 8899   1.995   4.836   2.545
 2667SOL    HW1 8900   2.033   4.877   2.628
 2667SOL    HW2 8901   1.958   4.745   2.566
 2668SOL     OW 8902   6.849   2.691   5.308
 2668SOL    HW1 8903   6.756   2.722   5.289
 2668SOL    HW2 8904   6.874   2.620   5.243
 2669SOL     OW 8905   4.025   5.759   4.826
 2669SOL    HW1 8906   3.974   5.765   4.911
 2669SOL    HW2 8907   3.966   5.782   4.749
 2670SOL     OW 8908   2.217   6.687   4.319
 2670SOL    HW1 8909   2.191   6.775   4.280
 2670SOL    HW2 8910   2.176   6.613   4.265
 2671SOL     OW 8911   3.110   3.686   6.968
 2671SOL    HW1 8912   3.040   3.757   6.982
 2671SOL    HW2 8913   3.161   3.706   6.885
 2672SOL     OW 8914   0.955   4.715   0.636
 2672SOL    HW1 8915   0.957   4.625   0.594
 2672SOL    HW2 8916   0.975   4.707   0.733
 2673SOL     OW 8917   4.192   2.271   2.950
 2673SOL    HW1 8918   4.126   2.285   3.024
 2673SOL    HW2 8919   4.217   2.174   2.947
 2674SOL     OW 8920   4.944   5.908   5.252
 2674SOL    HW1 8921   4.950   5.909   5.152
 2674SOL    HW2 8922   4.863   5.856   5.280
 2675SOL     OW 8923   0.275   5.206   5.789
 2675SOL    HW1 8924   0.262   5.126   5.847
 2675SOL    HW2 8925   0.202   5.211   5.721
 2676SOL     OW 8926   4.779   0.088   1.823
 2676SOL    HW1 8927   4.808   0.104   1.917
 2676SOL    HW2 8928   4.859   0.084   1.763
 2677SOL     OW 8929   2.456   4.668   2.003
 2677SOL    HW1 8930   2.414   4.601   2.063
 2677SOL    HW2 8931   2.418   4.660   1.911
 2678SOL     OW 8932   1.012   6.526   0.031
 2678SOL    HW1 8933   1.014   6.490   6.956
 2678SOL    HW2 8934   0.988   6.623   0.028
 2679SOL     OW 8935   2.127   5.179   1.418
 2679SOL    HW1 8936   2.218   5.220   1.410
 2679SOL    HW2 8937   2.058   5.252   1.423
 2680SOL     OW 8938   6.714   2.492   1.001
 2680SOL    HW1 8939   6.788   2.513   1.065
 2680SOL    HW2 8940   6.746   2.508   0.908
 2681SOL     OW 8941   1.705   2.138   1.334
 2681SOL    HW1 8942   1.694   2.236   1.320
 2681SOL    HW2 8943   1.690   2.116   1.431
 2682SOL     OW 8944   0.627   2.922   3.731
 2682SOL    HW1 8945   0.537   2.938   3.772
 2682SOL    HW2 8946   0.620   2.931   3.632
 2683SOL     OW 8947   1.797   6.834   0.905
 2683SOL    HW1 8948   1.764   6.858   0.997
 2683SOL    HW2 8949   1.728   6.860   0.838
 2684SOL     OW 8950   2.975   4.965   3.034
 2684SOL    HW1 8951   2.890   4.955   2.983
 2684SOL    HW2 8952   3.053   4.956   2.971
 2685SOL     OW 8953   5.005   4.189   5.737
 2685SOL    HW1 8954   4.977   4.136   5.657
 2685SOL    HW2 8955   4.993   4.134   5.819
 2686SOL     OW 8956   1.534   3.737   4.555
 2686SOL    HW1 8957   1.517   3.835   4.544
 2686SOL    HW2 8958   1.631   3.722   4.572
 2687SOL     OW 8959   4.644   5.329   3.166
 2687SOL    HW1 8960   4.566   5.267   3.155
 2687SOL    HW2 8961   4.702   5.326   3.085
 2688SOL     OW 8962   3.253   4.450   5.349
 2688SOL    HW1 8963   3.159   4.436   5.318
 2688SOL    HW2 8964   3.312   4.379   5.310
 2689SOL     OW 8965   5.955   1.490   3.798
 2689SOL    HW1 8966   6.006   1.404   3.789
 2689SOL    HW2 8967   6.010   1.566   3.764
 2690SOL     OW 8968   3.311   4.123   3.694
 2690SOL    HW1 8969   3.253   4.101   3.616
 2690SOL    HW2 8970   3.350   4.039   3.731
 2691SOL     OW 8971   1.004   6.027   0.953
 2691SOL    HW1 8972   1.026   5.982   1.040
 2691SOL    HW2 8973   0.951   5.965   0.896
 2692SOL     OW 8974   0.091   4.292   4.219
 2692SOL    HW1 8975   0.054   4.202   4.245
 2692SOL    HW2 8976   0.188   4.283   4.197
 2693SOL     OW 8977   2.016   3.844   2.560
 2693SOL    HW1 8978   1.980   3.796   2.481
 2693SOL    HW2 8979   2.113   3.865   2.545
 2694SOL     OW 8980   2.037   1.442   2.537
 2694SOL    HW1 8981   2.020   1.426   2.634
 2694SOL    HW2 8982   1.960   1.494   2.498
 2695SOL     OW 8983   3.800   1.973   1.904
 2695SOL    HW1 8984   3.743   2.054   1.911
 2695SOL    HW2 8985   3.895   1.997   1.921
 2696SOL     OW 8986   3.039   3.462   6.446
 2696SOL    HW1 8987   3.107   3.412   6.499
 2696SOL    HW2 8988   3.043   3.434   6.351
 2697SOL     OW 8989   2.110   1.040   5.101
 2697SOL    HW1 8990   2.193   1.035   5.157
 2697SOL    HW2 8991   2.087   0.949   5.067
 2698SOL     OW 8992   1.597   1.307   0.175
 2698SOL    HW1 8993   1.569   1.336   0.084
 2698SOL    HW2 8994   1.696   1.296   0.178
 2699SOL     OW 8995   1.838   4.426   3.651
 2699SOL    HW1 8996   1.912   4.363   3.626
 2699SOL    HW2 8997   1.843   4.444   3.750
 2700SOL     OW 8998   2.120   4.493   3.217
 2700SOL    HW1 8999   2.078   4.584   3.225
 2700SOL    HW2 9000   2.062   4.425   3.260
 2701SOL     OW 9001   1.389   0.581   5.343
 2701SOL    HW1 9002   1.484   0.558   5.363
 2701SOL    HW2 9003   1.386   0.636   5.259
 2702SOL     OW 9004   5.923   5.932   2.381
 2702SOL    HW1 9005   5.992   5.979   2.325
 2702SOL    HW2 9006   5.833   5.942   2.338
 2703SOL     OW 9007   1.993   2.730   2.374
 2703SOL    HW1 9008   2.064   2.789   2.334
 2703SOL    HW2 9009   2.024   2.635   2.370
 2704SOL     OW 9010   0.623   6.547   0.319
 2704SOL    HW1 9011   0.719   6.557   0.294
 2704SOL    HW2 9012   0.599   6.450   0.321
 2705SOL     OW 9013   0.346   2.527   3.071
 2705SOL    HW1 9014   0.305   2.614   3.096
 2705SOL    HW2 9015   0.387   2.535   2.979
 2706SOL     OW 9016   6.535   2.354   3.682
 2706SOL    HW1 9017   6.477   2.433   3.663
 2706SOL    HW2 9018   6.590   2.333   3.601
 2707SOL     OW 9019   3.602   0.669   0.288
 2707SOL    HW1 9020   3.593   0.768   0.281
 2707SOL    HW2 9021   3.697   0.646   0.310
 2708SOL     OW 9022   1.296   4.806   6.447
 2708SOL    HW1 9023   1.389   4.779   6.472
 2708SOL    HW2 9024   1.295   4.902   6.419
 2709SOL     OW 9025   3.713   0.286   2.336
 2709SOL    HW1 9026   3.785   0.335   2.287
 2709SOL    HW2 9027   3.752   0.207   2.382
 2710SOL     OW 9028   5.896   3.911   3.211
 2710SOL    HW1 9029   5.841   3.921   3.294
 2710SOL    HW2 9030   5.992   3.930   3.233
 2711SOL     OW 9031   0.379   6.747   1.751
 2711SOL    HW1 9032   0.346   6.775   1.841
 2711SOL    HW2 9033   0.351   6.652   1.734
 2712SOL     OW 9034   3.439   5.646   3.044
 2712SOL    HW1 9035   3.408   5.672   3.136
 2712SOL    HW2 9036   3.373   5.583   3.004
 2713SOL     OW 9037   2.408   2.328   5.571
 2713SOL    HW1 9038   2.395   2.238   5.530
 2713SOL    HW2 9039   2.352   2.334   5.654
 2714SOL     OW 9040   5.791   0.944   6.711
 2714SOL    HW1 9041   5.851   0.945   6.631
 2714SOL    HW2 9042   5.728   0.866   6.704
 2715SOL     OW 9043   5.749   0.310   6.852
 2715SOL    HW1 9044   5.738   0.366   6.770
 2715SOL    HW2 9045   5.840   0.325   6.890
 2716SOL     OW 9046   6.228   6.633   2.066
 2716SOL    HW1 9047   6.230   6.729   2.038
 2716SOL    HW2 9048   6.150   6.618   2.127
 2717SOL     OW 9049   0.484   6.747   3.011
 2717SOL    HW1 9050   0.570   6.782   3.048
 2717SOL    HW2 9051   0.445   6.816   2.950
 2718SOL     OW 9052   6.614   3.802   2.947
 2718SOL    HW1 9053   6.655   3.715   2.921
 2718SOL    HW2 9054   6.567   3.841   2.867
 2719SOL     OW 9055   4.756   4.466   3.280
 2719SOL    HW1 9056   4.753   4.450   3.181
 2719SOL    HW2 9057   4.755   4.564   3.298
 2720SOL     OW 9058   0.205   6.823   4.147
 2720SOL    HW1 9059   0.272   6.749   4.141
 2720SOL    HW2 9060   0.218   6.886   4.071
 2721SOL     OW 9061   4.785   5.969   2.709
 2721SOL    HW1 9062   4.711   6.005   2.765
 2721SOL    HW2 9063   4.830   6.044   2.660
 2722SOL     OW 9064   0.512   5.993   2.611
 2722SOL    HW1 9065   0.473   5.902   2.599
 2722SOL    HW2 9066   0.611   5.988   2.599
 2723SOL     OW 9067   2.645   2.199   4.572
 2723SOL    HW1 9068   2.701   2.125   4.610
 2723SOL    HW2 9069   2.615   2.259   4.646
 2724SOL     OW 9070   4.996   6.024   5.485
 2724SOL    HW1 9071   4.959   5.947   5.536
 2724SOL    HW2 9072   5.018   5.995   5.392
 2725SOL     OW 9073   1.865   5.425   2.530
 2725SOL    HW1 9074   1.921   5.498   2.491
 2725SOL    HW2 9075   1.817   5.459   2.610
 2726SOL     OW 9076   4.052   5.688   2.618
 2726SOL    HW1 9077   4.069   5.769   2.561
 2726SOL    HW2 9078   3.967   5.644   2.588
 2727SOL     OW 9079   2.099   5.474   3.796
 2727SOL    HW1 9080   2.066   5.567   3.778
 2727SOL    HW2 9081   2.066   5.443   3.885
 2728SOL     OW 9082   2.126   6.870   5.195
 2728SOL    HW1 9083   2.207   6.822   5.160
 2728SOL    HW2 9084   2.044   6.817   5.172
 2729SOL     OW 9085   6.675   4.126   2.313
 2729SOL    HW1 9086   6.658   4.033   2.347
 2729SOL    HW2 9087   6.762   4.128   2.264
 2730SOL     OW 9088   1.451   3.062   1.759
 2730SOL    HW1 9089   1.483   3.047   1.665
 2730SOL    HW2 9090   1.490   2.992   1.819
 2731SOL     OW 9091   2.074   3.385   6.926
 2731SOL    HW1 9092   2.039   3.462   6.874
 2731SOL    HW2 9093   2.071   3.302   6.870
 2732SOL     OW 9094   5.737   3.275   4.561
 2732SOL    HW1 9095   5.723   3.291   4.659
 2732SOL    HW2 9096   5.700   3.352   4.509
 2733SOL     OW 9097   1.879   0.429   6.881
 2733SOL    HW1 9098   1.866   0.352   6.818
 2733SOL    HW2 9099   1.893   0.513   6.829
 2734SOL     OW 9100   2.070   0.187   4.125
 2734SOL    HW1 9101   2.126   0.265   4.154
 2734SOL    HW2 9102   2.077   0.176   4.026
 2735SOL     OW 9103   1.512   5.664   1.301
 2735SOL    HW1 9104   1.416   5.641   1.285
 2735SOL    HW2 9105   1.535   5.748   1.252
 2736SOL     OW 9106   4.333   0.562   6.889
 2736SOL    HW1 9107   4.424   0.525   6.872
 2736SOL    HW2 9108   4.338   0.631   6.961
 2737SOL     OW 9109   4.180   3.921   5.377
 2737SOL    HW1 9110   4.081   3.910   5.361
 2737SOL    HW2 9111   4.195   3.999   5.437
 2738SOL     OW 9112   0.401   3.717   5.346
 2738SOL    HW1 9113   0.353   3.720   5.434
 2738SOL    HW2 9114   0.334   3.729   5.272
 2739SOL     OW 9115   4.006   3.903   6.551
 2739SOL    HW1 9116   4.051   3.834   6.608
 2739SOL    HW2 9117   4.001   3.869   6.457
 2740SOL     OW 9118   6.373   2.895   4.697
 2740SOL    HW1 9119   6.396   2.970   4.635
 2740SOL    HW2 9120   6.333   2.932   4.781
 2741SOL     OW 9121   2.178   3.336   5.964
 2741SOL    HW1 9122   2.113   3.322   5.890
 2741SOL    HW2 9123   2.256   3.275   5.952
 2742SOL     OW 9124   2.442   5.819   5.188
 2742SOL    HW1 9125   2.360   5.874   5.208
 2742SOL    HW2 9126   2.439   5.735   5.243
 2743SOL     OW 9127   5.501   3.627   6.243
 2743SOL    HW1 9128   5.509   3.538   6.289
 2743SOL    HW2 9129   5.429   3.681   6.287
 2744SOL     OW 9130   5.033   6.453   1.305
 2744SOL    HW1 9131   5.132   6.445   1.312
 2744SOL    HW2 9132   5.009   6.515   1.231
 2745SOL     OW 9133   3.197   5.549   3.000
 2745SOL    HW1 9134   3.156   5.637   2.977
 2745SOL    HW2 9135   3.129   5.492   3.046
 2746SOL     OW 9136   0.978   2.584   6.855
 2746SOL    HW1 9137   0.992   2.485   6.849
 2746SOL    HW2 9138   1.052   2.632   6.808
 2747SOL     OW 9139   5.051   6.383   3.645
 2747SOL    HW1 9140   5.040   6.284   3.657
 2747SOL    HW2 9141   4.993   6.415   3.571
 2748SOL     OW 9142   5.397   1.089   4.767
 2748SOL    HW1 9143   5.425   1.104   4.672
 2748SOL    HW2 9144   5.326   1.156   4.792
 2749SOL     OW 9145   5.662   5.055   2.886
 2749SOL    HW1 9146   5.657   4.959   2.913
 2749SOL    HW2 9147   5.757   5.084   2.883
 2750SOL     OW 9148   0.701   0.419   0.322
 2750SOL    HW1 9149   0.684   0.322   0.311
 2750SOL    HW2 9150   0.760   0.452   0.248
 2751SOL     OW 9151   1.467   0.117   0.061
 2751SOL    HW1 9152   1.563   0.105   0.086
 2751SOL    HW2 9153   1.414   0.040   0.097
 2752SOL     OW 9154   0.093   6.746   6.446
 2752SOL    HW1 9155   0.002   6.735   6.487
 2752SOL    HW2 9156   0.090   6.717   6.351
 2753SOL     OW 9157   3.479   5.293   4.261
 2753SOL    HW1 9158   3.518   5.308   4.170
 2753SOL    HW2 9159   3.545   5.244   4.318
 2754SOL     OW 9160   1.126   5.015   3.926
 2754SOL    HW1 9161   1.141   5.004   4.024
 2754SOL    HW2 9162   1.047   5.074   3.910
 2755SOL     OW 9163   4.483   6.731   2.869
 2755SOL    HW1 9164   4.560   6.789   2.843
 2755SOL    HW2 9165   4.490   6.644   2.821
 2756SOL     OW 9166   0.230   2.956   4.649
 2756SOL    HW1 9167   0.193   3.048   4.640
 2756SOL    HW2 9168   0.266   2.925   4.561
 2757SOL     OW 9169   5.051   3.721   5.663
 2757SOL    HW1 9170   5.051   3.812   5.622
 2757SOL    HW2 9171   5.001   3.725   5.750
 2758SOL     OW 9172   6.918   6.762   1.540
 2758SOL    HW1 9173   6.971   6.798   1.616
 2758SOL    HW2 9174   6.979   6.719   1.474
 2759SOL     OW 9175   3.980   3.753   4.216
 2759SOL    HW1 9176   3.988   3.797   4.306
 2759SOL    HW2 9177   3.942   3.661   4.227
 2760SOL     OW 9178   4.931   5.541   2.824
 2760SOL    HW1 9179   5.008   5.491   2.786
 2760SOL    HW2 9180   4.962   5.628   2.861
 2761SOL     OW 9181   2.084   3.397   3.679
 2761SOL    HW1 9182   1.994   3.393   3.637
 2761SOL    HW2 9183   2.096   3.319   3.741
 2762SOL     OW 9184   4.331   1.957   2.781
 2762SOL    HW1 9185   4.307   1.996   2.692
 2762SOL    HW2 9186   4.250   1.957   2.840
 2763SOL     OW 9187   5.469   0.954   3.689
 2763SOL    HW1 9188   5.424   0.879   3.641
 2763SOL    HW2 9189   5.552   0.980   3.639
 2764SOL     OW 9190   0.113   1.903   2.533
 2764SOL    HW1 9191   0.188   1.964   2.511
 2764SOL    HW2 9192   0.115   1.882   2.631
 2765SOL     OW 9193   6.740   6.802   6.903
 2765SOL    HW1 9194   6.828   6.840   6.874
 2765SOL    HW2 9195   6.724   6.716   6.855
 2766SOL     OW 9196   5.449   0.568   0.095
 2766SOL    HW1 9197   5.487   0.526   0.177
 2766SOL    HW2 9198   5.350   0.556   0.095
 2767SOL     OW 9199   0.460   6.211   6.305
 2767SOL    HW1 9200   0.411   6.242   6.386
 2767SOL    HW2 9201   0.472   6.288   6.242
 2768SOL     OW 9202   4.059   0.360   1.702
 2768SOL    HW1 9203   4.109   0.375   1.787
 2768SOL    HW2 9204   3.962   0.381   1.716
 2769SOL     OW 9205   0.822   5.342   6.102
 2769SOL    HW1 9206   0.813   5.253   6.058
 2769SOL    HW2 9207   0.828   5.330   6.201
 2770SOL     OW 9208   2.319   6.854   0.490
 2770SOL    HW1 9209   2.303   6.947   0.456
 2770SOL    HW2 9210   2.323   6.791   0.413
 2771SOL     OW 9211   4.011   6.231   5.551
 2771SOL    HW1 9212   3.968   6.297   5.613
 2771SOL    HW2 9213   3.949   6.212   5.475
 2772SOL     OW 9214   6.071   1.792   3.051
 2772SOL    HW1 9215   6.082   1.702   3.010
 2772SOL    HW2 9216   6.152   1.848   3.033
 2773SOL     OW 9217   4.666   1.413   6.116
 2773SOL    HW1 9218   4.610   1.399   6.198
 2773SOL    HW2 9219   4.609   1.452   6.044
 2774SOL     OW 9220   6.242   6.691   3.780
 2774SOL    HW1 9221   6.217   6.753   3.706
 2774SOL    HW2 9222   6.174   6.617   3.787
 2775SOL     OW 9223   0.093   2.727   4.609
 2775SOL    HW1 9224   0.144   2.799   4.654
 2775SOL    HW2 9225   0.125   2.716   4.515
 2776SOL     OW 9226   4.931   3.997   5.912
 2776SOL    HW1 9227   4.952   3.899   5.917
 2776SOL    HW2 9228   4.871   4.022   5.988
 2777SOL     OW 9229   1.575   1.511   0.683
 2777SOL    HW1 9230   1.657   1.562   0.654
 2777SOL    HW2 9231   1.495   1.549   0.637
 2778SOL     OW 9232   2.414   6.272   5.786
 2778SOL    HW1 9233   2.473   6.217   5.845
 2778SOL    HW2 9234   2.377   6.214   5.713
 2779SOL     OW 9235   5.243   1.445   3.834
 2779SOL    HW1 9236   5.311   1.384   3.874
 2779SOL    HW2 9237   5.153   1.400   3.834
 2780SOL     OW 9238   0.470   0.060   5.142
 2780SOL    HW1 9239   0.431   6.989   5.122
 2780SOL    HW2 9240   0.404   0.115   5.193
 2781SOL     OW 9241   6.904   6.918   2.773
 2781SOL    HW1 9242   6.864   6.947   2.686
 2781SOL    HW2 9243   6.979   6.854   2.755
 2782SOL     OW 9244   5.443   6.601   5.154
 2782SOL    HW1 9245   5.407   6.622   5.063
 2782SOL    HW2 9246   5.455   6.685   5.206
 2783SOL     OW 9247   0.189   2.021   1.864
 2783SOL    HW1 9248   0.228   2.098   1.915
 2783SOL    HW2 9249   0.151   2.055   1.778
 2784SOL     OW 9250   1.163   1.974   2.335
 2784SOL    HW1 9251   1.246   2.029   2.341
 2784SOL    HW2 9252   1.184   1.887   2.289
 2785SOL     OW 9253   5.479   3.156   3.679
 2785SOL    HW1 9254   5.407   3.143   3.748
 2785SOL    HW2 9255   5.444   3.215   3.606
 2786SOL     OW 9256   0.607   5.914   1.386
 2786SOL    HW1 9257   0.624   6.012   1.388
 2786SOL    HW2 9258   0.537   5.894   1.317
 2787SOL     OW 9259   0.143   6.670   6.192
 2787SOL    HW1 9260   0.101   6.587   6.156
 2787SOL    HW2 9261   0.168   6.730   6.116
 2788SOL     OW 9262   2.962   6.841   6.519
 2788SOL    HW1 9263   3.015   6.773   6.469
 2788SOL    HW2 9264   3.020   6.918   6.544
 2789SOL     OW 9265   2.208   2.169   3.905
 2789SOL    HW1 9266   2.284   2.184   3.967
 2789SOL    HW2 9267   2.237   2.110   3.829
 2790SOL     OW 9268   1.112   4.757   1.104
 2790SOL    HW1 9269   1.131   4.662   1.129
 2790SOL    HW2 9270   1.164   4.781   1.023
 2791SOL     OW 9271   0.691   3.821   5.479
 2791SOL    HW1 9272   0.623   3.774   5.423
 2791SOL    HW2 9273   0.672   3.919   5.479
 2792SOL     OW 9274   3.122   2.537   6.880
 2792SOL    HW1 9275   3.199   2.587   6.839
 2792SOL    HW2 9276   3.152   2.495   6.966
 2793SOL     OW 9277   4.260   3.606   6.183
 2793SOL    HW1 9278   4.206   3.549   6.245
 2793SOL    HW2 9279   4.350   3.563   6.169
 2794SOL     OW 9280   1.452   2.035   6.737
 2794SOL    HW1 9281   1.534   2.032   6.794
 2794SOL    HW2 9282   1.476   2.009   6.643
 2795SOL     OW 9283   0.998   0.216   0.363
 2795SOL    HW1 9284   0.907   0.188   0.391
 2795SOL    HW2 9285   1.033   0.285   0.427
 2796SOL     OW 9286   3.240   5.890   6.913
 2796SOL    HW1 9287   3.201   5.922   6.827
 2796SOL    HW2 9288   3.307   5.957   6.946
 2797SOL     OW 9289   4.737   4.266   5.115
 2797SOL    HW1 9290   4.807   4.292   5.181
 2797SOL    HW2 9291   4.674   4.200   5.158
 2798SOL     OW 9292   5.772   1.888   1.867
 2798SOL    HW1 9293   5.765   1.986   1.882
 2798SOL    HW2 9294   5.708   1.840   1.927
 2799SOL     OW 9295   3.353   0.321   4.146
 2799SOL    HW1 9296   3.353   0.418   4.121
 2799SOL    HW2 9297   3.359   0.313   4.246
 2800SOL     OW 9298   4.519   1.439   0.451
 2800SOL    HW1 9299   4.577   1.368   0.410
 2800SOL    HW2 9300   4.526   1.523   0.397
 2801SOL     OW 9301   0.601   4.441   3.253
 2801SOL    HW1 9302   0.518   4.389   3.274
 2801SOL    HW2 9303   0.663   4.385   3.199
 2802SOL     OW 9304   2.100   4.444   4.285
 2802SOL    HW1 9305   2.157   4.465   4.365
 2802SOL    HW2 9306   2.143   4.370   4.233
 2803SOL     OW 9307   3.010   2.834   6.818
 2803SOL    HW1 9308   2.990   2.820   6.721
 2803SOL    HW2 9309   3.047   2.749   6.857
 2804SOL     OW 9310   5.472   2.671   3.369
 2804SOL    HW1 9311   5.467   2.644   3.273
 2804SOL    HW2 9312   5.398   2.735   3.390
 2805SOL     OW 9313   3.905   5.505   0.556
 2805SOL    HW1 9314   4.000   5.526   0.537
 2805SOL    HW2 9315   3.894   5.406   0.565
 2806SOL     OW 9316   1.221   3.339   4.694
 2806SOL    HW1 9317   1.240   3.422   4.642
 2806SOL    HW2 9318   1.126   3.312   4.680
 2807SOL     OW 9319   5.048   1.357   4.089
 2807SOL    HW1 9320   5.143   1.328   4.099
 2807SOL    HW2 9321   5.013   1.388   4.177
 2808SOL     OW 9322   0.672   6.361   6.850
 2808SOL    HW1 9323   0.713   6.314   6.928
 2808SOL    HW2 9324   0.720   6.334   6.766
 2809SOL     OW 9325   0.756   6.323   0.761
 2809SOL    HW1 9326   0.680   6.375   0.721
 2809SOL    HW2 9327   0.760   6.341   0.859
 2810SOL     OW 9328   0.148   6.382   2.103
 2810SOL    HW1 9329   0.226   6.357   2.045
 2810SOL    HW2 9330   0.067   6.334   2.070
 2811SOL     OW 9331   0.812   6.992   0.629
 2811SOL    HW1 9332   0.789   6.895   0.633
 2811SOL    HW2 9333   0.788   0.010   0.539
 2812SOL     OW 9334   2.219   0.807   0.978
 2812SOL    HW1 9335   2.270   0.870   1.037
 2812SOL    HW2 9336   2.192   0.726   1.031
 2813SOL     OW 9337   5.998   1.803   1.789
 2813SOL    HW1 9338   6.038   1.834   1.703
 2813SOL    HW2 9339   5.915   1.856   1.808
 2814SOL     OW 9340   1.995   4.124   6.508
 2814SOL    HW1 9341   2.000   4.125   6.607
 2814SOL    HW2 9342   2.066   4.184   6.471
 2815SOL     OW 9343   6.355   6.354   4.750
 2815SOL    HW1 9344   6.422   6.355   4.824
 2815SOL    HW2 9345   6.264   6.335   4.788
 2816SOL     OW 9346   0.832   5.260   5.322
 2816SOL    HW1 9347   0.880   5.174   5.302
 2816SOL    HW2 9348   0.892   5.321   5.374
 2817SOL     OW 9349   3.076   1.017   1.335
 2817SOL    HW1 9350   3.057   1.008   1.237
 2817SOL    HW2 9351   3.124   0.935   1.367
 2818SOL     OW 9352   2.137   0.308   0.490
 2818SOL    HW1 9353   2.060   0.310   0.554
 2818SOL    HW2 9354   2.210   0.367   0.525
 2819SOL     OW 9355   5.988   0.586   6.687
 2819SOL    HW1 9356   5.908   0.528   6.667
 2819SOL    HW2 9357   5.967   0.646   6.763
 2820SOL     OW 9358   1.736   1.976   0.141
 2820SOL    HW1 9359   1.699   2.050   0.197
 2820SOL    HW2 9360   1.735   1.891   0.194
 2821SOL     OW 9361   3.852   2.791   5.988
 2821SOL    HW1 9362   3.884   2.702   5.954
 2821SOL    HW2 9363   3.759   2.782   6.024
 2822SOL     OW 9364   4.258   3.559   1.397
 2822SOL    HW1 9365   4.286   3.594   1.487
 2822SOL    HW2 9366   4.191   3.622   1.357
 2823SOL     OW 9367   5.214   4.232   3.646
 2823SOL    HW1 9368   5.301   4.277   3.667
 2823SOL    HW2 9369   5.139   4.286   3.685
 2824SOL     OW 9370   0.509   4.211   5.549
 2824SOL    HW1 9371   0.531   4.149   5.624
 2824SOL    HW2 9372   0.474   4.297   5.586
 2825SOL     OW 9373   4.846   2.405   5.437
 2825SOL    HW1 9374   4.808   2.498   5.433
 2825SOL    HW2 9375   4.817   2.361   5.522
 2826SOL     OW 9376   3.175   2.538   6.275
 2826SOL    HW1 9377   3.190   2.455   6.222
 2826SOL    HW2 9378   3.169   2.515   6.372
 2827SOL     OW 9379   0.302   2.130   0.511
 2827SOL    HW1 9380   0.361   2.195   0.558
 2827SOL    HW2 9381   0.236   2.092   0.576
 2828SOL     OW 9382   2.275   3.525   0.048
 2828SOL    HW1 9383   2.311   3.458   0.113
 2828SOL    HW2 9384   2.189   3.491   0.010
 2829SOL     OW 9385   3.577   4.522   0.936
 2829SOL    HW1 9386   3.662   4.479   0.965
 2829SOL    HW2 9387   3.500   4.464   0.964
 2830SOL     OW 9388   2.647   5.282   4.731
 2830SOL    HW1 9389   2.620   5.188   4.753
 2830SOL    HW2 9390   2.566   5.335   4.706
 2831SOL     OW 9391   5.530   1.564   1.683
 2831SOL    HW1 9392   5.588   1.558   1.601
 2831SOL    HW2 9393   5.586   1.553   1.765
 2832SOL     OW 9394   1.379   3.491   1.624
 2832SOL    HW1 9395   1.359   3.401   1.585
 2832SOL    HW2 9396   1.363   3.489   1.722
 2833SOL     OW 9397   6.542   1.956   3.086
 2833SOL    HW1 9398   6.622   1.907   3.051
 2833SOL    HW2 9399   6.489   1.895   3.146
 2834SOL     OW 9400   2.807   0.300   4.127
 2834SOL    HW1 9401   2.800   0.374   4.194
 2834SOL    HW2 9402   2.893   0.307   4.077
 2835SOL     OW 9403   6.273   2.040   0.582
 2835SOL    HW1 9404   6.286   2.095   0.499
 2835SOL    HW2 9405   6.349   2.059   0.645
 2836SOL     OW 9406   2.944   6.475   2.149
 2836SOL    HW1 9407   2.945   6.391   2.203
 2836SOL    HW2 9408   2.864   6.475   2.089
 2837SOL     OW 9409   5.270   4.325   3.405
 2837SOL    HW1 9410   5.341   4.390   3.378
 2837SOL    HW2 9411   5.192   4.374   3.443
 2838SOL     OW 9412   6.873   4.486   5.900
 2838SOL    HW1 9413   6.845   4.404   5.951
 2838SOL    HW2 9414   6.796   4.549   5.895
 2839SOL     OW 9415   5.653   2.713   6.596
 2839SOL    HW1 9416   5.599   2.663   6.663
 2839SOL    HW2 9417   5.726   2.763   6.642
 2840SOL     OW 9418   6.501   5.630   5.295
 2840SOL    HW1 9419   6.576   5.571   5.264
 2840SOL    HW2 9420   6.483   5.699   5.225
 2841SOL     OW 9421   5.611   3.691   3.021
 2841SOL    HW1 9422   5.710   3.701   3.015
 2841SOL    HW2 9423   5.588   3.596   3.042
 2842SOL     OW 9424   0.914   6.311   3.711
 2842SOL    HW1 9425   0.998   6.313   3.657
 2842SOL    HW2 9426   0.915   6.385   3.777
 2843SOL     OW 9427   1.072   2.940   3.937
 2843SOL    HW1 9428   1.146   2.936   4.005
 2843SOL    HW2 9429   1.102   2.997   3.860
 2844SOL     OW 9430   5.399   4.265   0.162
 2844SOL    HW1 9431   5.344   4.281   0.080
 2844SOL    HW2 9432   5.491   4.235   0.135
 2845SOL     OW 9433   3.540   1.783   1.262
 2845SOL    HW1 9434   3.544   1.684   1.259
 2845SOL    HW2 9435   3.617   1.818   1.316
 2846SOL     OW 9436   5.669   0.957   5.980
 2846SOL    HW1 9437   5.734   1.026   5.947
 2846SOL    HW2 9438   5.652   0.891   5.907
 2847SOL     OW 9439   5.823   4.763   2.859
 2847SOL    HW1 9440   5.799   4.765   2.762
 2847SOL    HW2 9441   5.884   4.841   2.879
 2848SOL     OW 9442   6.923   4.274   0.433
 2848SOL    HW1 9443   6.856   4.202   0.415
 2848SOL    HW2 9444   6.993   4.239   0.495
 2849SOL     OW 9445   5.168   1.161   0.667
 2849SOL    HW1 9446   5.258   1.147   0.708
 2849SOL    HW2 9447   5.178   1.215   0.583
 2850SOL     OW 9448   0.059   1.092   0.793
 2850SOL    HW1 9449   6.983   1.060   0.784
 2850SOL    HW2 9450   0.060   1.192   0.804
 2851SOL     OW 9451   3.244   3.042   2.029
 2851SOL    HW1 9452   3.336   3.072   2.053
 2851SOL    HW2 9453   3.184   3.051   2.108
 2852SOL     OW 9454   1.402   4.859   5.104
 2852SOL    HW1 9455   1.473   4.917   5.143
 2852SOL    HW2 9456   1.439   4.810   5.025
 2853SOL     OW 9457   6.824   5.516   5.506
 2853SOL    HW1 9458   6.764   5.490   5.431
 2853SOL    HW2 9459   6.772   5.518   5.591
 2854SOL     OW 9460   3.440   0.827   6.877
 2854SOL    HW1 9461   3.417   0.823   6.780
 2854SOL    HW2 9462   3.465   0.736   6.909
 2855SOL     OW 9463   2.752   2.379   4.412
 2855SOL    HW1 9464   2.720   2.372   4.317
 2855SOL    HW2 9465   2.714   2.304   4.466
 2856SOL     OW 9466   1.346   5.198   4.965
 2856SOL    HW1 9467   1.340   5.284   5.015
 2856SOL    HW2 9468   1.257   5.176   4.925
 2857SOL     OW 9469   0.946   4.268   0.116
 2857SOL    HW1 9470   0.888   4.187   0.119
 2857SOL    HW2 9471   0.895   4.347   0.150
 2858SOL     OW 9472   5.511   4.326   4.252
 2858SOL    HW1 9473   5.517   4.367   4.343
 2858SOL    HW2 9474   5.596   4.341   4.202
 2859SOL     OW 9475   0.483   5.144   1.897
 2859SOL    HW1 9476   0.473   5.192   1.810
 2859SOL    HW2 9477   0.574   5.160   1.934
 2860SOL     OW 9478   1.489   6.327   2.515
 2860SOL    HW1 9479   1.447   6.313   2.425
 2860SOL    HW2 9480   1.434   6.392   2.568
 2861SOL     OW 9481   6.056   3.122   5.234
 2861SOL    HW1 9482   5.958   3.113   5.251
 2861SOL    HW2 9483   6.085   3.215   5.256
 2862SOL     OW 9484   4.026   1.201   0.894
 2862SOL    HW1 9485   3.979   1.113   0.898
 2862SOL    HW2 9486   4.047   1.224   0.799
 2863SOL     OW 9487   5.540   1.505   6.218
 2863SOL    HW1 9488   5.501   1.456   6.296
 2863SOL    HW2 9489   5.473   1.508   6.144
 2864SOL     OW 9490   4.766   4.784   0.261
 2864SOL    HW1 9491   4.710   4.856   0.220
 2864SOL    HW2 9492   4.863   4.809   0.255
 2865SOL     OW 9493   5.357   4.244   6.241
 2865SOL    HW1 9494   5.359   4.310   6.166
 2865SOL    HW2 9495   5.267   4.246   6.285
 2866SOL     OW 9496   4.901   6.202   0.516
 2866SOL    HW1 9497   4.895   6.286   0.571
 2866SOL    HW2 9498   4.811   6.159   0.512
 2867SOL     OW 9499   0.183   6.178   3.646
 2867SOL    HW1 9500   0.254   6.234   3.602
 2867SOL    HW2 9501   0.159   6.102   3.586
 2868SOL     OW 9502   6.602   6.817   5.046
 2868SOL    HW1 9503   6.677   6.762   5.082
 2868SOL    HW2 9504   6.563   6.873   5.120
 2869SOL     OW 9505   5.895   4.832   5.128
 2869SOL    HW1 9506   5.936   4.904   5.072
 2869SOL    HW2 9507   5.903   4.744   5.079
 2870SOL     OW 9508   0.494   1.324   1.174
 2870SOL    HW1 9509   0.504   1.388   1.098
 2870SOL    HW2 9510   0.492   1.374   1.260
 2871SOL     OW 9511   4.651   1.641   3.457
 2871SOL    HW1 9512   4.737   1.608   3.418
 2871SOL    HW2 9513   4.621   1.580   3.531
 2872SOL     OW 9514   3.380   1.570   2.491
 2872SOL    HW1 9515   3.290   1.539   2.522
 2872SOL    HW2 9516   3.380   1.669   2.484
 2873SOL     OW 9517   0.246   0.598   2.306
 2873SOL    HW1 9518   0.234   0.504   2.335
 2873SOL    HW2 9519   0.201   0.612   2.218
 2874SOL     OW 9520   1.444   0.888   1.822
 2874SOL    HW1 9521   1.410   0.923   1.909
 2874SOL    HW2 9522   1.537   0.854   1.833
 2875SOL     OW 9523   3.192   0.929   2.127
 2875SOL    HW1 9524   3.254   0.986   2.074
 2875SOL    HW2 9525   3.214   0.833   2.112
 2876SOL     OW 9526   0.924   0.033   0.915
 2876SOL    HW1 9527   0.983   0.039   0.835
 2876SOL    HW2 9528   0.882   0.122   0.933
 2877SOL     OW 9529   1.002   3.643   6.557
 2877SOL    HW1 9530   0.916   3.600   6.587
 2877SOL    HW2 9531   1.075   3.574   6.557
 2878SOL     OW 9532   3.977   3.466   4.256
 2878SOL    HW1 9533   3.950   3.370   4.262
 2878SOL    HW2 9534   4.019   3.484   4.167
 2879SOL     OW 9535   6.362   6.695   0.299
 2879SOL    HW1 9536   6.445   6.732   0.258
 2879SOL    HW2 9537   6.351   6.599   0.274
 2880SOL     OW 9538   1.721   1.208   2.422
 2880SOL    HW1 9539   1.645   1.177   2.365
 2880SOL    HW2 9540   1.804   1.158   2.396
 2881SOL     OW 9541   4.950   5.801   6.958
 2881SOL    HW1 9542   4.977   5.705   6.969
 2881SOL    HW2 9543   4.937   5.821   6.861
 2882SOL     OW 9544   4.463   6.470   0.843
 2882SOL    HW1 9545   4.441   6.389   0.896
 2882SOL    HW2 9546   4.407   6.547   0.875
 2883SOL     OW 9547   5.168   6.165   2.921
 2883SOL    HW1 9548   5.246   6.157   2.859
 2883SOL    HW2 9549   5.115   6.080   2.920
 2884SOL     OW 9550   6.053   5.205   3.576
 2884SOL    HW1 9551   6.135   5.213   3.519
 2884SOL    HW2 9552   6.070   5.247   3.665
 2885SOL     OW 9553   0.560   4.266   3.617
 2885SOL    HW1 9554   0.573   4.364   3.602
 2885SOL    HW2 9555   0.463   4.248   3.636
 2886SOL     OW 9556   1.875   4.482   5.129
 2886SOL    HW1 9557   1.820   4.541   5.189
 2886SOL    HW2 9558   1.825   4.397   5.110
 2887SOL     OW 9559   0.468   4.963   2.422
 2887SOL    HW1 9560   0.458   5.043   2.362
 2887SOL    HW2 9561   0.390   4.959   2.485
 2888SOL     OW 9562   4.603   5.741   6.653
 2888SOL    HW1 9563   4.659   5.671   6.608
 2888SOL    HW2 9564   4.569   5.805   6.584
 2889SOL     OW 9565   4.216   5.241   3.833
 2889SOL    HW1 9566   4.136   5.201   3.789
 2889SOL    HW2 9567   4.299   5.199   3.796
 2890SOL     OW 9568   1.372   1.405   1.000
 2890SOL    HW1 9569   1.327   1.352   0.928
 2890SOL    HW2 9570   1.303   1.457   1.051
 2891SOL     OW 9571   1.460   1.895   5.043
 2891SOL    HW1 9572   1.445   1.887   5.142
 2891SOL    HW2 9573   1.436   1.809   4.999
 2892SOL     OW 9574   5.792   4.288   2.398
 2892SOL    HW1 9575   5.826   4.243   2.315
 2892SOL    HW2 9576   5.868   4.303   2.461
 2893SOL     OW 9577   6.284   6.257   5.067
 2893SOL    HW1 9578   6.214   6.233   5.000
 2893SOL    HW2 9579   6.337   6.176   5.091
 2894SOL     OW 9580   1.778   5.593   1.234
 2894SOL    HW1 9581   1.695   5.648   1.225
 2894SOL    HW2 9582   1.775   5.543   1.321
 2895SOL     OW 9583   4.916   6.614   6.249
 2895SOL    HW1 9584   4.850   6.547   6.284
 2895SOL    HW2 9585   4.904   6.624   6.150
 2896SOL     OW 9586   6.659   0.158   6.533
 2896SOL    HW1 9587   6.704   0.069   6.541
 2896SOL    HW2 9588   6.699   0.221   6.600
 2897SOL     OW 9589   2.722   6.207   3.836
 2897SOL    HW1 9590   2.640   6.234   3.785
 2897SOL    HW2 9591   2.695   6.172   3.926
 2898SOL     OW 9592   5.487   2.562   2.694
 2898SOL    HW1 9593   5.436   2.518   2.621
 2898SOL    HW2 9594   5.569   2.605   2.657
 2899SOL     OW 9595   6.333   2.861   1.466
 2899SOL    HW1 9596   6.285   2.807   1.536
 2899SOL    HW2 9597   6.317   2.958   1.484
 2900SOL     OW 9598   3.098   3.019   5.102
 2900SOL    HW1 9599   3.159   3.070   5.041
 2900SOL    HW2 9600   3.010   3.066   5.108
 2901SOL     OW 9601   1.374   2.691   1.595
 2901SOL    HW1 9602   1.424   2.664   1.678
 2901SOL    HW2 9603   1.376   2.615   1.529
 2902SOL     OW 9604   5.379   6.414   3.456
 2902SOL    HW1 9605   5.309   6.470   3.411
 2902SOL    HW2 9606   5.361   6.317   3.437
 2903SOL     OW 9607   0.768   5.369   1.995
 2903SOL    HW1 9608   0.832   5.294   2.011
 2903SOL    HW2 9609   0.793   5.447   2.053
 2904SOL     OW 9610   3.604   4.907   4.081
 2904SOL    HW1 9611   3.507   4.885   4.088
 2904SOL    HW2 9612   3.623   4.948   3.992
 2905SOL     OW 9613   1.925   4.120   1.023
 2905SOL    HW1 9614   1.830   4.093   1.040
 2905SOL    HW2 9615   1.968   4.055   0.960
 2906SOL     OW 9616   6.258   6.400   6.403
 2906SOL    HW1 9617   6.168   6.443   6.406
 2906SOL    HW2 9618   6.263   6.329   6.473
 2907SOL     OW 9619   6.823   1.551   6.054
 2907SOL    HW1 9620   6.726   1.568   6.068
 2907SOL    HW2 9621   6.837   1.509   5.963
 2908SOL     OW 9622   3.895   5.858   3.691
 2908SOL    HW1 9623   3.994   5.867   3.700
 2908SOL    HW2 9624   3.851   5.942   3.724
 2909SOL     OW 9625   0.006   6.344   0.823
 2909SOL    HW1 9626   7.009   6.268   0.760
 2909SOL    HW2 9627   7.008   6.313   0.917
 2910SOL     OW 9628   1.235   0.103   4.129
 2910SOL    HW1 9629   1.174   0.092   4.050
 2910SOL    HW2 9630   1.223   0.025   4.191
 2911SOL     OW 9631   6.774   3.414   3.410
 2911SOL    HW1 9632   6.820   3.326   3.421
 2911SOL    HW2 9633   6.788   3.448   3.317
 2912SOL     OW 9634   0.197   1.366   3.012
 2912SOL    HW1 9635   0.101   1.339   3.006
 2912SOL    HW2 9636   0.234   1.377   2.920
 2913SOL     OW 9637   0.942   6.856   4.189
 2913SOL    HW1 9638   0.998   6.792   4.242
 2913SOL    HW2 9639   0.946   6.832   4.092
 2914SOL     OW 9640   4.044   4.579   0.804
 2914SOL    HW1 9641   3.983   4.658   0.798
 2914SOL    HW2 9642   4.051   4.550   0.900
 2915SOL     OW 9643   2.039   6.797   3.671
 2915SOL    HW1 9644   1.999   6.787   3.762
 2915SOL    HW2 9645   2.126   6.747   3.667
 2916SOL     OW 9646   0.287   5.904   6.844
 2916SOL    HW1 9647   0.386   5.892   6.842
 2916SOL    HW2 9648   0.260   5.972   6.776
 2917SOL     OW 9649   2.100   1.877   3.724
 2917SOL    HW1 9650   2.103   1.820   3.642
 2917SOL    HW2 9651   2.005   1.890   3.752
 2918SOL     OW 9652   4.820   0.899   1.258
 2918SOL    HW1 9653   4.738   0.908   1.202
 2918SOL    HW2 9654   4.900   0.929   1.207
 2919SOL     OW 9655   1.059   5.103   5.046
 2919SOL    HW1 9656   1.008   5.067   5.124
 2919SOL    HW2 9657   1.117   5.179   5.077
 2920SOL     OW 9658   3.032   2.459   1.662
 2920SOL    HW1 9659   3.049   2.557   1.655
 2920SOL    HW2 9660   3.001   2.437   1.754
 2921SOL     OW 9661   0.184   5.061   3.284
 2921SOL    HW1 9662   0.232   4.976   3.263
 2921SOL    HW2 9663   0.106   5.071   3.221
 2922SOL     OW 9664   3.915   5.136   4.069
 2922SOL    HW1 9665   3.901   5.040   4.095
 2922SOL    HW2 9666   3.920   5.143   3.969
 2923SOL     OW 9667   1.464   4.065   3.502
 2923SOL    HW1 9668   1.438   3.997   3.571
 2923SOL    HW2 9669   1.448   4.028   3.411
 2924SOL     OW 9670   4.680   1.374   6.865
 2924SOL    HW1 9671   4.612   1.307   6.836
 2924SOL    HW2 9672   4.771   1.332   6.866
 2925SOL     OW 9673   5.603   6.713   4.489
 2925SOL    HW1 9674   5.666   6.637   4.471
 2925SOL    HW2 9675   5.639   6.797   4.448
 2926SOL     OW 9676   7.013   2.435   5.219
 2926SOL    HW1 9677   0.054   2.382   5.280
 2926SOL    HW2 9678   0.050   2.493   5.160
 2927SOL     OW 9679   1.078   1.875   2.955
 2927SOL    HW1 9680   1.023   1.932   2.894
 2927SOL    HW2 9681   1.023   1.800   2.990
 2928SOL     OW 9682   5.114   4.526   0.117
 2928SOL    HW1 9683   5.209   4.554   0.105
 2928SOL    HW2 9684   5.064   4.595   0.168
 2929SOL     OW 9685   1.989   1.147   2.609
 2929SOL    HW1 9686   2.047   1.195   2.544
 2929SOL    HW2 9687   1.972   1.205   2.688
 2930SOL     OW 9688   0.813   3.049   3.898
 2930SOL    HW1 9689   0.913   3.042   3.897
 2930SOL    HW2 9690   0.775   2.984   3.832
 2931SOL     OW 9691   5.532   4.122   5.603
 2931SOL    HW1 9692   5.445   4.094   5.644
 2931SOL    HW2 9693   5.607   4.099   5.666
 2932SOL     OW 9694   6.858   0.100   0.805
 2932SOL    HW1 9695   6.818   0.170   0.746
 2932SOL    HW2 9696   6.931   0.140   0.859
 2933SOL     OW 9697   0.652   0.614   6.519
 2933SOL    HW1 9698   0.689   0.684   6.457
 2933SOL    HW2 9699   0.560   0.588   6.489
 2934SOL     OW 9700   5.518   5.221   2.704
 2934SOL    HW1 9701   5.560   5.189   2.789
 2934SOL    HW2 9702   5.587   5.268   2.649
 2935SOL     OW 9703   0.294   4.473   6.003
 2935SOL    HW1 9704   0.374   4.529   6.026
 2935SOL    HW2 9705   0.259   4.429   6.086
 2936SOL     OW 9706   4.564   6.482   2.768
 2936SOL    HW1 9707   4.654   6.438   2.760
 2936SOL    HW2 9708   4.506   6.428   2.830
 2937SOL     OW 9709   6.403   3.293   3.261
 2937SOL    HW1 9710   6.345   3.330   3.188
 2937SOL    HW2 9711   6.499   3.303   3.235
 2938SOL     OW 9712   0.228   5.299   1.282
 2938SOL    HW1 9713   0.159   5.259   1.223
 2938SOL    HW2 9714   0.225   5.257   1.372
 2939SOL     OW 9715   6.243   5.841   2.013
 2939SOL    HW1 9716   6.279   5.924   1.970
 2939SOL    HW2 9717   6.248   5.765   1.947
 2940SOL     OW 9718   4.721   5.993   3.079
 2940SOL    HW1 9719   4.643   6.007   3.018
 2940SOL    HW2 9720   4.787   6.068   3.067
 2941SOL     OW 9721   2.844   4.957   1.870
 2941SOL    HW1 9722   2.925   4.898   1.874
 2941SOL    HW2 9723   2.769   4.914   1.920
 2942SOL     OW 9724   2.552   1.790   0.430
 2942SOL    HW1 9725   2.580   1.868   0.375
 2942SOL    HW2 9726   2.621   1.718   0.423
 2943SOL     OW 9727   0.197   4.620   3.732
 2943SOL    HW1 9728   0.139   4.607   3.652
 2943SOL    HW2 9729   0.181   4.546   3.797
 2944SOL     OW 9730   0.646   5.029   3.856
 2944SOL    HW1 9731   0.601   5.109   3.817
 2944SOL    HW2 9732   0.665   4.963   3.783
 2945SOL     OW 9733   5.653   3.330   0.512
 2945SOL    HW1 9734   5.576   3.394   0.510
 2945SOL    HW2 9735   5.619   3.236   0.510
 2946SOL     OW 9736   3.381   3.755   4.750
 2946SOL    HW1 9737   3.296   3.702   4.741
 2946SOL    HW2 9738   3.456   3.693   4.771
 2947SOL     OW 9739   6.674   6.760   0.700
 2947SOL    HW1 9740   6.594   6.775   0.758
 2947SOL    HW2 9741   6.693   6.662   0.694
 2948SOL     OW 9742   6.193   4.512   0.920
 2948SOL    HW1 9743   6.229   4.419   0.930
 2948SOL    HW2 9744   6.260   4.569   0.874
 2949SOL     OW 9745   1.560   6.138   0.927
 2949SOL    HW1 9746   1.584   6.191   1.008
 2949SOL    HW2 9747   1.552   6.198   0.848
 2950SOL     OW 9748   5.041   5.001   2.213
 2950SOL    HW1 9749   5.066   4.989   2.309
 2950SOL    HW2 9750   4.957   4.948   2.194
 2951SOL     OW 9751   0.765   2.819   0.981
 2951SOL    HW1 9752   0.821   2.870   1.046
 2951SOL    HW2 9753   0.726   2.739   1.026
 2952SOL     OW 9754   1.104   0.984   4.727
 2952SOL    HW1 9755   1.173   0.912   4.726
 2952SOL    HW2 9756   1.068   0.998   4.634
 2953SOL     OW 9757   0.992   5.531   3.204
 2953SOL    HW1 9758   1.023   5.621   3.175
 2953SOL    HW2 9759   0.896   5.537   3.233
 2954SOL     OW 9760   0.622   4.580   5.741
 2954SOL    HW1 9761   0.665   4.615   5.825
 2954SOL    HW2 9762   0.571   4.653   5.697
 2955SOL     OW 9763   0.964   5.071   6.265
 2955SOL    HW1 9764   0.899   5.028   6.328
 2955SOL    HW2 9765   0.921   5.079   6.175
 2956SOL     OW 9766   6.551   3.599   5.125
 2956SOL    HW1 9767   6.574   3.614   5.029
 2956SOL    HW2 9768   6.634   3.610   5.181
 2957SOL     OW 9769   1.428   4.927   1.775
 2957SOL    HW1 9770   1.392   4.878   1.695
 2957SOL    HW2 9771   1.523   4.899   1.791
 2958SOL     OW 9772   2.333   3.194   1.369
 2958SOL    HW1 9773   2.384   3.233   1.446
 2958SOL    HW2 9774   2.318   3.097   1.385
 2959SOL     OW 9775   1.018   3.958   4.175
 2959SOL    HW1 9776   0.973   4.020   4.111
 2959SOL    HW2 9777   1.028   3.868   4.134
 2960SOL     OW 9778   5.422   6.243   0.684
 2960SOL    HW1 9779   5.323   6.234   0.675
 2960SOL    HW2 9780   5.457   6.172   0.745
 2961SOL     OW 9781   5.885   1.868   0.969
 2961SOL    HW1 9782   5.904   1.772   0.993
 2961SOL    HW2 9783   5.949   1.897   0.897
 2962SOL     OW 9784   6.557   0.549   4.050
 2962SOL    HW1 9785   6.496   0.469   4.055
 2962SOL    HW2 9786   6.520   0.616   3.986
 2963SOL     OW 9787   2.029   1.295   6.248
 2963SOL    HW1 9788   2.067   1.387   6.252
 2963SOL    HW2 9789   1.943   1.296   6.197
 2964SOL     OW 9790   0.612   0.972   5.621
 2964SOL    HW1 9791   0.593   1.034   5.697
 2964SOL    HW2 9792   0.609   0.878   5.653
 2965SOL     OW 9793   6.165   0.289   6.070
 2965SOL    HW1 9794   6.193   0.383   6.085
 2965SOL    HW2 9795   6.154   0.243   6.158
 2966SOL     OW 9796   3.636   6.983   2.907
 2966SOL    HW1 9797   3.718   0.001   2.865
 2966SOL    HW2 9798   3.563   0.032   2.903
 2967SOL     OW 9799   5.573   0.009   5.169
 2967SOL    HW1 9800   5.495   6.982   5.212
 2967SOL    HW2 9801   5.629   6.960   5.122
 2968SOL     OW 9802   1.682   4.144   1.869
 2968SOL    HW1 9803   1.679   4.242   1.849
 2968SOL    HW2 9804   1.741   4.098   1.802
 2969SOL     OW 9805   4.088   1.928   5.095
 2969SOL    HW1 9806   4.170   1.886   5.056
 2969SOL    HW2 9807   4.064   2.009   5.041
 2970SOL     OW 9808   2.690   2.340   6.493
 2970SOL    HW1 9809   2.685   2.399   6.412
 2970SOL    HW2 9810   2.600   2.336   6.537
 2971SOL     OW 9811   3.641   3.652   5.576
 2971SOL    HW1 9812   3.665   3.687   5.666
 2971SOL    HW2 9813   3.582   3.572   5.585
 2972SOL     OW 9814   0.132   6.054   0.049
 2972SOL    HW1 9815   0.085   6.112   7.000
 2972SOL    HW2 9816   0.187   5.986   0.001
 2973SOL     OW 9817   4.868   0.254   4.441
 2973SOL    HW1 9818   4.826   0.167   4.415
 2973SOL    HW2 9819   4.890   0.253   4.538
 2974SOL     OW 9820   5.197   5.016   2.937
 2974SOL    HW1 9821   5.140   4.967   2.870
 2974SOL    HW2 9822   5.137   5.062   3.003
 2975SOL     OW 9823   0.685   3.401   4.630
 2975SOL    HW1 9824   0.594   3.373   4.659
 2975SOL    HW2 9825   0.732   3.447   4.706
 2976SOL     OW 9826   4.184   0.060   1.411
 2976SOL    HW1 9827   4.279   0.031   1.414
 2976SOL    HW2 9828   4.179   0.160   1.419
 2977SOL     OW 9829   1.382   1.421   2.226
 2977SOL    HW1 9830   1.282   1.411   2.230
 2977SOL    HW2 9831   1.422   1.342   2.179
 2978SOL     OW 9832   3.299   5.897   0.403
 2978SOL    HW1 9833   3.371   5.905   0.334
 2978SOL    HW2 9834   3.275   5.988   0.436
 2979SOL     OW 9835   1.809   1.402   5.351
 2979SOL    HW1 9836   1.860   1.320   5.325
 2979SOL    HW2 9837   1.741   1.377   5.421
 2980SOL     OW 9838   3.325   3.130   2.869
 2980SOL    HW1 9839   3.408   3.186   2.861
 2980SOL    HW2 9840   3.281   3.149   2.957
 2981SOL     OW 9841   2.682   1.816   1.662
 2981SOL    HW1 9842   2.593   1.800   1.619
 2981SOL    HW2 9843   2.684   1.907   1.702
 2982SOL     OW 9844   0.665   0.495   2.460
 2982SOL    HW1 9845   0.668   0.484   2.361
 2982SOL    HW2 9846   0.755   0.523   2.493
 2983SOL     OW 9847   6.590   2.558   5.871
 2983SOL    HW1 9848   6.538   2.482   5.834
 2983SOL    HW2 9849   6.545   2.593   5.953
 2984SOL     OW 9850   0.652   5.721   1.095
 2984SOL    HW1 9851   0.568   5.764   1.128
 2984SOL    HW2 9852   0.631   5.663   1.017
 2985SOL     OW 9853   6.963   6.830   5.488
 2985SOL    HW1 9854   6.968   6.894   5.411
 2985SOL    HW2 9855   6.868   6.799   5.499
 2986SOL     OW 9856   3.854   4.048   2.499
 2986SOL    HW1 9857   3.832   3.950   2.506
 2986SOL    HW2 9858   3.823   4.082   2.410
 2987SOL     OW 9859   2.623   6.505   5.928
 2987SOL    HW1 9860   2.576   6.419   5.909
 2987SOL    HW2 9861   2.706   6.511   5.874
 2988SOL     OW 9862   0.751   2.307   6.573
 2988SOL    HW1 9863   0.751   2.386   6.634
 2988SOL    HW2 9864   0.659   2.267   6.570
 2989SOL     OW 9865   5.623   3.477   5.853
 2989SOL    HW1 9866   5.558   3.513   5.920
 2989SOL    HW2 9867   5.656   3.388   5.883
 2990SOL     OW 9868   4.810   2.329   4.863
 2990SOL    HW1 9869   4.790   2.395   4.790
 2990SOL    HW2 9870   4.900   2.348   4.902
 2991SOL     OW 9871   6.079   2.666   0.163
 2991SOL    HW1 9872   6.074   2.665   0.263
 2991SOL    HW2 9873   6.153   2.727   0.134
 2992SOL     OW 9874   2.455   4.488   4.692
 2992SOL    HW1 9875   2.397   4.541   4.754
 2992SOL    HW2 9876   2.434   4.391   4.702
 2993SOL     OW 9877   3.734   5.136   6.763
 2993SOL    HW1 9878   3.801   5.210   6.763
 2993SOL    HW2 9879   3.651   5.165   6.811
 2994SOL     OW 9880   2.916   5.147   4.885
 2994SOL    HW1 9881   2.948   5.053   4.898
 2994SOL    HW2 9882   2.820   5.147   4.857
 2995SOL     OW 9883   5.648   0.900   2.084
 2995SOL    HW1 9884   5.610   0.851   2.005
 2995SOL    HW2 9885   5.598   0.873   2.167
 2996SOL     OW 9886   6.907   0.665   4.250
 2996SOL    HW1 9887   6.860   0.577   4.253
 2996SOL    HW2 9888   6.882   0.719   4.331
 2997SOL     OW 9889   4.939   6.251   4.042
 2997SOL    HW1 9890   4.961   6.219   3.949
 2997SOL    HW2 9891   4.849   6.218   4.069
 2998SOL     OW 9892   3.166   0.113   1.906
 2998SOL    HW1 9893   3.158   0.187   1.839
 2998SOL    HW2 9894   3.094   0.124   1.975
 2999SOL     OW 9895   2.658   5.540   0.485
 2999SOL    HW1 9896   2.708   5.526   0.399
 2999SOL    HW2 9897   2.621   5.452   0.516
 3000SOL     OW 9898   1.657   4.302   6.380
 3000SOL    HW1 9899   1.726   4.232   6.362
 3000SOL    HW2 9900   1.573   4.278   6.330
 3001SOL     OW 9901   2.912   0.389   5.857
 3001SOL    HW1 9902   2.935   0.402   5.954
 3001SOL    HW2 9903   2.834   0.445   5.833
 3002SOL     OW 9904   1.438   2.103   1.249
 3002SOL    HW1 9905   1.450   2.055   1.162
 3002SOL    HW2 9906   1.523   2.099   1.302
 3003SOL     OW 9907   1.266   5.874   7.003
 3003SOL    HW1 9908   1.294   5.814   0.059
 3003SOL    HW2 9909   1.235   5.961   0.022
 3004SOL     OW 9910   2.812   1.307   4.730
 3004SOL    HW1 9911   2.802   1.233   4.796
 3004SOL    HW2 9912   2.849   1.388   4.776
 3005SOL     OW 9913   2.631   1.436   6.867
 3005SOL    HW1 9914   2.676   1.452   6.779
 3005SOL    HW2 9915   2.655   1.510   6.931
 3006SOL     OW 9916   5.920   0.974   5.842
 3006SOL    HW1 9917   5.923   0.927   5.754
 3006SOL    HW2 9918   5.937   0.909   5.916
 3007SOL     OW 9919   6.244   5.476   6.147
 3007SOL    HW1 9920   6.316   5.407   6.141
 3007SOL    HW2 9921   6.167   5.439   6.199
 3008SOL     OW 9922   5.443   3.438   5.597
 3008SOL    HW1 9923   5.388   3.519   5.579
 3008SOL    HW2 9924   5.528   3.465   5.643
 3009SOL     OW 9925   5.354   3.944   1.259
 3009SOL    HW1 9926   5.354   3.872   1.329
 3009SOL    HW2 9927   5.261   3.954   1.222
 3010SOL     OW 9928   4.375   4.110   1.466
 3010SOL    HW1 9929   4.301   4.107   1.533
 3010SOL    HW2 9930   4.458   4.145   1.511
 3011SOL     OW 9931   5.320   0.640   0.931
 3011SOL    HW1 9932   5.411   0.598   0.923
 3011SOL    HW2 9933   5.250   0.570   0.926
 3012SOL     OW 9934   2.149   2.590   4.824
 3012SOL    HW1 9935   2.239   2.610   4.863
 3012SOL    HW2 9936   2.114   2.505   4.863
 3013SOL     OW 9937   0.459   5.519   5.532
 3013SOL    HW1 9938   0.492   5.456   5.461
 3013SOL    HW2 9939   0.363   5.542   5.514
 3014SOL     OW 9940   3.596   6.970   0.791
 3014SOL    HW1 9941   3.607   6.928   0.881
 3014SOL    HW2 9942   3.610   6.900   0.720
 3015SOL     OW 9943   2.093   6.745   6.333
 3015SOL    HW1 9944   2.047   6.774   6.250
 3015SOL    HW2 9945   2.106   6.646   6.331
 3016SOL     OW 9946   3.369   1.129   4.522
 3016SOL    HW1 9947   3.336   1.204   4.579
 3016SOL    HW2 9948   3.305   1.052   4.527
 3017SOL     OW 9949   1.639   6.184   6.722
 3017SOL    HW1 9950   1.619   6.094   6.762
 3017SOL    HW2 9951   1.693   6.238   6.786
 3018SOL     OW 9952   2.022   2.804   1.927
 3018SOL    HW1 9953   2.065   2.893   1.916
 3018SOL    HW2 9954   2.092   2.735   1.944
 3019SOL     OW 9955   1.088   1.144   5.215
 3019SOL    HW1 9956   0.990   1.149   5.234
 3019SOL    HW2 9957   1.115   1.222   5.159
 3020SOL     OW 9958   5.466   4.361   6.745
 3020SOL    HW1 9959   5.503   4.275   6.710
 3020SOL    HW2 9960   5.432   4.416   6.669
 3021SOL     OW 9961   4.082   6.906   4.303
 3021SOL    HW1 9962   4.116   6.812   4.301
 3021SOL    HW2 9963   4.043   6.925   4.393
 3022SOL     OW 9964   3.839   6.470   2.223
 3022SOL    HW1 9965   3.876   6.561   2.205
 3022SOL    HW2 9966   3.908   6.416   2.272
 3023SOL     OW 9967   5.555   4.652   5.017
 3023SOL    HW1 9968   5.595   4.575   4.967
 3023SOL    HW2 9969   5.591   4.654   5.110
 3024SOL     OW 9970   5.970   1.668   6.346
 3024SOL    HW1 9971   5.998   1.758   6.380
 3024SOL    HW2 9972   5.899   1.631   6.405
 3025SOL     OW 9973   3.787   5.270   1.011
 3025SOL    HW1 9974   3.771   5.347   0.949
 3025SOL    HW2 9975   3.881   5.238   1.002
 3026SOL     OW 9976   6.920   5.926   2.961
 3026SOL    HW1 9977   6.879   6.016   2.978
 3026SOL    HW2 9978   7.015   5.926   2.993
 3027SOL     OW 9979   3.774   0.325   0.976
 3027SOL    HW1 9980   3.755   0.252   0.911
 3027SOL    HW2 9981   3.869   0.318   1.007
 3028SOL     OW 9982   3.567   3.441   3.710
 3028SOL    HW1 9983   3.619   3.484   3.636
 3028SOL    HW2 9984   3.552   3.507   3.784
 3029SOL     OW 9985   0.243   2.289   5.126
 3029SOL    HW1 9986   0.209   2.378   5.098
 3029SOL    HW2 9987   0.315   2.259   5.063
 3030SOL     OW 9988   0.059   4.036   6.272
 3030SOL    HW1 9989   0.058   4.108   6.202
 3030SOL    HW2 9990   0.137   3.975   6.255
 3031SOL     OW 9991   0.226   4.349   0.059
 3031SOL    HW1 9992   0.196   4.255   0.042
 3031SOL    HW2 9993   0.271   4.385   6.996
 3032SOL     OW 9994   3.880   0.535   3.471
 3032SOL    HW1 9995   3.795   0.495   3.436
 3032SOL    HW2 9996   3.910   0.608   3.410
 3033SOL     OW 9997   2.272   0.235   6.553
 3033SOL    HW1 9998   2.292   0.332   6.542
 3033SOL    HW2 9999   2.259   0.214   6.650
 3034SOL     OW10000   4.927   3.427   3.246
 3034SOL    HW110001   4.970   3.392   3.162
 3034SOL    HW210002   4.981   3.503   3.282
 3035SOL     OW10003   5.921   4.295   6.605
 3035SOL    HW110004   6.014   4.261   6.614
 3035SOL    HW210005   5.906   4.328   6.511
 3036SOL     OW10006   2.689   2.533   6.938
 3036SOL    HW110007   2.703   2.542   6.839
 3036SOL    HW210008   2.645   2.615   6.973
 3037SOL     OW10009   0.544   5.544   6.302
 3037SOL    HW110010   0.521   5.615   6.368
 3037SOL    HW210011   0.580   5.464   6.351
 3038SOL     OW10012   6.040   4.969   5.487
 3038SOL    HW110013   6.004   4.880   5.462
 3038SOL    HW210014   6.139   4.972   5.468
 3039SOL     OW10015   6.234   3.331   6.710
 3039SOL    HW110016   6.219   3.376   6.798
 3039SOL    HW210017   6.167   3.364   6.644
 3040SOL     OW10018   3.466   6.737   6.435
 3040SOL    HW110019   3.536   6.775   6.497
 3040SOL    HW210020   3.507   6.666   6.379
 3041SOL     OW10021   2.275   5.617   6.106
 3041SOL    HW110022   2.353   5.633   6.045
 3041SOL    HW210023   2.190   5.625   6.055
 3042SOL     OW10024   0.176   5.806   4.662
 3042SOL    HW110025   0.130   5.779   4.577
 3042SOL    HW210026   0.139   5.892   4.695
 3043SOL     OW10027   2.249   3.743   1.558
 3043SOL    HW110028   2.266   3.842   1.554
 3043SOL    HW210029   2.197   3.715   1.477
 3044SOL     OW10030   3.865   4.058   3.828
 3044SOL    HW110031   3.938   4.126   3.831
 3044SOL    HW210032   3.904   3.967   3.845
 3045SOL     OW10033   5.652   6.935   3.111
 3045SOL    HW110034   5.595   6.867   3.158
 3045SOL    HW210035   5.609   0.006   3.118
 3046SOL     OW10036   6.091   5.783   1.549
 3046SOL    HW110037   6.012   5.844   1.559
 3046SOL    HW210038   6.157   5.802   1.621
 3047SOL     OW10039   4.537   1.896   3.494
 3047SOL    HW110040   4.567   1.803   3.474
 3047SOL    HW210041   4.442   1.908   3.464
 3048SOL     OW10042   4.476   4.974   0.754
 3048SOL    HW110043   4.532   4.912   0.809
 3048SOL    HW210044   4.524   5.060   0.741
 3049SOL     OW10045   0.375   0.781   1.247
 3049SOL    HW110046   0.437   0.768   1.170
 3049SOL    HW210047   0.412   0.736   1.328
 3050SOL     OW10048   3.852   3.052   5.570
 3050SOL    HW110049   3.911   2.973   5.589
 3050SOL    HW210050   3.855   3.072   5.472
 3051SOL     OW10051   2.339   4.395   5.858
 3051SOL    HW110052   2.359   4.325   5.927
 3051SOL    HW210053   2.412   4.463   5.857
 3052SOL     OW10054   6.165   6.359   4.405
 3052SOL    HW110055   6.261   6.376   4.382
 3052SOL    HW210056   6.127   6.292   4.342
 3053SOL     OW10057   0.469   5.414   5.781
 3053SOL    HW110058   0.424   5.327   5.802
 3053SOL    HW210059   0.427   5.454   5.700
 3054SOL     OW10060   6.074   6.052   3.553
 3054SOL    HW110061   6.068   6.066   3.454
 3054SOL    HW210062   6.168   6.028   3.577
 3055SOL     OW10063   5.500   5.774   0.715
 3055SOL    HW110064   5.409   5.775   0.755
 3055SOL    HW210065   5.494   5.802   0.619
 3056SOL     OW10066   4.331   2.609   1.333
 3056SOL    HW110067   4.248   2.553   1.334
 3056SOL    HW210068   4.397   2.571   1.398
 3057SOL     OW10069   0.002   2.229   3.121
 3057SOL    HW110070   6.938   2.188   3.160
 3057SOL    HW210071   0.081   2.174   3.146
 3058SOL     OW10072   5.247   4.034   6.468
 3058SOL    HW110073   5.344   4.058   6.465
 3058SOL    HW210074   5.220   3.992   6.381
 3059SOL     OW10075   1.727   2.610   2.969
 3059SOL    HW110076   1.738   2.552   3.049
 3059SOL    HW210077   1.725   2.706   2.998
 3060SOL     OW10078   6.599   2.858   3.863
 3060SOL    HW110079   6.529   2.793   3.891
 3060SOL    HW210080   6.607   2.931   3.931
 3061SOL     OW10081   5.330   5.609   2.211
 3061SOL    HW110082   5.265   5.684   2.198
 3061SOL    HW210083   5.284   5.522   2.192
 3062SOL     OW10084   4.286   5.183   6.968
 3062SOL    HW110085   4.195   5.147   6.950
 3062SOL    HW210086   4.349   5.151   6.897
 3063SOL     OW10087   6.176   5.786   1.041
 3063SOL    HW110088   6.099   5.850   1.037
 3063SOL    HW210089   6.210   5.781   1.135
 3064SOL     OW10090   4.408   0.947   5.716
 3064SOL    HW110091   4.375   0.897   5.636
 3064SOL    HW210092   4.410   1.045   5.697
 3065SOL     OW10093   4.479   1.864   6.319
 3065SOL    HW110094   4.548   1.888   6.387
 3065SOL    HW210095   4.458   1.767   6.325
 3066SOL     OW10096   5.189   0.177   6.312
 3066SOL    HW110097   5.113   0.141   6.366
 3066SOL    HW210098   5.235   0.101   6.265
 3067SOL     OW10099   1.054   2.147   4.613
 3067SOL    HW110100   1.117   2.169   4.688
 3067SOL    HW210101   1.034   2.049   4.614
 3068SOL     OW10102   6.499   0.903   0.703
 3068SOL    HW110103   6.530   0.812   0.733
 3068SOL    HW210104   6.442   0.893   0.622
 3069SOL     OW10105   5.323   6.097   4.082
 3069SOL    HW110106   5.395   6.028   4.082
 3069SOL    HW210107   5.318   6.142   3.993
 3070SOL     OW10108   2.330   1.661   0.306
 3070SOL    HW110109   2.391   1.718   0.360
 3070SOL    HW210110   2.349   1.564   0.324
 3071SOL     OW10111   6.391   4.276   4.447
 3071SOL    HW110112   6.356   4.353   4.393
 3071SOL    HW210113   6.358   4.190   4.407
 3072SOL     OW10114   1.781   6.896   4.320
 3072SOL    HW110115   1.835   6.980   4.325
 3072SOL    HW210116   1.842   6.816   4.321
 3073SOL     OW10117   0.614   4.977   3.358
 3073SOL    HW110118   0.691   4.999   3.298
 3073SOL    HW210119   0.550   4.918   3.309
 3074SOL     OW10120   2.822   3.678   1.797
 3074SOL    HW110121   2.851   3.771   1.775
 3074SOL    HW210122   2.723   3.670   1.783
 3075SOL     OW10123   4.021   5.014   0.424
 3075SOL    HW110124   4.018   4.916   0.442
 3075SOL    HW210125   4.100   5.054   0.470
 3076SOL     OW10126   2.439   1.220   4.263
 3076SOL    HW110127   2.395   1.282   4.328
 3076SOL    HW210128   2.380   1.141   4.247
 3077SOL     OW10129   6.717   3.785   2.642
 3077SOL    HW110130   6.737   3.702   2.694
 3077SOL    HW210131   6.759   3.864   2.686
 3078SOL     OW10132   6.070   4.772   1.638
 3078SOL    HW110133   6.134   4.848   1.638
 3078SOL    HW210134   6.111   4.694   1.590
 3079SOL     OW10135   6.954   4.593   2.125
 3079SOL    HW110136   6.872   4.554   2.083
 3079SOL    HW210137   0.004   4.611   2.055
 3080SOL     OW10138   3.408   4.923   1.226
 3080SOL    HW110139   3.433   4.870   1.307
 3080SOL    HW210140   3.421   4.866   1.144
 3081SOL     OW10141   1.923   2.243   5.967
 3081SOL    HW110142   1.938   2.310   5.896
 3081SOL    HW210143   1.968   2.272   6.051
 3082SOL     OW10144   6.420   3.677   4.519
 3082SOL    HW110145   6.488   3.610   4.550
 3082SOL    HW210146   6.331   3.654   4.558
 3083SOL     OW10147   4.858   5.446   1.869
 3083SOL    HW110148   4.950   5.480   1.848
 3083SOL    HW210149   4.805   5.519   1.913
 3084SOL     OW10150   0.361   5.327   4.469
 3084SOL    HW110151   0.345   5.229   4.477
 3084SOL    HW210152   0.319   5.375   4.547
 3085SOL     OW10153   6.507   5.385   5.436
 3085SOL    HW110154   6.441   5.443   5.485
 3085SOL    HW210155   6.546   5.318   5.498
 3086SOL     OW10156   5.978   6.470   5.981
 3086SOL    HW110157   6.040   6.522   5.922
 3086SOL    HW210158   5.937   6.395   5.929
 3087SOL     OW10159   2.898   0.291   1.696
 3087SOL    HW110160   2.865   0.226   1.764
 3087SOL    HW210161   2.994   0.314   1.715
 3088SOL     OW10162   2.255   2.958   5.376
 3088SOL    HW110163   2.263   2.864   5.410
 3088SOL    HW210164   2.314   2.971   5.297
 3089SOL     OW10165   4.191   6.788   0.331
 3089SOL    HW110166   4.100   6.749   0.317
 3089SOL    HW210167   4.254   6.716   0.360
 3090SOL     OW10168   0.432   2.147   2.868
 3090SOL    HW110169   0.488   2.077   2.825
 3090SOL    HW210170   0.489   2.204   2.927
 3091SOL     OW10171   1.405   1.841   5.613
 3091SOL    HW110172   1.498   1.833   5.649
 3091SOL    HW210173   1.345   1.877   5.684
 3092SOL     OW10174   5.050   2.011   3.886
 3092SOL    HW110175   5.034   1.943   3.814
 3092SOL    HW210176   4.968   2.068   3.897
 3093SOL     OW10177   6.289   5.875   0.025
 3093SOL    HW110178   6.306   5.859   6.947
 3093SOL    HW210179   6.191   5.866   0.043
 3094SOL     OW10180   1.552   0.935   6.367
 3094SOL    HW110181   1.607   0.889   6.436
 3094SOL    HW210182   1.541   1.032   6.391
 3095SOL     OW10183   2.089   3.528   6.204
 3095SOL    HW110184   2.083   3.510   6.303
 3095SOL    HW210185   1.998   3.541   6.167
 3096SOL     OW10186   2.103   3.537   3.425
 3096SOL    HW110187   2.132   3.528   3.520
 3096SOL    HW210188   2.079   3.632   3.406
 3097SOL     OW10189   5.211   2.152   6.507
 3097SOL    HW110190   5.275   2.215   6.463
 3097SOL    HW210191   5.208   2.066   6.457
 3098SOL     OW10192   1.895   4.309   2.614
 3098SOL    HW110193   1.846   4.232   2.574
 3098SOL    HW210194   1.904   4.295   2.713
 3099SOL     OW10195   6.921   1.202   5.574
 3099SOL    HW110196   6.903   1.286   5.521
 3099SOL    HW210197   6.869   1.204   5.659
 3100SOL     OW10198   5.738   4.093   2.923
 3100SOL    HW110199   5.679   4.058   2.996
 3100SOL    HW210200   5.800   4.021   2.892
 3101SOL     OW10201   4.480   0.406   4.870
 3101SOL    HW110202   4.540   0.479   4.837
 3101SOL    HW210203   4.535   0.337   4.918
 3102SOL     OW10204   5.374   3.122   2.953
 3102SOL    HW110205   5.274   3.117   2.960
 3102SOL    HW210206   5.401   3.215   2.928
 3103SOL     OW10207   1.413   1.155   2.374
 3103SOL    HW110208   1.374   1.119   2.289
 3103SOL    HW210209   1.357   1.231   2.406
 3104SOL     OW10210   5.788   1.400   6.262
 3104SOL    HW110211   5.712   1.436   6.208
 3104SOL    HW210212   5.851   1.474   6.285
 3105SOL     OW10213   5.548   4.759   0.764
 3105SOL    HW110214   5.617   4.734   0.832
 3105SOL    HW210215   5.566   4.851   0.730
 3106SOL     OW10216   5.440   1.654   5.461
 3106SOL    HW110217   5.473   1.576   5.514
 3106SOL    HW210218   5.349   1.681   5.492
 3107SOL     OW10219   4.439   1.626   4.553
 3107SOL    HW110220   4.448   1.717   4.513
 3107SOL    HW210221   4.526   1.577   4.544
 3108SOL     OW10222   2.453   4.952   4.435
 3108SOL    HW110223   2.549   4.939   4.458
 3108SOL    HW210224   2.440   4.937   4.337
 3109SOL     OW10225   0.004   5.026   4.282
 3109SOL    HW110226   0.013   5.057   4.188
 3109SOL    HW210227   0.094   5.024   4.325
 3110SOL     OW10228   1.877   4.970   3.781
 3110SOL    HW110229   1.816   4.937   3.709
 3110SOL    HW210230   1.970   4.936   3.764
 3111SOL     OW10231   0.239   3.827   4.196
 3111SOL    HW110232   0.249   3.923   4.224
 3111SOL    HW210233   0.159   3.788   4.240
 3112SOL     OW10234   4.276   0.146   0.743
 3112SOL    HW110235   4.223   0.063   0.729
 3112SOL    HW210236   4.227   0.224   0.703
 3113SOL     OW10237   1.451   6.337   3.624
 3113SOL    HW110238   1.368   6.290   3.595
 3113SOL    HW210239   1.428   6.428   3.658
 3114SOL     OW10240   5.207   4.981   5.231
 3114SOL    HW110241   5.268   5.043   5.281
 3114SOL    HW210242   5.133   4.951   5.291
 3115SOL     OW10243   5.442   5.474   4.567
 3115SOL    HW110244   5.411   5.392   4.616
 3115SOL    HW210245   5.536   5.460   4.536
 3116SOL     OW10246   0.500   2.681   6.048
 3116SOL    HW110247   0.426   2.645   5.991
 3116SOL    HW210248   0.460   2.729   6.126
 3117SOL     OW10249   4.016   0.021   2.221
 3117SOL    HW110250   3.983   0.032   2.127
 3117SOL    HW210251   3.938   0.019   2.284
 3118SOL     OW10252   0.648   2.343   3.351
 3118SOL    HW110253   0.648   2.263   3.292
 3118SOL    HW210254   0.565   2.342   3.408
 3119SOL     OW10255   4.147   6.659   3.044
 3119SOL    HW110256   4.120   6.611   3.128
 3119SOL    HW210257   4.236   6.702   3.058
 3120SOL     OW10258   3.639   6.511   6.428
 3120SOL    HW110259   3.709   6.580   6.448
 3120SOL    HW210260   3.665   6.424   6.468
 3121SOL     OW10261   3.942   1.432   3.120
 3121SOL    HW110262   3.903   1.345   3.092
 3121SOL    HW210263   3.981   1.424   3.212
 3122SOL     OW10264   5.362   3.338   6.799
 3122SOL    HW110265   5.407   3.336   6.709
 3122SOL    HW210266   5.269   3.372   6.789
 3123SOL     OW10267   2.123   3.511   2.804
 3123SOL    HW110268   2.047   3.533   2.742
 3123SOL    HW210269   2.159   3.595   2.844
 3124SOL     OW10270   5.138   6.787   5.576
 3124SOL    HW110271   5.077   6.787   5.655
 3124SOL    HW210272   5.112   6.861   5.514
 3125SOL     OW10273   2.018   1.930   4.876
 3125SOL    HW110274   1.953   1.861   4.845
 3125SOL    HW210275   2.110   1.906   4.845
 3126SOL     OW10276   5.405   4.042   5.043
 3126SOL    HW110277   5.463   4.096   4.981
 3126SOL    HW210278   5.396   3.949   5.007
 3127SOL     OW10279   6.439   2.246   6.426
 3127SOL    HW110280   6.366   2.242   6.357
 3127SOL    HW210281   6.450   2.340   6.457
 3128SOL     OW10282   4.484   2.215   1.635
 3128SOL    HW110283   4.567   2.249   1.590
 3128SOL    HW210284   4.449   2.284   1.698
 3129SOL     OW10285   4.255   4.510   0.190
 3129SOL    HW110286   4.244   4.591   0.248
 3129SOL    HW210287   4.308   4.534   0.109
 3130SOL     OW10288   6.420   5.488   3.135
 3130SOL    HW110289   6.453   5.582   3.130
 3130SOL    HW210290   6.398   5.466   3.230
 3131SOL     OW10291   0.301   2.223   3.385
 3131SOL    HW110292   0.400   2.206   3.382
 3131SOL    HW210293   0.285   2.320   3.405
 3132SOL     OW10294   4.476   3.935   6.040
 3132SOL    HW110295   4.499   3.847   5.998
 3132SOL    HW210296   4.417   3.919   6.119
 3133SOL     OW10297   5.600   6.400   4.512
 3133SOL    HW110298   5.594   6.304   4.484
 3133SOL    HW210299   5.548   6.414   4.596
 3134SOL     OW10300   3.774   5.554   3.300
 3134SOL    HW110301   3.816   5.615   3.367
 3134SOL    HW210302   3.832   5.547   3.219
 3135SOL     OW10303   4.243   0.859   6.310
 3135SOL    HW110304   4.217   0.954   6.296
 3135SOL    HW210305   4.243   0.838   6.408
 3136SOL     OW10306   6.155   5.458   2.062
 3136SOL    HW110307   6.226   5.390   2.079
 3136SOL    HW210308   6.069   5.428   2.103
 3137SOL     OW10309   5.202   3.712   7.017
 3137SOL    HW110310   5.120   3.766   7.001
 3137SOL    HW210311   5.273   3.739   6.952
 3138SOL     OW10312   6.865   6.325   5.236
 3138SOL    HW110313   6.858   6.271   5.319
 3138SOL    HW210314   6.870   6.422   5.260
 3139SOL     OW10315   1.343   4.862   2.028
 3139SOL    HW110316   1.411   4.900   2.090
 3139SOL    HW210317   1.368   4.883   1.933
 3140SOL     OW10318   4.845   5.637   6.445
 3140SOL    HW110319   4.861   5.670   6.352
 3140SOL    HW210320   4.841   5.537   6.444
 3141SOL     OW10321   6.048   2.174   0.215
 3141SOL    HW110322   6.076   2.104   0.149
 3141SOL    HW210323   6.009   2.252   0.167
 3142SOL     OW10324   4.151   0.564   3.828
 3142SOL    HW110325   4.056   0.595   3.832
 3142SOL    HW210326   4.154   0.465   3.840
 3143SOL     OW10327   6.181   1.420   6.888
 3143SOL    HW110328   6.124   1.477   6.948
 3143SOL    HW210329   6.123   1.363   6.831
 3144SOL     OW10330   3.706   4.795   6.326
 3144SOL    HW110331   3.732   4.892   6.335
 3144SOL    HW210332   3.756   4.741   6.394
 3145SOL     OW10333   0.666   5.913   5.510
 3145SOL    HW110334   0.646   5.893   5.414
 3145SOL    HW210335   0.602   5.982   5.543
 3146SOL     OW10336   6.493   1.278   4.319
 3146SOL    HW110337   6.547   1.362   4.317
 3146SOL    HW210338   6.533   1.211   4.256
 3147SOL     OW10339   4.958   0.240   0.894
 3147SOL    HW110340   4.917   0.170   0.953
 3147SOL    HW210341   4.984   0.199   0.807
 3148SOL     OW10342   5.602   5.103   0.542
 3148SOL    HW110343   5.517   5.110   0.594
 3148SOL    HW210344   5.637   5.010   0.548
 3149SOL     OW10345   4.333   2.977   6.846
 3149SOL    HW110346   4.363   3.072   6.842
 3149SOL    HW210347   4.233   2.973   6.837
 3150SOL     OW10348   6.878   0.661   5.297
 3150SOL    HW110349   6.837   0.569   5.296
 3150SOL    HW210350   6.827   0.719   5.360
 3151SOL     OW10351   0.362   1.739   6.732
 3151SOL    HW110352   0.344   1.771   6.639
 3151SOL    HW210353   0.289   1.677   6.760
 3152SOL     OW10354   2.403   1.364   5.809
 3152SOL    HW110355   2.400   1.349   5.710
 3152SOL    HW210356   2.460   1.443   5.829
 3153SOL     OW10357   5.506   5.607   1.433
 3153SOL    HW110358   5.529   5.640   1.524
 3153SOL    HW210359   5.443   5.530   1.441
 3154SOL     OW10360   3.808   2.172   0.352
 3154SOL    HW110361   3.861   2.105   0.300
 3154SOL    HW210362   3.869   2.233   0.401
 3155SOL     OW10363   6.531   6.236   6.650
 3155SOL    HW110364   6.624   6.227   6.614
 3155SOL    HW210365   6.512   6.333   6.668
 3156SOL     OW10366   2.853   4.894   0.939
 3156SOL    HW110367   2.897   4.834   1.006
 3156SOL    HW210368   2.762   4.859   0.917
 3157SOL     OW10369   1.261   1.006   3.158
 3157SOL    HW110370   1.205   0.946   3.102
 3157SOL    HW210371   1.241   1.101   3.134
 3158SOL     OW10372   1.759   0.542   6.395
 3158SOL    HW110373   1.700   0.551   6.475
 3158SOL    HW210374   1.770   0.445   6.373
 3159SOL     OW10375   4.720   5.594   1.143
 3159SOL    HW110376   4.638   5.575   1.197
 3159SOL    HW210377   4.772   5.668   1.187
 3160SOL     OW10378   2.264   1.096   5.716
 3160SOL    HW110379   2.303   1.051   5.796
 3160SOL    HW210380   2.166   1.110   5.730
 3161SOL     OW10381   1.898   2.423   2.035
 3161SOL    HW110382   1.954   2.468   2.104
 3161SOL    HW210383   1.866   2.492   1.970
 3162SOL     OW10384   1.529   5.390   2.523
 3162SOL    HW110385   1.575   5.332   2.590
 3162SOL    HW210386   1.451   5.435   2.566
 3163SOL     OW10387   5.328   4.568   1.336
 3163SOL    HW110388   5.336   4.661   1.302
 3163SOL    HW210389   5.232   4.544   1.346
 3164SOL     OW10390   2.138   6.882   2.955
 3164SOL    HW110391   2.055   6.845   2.995
 3164SOL    HW210392   2.118   6.918   2.864
 3165SOL     OW10393   0.213   5.223   6.835
 3165SOL    HW110394   0.269   5.305   6.850
 3165SOL    HW210395   0.194   5.213   6.738
 3166SOL     OW10396   3.711   2.065   4.652
 3166SOL    HW110397   3.798   2.070   4.700
 3166SOL    HW210398   3.636   2.080   4.717
 3167SOL     OW10399   6.469   2.919   2.687
 3167SOL    HW110400   6.499   3.006   2.725
 3167SOL    HW210401   6.534   2.889   2.617
 3168SOL     OW10402   6.025   1.443   0.837
 3168SOL    HW110403   5.933   1.484   0.839
 3168SOL    HW210404   6.052   1.426   0.743
 3169SOL     OW10405   0.980   2.048   2.550
 3169SOL    HW110406   1.058   2.020   2.493
 3169SOL    HW210407   0.895   2.039   2.497
 3170SOL     OW10408   2.409   4.939   4.167
 3170SOL    HW110409   2.394   4.849   4.126
 3170SOL    HW210410   2.479   4.988   4.116
 3171SOL     OW10411   6.667   2.272   4.253
 3171SOL    HW110412   6.590   2.320   4.296
 3171SOL    HW210413   6.745   2.271   4.315
 3172SOL     OW10414   6.021   3.912   1.243
 3172SOL    HW110415   6.038   3.967   1.324
 3172SOL    HW210416   5.986   3.970   1.169
 3173SOL     OW10417   5.532   4.467   0.279
 3173SOL    HW110418   5.465   4.398   0.253
 3173SOL    HW210419   5.514   4.497   0.373
 3174SOL     OW10420   2.773   3.178   0.112
 3174SOL    HW110421   2.772   3.130   0.025
 3174SOL    HW210422   2.691   3.155   0.164
 3175SOL     OW10423   5.672   5.988   5.337
 3175SOL    HW110424   5.763   5.994   5.294
 3175SOL    HW210425   5.653   5.894   5.364
 3176SOL     OW10426   6.712   4.962   4.035
 3176SOL    HW110427   6.696   4.873   4.078
 3176SOL    HW210428   6.810   4.972   4.016
 3177SOL     OW10429   5.791   2.347   1.719
 3177SOL    HW110430   5.735   2.375   1.640
 3177SOL    HW210431   5.746   2.271   1.766
 3178SOL     OW10432   1.590   0.757   2.255
 3178SOL    HW110433   1.662   0.719   2.198
 3178SOL    HW210434   1.558   0.687   2.319
 3179SOL     OW10435   0.755   4.334   3.033
 3179SOL    HW110436   0.823   4.320   2.961
 3179SOL    HW210437   0.696   4.254   3.039
 3180SOL     OW10438   6.181   0.143   6.328
 3180SOL    HW110439   6.109   0.073   6.331
 3180SOL    HW210440   6.196   0.179   6.421
 3181SOL     OW10441   6.954   6.668   4.732
 3181SOL    HW110442   6.906   6.731   4.672
 3181SOL    HW210443   0.019   6.636   4.686
 3182SOL     OW10444   1.572   6.869   1.453
 3182SOL    HW110445   1.552   6.952   1.402
 3182SOL    HW210446   1.495   6.848   1.514
 3183SOL     OW10447   4.253   3.947   0.327
 3183SOL    HW110448   4.201   3.960   0.412
 3183SOL    HW210449   4.292   3.855   0.326
 3184SOL     OW10450   6.525   0.444   4.557
 3184SOL    HW110451   6.509   0.354   4.598
 3184SOL    HW210452   6.445   0.502   4.572
 3185SOL     OW10453   1.168   0.340   6.230
 3185SOL    HW110454   1.211   0.431   6.223
 3185SOL    HW210455   1.090   0.335   6.168
 3186SOL     OW10456   0.874   1.901   6.005
 3186SOL    HW110457   0.932   1.982   6.011
 3186SOL    HW210458   0.778   1.928   6.010
 3187SOL     OW10459   5.072   0.216   3.571
 3187SOL    HW110460   5.095   0.297   3.518
 3187SOL    HW210461   4.988   0.233   3.623
 3188SOL     OW10462   0.989   6.217   1.559
 3188SOL    HW110463   1.079   6.252   1.535
 3188SOL    HW210464   0.933   6.210   1.477
 3189SOL     OW10465   2.671   1.915   5.466
 3189SOL    HW110466   2.638   1.956   5.381
 3189SOL    HW210467   2.767   1.940   5.480
 3190SOL     OW10468   6.628   5.886   4.704
 3190SOL    HW110469   6.678   5.972   4.701
 3190SOL    HW210470   6.692   5.810   4.687
 3191SOL     OW10471   4.235   5.186   0.517
 3191SOL    HW110472   4.210   5.264   0.460
 3191SOL    HW210473   4.333   5.167   0.507
 3192SOL     OW10474   5.328   0.812   3.317
 3192SOL    HW110475   5.392   0.879   3.279
 3192SOL    HW210476   5.334   0.726   3.267
 3193SOL     OW10477   3.844   5.844   4.592
 3193SOL    HW110478   3.767   5.863   4.654
 3193SOL    HW210479   3.816   5.775   4.525
 3194SOL     OW10480   2.153   6.490   6.236
 3194SOL    HW110481   2.174   6.397   6.268
 3194SOL    HW210482   2.081   6.487   6.168
 3195SOL     OW10483   0.109   5.859   1.371
 3195SOL    HW110484   0.047   5.786   1.340
 3195SOL    HW210485   0.056   5.940   1.395
 3196SOL     OW10486   5.568   0.784   2.909
 3196SOL    HW110487   5.630   0.830   2.973
 3196SOL    HW210488   5.596   0.689   2.898
 3197SOL     OW10489   3.179   0.873   6.998
 3197SOL    HW110490   3.120   0.923   6.934
 3197SOL    HW210491   3.238   0.811   6.946
 3198SOL     OW10492   5.966   4.192   4.056
 3198SOL    HW110493   6.026   4.220   3.980
 3198SOL    HW210494   5.934   4.099   4.040
 3199SOL     OW10495   5.305   3.382   4.133
 3199SOL    HW110496   5.216   3.404   4.172
 3199SOL    HW210497   5.294   3.320   4.056
 3200SOL     OW10498   6.721   3.474   4.810
 3200SOL    HW110499   6.663   3.554   4.822
 3200SOL    HW210500   6.794   3.494   4.745
 3201SOL     OW10501   6.156   3.413   2.642
 3201SOL    HW110502   6.228   3.345   2.653
 3201SOL    HW210503   6.093   3.408   2.720
 3202SOL     OW10504   3.175   3.048   6.130
 3202SOL    HW110505   3.138   3.051   6.038
 3202SOL    HW210506   3.155   3.134   6.177
 3203SOL     OW10507   3.372   6.556   1.510
 3203SOL    HW110508   3.354   6.458   1.514
 3203SOL    HW210509   3.327   6.601   1.586
 3204SOL     OW10510   5.439   0.614   3.143
 3204SOL    HW110511   5.416   0.612   3.046
 3204SOL    HW210512   5.537   0.600   3.155
 3205SOL     OW10513   5.339   2.740   0.551
 3205SOL    HW110514   5.359   2.763   0.456
 3205SOL    HW210515   5.378   2.810   0.611
 3206SOL     OW10516   3.525   5.075   0.167
 3206SOL    HW110517   3.438   5.033   0.142
 3206SOL    HW210518   3.579   5.011   0.222
 3207SOL     OW10519   2.020   5.998   2.662
 3207SOL    HW110520   1.992   6.093   2.676
 3207SOL    HW210521   1.963   5.957   2.591
 3208SOL     OW10522   0.141   4.002   6.940
 3208SOL    HW110523   0.112   4.016   6.845
 3208SOL    HW210524   0.063   4.020   7.001
 3209SOL     OW10525   5.141   0.035   4.963
 3209SOL    HW110526   5.176   0.123   4.929
 3209SOL    HW210527   5.215   7.003   5.006
 3210SOL     OW10528   4.597   5.114   2.468
 3210SOL    HW110529   4.675   5.063   2.502
 3210SOL    HW210530   4.602   5.118   2.368
 3211SOL     OW10531   2.518   0.168   6.936
 3211SOL    HW110532   2.530   0.127   6.845
 3211SOL    HW210533   2.602   0.157   6.989
 3212SOL     OW10534   3.776   6.794   4.439
 3212SOL    HW110535   3.777   6.725   4.511
 3212SOL    HW210536   3.770   6.885   4.479
 3213SOL     OW10537   1.255   0.002   5.734
 3213SOL    HW110538   1.242   0.036   5.827
 3213SOL    HW210539   1.310   0.067   5.682
 3214SOL     OW10540   2.174   6.949   2.686
 3214SOL    HW110541   2.186   0.030   2.678
 3214SOL    HW210542   2.188   6.907   2.596
 3215SOL     OW10543   2.397   3.305   1.614
 3215SOL    HW110544   2.353   3.227   1.659
 3215SOL    HW210545   2.383   3.387   1.670
 3216SOL     OW10546   0.166   4.062   1.300
 3216SOL    HW110547   0.245   4.032   1.353
 3216SOL    HW210548   0.130   4.147   1.338
 3217SOL     OW10549   6.234   5.872   4.227
 3217SOL    HW110550   6.213   5.791   4.171
 3217SOL    HW210551   6.325   5.906   4.204
 3218SOL     OW10552   5.899   1.358   3.349
 3218SOL    HW110553   5.910   1.456   3.337
 3218SOL    HW210554   5.976   1.322   3.402
 3219SOL     OW10555   4.443   2.034   4.611
 3219SOL    HW110556   4.540   2.056   4.619
 3219SOL    HW210557   4.426   1.991   4.522
 3220SOL     OW10558   0.304   3.776   5.583
 3220SOL    HW110559   0.213   3.791   5.544
 3220SOL    HW210560   0.323   3.847   5.650
 3221SOL     OW10561   3.957   1.866   2.424
 3221SOL    HW110562   3.859   1.862   2.408
 3221SOL    HW210563   4.005   1.873   2.336
 3222SOL     OW10564   3.104   0.897   3.241
 3222SOL    HW110565   3.086   0.885   3.339
 3222SOL    HW210566   3.022   0.872   3.189
 3223SOL     OW10567   1.886   5.465   0.828
 3223SOL    HW110568   1.840   5.425   0.748
 3223SOL    HW210569   1.828   5.537   0.866
 3224SOL     OW10570   4.443   2.454   3.606
 3224SOL    HW110571   4.481   2.508   3.531
 3224SOL    HW210572   4.500   2.465   3.687
 3225SOL     OW10573   3.040   1.036   4.828
 3225SOL    HW110574   3.129   1.080   4.826
 3225SOL    HW210575   3.032   0.972   4.752
 3226SOL     OW10576   5.523   1.321   0.045
 3226SOL    HW110577   5.608   1.369   0.028
 3226SOL    HW210578   5.525   1.232   0.000
 3227SOL     OW10579   6.174   4.028   5.634
 3227SOL    HW110580   6.148   3.932   5.647
 3227SOL    HW210581   6.238   4.055   5.707
 3228SOL     OW10582   2.211   4.568   0.884
 3228SOL    HW110583   2.150   4.623   0.940
 3228SOL    HW210584   2.220   4.477   0.923
 3229SOL     OW10585   0.895   1.132   0.664
 3229SOL    HW110586   0.982   1.084   0.668
 3229SOL    HW210587   0.836   1.099   0.738
 3230SOL     OW10588   3.096   6.269   5.250
 3230SOL    HW110589   3.127   6.175   5.234
 3230SOL    HW210590   3.087   6.284   5.348
 3231SOL     OW10591   2.865   2.202   2.457
 3231SOL    HW110592   2.842   2.162   2.368
 3231SOL    HW210593   2.963   2.222   2.460
 3232SOL     OW10594   3.258   5.008   3.642
 3232SOL    HW110595   3.228   5.090   3.594
 3232SOL    HW210596   3.230   4.927   3.590
 3233SOL     OW10597   2.252   0.089   5.258
 3233SOL    HW110598   2.350   0.069   5.258
 3233SOL    HW210599   2.203   0.015   5.212
 3234SOL     OW10600   3.624   3.956   0.676
 3234SOL    HW110601   3.563   3.878   0.667
 3234SOL    HW210602   3.660   3.960   0.769
 3235SOL     OW10603   0.327   1.957   3.024
 3235SOL    HW110604   0.372   2.034   2.980
 3235SOL    HW210605   0.264   1.990   3.094
 3236SOL     OW10606   5.787   6.139   0.868
 3236SOL    HW110607   5.861   6.139   0.801
 3236SOL    HW210608   5.730   6.058   0.854
 3237SOL     OW10609   6.172   2.500   5.632
 3237SOL    HW110610   6.154   2.477   5.537
 3237SOL    HW210611   6.252   2.560   5.638
 3238SOL     OW10612   0.738   4.467   0.785
 3238SOL    HW110613   0.728   4.489   0.882
 3238SOL    HW210614   0.656   4.497   0.736
 3239SOL     OW10615   6.415   1.503   4.775
 3239SOL    HW110616   6.499   1.515   4.722
 3239SOL    HW210617   6.339   1.544   4.726
 3240SOL     OW10618   1.053   1.733   1.415
 3240SOL    HW110619   1.147   1.720   1.382
 3240SOL    HW210620   1.055   1.789   1.498
 3241SOL     OW10621   7.018   2.980   5.549
 3241SOL    HW110622   0.033   3.040   5.621
 3241SOL    HW210623   0.030   2.886   5.566
 3242SOL     OW10624   0.430   4.784   5.366
 3242SOL    HW110625   0.406   4.687   5.362
 3242SOL    HW210626   0.456   4.808   5.460
 3243SOL     OW10627   6.244   4.800   5.130
 3243SOL    HW110628   6.174   4.870   5.113
 3243SOL    HW210629   6.335   4.838   5.113
 3244SOL     OW10630   5.045   0.018   0.069
 3244SOL    HW110631   5.132   0.028   0.020
 3244SOL    HW210632   5.058   0.048   0.164
 3245SOL     OW10633   1.936   6.318   4.522
 3245SOL    HW110634   1.923   6.298   4.425
 3245SOL    HW210635   1.861   6.376   4.554
 3246SOL     OW10636   6.393   5.367   2.365
 3246SOL    HW110637   6.377   5.342   2.270
 3246SOL    HW210638   6.460   5.440   2.370
 3247SOL     OW10639   2.292   4.254   4.702
 3247SOL    HW110640   2.264   4.170   4.656
 3247SOL    HW210641   2.274   4.247   4.800
 3248SOL     OW10642   6.057   2.702   3.720
 3248SOL    HW110643   6.089   2.612   3.690
 3248SOL    HW210644   6.043   2.701   3.819
 3249SOL     OW10645   4.023   3.876   3.957
 3249SOL    HW110646   4.070   3.805   3.906
 3249SOL    HW210647   4.020   3.852   4.054
 3250SOL     OW10648   4.346   5.525   3.095
 3250SOL    HW110649   4.252   5.525   3.061
 3250SOL    HW210650   4.408   5.547   3.020
 3251SOL     OW10651   2.022   2.206   1.931
 3251SOL    HW110652   2.094   2.262   1.890
 3251SOL    HW210653   1.955   2.265   1.976
 3252SOL     OW10654   1.761   1.473   2.467
 3252SOL    HW110655   1.733   1.382   2.433
 3252SOL    HW210656   1.695   1.504   2.535
 3253SOL     OW10657   6.560   3.046   1.048
 3253SOL    HW110658   6.503   3.057   0.967
 3253SOL    HW210659   6.543   3.122   1.111
 3254SOL     OW10660   5.740   6.973   0.899
 3254SOL    HW110661   5.826   6.978   0.950
 3254SOL    HW210662   5.714   0.046   0.870
 3255SOL     OW10663   3.658   4.913   2.107
 3255SOL    HW110664   3.609   4.869   2.031
 3255SOL    HW210665   3.598   4.918   2.187
 3256SOL     OW10666   5.787   2.267   2.077
 3256SOL    HW110667   5.834   2.191   2.121
 3256SOL    HW210668   5.716   2.232   2.016
 3257SOL     OW10669   2.716   1.323   2.411
 3257SOL    HW110670   2.641   1.382   2.382
 3257SOL    HW210671   2.783   1.316   2.336
 3258SOL     OW10672   0.313   5.050   4.451
 3258SOL    HW110673   0.264   5.010   4.529
 3258SOL    HW210674   0.411   5.053   4.470
 3259SOL     OW10675   5.944   5.048   2.970
 3259SOL    HW110676   5.981   5.089   3.053
 3259SOL    HW210677   6.017   5.039   2.902
 3260SOL     OW10678   2.517   4.762   3.698
 3260SOL    HW110679   2.478   4.854   3.693
 3260SOL    HW210680   2.569   4.744   3.614
 3261SOL     OW10681   6.109   6.896   4.129
 3261SOL    HW110682   6.080   6.808   4.167
 3261SOL    HW210683   6.092   6.897   4.030
 3262SOL     OW10684   2.984   1.683   2.493
 3262SOL    HW110685   2.976   1.650   2.399
 3262SOL    HW210686   2.897   1.724   2.522
 3263SOL     OW10687   5.520   0.408   1.442
 3263SOL    HW110688   5.460   0.444   1.514
 3263SOL    HW210689   5.522   0.473   1.366
 3264SOL     OW10690   1.199   5.068   6.958
 3264SOL    HW110691   1.286   5.038   6.917
 3264SOL    HW210692   1.212   5.157   7.001
 3265SOL     OW10693   6.630   5.890   5.739
 3265SOL    HW110694   6.572   5.838   5.676
 3265SOL    HW210695   6.666   5.829   5.810
 3266SOL     OW10696   3.034   4.664   6.496
 3266SOL    HW110697   3.016   4.703   6.586
 3266SOL    HW210698   3.132   4.667   6.477
 3267SOL     OW10699   3.152   0.339   0.255
 3267SOL    HW110700   3.173   0.422   0.307
 3267SOL    HW210701   3.091   0.361   0.179
 3268SOL     OW10702   5.514   4.152   2.762
 3268SOL    HW110703   5.598   4.119   2.804
 3268SOL    HW210704   5.531   4.174   2.666
 3269SOL     OW10705   2.271   5.508   0.571
 3269SOL    HW110706   2.197   5.472   0.515
 3269SOL    HW210707   2.265   5.469   0.663
 3270SOL     OW10708   1.703   2.844   6.586
 3270SOL    HW110709   1.713   2.941   6.611
 3270SOL    HW210710   1.736   2.787   6.661
 3271SOL     OW10711   0.906   4.250   1.391
 3271SOL    HW110712   0.868   4.250   1.298
 3271SOL    HW210713   0.957   4.165   1.405
 3272SOL     OW10714   3.609   0.269   0.426
 3272SOL    HW110715   3.692   0.273   0.481
 3272SOL    HW210716   3.551   0.347   0.447
 3273SOL     OW10717   4.194   3.708   6.643
 3273SOL    HW110718   4.199   3.617   6.685
 3273SOL    HW210719   4.243   3.774   6.701
 3274SOL     OW10720   4.795   7.011   2.105
 3274SOL    HW110721   4.870   6.945   2.104
 3274SOL    HW210722   4.713   6.968   2.144
 3275SOL     OW10723   4.710   0.344   1.704
 3275SOL    HW110724   4.745   0.253   1.730
 3275SOL    HW210725   4.635   0.333   1.639
 3276SOL     OW10726   6.126   6.225   0.159
 3276SOL    HW110727   6.219   6.255   0.182
 3276SOL    HW210728   6.061   6.296   0.186
 3277SOL     OW10729   4.865   1.278   2.110
 3277SOL    HW110730   4.891   1.360   2.161
 3277SOL    HW210731   4.867   1.198   2.170
 3278SOL     OW10732   4.948   1.210   6.283
 3278SOL    HW110733   4.926   1.131   6.226
 3278SOL    HW210734   4.945   1.293   6.226
 3279SOL     OW10735   4.122   0.254   2.301
 3279SOL    HW110736   4.101   0.165   2.260
 3279SOL    HW210737   4.057   0.322   2.269
 3280SOL     OW10738   0.344   2.337   4.172
 3280SOL    HW110739   0.401   2.416   4.192
 3280SOL    HW210740   0.266   2.336   4.236
 3281SOL     OW10741   6.069   2.504   1.967
 3281SOL    HW110742   5.972   2.507   1.943
 3281SOL    HW210743   6.124   2.530   1.888
 3282SOL     OW10744   6.772   4.979   5.005
 3282SOL    HW110745   6.797   4.918   5.080
 3282SOL    HW210746   6.847   5.044   4.990
 3283SOL     OW10747   3.503   1.385   0.534
 3283SOL    HW110748   3.412   1.417   0.509
 3283SOL    HW210749   3.529   1.425   0.622
 3284SOL     OW10750   2.128   0.831   5.548
 3284SOL    HW110751   2.073   0.768   5.492
 3284SOL    HW210752   2.184   0.778   5.612
 3285SOL     OW10753   4.345   1.088   4.261
 3285SOL    HW110754   4.367   1.161   4.325
 3285SOL    HW210755   4.286   1.021   4.307
 3286SOL     OW10756   1.460   4.068   3.079
 3286SOL    HW110757   1.510   4.024   3.004
 3286SOL    HW210758   1.463   4.009   3.160
 3287SOL     OW10759   3.346   1.492   0.797
 3287SOL    HW110760   3.249   1.473   0.780
 3287SOL    HW210761   3.370   1.464   0.890
 3288SOL     OW10762   2.990   5.375   1.598
 3288SOL    HW110763   3.088   5.378   1.581
 3288SOL    HW210764   2.964   5.283   1.629
 3289SOL     OW10765   5.356   0.095   0.434
 3289SOL    HW110766   5.360   0.172   0.497
 3289SOL    HW210767   5.424   0.107   0.362
 3290SOL     OW10768   0.703   4.084   0.089
 3290SOL    HW110769   0.652   4.020   0.147
 3290SOL    HW210770   0.640   4.152   0.053
 3291SOL     OW10771   4.992   6.808   5.857
 3291SOL    HW110772   5.023   6.895   5.894
 3291SOL    HW210773   5.048   6.734   5.895
 3292SOL     OW10774   0.569   3.171   0.962
 3292SOL    HW110775   0.533   3.111   1.034
 3292SOL    HW210776   0.507   3.248   0.949
 3293SOL     OW10777   6.812   4.893   1.994
 3293SOL    HW110778   6.879   4.822   1.971
 3293SOL    HW210779   6.814   4.965   1.925
 3294SOL     OW10780   4.049   2.952   5.363
 3294SOL    HW110781   4.050   2.994   5.272
 3294SOL    HW210782   4.046   2.852   5.353
 3295SOL     OW10783   1.416   3.584   3.176
 3295SOL    HW110784   1.333   3.564   3.124
 3295SOL    HW210785   1.496   3.575   3.116
 3296SOL     OW10786   2.466   0.930   0.070
 3296SOL    HW110787   2.427   0.851   0.022
 3296SOL    HW210788   2.555   0.951   0.031
 3297SOL     OW10789   2.910   0.786   5.576
 3297SOL    HW110790   2.860   0.833   5.503
 3297SOL    HW210791   3.002   0.762   5.543
 3298SOL     OW10792   4.134   3.799   6.044
 3298SOL    HW110793   4.091   3.796   5.953
 3298SOL    HW210794   4.181   3.713   6.061
 3299SOL     OW10795   2.550   6.706   4.325
 3299SOL    HW110796   2.516   6.625   4.373
 3299SOL    HW210797   2.605   6.678   4.246
 3300SOL     OW10798   1.797   1.060   2.965
 3300SOL    HW110799   1.701   1.059   2.995
 3300SOL    HW210800   1.838   0.970   2.982
 3301SOL     OW10801   1.356   0.707   2.057
 3301SOL    HW110802   1.348   0.626   1.999
 3301SOL    HW210803   1.428   0.692   2.125
 3302SOL     OW10804   1.508   4.720   4.887
 3302SOL    HW110805   1.510   4.625   4.918
 3302SOL    HW210806   1.507   4.723   4.787
 3303SOL     OW10807   4.613   3.919   0.396
 3303SOL    HW110808   4.611   3.821   0.375
 3303SOL    HW210809   4.606   3.972   0.312
 3304SOL     OW10810   2.618   3.934   0.692
 3304SOL    HW110811   2.675   3.884   0.627
 3304SOL    HW210812   2.675   3.996   0.745
 3305SOL     OW10813   3.327   2.699   6.772
 3305SOL    HW110814   3.294   2.791   6.789
 3305SOL    HW210815   3.378   2.697   6.686
 3306SOL     OW10816   2.767   0.400   0.793
 3306SOL    HW110817   2.801   0.358   0.877
 3306SOL    HW210818   2.844   0.430   0.737
 3307SOL     OW10819   1.925   5.447   5.252
 3307SOL    HW110820   2.011   5.396   5.250
 3307SOL    HW210821   1.909   5.489   5.163
 3308SOL     OW10822   5.286   5.201   1.774
 3308SOL    HW110823   5.316   5.295   1.757
 3308SOL    HW210824   5.322   5.142   1.702
 3309SOL     OW10825   5.867   3.504   4.069
 3309SOL    HW110826   5.789   3.449   4.098
 3309SOL    HW210827   5.907   3.549   4.149
 3310SOL     OW10828   6.341   4.313   6.885
 3310SOL    HW110829   6.337   4.412   6.877
 3310SOL    HW210830   6.248   4.275   6.885
 3311SOL     OW10831   1.345   2.880   1.037
 3311SOL    HW110832   1.425   2.821   1.051
 3311SOL    HW210833   1.373   2.963   0.988
 3312SOL     OW10834   5.227   3.652   0.328
 3312SOL    HW110835   5.233   3.647   0.229
 3312SOL    HW210836   5.254   3.743   0.359
 3313SOL     OW10837   1.045   6.576   3.666
 3313SOL    HW110838   1.145   6.580   3.666
 3313SOL    HW210839   1.012   6.575   3.760
 3314SOL     OW10840   3.296   6.192   3.741
 3314SOL    HW110841   3.232   6.206   3.817
 3314SOL    HW210842   3.287   6.268   3.676
 3315SOL     OW10843   1.015   6.502   3.927
 3315SOL    HW110844   1.106   6.496   3.967
 3315SOL    HW210845   0.973   6.590   3.950
 3316SOL     OW10846   3.773   1.728   0.682
 3316SOL    HW110847   3.845   1.715   0.750
 3316SOL    HW210848   3.762   1.644   0.629
 3317SOL     OW10849   6.020   2.434   0.908
 3317SOL    HW110850   6.078   2.511   0.933
 3317SOL    HW210851   5.998   2.439   0.810
 3318SOL     OW10852   4.087   2.552   0.472
 3318SOL    HW110853   3.988   2.560   0.488
 3318SOL    HW210854   4.130   2.509   0.552
 3319SOL     OW10855   6.531   6.476   4.139
 3319SOL    HW110856   6.487   6.507   4.223
 3319SOL    HW210857   6.504   6.535   4.063
 3320SOL     OW10858   6.493   0.730   2.775
 3320SOL    HW110859   6.412   0.672   2.765
 3320SOL    HW210860   6.521   0.733   2.871
 3321SOL     OW10861   4.767   1.675   0.042
 3321SOL    HW110862   4.706   1.596   0.048
 3321SOL    HW210863   4.816   1.673   6.974
 3322SOL     OW10864   5.924   3.505   1.766
 3322SOL    HW110865   5.904   3.581   1.827
 3322SOL    HW210866   6.003   3.455   1.800
 3323SOL     OW10867   0.633   0.126   2.101
 3323SOL    HW110868   0.599   0.210   2.059
 3323SOL    HW210869   0.701   0.148   2.171
 3324SOL     OW10870   6.492   5.562   6.284
 3324SOL    HW110871   6.533   5.635   6.339
 3324SOL    HW210872   6.393   5.566   6.291
 3325SOL     OW10873   2.418   5.503   6.454
 3325SOL    HW110874   2.442   5.594   6.420
 3325SOL    HW210875   2.502   5.454   6.479
 3326SOL     OW10876   4.059   1.480   1.745
 3326SOL    HW110877   4.121   1.403   1.734
 3326SOL    HW210878   4.097   1.546   1.810
 3327SOL     OW10879   1.604   6.241   5.912
 3327SOL    HW110880   1.675   6.213   5.977
 3327SOL    HW210881   1.596   6.340   5.911
 3328SOL     OW10882   4.341   2.725   5.447
 3328SOL    HW110883   4.241   2.732   5.447
 3328SOL    HW210884   4.374   2.717   5.353
 3329SOL     OW10885   6.745   6.535   5.661
 3329SOL    HW110886   6.793   6.586   5.733
 3329SOL    HW210887   6.654   6.575   5.648
 3330SOL     OW10888   6.764   2.712   3.274
 3330SOL    HW110889   6.791   2.645   3.344
 3330SOL    HW210890   6.665   2.710   3.264
 3331SOL     OW10891   2.045   3.506   1.098
 3331SOL    HW110892   2.082   3.417   1.124
 3331SOL    HW210893   2.120   3.569   1.076
 3332SOL     OW10894   6.790   4.394   2.007
 3332SOL    HW110895   6.728   4.350   1.942
 3332SOL    HW210896   6.807   4.332   2.084
 3333SOL     OW10897   3.463   5.837   5.159
 3333SOL    HW110898   3.435   5.792   5.244
 3333SOL    HW210899   3.383   5.854   5.102
 3334SOL     OW10900   1.624   2.789   1.085
 3334SOL    HW110901   1.624   2.888   1.099
 3334SOL    HW210902   1.707   2.763   1.035
 3335SOL     OW10903   5.634   4.330   5.032
 3335SOL    HW110904   5.540   4.335   5.067
 3335SOL    HW210905   5.637   4.268   4.954
 3336SOL     OW10906   3.538   6.274   5.479
 3336SOL    HW110907   3.502   6.247   5.568
 3336SOL    HW210908   3.473   6.248   5.408
 3337SOL     OW10909   3.928   0.945   0.892
 3337SOL    HW110910   3.993   0.876   0.861
 3337SOL    HW210911   3.836   0.906   0.890
 3338SOL     OW10912   6.680   5.383   0.597
 3338SOL    HW110913   6.768   5.341   0.618
 3338SOL    HW210914   6.623   5.318   0.546
 3339SOL     OW10915   6.945   4.478   6.573
 3339SOL    HW110916   6.972   4.447   6.664
 3339SOL    HW210917   6.927   4.400   6.514
 3340SOL     OW10918   3.688   0.806   1.911
 3340SOL    HW110919   3.658   0.826   2.004
 3340SOL    HW210920   3.763   0.739   1.914
 3341SOL     OW10921   1.301   0.202   6.419
 3341SOL    HW110922   1.238   0.225   6.344
 3341SOL    HW210923   1.368   0.276   6.430
 3342SOL     OW10924   1.818   6.628   5.587
 3342SOL    HW110925   1.804   6.713   5.637
 3342SOL    HW210926   1.747   6.617   5.517
 3343SOL     OW10927   0.454   2.600   0.727
 3343SOL    HW110928   0.382   2.668   0.738
 3343SOL    HW210929   0.515   2.627   0.653
 3344SOL     OW10930   1.423   2.237   6.451
 3344SOL    HW110931   1.391   2.331   6.458
 3344SOL    HW210932   1.345   2.176   6.440
 3345SOL     OW10933   2.864   3.034   6.631
 3345SOL    HW110934   2.896   2.942   6.609
 3345SOL    HW210935   2.880   3.095   6.553
 3346SOL     OW10936   2.670   5.880   2.720
 3346SOL    HW110937   2.741   5.814   2.696
 3346SOL    HW210938   2.606   5.889   2.644
 3347SOL     OW10939   5.896   4.331   3.723
 3347SOL    HW110940   5.970   4.275   3.687
 3347SOL    HW210941   5.823   4.272   3.759
 3348SOL     OW10942   3.710   3.611   3.548
 3348SOL    HW110943   3.732   3.556   3.468
 3348SOL    HW210944   3.620   3.653   3.535
 3349SOL     OW10945   5.006   2.246   0.896
 3349SOL    HW110946   4.938   2.279   0.962
 3349SOL    HW210947   4.961   2.187   0.829
 3350SOL     OW10948   2.556   2.940   1.769
 3350SOL    HW110949   2.465   2.968   1.739
 3350SOL    HW210950   2.615   3.020   1.777
 3351SOL     OW10951   6.190   2.827   1.208
 3351SOL    HW110952   6.221   2.755   1.146
 3351SOL    HW210953   6.255   2.836   1.284
 3352SOL     OW10954   0.125   3.794   0.745
 3352SOL    HW110955   0.080   3.808   0.834
 3352SOL    HW210956   0.192   3.866   0.731
 3353SOL     OW10957   1.110   6.194   6.526
 3353SOL    HW110958   1.182   6.226   6.587
 3353SOL    HW210959   1.147   6.181   6.434
 3354SOL     OW10960   0.532   6.464   1.957
 3354SOL    HW110961   0.454   6.483   1.897
 3354SOL    HW210962   0.605   6.529   1.937
 3355SOL     OW10963   5.515   1.010   2.545
 3355SOL    HW110964   5.586   0.976   2.607
 3355SOL    HW210965   5.500   0.943   2.472
 3356SOL     OW10966   1.405   3.886   6.792
 3356SOL    HW110967   1.371   3.905   6.699
 3356SOL    HW210968   1.364   3.952   6.855
 3357SOL     OW10969   3.105   6.174   2.618
 3357SOL    HW110970   3.135   6.106   2.552
 3357SOL    HW210971   3.162   6.168   2.700
 3358SOL     OW10972   0.308   3.924   3.270
 3358SOL    HW110973   0.343   3.849   3.326
 3358SOL    HW210974   0.256   3.887   3.193
 3359SOL     OW10975   2.453   1.811   1.536
 3359SOL    HW110976   2.447   1.822   1.437
 3359SOL    HW210977   2.364   1.784   1.572
 3360SOL     OW10978   2.372   0.961   6.364
 3360SOL    HW110979   2.359   0.930   6.458
 3360SOL    HW210980   2.306   0.915   6.304
 3361SOL     OW10981   2.347   1.155   2.549
 3361SOL    HW110982   2.447   1.158   2.543
 3361SOL    HW210983   2.319   1.153   2.645
 3362SOL     OW10984   3.209   2.186   4.336
 3362SOL    HW110985   3.129   2.222   4.384
 3362SOL    HW210986   3.188   2.181   4.238
 3363SOL     OW10987   6.363   0.885   0.468
 3363SOL    HW110988   6.315   0.814   0.417
 3363SOL    HW210989   6.458   0.891   0.437
 3364SOL     OW10990   1.278   5.285   5.284
 3364SOL    HW110991   1.295   5.339   5.201
 3364SOL    HW210992   1.341   5.207   5.286
 3365SOL     OW10993   6.404   2.348   4.942
 3365SOL    HW110994   6.428   2.291   5.020
 3365SOL    HW210995   6.486   2.394   4.907
 3366SOL     OW10996   5.018   1.049   0.276
 3366SOL    HW110997   5.103   1.034   0.326
 3366SOL    HW210998   4.997   1.147   0.276
 3367SOL     OW10999   1.969   0.161   1.945
 3367SOL    HW111000   1.900   0.129   2.009
 3367SOL    HW211001   1.996   0.086   1.885
 3368SOL     OW11002   6.218   1.163   4.473
 3368SOL    HW111003   6.155   1.209   4.409
 3368SOL    HW211004   6.311   1.168   4.436
 3369SOL     OW11005   3.794   5.134   6.450
 3369SOL    HW111006   3.777   5.119   6.548
 3369SOL    HW211007   3.885   5.174   6.438
 3370SOL     OW11008   6.108   0.871   5.580
 3370SOL    HW111009   6.077   0.965   5.568
 3370SOL    HW211010   6.137   0.833   5.492
 3371SOL     OW11011   6.436   4.767   1.612
 3371SOL    HW111012   6.534   4.780   1.630
 3371SOL    HW211013   6.391   4.733   1.695
 3372SOL     OW11014   1.645   2.923   2.990
 3372SOL    HW111015   1.725   2.914   2.930
 3372SOL    HW211016   1.674   2.907   3.085
 3373SOL     OW11017   1.094   2.741   5.926
 3373SOL    HW111018   1.037   2.775   5.852
 3373SOL    HW211019   1.157   2.813   5.955
 3374SOL     OW11020   3.563   6.035   4.993
 3374SOL    HW111021   3.496   5.971   5.030
 3374SOL    HW211022   3.515   6.111   4.949
 3375SOL     OW11023   3.027   4.128   5.184
 3375SOL    HW111024   2.963   4.065   5.227
 3375SOL    HW211025   3.091   4.076   5.127
 3376SOL     OW11026   3.678   2.914   1.450
 3376SOL    HW111027   3.591   2.941   1.491
 3376SOL    HW211028   3.699   2.973   1.372
 3377SOL     OW11029   2.476   5.306   6.170
 3377SOL    HW111030   2.576   5.311   6.176
 3377SOL    HW211031   2.436   5.384   6.217
 3378SOL     OW11032   6.837   1.062   0.689
 3378SOL    HW111033   6.776   1.096   0.760
 3378SOL    HW211034   6.819   0.965   0.674
 3379SOL     OW11035   5.928   5.016   5.743
 3379SOL    HW111036   5.970   5.012   5.652
 3379SOL    HW211037   5.957   5.100   5.789
 3380SOL     OW11038   1.108   3.740   5.285
 3380SOL    HW111039   1.143   3.676   5.216
 3380SOL    HW211040   1.031   3.697   5.333
 3381SOL     OW11041   3.029   2.158   0.967
 3381SOL    HW111042   3.019   2.063   0.940
 3381SOL    HW211043   2.946   2.209   0.943
 3382SOL     OW11044   6.777   6.618   0.310
 3382SOL    HW111045   6.865   6.576   0.291
 3382SOL    HW211046   6.789   6.692   0.376
 3383SOL     OW11047   0.644   4.145   1.555
 3383SOL    HW111048   0.730   4.116   1.513
 3383SOL    HW211049   0.651   4.140   1.654
 3384SOL     OW11050   3.568   3.701   2.999
 3384SOL    HW111051   3.546   3.617   3.048
 3384SOL    HW211052   3.666   3.718   3.003
 3385SOL     OW11053   6.988   3.999   3.872
 3385SOL    HW111054   6.948   3.920   3.918
 3385SOL    HW211055   0.069   3.998   3.884
 3386SOL     OW11056   5.892   4.433   4.309
 3386SOL    HW111057   5.841   4.412   4.225
 3386SOL    HW211058   5.968   4.369   4.318
 3387SOL     OW11059   3.570   1.506   2.271
 3387SOL    HW111060   3.664   1.504   2.306
 3387SOL    HW211061   3.513   1.560   2.334
 3388SOL     OW11062   5.913   1.598   1.202
 3388SOL    HW111063   5.990   1.593   1.138
 3388SOL    HW211064   5.863   1.511   1.200
 3389SOL     OW11065   4.009   5.255   2.497
 3389SOL    HW111066   4.085   5.311   2.531
 3389SOL    HW211067   3.948   5.231   2.572
 3390SOL     OW11068   4.310   1.797   5.762
 3390SOL    HW111069   4.337   1.879   5.712
 3390SOL    HW211070   4.391   1.751   5.799
 3391SOL     OW11071   3.060   1.645   4.117
 3391SOL    HW111072   2.994   1.701   4.066
 3391SOL    HW211073   3.017   1.559   4.143
 3392SOL     OW11074   5.374   6.265   3.877
 3392SOL    HW111075   5.350   6.342   3.818
 3392SOL    HW211076   5.452   6.216   3.838
 3393SOL     OW11077   6.762   6.994   6.206
 3393SOL    HW111078   6.739   0.052   6.266
 3393SOL    HW211079   6.688   6.980   6.140
 3394SOL     OW11080   5.303   1.691   1.812
 3394SOL    HW111081   5.371   1.629   1.772
 3394SOL    HW211082   5.349   1.754   1.875
 3395SOL     OW11083   1.874   3.752   5.147
 3395SOL    HW111084   1.897   3.849   5.147
 3395SOL    HW211085   1.882   3.716   5.240
 3396SOL     OW11086   6.238   3.754   3.999
 3396SOL    HW111087   6.254   3.738   4.097
 3396SOL    HW211088   6.196   3.673   3.958
 3397SOL     OW11089   3.221   5.760   6.311
 3397SOL    HW111090   3.273   5.699   6.251
 3397SOL    HW211091   3.181   5.834   6.256
 3398SOL     OW11092   0.639   1.574   4.047
 3398SOL    HW111093   0.679   1.605   4.133
 3398SOL    HW211094   0.706   1.519   3.997
 3399SOL     OW11095   3.762   5.650   4.392
 3399SOL    HW111096   3.785   5.566   4.441
 3399SOL    HW211097   3.785   5.639   4.295
 3400SOL     OW11098   5.120   1.982   0.517
 3400SOL    HW111099   5.060   2.033   0.578
 3400SOL    HW211100   5.214   1.987   0.551
 3401SOL     OW11101   6.588   4.813   7.005
 3401SOL    HW111102   6.506   4.865   0.009
 3401SOL    HW211103   6.572   4.759   6.922
 3402SOL     OW11104   3.972   4.812   1.941
 3402SOL    HW111105   3.913   4.839   2.017
 3402SOL    HW211106   3.929   4.837   1.855
 3403SOL     OW11107   3.673   2.002   6.380
 3403SOL    HW111108   3.612   1.944   6.433
 3403SOL    HW211109   3.758   2.017   6.431
 3404SOL     OW11110   4.721   5.658   1.967
 3404SOL    HW111111   4.629   5.694   1.983
 3404SOL    HW211112   4.769   5.652   2.054
 3405SOL     OW11113   6.049   4.378   0.235
 3405SOL    HW111114   6.063   4.468   0.276
 3405SOL    HW211115   5.997   4.389   0.150
 3406SOL     OW11116   0.896   3.290   1.834
 3406SOL    HW111117   0.805   3.270   1.798
 3406SOL    HW211118   0.964   3.234   1.785
 3407SOL     OW11119   0.777   5.504   2.654
 3407SOL    HW111120   0.771   5.434   2.725
 3407SOL    HW211121   0.866   5.550   2.659
 3408SOL     OW11122   5.448   3.595   2.302
 3408SOL    HW111123   5.432   3.693   2.317
 3408SOL    HW211124   5.366   3.544   2.328
 3409SOL     OW11125   2.770   1.377   0.232
 3409SOL    HW111126   2.802   1.426   0.150
 3409SOL    HW211127   2.677   1.405   0.254
 3410SOL     OW11128   0.473   1.819   0.113
 3410SOL    HW111129   0.464   1.863   0.203
 3410SOL    HW211130   0.444   1.884   0.042
 3411SOL     OW11131   4.776   1.769   2.513
 3411SOL    HW111132   4.781   1.858   2.467
 3411SOL    HW211133   4.716   1.708   2.462
 3412SOL     OW11134   4.406   5.081   6.733
 3412SOL    HW111135   4.401   4.984   6.708
 3412SOL    HW211136   4.492   5.119   6.700
 3413SOL     OW11137   5.029   1.141   2.480
 3413SOL    HW111138   5.072   1.075   2.541
 3413SOL    HW211139   5.085   1.224   2.477
 3414SOL     OW11140   3.842   0.488   5.513
 3414SOL    HW111141   3.789   0.562   5.555
 3414SOL    HW211142   3.820   0.482   5.416
 3415SOL     OW11143   1.745   6.068   5.447
 3415SOL    HW111144   1.806   6.086   5.524
 3415SOL    HW211145   1.651   6.067   5.479
 3416SOL     OW11146   1.274   4.490   5.566
 3416SOL    HW111147   1.203   4.421   5.556
 3416SOL    HW211148   1.238   4.567   5.618
 3417SOL     OW11149   5.316   1.045   1.383
 3417SOL    HW111150   5.265   1.039   1.469
 3417SOL    HW211151   5.397   0.987   1.388
 3418SOL     OW11152   2.926   2.010   5.574
 3418SOL    HW111153   2.878   1.971   5.653
 3418SOL    HW211154   3.006   1.955   5.553
 3419SOL     OW11155   4.657   3.331   6.296
 3419SOL    HW111156   4.618   3.300   6.382
 3419SOL    HW211157   4.584   3.348   6.230
 3420SOL     OW11158   2.664   0.564   5.153
 3420SOL    HW111159   2.743   0.503   5.148
 3420SOL    HW211160   2.695   0.659   5.155
 3421SOL     OW11161   1.044   6.536   2.889
 3421SOL    HW111162   0.947   6.530   2.912
 3421SOL    HW211163   1.065   6.472   2.814
 3422SOL     OW11164   3.561   1.996   2.998
 3422SOL    HW111165   3.496   2.046   3.056
 3422SOL    HW211166   3.556   1.898   3.018
 3423SOL     OW11167   3.395   0.886   1.671
 3423SOL    HW111168   3.476   0.928   1.710
 3423SOL    HW211169   3.329   0.957   1.646
 3424SOL     OW11170   4.754   1.442   0.901
 3424SOL    HW111171   4.702   1.471   0.821
 3424SOL    HW211172   4.780   1.521   0.955
 3425SOL     OW11173   3.960   4.088   1.528
 3425SOL    HW111174   3.975   4.159   1.460
 3425SOL    HW211175   3.960   4.129   1.619
 3426SOL     OW11176   4.961   3.773   0.669
 3426SOL    HW111177   4.869   3.796   0.700
 3426SOL    HW211178   4.972   3.798   0.573
 3427SOL     OW11179   0.834   1.937   0.639
 3427SOL    HW111180   0.885   1.933   0.553
 3427SOL    HW211181   0.752   1.880   0.632
 3428SOL     OW11182   4.756   4.742   3.302
 3428SOL    HW111183   4.691   4.803   3.257
 3428SOL    HW211184   4.761   4.764   3.399
 3429SOL     OW11185   0.514   2.974   0.550
 3429SOL    HW111186   0.586   2.953   0.616
 3429SOL    HW211187   0.527   2.916   0.468
 3430SOL     OW11188   0.734   5.453   6.848
 3430SOL    HW111189   0.825   5.428   6.883
 3430SOL    HW211190   0.673   5.374   6.857
 3431SOL     OW11191   1.264   5.924   6.577
 3431SOL    HW111192   1.224   5.959   6.662
 3431SOL    HW211193   1.191   5.895   6.515
 3432SOL     OW11194   3.684   1.818   6.171
 3432SOL    HW111195   3.672   1.882   6.247
 3432SOL    HW211196   3.768   1.839   6.122
 3433SOL     OW11197   3.892   1.313   5.016
 3433SOL    HW111198   3.879   1.370   5.097
 3433SOL    HW211199   3.803   1.289   4.977
 3434SOL     OW11200   4.337   1.372   3.337
 3434SOL    HW111201   4.293   1.438   3.277
 3434SOL    HW211202   4.407   1.322   3.286
 3435SOL     OW11203   0.588   1.136   6.827
 3435SOL    HW111204   0.515   1.077   6.793
 3435SOL    HW211205   0.595   1.216   6.767
 3436SOL     OW11206   4.153   6.684   2.048
 3436SOL    HW111207   4.064   6.720   2.074
 3436SOL    HW211208   4.153   6.664   1.950
 3437SOL     OW11209   4.077   0.138   0.122
 3437SOL    HW111210   4.047   0.052   0.082
 3437SOL    HW211211   4.013   0.211   0.098
 3438SOL     OW11212   0.417   5.494   6.602
 3438SOL    HW111213   0.402   5.496   6.701
 3438SOL    HW211214   0.423   5.399   6.571
 3439SOL     OW11215   2.556   0.744   3.785
 3439SOL    HW111216   2.521   0.734   3.878
 3439SOL    HW211217   2.483   0.727   3.719
 3440SOL     OW11218   3.625   2.064   0.577
 3440SOL    HW111219   3.567   2.138   0.611
 3440SOL    HW211220   3.676   2.096   0.497
 3441SOL     OW11221   4.444   0.397   4.066
 3441SOL    HW111222   4.382   0.449   4.125
 3441SOL    HW211223   4.505   0.342   4.122
 3442SOL     OW11224   0.741   5.465   3.286
 3442SOL    HW111225   0.641   5.456   3.287
 3442SOL    HW211226   0.782   5.378   3.261
 3443SOL     OW11227   5.847   6.512   4.417
 3443SOL    HW111228   5.814   6.492   4.325
 3443SOL    HW211229   5.804   6.449   4.482
 3444SOL     OW11230   3.512   5.340   0.253
 3444SOL    HW111231   3.508   5.245   0.220
 3444SOL    HW211232   3.564   5.343   0.338
 3445SOL     OW11233   6.305   4.853   5.406
 3445SOL    HW111234   6.252   4.842   5.322
 3445SOL    HW211235   6.370   4.929   5.396
 3446SOL     OW11236   2.419   6.137   1.874
 3446SOL    HW111237   2.355   6.138   1.797
 3446SOL    HW211238   2.423   6.229   1.915
 3447SOL     OW11239   6.063   4.423   5.312
 3447SOL    HW111240   6.003   4.373   5.249
 3447SOL    HW211241   6.087   4.364   5.389
 3448SOL     OW11242   4.011   3.329   0.378
 3448SOL    HW111243   4.044   3.376   0.460
 3448SOL    HW211244   4.029   3.231   0.387
 3449SOL     OW11245   6.217   6.278   3.396
 3449SOL    HW111246   6.266   6.323   3.470
 3449SOL    HW211247   6.273   6.206   3.357
 3450SOL     OW11248   0.471   2.035   0.849
 3450SOL    HW111249   0.491   2.097   0.926
 3450SOL    HW211250   0.515   2.070   0.767
 3451SOL     OW11251   2.072   5.051   4.444
 3451SOL    HW111252   2.049   4.985   4.516
 3451SOL    HW211253   2.079   5.003   4.357
 3452SOL     OW11254   6.467   2.075   0.802
 3452SOL    HW111255   6.533   2.039   0.867
 3452SOL    HW211256   6.515   2.125   0.730
 3453SOL     OW11257   6.149   5.276   5.206
 3453SOL    HW111258   6.171   5.278   5.109
 3453SOL    HW211259   6.051   5.295   5.219
 3454SOL     OW11260   0.180   1.170   0.514
 3454SOL    HW111261   0.080   1.166   0.518
 3454SOL    HW211262   0.211   1.256   0.556
 3455SOL     OW11263   1.390   2.822   3.103
 3455SOL    HW111264   1.459   2.865   3.044
 3455SOL    HW211265   1.364   2.734   3.064
 3456SOL     OW11266   6.006   0.403   0.461
 3456SOL    HW111267   6.035   0.372   0.552
 3456SOL    HW211268   5.958   0.490   0.469
 3457SOL     OW11269   1.978   6.667   3.396
 3457SOL    HW111270   2.048   6.699   3.460
 3457SOL    HW211271   1.928   6.590   3.435
 3458SOL     OW11272   4.807   5.059   0.169
 3458SOL    HW111273   4.808   5.147   0.121
 3458SOL    HW211274   4.876   4.999   0.128
 3459SOL     OW11275   6.443   0.333   2.983
 3459SOL    HW111276   6.443   0.264   3.055
 3459SOL    HW211277   6.491   0.297   2.903
 3460SOL     OW11278   4.339   3.044   0.861
 3460SOL    HW111279   4.423   3.056   0.808
 3460SOL    HW211280   4.306   3.133   0.891
 3461SOL     OW11281   2.383   5.785   3.287
 3461SOL    HW111282   2.298   5.801   3.338
 3461SOL    HW211283   2.456   5.762   3.352
 3462SOL     OW11284   5.067   2.606   2.601
 3462SOL    HW111285   5.038   2.608   2.505
 3462SOL    HW211286   5.075   2.511   2.631
 3463SOL     OW11287   1.020   3.030   0.965
 3463SOL    HW111288   1.014   2.989   0.874
 3463SOL    HW211289   1.050   2.961   1.031
 3464SOL     OW11290   5.243   1.401   6.103
 3464SOL    HW111291   5.260   1.310   6.139
 3464SOL    HW211292   5.185   1.452   6.167
 3465SOL     OW11293   2.323   4.506   1.391
 3465SOL    HW111294   2.321   4.592   1.339
 3465SOL    HW211295   2.230   4.468   1.395
 3466SOL     OW11296   6.553   3.872   4.295
 3466SOL    HW111297   6.597   3.906   4.211
 3466SOL    HW211298   6.487   3.800   4.271
 3467SOL     OW11299   3.273   3.494   0.553
 3467SOL    HW111300   3.195   3.461   0.499
 3467SOL    HW211301   3.341   3.421   0.561
 3468SOL     OW11302   4.218   1.286   1.640
 3468SOL    HW111303   4.224   1.317   1.545
 3468SOL    HW211304   4.310   1.277   1.678
 3469SOL     OW11305   3.876   5.802   5.152
 3469SOL    HW111306   3.835   5.822   5.063
 3469SOL    HW211307   3.805   5.769   5.215
 3470SOL     OW11308   1.186   2.814   0.808
 3470SOL    HW111309   1.099   2.769   0.827
 3470SOL    HW211310   1.236   2.826   0.894
 3471SOL     OW11311   5.295   3.124   4.753
 3471SOL    HW111312   5.354   3.044   4.742
 3471SOL    HW211313   5.216   3.116   4.692
 3472SOL     OW11314   4.475   1.942   2.211
 3472SOL    HW111315   4.510   2.033   2.235
 3472SOL    HW211316   4.488   1.881   2.289
 3473SOL     OW11317   6.027   4.545   1.856
 3473SOL    HW111318   6.062   4.639   1.857
 3473SOL    HW211319   6.027   4.512   1.762
 3474SOL     OW11320   4.889   3.780   3.552
 3474SOL    HW111321   4.839   3.865   3.568
 3474SOL    HW211322   4.900   3.731   3.638
 3475SOL     OW11323   0.058   4.038   4.345
 3475SOL    HW111324   0.014   4.093   4.416
 3475SOL    HW211325   0.030   3.943   4.354
 3476SOL     OW11326   2.225   3.049   3.159
 3476SOL    HW111327   2.166   3.116   3.113
 3476SOL    HW211328   2.229   3.069   3.257
 3477SOL     OW11329   1.244   4.170   1.638
 3477SOL    HW111330   1.202   4.162   1.547
 3477SOL    HW211331   1.187   4.229   1.695
 3478SOL     OW11332   2.605   0.335   1.737
 3478SOL    HW111333   2.571   0.251   1.695
 3478SOL    HW211334   2.635   0.399   1.665
 3479SOL     OW11335   1.164   4.235   5.420
 3479SOL    HW111336   1.116   4.148   5.426
 3479SOL    HW211337   1.107   4.307   5.460
 3480SOL     OW11338   1.135   4.975   6.672
 3480SOL    HW111339   1.180   4.906   6.616
 3480SOL    HW211340   1.141   4.948   6.769
 3481SOL     OW11341   6.036   0.960   4.492
 3481SOL    HW111342   6.100   1.035   4.473
 3481SOL    HW211343   6.053   0.885   4.429
 3482SOL     OW11344   6.269   2.757   6.458
 3482SOL    HW111345   6.197   2.822   6.484
 3482SOL    HW211346   6.232   2.664   6.464
 3483SOL     OW11347   5.260   2.216   4.700
 3483SOL    HW111348   5.211   2.302   4.691
 3483SOL    HW211349   5.214   2.159   4.769
 3484SOL     OW11350   1.019   3.036   4.775
 3484SOL    HW111351   0.998   3.040   4.677
 3484SOL    HW211352   1.118   3.044   4.788
 3485SOL     OW11353   6.563   3.868   6.864
 3485SOL    HW111354   6.542   3.770   6.867
 3485SOL    HW211355   6.638   3.884   6.800
 3486SOL     OW11356   1.338   6.403   5.110
 3486SOL    HW111357   1.238   6.408   5.110
 3486SOL    HW211358   1.371   6.405   5.205
 3487SOL     OW11359   4.217   1.532   6.560
 3487SOL    HW111360   4.211   1.580   6.648
 3487SOL    HW211361   4.125   1.518   6.524
 3488SOL     OW11362   4.863   6.605   5.266
 3488SOL    HW111363   4.923   6.685   5.265
 3488SOL    HW211364   4.888   6.543   5.191
 3489SOL     OW11365   3.612   6.092   0.536
 3489SOL    HW111366   3.603   6.018   0.603
 3489SOL    HW211367   3.708   6.105   0.514
 3490SOL     OW11368   4.131   6.926   0.818
 3490SOL    HW111369   4.101   6.980   0.897
 3490SOL    HW211370   4.058   6.925   0.750
 3491SOL     OW11371   4.914   4.428   5.552
 3491SOL    HW111372   4.986   4.398   5.616
 3491SOL    HW211373   4.837   4.364   5.556
 3492SOL     OW11374   5.847   3.697   3.498
 3492SOL    HW111375   5.823   3.791   3.474
 3492SOL    HW211376   5.765   3.640   3.491
 3493SOL     OW11377   0.302   3.577   5.753
 3493SOL    HW111378   0.326   3.641   5.680
 3493SOL    HW211379   0.357   3.597   5.835
 3494SOL     OW11380   4.129   1.224   2.642
 3494SOL    HW111381   4.078   1.149   2.601
 3494SOL    HW211382   4.227   1.208   2.632
 3495SOL     OW11383   1.877   3.848   3.752
 3495SOL    HW111384   1.864   3.873   3.848
 3495SOL    HW211385   1.792   3.867   3.701
 3496SOL     OW11386   6.217   5.268   1.070
 3496SOL    HW111387   6.118   5.284   1.060
 3496SOL    HW211388   6.238   5.254   1.167
 3497SOL     OW11389   3.209   0.261   1.426
 3497SOL    HW111390   3.268   0.239   1.348
 3497SOL    HW211391   3.229   0.198   1.501
 3498SOL     OW11392   2.545   2.743   1.285
 3498SOL    HW111393   2.641   2.727   1.305
 3498SOL    HW211394   2.534   2.830   1.236
 3499SOL     OW11395   5.703   6.799   5.007
 3499SOL    HW111396   5.784   6.826   4.955
 3499SOL    HW211397   5.628   6.777   4.945
 3500SOL     OW11398   2.950   2.178   3.666
 3500SOL    HW111399   3.040   2.136   3.658
 3500SOL    HW211400   2.921   2.212   3.576
 3501SOL     OW11401   1.497   6.933   6.035
 3501SOL    HW111402   1.405   6.898   6.056
 3501SOL    HW211403   1.525   6.900   5.945
 3502SOL     OW11404   5.484   2.362   1.967
 3502SOL    HW111405   5.393   2.372   1.929
 3502SOL    HW211406   5.490   2.415   2.052
 3503SOL     OW11407   0.607   6.045   6.526
 3503SOL    HW111408   0.553   5.962   6.514
 3503SOL    HW211409   0.666   6.059   6.446
 3504SOL     OW11410   2.002   0.866   0.048
 3504SOL    HW111411   2.083   0.913   0.082
 3504SOL    HW211412   1.975   0.906   6.979
 3505SOL     OW11413   5.143   2.555   5.205
 3505SOL    HW111414   5.125   2.506   5.290
 3505SOL    HW211415   5.061   2.552   5.146
 3506SOL     OW11416   4.214   4.750   4.737
 3506SOL    HW111417   4.169   4.782   4.821
 3506SOL    HW211418   4.167   4.670   4.701
 3507SOL     OW11419   2.808   1.931   1.119
 3507SOL    HW111420   2.757   1.849   1.143
 3507SOL    HW211421   2.862   1.961   1.198
 3508SOL     OW11422   3.758   1.438   6.779
 3508SOL    HW111423   3.730   1.365   6.717
 3508SOL    HW211424   3.684   1.504   6.790
 3509SOL     OW11425   4.405   5.499   6.827
 3509SOL    HW111426   4.316   5.472   6.861
 3509SOL    HW211427   4.412   5.477   6.730
 3510SOL     OW11428   2.399   1.485   1.263
 3510SOL    HW111429   2.459   1.486   1.343
 3510SOL    HW211430   2.442   1.538   1.189
 3511SOL     OW11431   2.699   4.781   1.996
 3511SOL    HW111432   2.617   4.730   2.020
 3511SOL    HW211433   2.778   4.719   1.996
 3512SOL     OW11434   6.718   5.183   5.985
 3512SOL    HW111435   6.747   5.099   6.033
 3512SOL    HW211436   6.774   5.194   5.902
 3513SOL     OW11437   5.268   1.606   0.243
 3513SOL    HW111438   5.330   1.638   0.172
 3513SOL    HW211439   5.176   1.595   0.205
 3514SOL     OW11440   3.258   1.840   2.214
 3514SOL    HW111441   3.273   1.840   2.313
 3514SOL    HW211442   3.345   1.854   2.166
 3515SOL     OW11443   0.373   4.258   4.019
 3515SOL    HW111444   0.438   4.333   4.031
 3515SOL    HW211445   0.356   4.244   3.921
 3516SOL     OW11446   4.192   0.704   0.998
 3516SOL    HW111447   4.247   0.778   0.959
 3516SOL    HW211448   4.251   0.627   1.022
 3517SOL     OW11449   4.812   1.500   1.901
 3517SOL    HW111450   4.829   1.412   1.944
 3517SOL    HW211451   4.765   1.560   1.965
 3518SOL     OW11452   6.332   1.597   5.341
 3518SOL    HW111453   6.400   1.629   5.275
 3518SOL    HW211454   6.319   1.666   5.411
 3519SOL     OW11455   3.369   1.484   1.495
 3519SOL    HW111456   3.441   1.477   1.426
 3519SOL    HW211457   3.378   1.409   1.560
 3520SOL     OW11458   2.327   6.255   4.222
 3520SOL    HW111459   2.255   6.208   4.273
 3520SOL    HW211460   2.299   6.268   4.127
 3521SOL     OW11461   2.303   2.635   6.412
 3521SOL    HW111462   2.253   2.558   6.451
 3521SOL    HW211463   2.373   2.601   6.348
 3522SOL     OW11464   1.083   5.996   6.789
 3522SOL    HW111465   1.016   6.005   6.715
 3522SOL    HW211466   1.038   5.957   6.869
 3523SOL     OW11467   3.556   5.609   0.147
 3523SOL    HW111468   3.532   5.522   0.191
 3523SOL    HW211469   3.654   5.626   0.159
 3524SOL     OW11470   4.592   1.018   4.121
 3524SOL    HW111471   4.632   0.942   4.071
 3524SOL    HW211472   4.524   0.984   4.186
 3525SOL     OW11473   0.343   2.824   3.589
 3525SOL    HW111474   0.365   2.890   3.660
 3525SOL    HW211475   0.411   2.829   3.516
 3526SOL     OW11476   0.276   7.000   1.685
 3526SOL    HW111477   0.325   6.926   1.731
 3526SOL    HW211478   0.313   7.012   1.593
 3527SOL     OW11479   6.263   2.852   0.078
 3527SOL    HW111480   6.310   2.821   7.014
 3527SOL    HW211481   6.330   2.887   0.143
 3528SOL     OW11482   2.512   4.951   5.163
 3528SOL    HW111483   2.608   4.932   5.148
 3528SOL    HW211484   2.465   4.867   5.190
 3529SOL     OW11485   4.692   4.179   0.153
 3529SOL    HW111486   4.735   4.215   0.236
 3529SOL    HW211487   4.600   4.147   0.174
 3530SOL     OW11488   6.254   0.661   0.968
 3530SOL    HW111489   6.266   0.588   0.901
 3530SOL    HW211490   6.340   0.678   1.015
 3531SOL     OW11491   4.495   1.810   0.718
 3531SOL    HW111492   4.404   1.770   0.719
 3531SOL    HW211493   4.535   1.800   0.626
 3532SOL     OW11494   2.230   0.748   1.453
 3532SOL    HW111495   2.226   0.826   1.515
 3532SOL    HW211496   2.158   0.755   1.385
 3533SOL     OW11497   2.005   2.838   3.057
 3533SOL    HW111498   2.043   2.893   3.131
 3533SOL    HW211499   1.939   2.773   3.094
 3534SOL     OW11500   0.664   1.384   0.763
 3534SOL    HW111501   0.641   1.412   0.670
 3534SOL    HW211502   0.609   1.305   0.789
 3535SOL     OW11503   4.234   6.814   3.509
 3535SOL    HW111504   4.320   6.862   3.495
 3535SOL    HW211505   4.171   6.833   3.433
 3536SOL     OW11506   4.200   1.999   3.963
 3536SOL    HW111507   4.267   2.039   3.901
 3536SOL    HW211508   4.140   1.937   3.912
 3537SOL     OW11509   1.800   6.409   2.842
 3537SOL    HW111510   1.895   6.379   2.843
 3537SOL    HW211511   1.774   6.435   2.748
 3538SOL     OW11512   3.082   5.783   1.686
 3538SOL    HW111513   3.062   5.881   1.687
 3538SOL    HW211514   3.012   5.735   1.634
 3539SOL     OW11515   3.345   3.837   4.477
 3539SOL    HW111516   3.253   3.833   4.515
 3539SOL    HW211517   3.410   3.801   4.545
 3540SOL     OW11518   2.066   2.365   3.045
 3540SOL    HW111519   2.147   2.330   3.092
 3540SOL    HW211520   1.987   2.308   3.069
 3541SOL     OW11521   3.994   3.836   4.460
 3541SOL    HW111522   3.936   3.918   4.458
 3541SOL    HW211523   4.033   3.825   4.552
 3542SOL     OW11524   6.765   5.712   1.573
 3542SOL    HW111525   6.825   5.654   1.518
 3542SOL    HW211526   6.811   5.797   1.596
 3543SOL     OW11527   5.012   2.308   4.403
 3543SOL    HW111528   5.092   2.249   4.391
 3543SOL    HW211529   4.931   2.251   4.417
 3544SOL     OW11530   3.231   6.745   6.979
 3544SOL    HW111531   3.211   6.653   7.011
 3544SOL    HW211532   3.182   6.762   6.893
 3545SOL     OW11533   2.886   5.277   0.563
 3545SOL    HW111534   2.917   5.370   0.583
 3545SOL    HW211535   2.864   5.230   0.648
 3546SOL     OW11536   1.163   4.474   2.577
 3546SOL    HW111537   1.160   4.572   2.556
 3546SOL    HW211538   1.104   4.424   2.513
 3547SOL     OW11539   5.318   4.679   4.266
 3547SOL    HW111540   5.227   4.641   4.248
 3547SOL    HW211541   5.355   4.641   4.351
 3548SOL     OW11542   5.947   3.231   5.617
 3548SOL    HW111543   5.868   3.291   5.617
 3548SOL    HW211544   5.925   3.146   5.663
 3549SOL     OW11545   5.152   3.451   2.135
 3549SOL    HW111546   5.105   3.530   2.097
 3549SOL    HW211547   5.172   3.467   2.232
 3550SOL     OW11548   5.102   1.657   3.878
 3550SOL    HW111549   5.042   1.693   3.806
 3550SOL    HW211550   5.155   1.580   3.841
 3551SOL     OW11551   1.813   0.344   2.672
 3551SOL    HW111552   1.744   0.416   2.663
 3551SOL    HW211553   1.846   0.318   2.581
 3552SOL     OW11554   6.458   4.510   3.212
 3552SOL    HW111555   6.557   4.503   3.205
 3552SOL    HW211556   6.421   4.424   3.247
 3553SOL     OW11557   5.675   1.779   3.485
 3553SOL    HW111558   5.662   1.841   3.408
 3553SOL    HW211559   5.751   1.718   3.466
 3554SOL     OW11560   3.843   5.496   7.005
 3554SOL    HW111561   3.764   5.492   6.944
 3554SOL    HW211562   3.826   5.564   0.058
 3555SOL     OW11563   0.908   2.328   4.017
 3555SOL    HW111564   0.928   2.417   4.058
 3555SOL    HW211565   0.920   2.256   4.086
 3556SOL     OW11566   4.287   1.653   6.084
 3556SOL    HW111567   4.342   1.600   6.149
 3556SOL    HW211568   4.332   1.740   6.065
 3557SOL     OW11569   1.281   0.521   3.910
 3557SOL    HW111570   1.225   0.485   3.835
 3557SOL    HW211571   1.279   0.621   3.909
 3558SOL     OW11572   0.223   6.848   1.308
 3558SOL    HW111573   0.209   6.848   1.209
 3558SOL    HW211574   0.220   6.942   1.342
 3559SOL     OW11575   0.595   0.478   5.962
 3559SOL    HW111576   0.654   0.539   6.015
 3559SOL    HW211577   0.645   0.394   5.941
 3560SOL     OW11578   6.485   6.798   1.769
 3560SOL    HW111579   6.577   6.814   1.804
 3560SOL    HW211580   6.454   6.879   1.720
 3561SOL     OW11581   5.632   4.902   3.684
 3561SOL    HW111582   5.560   4.961   3.721
 3561SOL    HW211583   5.607   4.872   3.592
 3562SOL     OW11584   4.330   2.334   2.278
 3562SOL    HW111585   4.235   2.305   2.281
 3562SOL    HW211586   4.348   2.398   2.353
 3563SOL     OW11587   4.358   6.431   1.786
 3563SOL    HW111588   4.420   6.498   1.746
 3563SOL    HW211589   4.269   6.437   1.739
 3564SOL     OW11590   6.345   4.498   2.048
 3564SOL    HW111591   6.301   4.408   2.043
 3564SOL    HW211592   6.391   4.507   2.136
 3565SOL     OW11593   0.584   0.596   5.481
 3565SOL    HW111594   0.669   0.603   5.429
 3565SOL    HW211595   0.603   0.605   5.579
 3566SOL     OW11596   0.772   4.644   5.961
 3566SOL    HW111597   0.774   4.744   5.951
 3566SOL    HW211598   0.800   4.620   6.054
 3567SOL     OW11599   0.045   2.283   1.146
 3567SOL    HW111600   6.996   2.354   1.165
 3567SOL    HW211601   0.099   2.265   1.229
 3568SOL     OW11602   4.906   4.155   3.794
 3568SOL    HW111603   4.891   4.057   3.806
 3568SOL    HW211604   4.840   4.191   3.727
 3569SOL     OW11605   4.017   3.529   3.516
 3569SOL    HW111606   4.071   3.500   3.437
 3569SOL    HW211607   3.921   3.537   3.490
 3570SOL     OW11608   0.164   2.382   5.427
 3570SOL    HW111609   0.226   2.315   5.385
 3570SOL    HW211610   0.213   2.467   5.443
 3571SOL     OW11611   3.002   0.066   4.271
 3571SOL    HW111612   2.987   0.147   4.328
 3571SOL    HW211613   2.942   7.011   4.301
 3572SOL     OW11614   4.869   4.548   2.792
 3572SOL    HW111615   4.963   4.579   2.807
 3572SOL    HW211616   4.827   4.526   2.880
 3573SOL     OW11617   0.283   4.698   3.998
 3573SOL    HW111618   0.258   4.676   3.904
 3573SOL    HW211619   0.341   4.779   4.000
 3574SOL     OW11620   2.005   1.793   6.024
 3574SOL    HW111621   1.971   1.724   6.089
 3574SOL    HW211622   2.068   1.750   5.960
 3575SOL     OW11623   4.782   0.389   6.149
 3575SOL    HW111624   4.706   0.325   6.144
 3575SOL    HW211625   4.792   0.437   6.062
 3576SOL     OW11626   0.861   2.887   0.473
 3576SOL    HW111627   0.910   2.942   0.541
 3576SOL    HW211628   0.926   2.829   0.424
 3577SOL     OW11629   2.139   3.640   4.455
 3577SOL    HW111630   2.140   3.649   4.555
 3577SOL    HW211631   2.110   3.726   4.414
 3578SOL     OW11632   4.594   2.179   0.683
 3578SOL    HW111633   4.608   2.141   0.592
 3578SOL    HW211634   4.569   2.275   0.675
 3579SOL     OW11635   0.747   3.574   2.350
 3579SOL    HW111636   0.747   3.608   2.444
 3579SOL    HW211637   0.838   3.542   2.326
 3580SOL     OW11638   6.475   4.121   2.112
 3580SOL    HW111639   6.521   4.134   2.200
 3580SOL    HW211640   6.540   4.083   2.046
 3581SOL     OW11641   1.711   0.543   2.933
 3581SOL    HW111642   1.658   0.459   2.921
 3581SOL    HW211643   1.799   0.521   2.974
 3582SOL     OW11644   4.935   6.452   6.862
 3582SOL    HW111645   4.845   6.468   6.902
 3582SOL    HW211646   4.925   6.396   6.780
 3583SOL     OW11647   1.905   6.275   0.549
 3583SOL    HW111648   1.935   6.351   0.606
 3583SOL    HW211649   1.911   6.190   0.601
 3584SOL     OW11650   5.647   5.011   4.827
 3584SOL    HW111651   5.633   5.047   4.919
 3584SOL    HW211652   5.621   5.080   4.760
 3585SOL     OW11653   4.216   2.332   3.682
 3585SOL    HW111654   4.289   2.399   3.672
 3585SOL    HW211655   4.160   2.332   3.599
 3586SOL     OW11656   6.634   2.826   5.210
 3586SOL    HW111657   6.541   2.799   5.235
 3586SOL    HW211658   6.640   2.840   5.112
 3587SOL     OW11659   2.123   0.373   6.031
 3587SOL    HW111660   2.080   0.365   6.121
 3587SOL    HW211661   2.156   0.284   6.002
 3588SOL     OW11662   5.884   3.922   3.937
 3588SOL    HW111663   5.811   3.856   3.954
 3588SOL    HW211664   5.962   3.876   3.894
 3589SOL     OW11665   6.940   1.010   5.972
 3589SOL    HW111666   6.959   1.037   6.067
 3589SOL    HW211667   0.007   0.984   5.926
 3590SOL     OW11668   5.960   4.847   6.015
 3590SOL    HW111669   5.861   4.856   6.015
 3590SOL    HW211670   6.001   4.925   5.967
 3591SOL     OW11671   4.843   1.376   0.616
 3591SOL    HW111672   4.863   1.423   0.702
 3591SOL    HW211673   4.804   1.286   0.634
 3592SOL     OW11674   0.643   6.139   1.050
 3592SOL    HW111675   0.627   6.138   1.149
 3592SOL    HW211676   0.704   6.214   1.027
 3593SOL     OW11677   4.020   3.354   5.481
 3593SOL    HW111678   4.023   3.393   5.573
 3593SOL    HW211679   4.072   3.269   5.479
 3594SOL     OW11680   4.495   4.532   5.266
 3594SOL    HW111681   4.572   4.530   5.202
 3594SOL    HW211682   4.411   4.552   5.215
 3595SOL     OW11683   4.852   0.007   5.625
 3595SOL    HW111684   4.765   6.978   5.627
 3595SOL    HW211685   4.868   0.053   5.713
 3596SOL     OW11686   3.210   1.459   1.893
 3596SOL    HW111687   3.153   1.424   1.968
 3596SOL    HW211688   3.278   1.523   1.931
 3597SOL     OW11689   4.122   4.695   5.233
 3597SOL    HW111690   4.168   4.617   5.191
 3597SOL    HW211691   4.039   4.664   5.280
 3598SOL     OW11692   6.627   5.572   4.056
 3598SOL    HW111693   6.705   5.534   4.105
 3598SOL    HW211694   6.652   5.661   4.017
 3599SOL     OW11695   2.018   1.090   5.562
 3599SOL    HW111696   2.073   1.006   5.569
 3599SOL    HW211697   1.973   1.092   5.473
 3600SOL     OW11698   2.162   4.328   0.994
 3600SOL    HW111699   2.167   4.231   0.973
 3600SOL    HW211700   2.068   4.361   0.980
 3601SOL     OW11701   3.221   0.237   5.016
 3601SOL    HW111702   3.296   0.172   5.031
 3601SOL    HW211703   3.173   0.251   5.103
 3602SOL     OW11704   1.566   2.167   0.695
 3602SOL    HW111705   1.486   2.156   0.636
 3602SOL    HW211706   1.538   2.200   0.785
 3603SOL     OW11707   1.192   6.597   5.868
 3603SOL    HW111708   1.116   6.651   5.831
 3603SOL    HW211709   1.244   6.653   5.931
 3604SOL     OW11710   6.803   1.122   4.316
 3604SOL    HW111711   6.792   1.196   4.382
 3604SOL    HW211712   6.843   1.043   4.362
 3605SOL     OW11713   1.309   6.984   4.700
 3605SOL    HW111714   1.386   6.978   4.763
 3605SOL    HW211715   1.294   6.894   4.657
 3606SOL     OW11716   1.856   6.981   3.253
 3606SOL    HW111717   1.797   6.935   3.319
 3606SOL    HW211718   1.891   6.914   3.188
 3607SOL     OW11719   5.906   1.841   4.271
 3607SOL    HW111720   5.881   1.747   4.297
 3607SOL    HW211721   5.973   1.877   4.336
 3608SOL     OW11722   4.246   1.770   5.345
 3608SOL    HW111723   4.187   1.847   5.319
 3608SOL    HW211724   4.325   1.805   5.396
 3609SOL     OW11725   3.038   6.607   4.853
 3609SOL    HW111726   2.990   6.692   4.875
 3609SOL    HW211727   3.121   6.600   4.908
 3610SOL     OW11728   1.204   0.079   5.985
 3610SOL    HW111729   1.126   0.125   6.027
 3610SOL    HW211730   1.211   7.005   6.020
 3611SOL     OW11731   5.460   3.379   2.811
 3611SOL    HW111732   5.401   3.445   2.765
 3611SOL    HW211733   5.469   3.405   2.908
 3612SOL     OW11734   5.120   1.538   0.776
 3612SOL    HW111735   5.088   1.626   0.741
 3612SOL    HW211736   5.220   1.532   0.767
 3613SOL     OW11737   4.000   0.571   2.519
 3613SOL    HW111738   4.099   0.578   2.523
 3613SOL    HW211739   3.968   0.606   2.431
 3614SOL     OW11740   3.508   5.898   0.224
 3614SOL    HW111741   3.536   5.806   0.197
 3614SOL    HW211742   3.492   5.953   0.142
 3615SOL     OW11743   5.533   2.649   4.727
 3615SOL    HW111744   5.577   2.664   4.816
 3615SOL    HW211745   5.433   2.652   4.739
 3616SOL     OW11746   1.876   1.040   1.106
 3616SOL    HW111747   1.843   1.129   1.074
 3616SOL    HW211748   1.926   1.053   1.192
 3617SOL     OW11749   4.047   5.440   4.798
 3617SOL    HW111750   4.105   5.375   4.751
 3617SOL    HW211751   4.078   5.533   4.778
 3618SOL     OW11752   1.154   5.420   4.295
 3618SOL    HW111753   1.085   5.489   4.319
 3618SOL    HW211754   1.135   5.385   4.203
 3619SOL     OW11755   6.876   1.977   2.182
 3619SOL    HW111756   6.931   2.056   2.207
 3619SOL    HW211757   6.869   1.914   2.260
 3620SOL     OW11758   4.559   6.606   5.579
 3620SOL    HW111759   4.642   6.621   5.526
 3620SOL    HW211760   4.541   6.507   5.587
 3621SOL     OW11761   3.238   3.145   3.133
 3621SOL    HW111762   3.177   3.068   3.114
 3621SOL    HW211763   3.285   3.130   3.220
 3622SOL     OW11764   2.047   6.062   6.085
 3622SOL    HW111765   2.057   6.014   6.172
 3622SOL    HW211766   1.949   6.074   6.065
 3623SOL     OW11767   1.884   6.080   5.686
 3623SOL    HW111768   1.974   6.120   5.704
 3623SOL    HW211769   1.819   6.111   5.755
 3624SOL     OW11770   2.710   1.698   2.510
 3624SOL    HW111771   2.648   1.637   2.461
 3624SOL    HW211772   2.675   1.792   2.505
 3625SOL     OW11773   6.403   1.605   1.403
 3625SOL    HW111774   6.365   1.537   1.466
 3625SOL    HW211775   6.330   1.649   1.352
 3626SOL     OW11776   0.795   3.468   5.622
 3626SOL    HW111777   0.749   3.528   5.688
 3626SOL    HW211778   0.732   3.447   5.547
 3627SOL     OW11779   3.181   1.423   2.624
 3627SOL    HW111780   3.110   1.388   2.685
 3627SOL    HW211781   3.195   1.359   2.549
 3628SOL     OW11782   0.082   1.230   1.680
 3628SOL    HW111783   0.168   1.260   1.720
 3628SOL    HW211784   0.083   1.249   1.581
 3629SOL     OW11785   1.916   0.917   4.681
 3629SOL    HW111786   1.828   0.910   4.729
 3629SOL    HW211787   1.930   1.011   4.651
 3630SOL     OW11788   6.961   1.465   2.628
 3630SOL    HW111789   6.867   1.431   2.633
 3630SOL    HW211790   7.007   1.449   2.715
 3631SOL     OW11791   2.200   5.122   2.398
 3631SOL    HW111792   2.242   5.205   2.363
 3631SOL    HW211793   2.107   5.143   2.430
 3632SOL     OW11794   5.141   2.939   2.596
 3632SOL    HW111795   5.224   2.895   2.632
 3632SOL    HW211796   5.158   2.971   2.503
 3633SOL     OW11797   4.729   4.907   5.854
 3633SOL    HW111798   4.806   4.858   5.896
 3633SOL    HW211799   4.645   4.856   5.869
 3634SOL     OW11800   2.746   5.048   6.531
 3634SOL    HW111801   2.719   5.140   6.502
 3634SOL    HW211802   2.746   4.987   6.452
 3635SOL     OW11803   1.682   6.692   2.770
 3635SOL    HW111804   1.668   6.769   2.832
 3635SOL    HW211805   1.780   6.679   2.754
 3636SOL     OW11806   6.694   6.381   4.459
 3636SOL    HW111807   6.729   6.331   4.380
 3636SOL    HW211808   6.690   6.479   4.439
 3637SOL     OW11809   5.337   2.114   6.921
 3637SOL    HW111810   5.282   2.179   6.869
 3637SOL    HW211811   5.332   2.137   7.018
 3638SOL     OW11812   0.614   2.629   3.959
 3638SOL    HW111813   0.691   2.690   3.942
 3638SOL    HW211814   0.636   2.538   3.924
 3639SOL     OW11815   3.374   3.327   4.181
 3639SOL    HW111816   3.323   3.377   4.110
 3639SOL    HW211817   3.322   3.246   4.208
 3640SOL     OW11818   4.413   1.811   2.458
 3640SOL    HW111819   4.344   1.875   2.491
 3640SOL    HW211820   4.399   1.722   2.501
 3641SOL     OW11821   0.156   3.251   1.545
 3641SOL    HW111822   0.204   3.196   1.477
 3641SOL    HW211823   0.059   3.227   1.544
 3642SOL     OW11824   4.165   4.529   6.332
 3642SOL    HW111825   4.182   4.623   6.303
 3642SOL    HW211826   4.069   4.507   6.320
 3643SOL     OW11827   4.537   4.998   4.901
 3643SOL    HW111828   4.634   5.012   4.921
 3643SOL    HW211829   4.524   4.906   4.864
 3644SOL     OW11830   3.398   1.928   1.477
 3644SOL    HW111831   3.381   1.864   1.551
 3644SOL    HW211832   3.451   1.883   1.405
 3645SOL     OW11833   1.561   3.647   3.780
 3645SOL    HW111834   1.525   3.697   3.859
 3645SOL    HW211835   1.575   3.551   3.804
 3646SOL     OW11836   2.695   5.084   5.406
 3646SOL    HW111837   2.596   5.095   5.396
 3646SOL    HW211838   2.733   5.045   5.322
 3647SOL     OW11839   3.465   0.854   0.883
 3647SOL    HW111840   3.443   0.872   0.979
 3647SOL    HW211841   3.564   0.854   0.871
 3648SOL     OW11842   5.687   5.567   3.797
 3648SOL    HW111843   5.760   5.615   3.748
 3648SOL    HW211844   5.703   5.469   3.793
 3649SOL     OW11845   5.341   2.973   0.214
 3649SOL    HW111846   5.338   3.018   0.124
 3649SOL    HW211847   5.335   3.042   0.286
 3650SOL     OW11848   5.216   6.355   0.300
 3650SOL    HW111849   5.208   6.440   0.247
 3650SOL    HW211850   5.156   6.286   0.260
 3651SOL     OW11851   0.915   1.733   5.751
 3651SOL    HW111852   0.904   1.821   5.797
 3651SOL    HW211853   0.871   1.736   5.661
 3652SOL     OW11854   6.074   2.143   2.661
 3652SOL    HW111855   6.033   2.203   2.730
 3652SOL    HW211856   6.029   2.053   2.664
 3653SOL     OW11857   2.120   1.697   0.689
 3653SOL    HW111858   2.218   1.701   0.672
 3653SOL    HW211859   2.101   1.634   0.764
 3654SOL     OW11860   4.075   6.109   0.884
 3654SOL    HW111861   4.070   6.020   0.929
 3654SOL    HW211862   4.162   6.118   0.836
 3655SOL     OW11863   1.282   0.014   3.665
 3655SOL    HW111864   1.308   0.000   3.569
 3655SOL    HW211865   1.351   0.070   3.710
 3656SOL     OW11866   0.480   0.639   0.781
 3656SOL    HW111867   0.558   0.639   0.843
 3656SOL    HW211868   0.490   0.714   0.715
 3657SOL     OW11869   6.720   4.607   6.383
 3657SOL    HW111870   6.818   4.622   6.369
 3657SOL    HW211871   6.684   4.677   6.444
 3658SOL     OW11872   2.139   4.582   5.851
 3658SOL    HW111873   2.180   4.666   5.886
 3658SOL    HW211874   2.189   4.502   5.885
 3659SOL     OW11875   1.080   2.279   0.247
 3659SOL    HW111876   1.020   2.222   0.304
 3659SOL    HW211877   1.049   2.374   0.251
 3660SOL     OW11878   4.416   4.567   4.057
 3660SOL    HW111879   4.384   4.652   4.015
 3660SOL    HW211880   4.506   4.543   4.022
 3661SOL     OW11881   0.805   0.859   5.305
 3661SOL    HW111882   0.824   0.847   5.402
 3661SOL    HW211883   0.883   0.824   5.251
 3662SOL     OW11884   3.624   2.720   5.603
 3662SOL    HW111885   3.722   2.700   5.604
 3662SOL    HW211886   3.581   2.676   5.524
 3663SOL     OW11887   1.565   2.636   5.942
 3663SOL    HW111888   1.591   2.718   5.890
 3663SOL    HW211889   1.647   2.591   5.978
 3664SOL     OW11890   2.085   2.542   0.733
 3664SOL    HW111891   2.001   2.563   0.684
 3664SOL    HW211892   2.141   2.625   0.740
 3665SOL     OW11893   6.698   6.152   5.085
 3665SOL    HW111894   6.778   6.122   5.033
 3665SOL    HW211895   6.725   6.228   5.145
 3666SOL     OW11896   2.136   3.933   4.823
 3666SOL    HW111897   2.123   3.835   4.812
 3666SOL    HW211898   2.193   3.951   4.903
 3667SOL     OW11899   2.673   6.270   1.161
 3667SOL    HW111900   2.709   6.336   1.094
 3667SOL    HW211901   2.573   6.268   1.155
 3668SOL     OW11902   4.203   0.413   0.648
 3668SOL    HW111903   4.287   0.444   0.604
 3668SOL    HW211904   4.178   0.476   0.721
 3669SOL     OW11905   6.707   1.379   2.192
 3669SOL    HW111906   6.667   1.467   2.214
 3669SOL    HW211907   6.767   1.350   2.266
 3670SOL     OW11908   2.073   6.492   2.154
 3670SOL    HW111909   1.979   6.526   2.162
 3670SOL    HW211910   2.117   6.494   2.244
 3671SOL     OW11911   0.313   0.739   5.759
 3671SOL    HW111912   0.272   0.655   5.726
 3671SOL    HW211913   0.413   0.728   5.765
 3672SOL     OW11914   2.626   0.310   2.803
 3672SOL    HW111915   2.721   0.280   2.795
 3672SOL    HW211916   2.565   0.231   2.799
 3673SOL     OW11917   3.577   1.391   1.796
 3673SOL    HW111918   3.509   1.342   1.742
 3673SOL    HW211919   3.569   1.489   1.780
 3674SOL     OW11920   6.849   5.726   6.267
 3674SOL    HW111921   6.900   5.642   6.250
 3674SOL    HW211922   6.913   5.803   6.277
 3675SOL     OW11923   5.787   0.723   5.282
 3675SOL    HW111924   5.723   0.652   5.314
 3675SOL    HW211925   5.773   0.738   5.184
 3676SOL     OW11926   1.947   0.590   6.194
 3676SOL    HW111927   2.042   0.562   6.207
 3676SOL    HW211928   1.891   0.551   6.267
 3677SOL     OW11929   1.490   0.001   5.346
 3677SOL    HW111930   1.438   6.935   5.356
 3677SOL    HW211931   1.434   0.070   5.300
 3678SOL     OW11932   2.670   1.029   3.525
 3678SOL    HW111933   2.741   1.095   3.501
 3678SOL    HW211934   2.649   1.036   3.622
 3679SOL     OW11935   3.176   1.070   1.651
 3679SOL    HW111936   3.176   1.096   1.554
 3679SOL    HW211937   3.091   1.022   1.673
 3680SOL     OW11938   4.801   1.537   4.046
 3680SOL    HW111939   4.900   1.531   4.060
 3680SOL    HW211940   4.761   1.446   4.049
 3681SOL     OW11941   0.844   5.300   3.556
 3681SOL    HW111942   0.893   5.387   3.564
 3681SOL    HW211943   0.898   5.236   3.502
 3682SOL     OW11944   5.292   1.116   2.149
 3682SOL    HW111945   5.292   1.187   2.079
 3682SOL    HW211946   5.215   1.054   2.134
 3683SOL     OW11947   6.133   2.481   1.225
 3683SOL    HW111948   6.072   2.406   1.197
 3683SOL    HW211949   6.150   2.540   1.146
 3684SOL     OW11950   2.251   6.082   5.660
 3684SOL    HW111951   2.211   6.057   5.572
 3684SOL    HW211952   2.222   6.018   5.730
 3685SOL     OW11953   1.419   6.505   2.720
 3685SOL    HW111954   1.515   6.526   2.739
 3685SOL    HW211955   1.366   6.590   2.719
 3686SOL     OW11956   1.197   5.025   0.628
 3686SOL    HW111957   1.098   5.034   0.625
 3686SOL    HW211958   1.223   4.934   0.596
 3687SOL     OW11959   0.018   4.744   4.393
 3687SOL    HW111960   6.991   4.657   4.378
 3687SOL    HW211961   6.980   4.818   4.357
 3688SOL     OW11962   0.368   2.460   1.602
 3688SOL    HW111963   0.431   2.394   1.561
 3688SOL    HW211964   0.416   2.546   1.619
 3689SOL     OW11965   2.983   2.277   5.617
 3689SOL    HW111966   2.908   2.324   5.571
 3689SOL    HW211967   2.971   2.178   5.608
 3690SOL     OW11968   6.950   5.521   2.314
 3690SOL    HW111969   6.994   5.505   2.402
 3690SOL    HW211970   6.935   5.619   2.302
 3691SOL     OW11971   2.740   1.711   6.780
 3691SOL    HW111972   2.837   1.737   6.787
 3691SOL    HW211973   2.705   1.736   6.690
 3692SOL     OW11974   0.985   2.789   5.671
 3692SOL    HW111975   0.917   2.715   5.669
 3692SOL    HW211976   0.952   2.866   5.615
 3693SOL     OW11977   0.693   1.213   3.051
 3693SOL    HW111978   0.737   1.202   3.141
 3693SOL    HW211979   0.594   1.221   3.063
 3694SOL     OW11980   6.992   6.159   2.153
 3694SOL    HW111981   6.940   6.234   2.113
 3694SOL    HW211982   0.005   6.098   2.081
 3695SOL     OW11983   5.926   3.846   4.627
 3695SOL    HW111984   5.954   3.771   4.686
 3695SOL    HW211985   5.882   3.917   4.681
 3696SOL     OW11986   4.192   0.057   4.116
 3696SOL    HW111987   4.284   0.073   4.151
 3696SOL    HW211988   4.154   6.994   4.160
 3697SOL     OW11989   6.984   4.991   2.876
 3697SOL    HW111990   6.991   5.089   2.858
 3697SOL    HW211991   6.907   4.953   2.826
 3698SOL     OW11992   1.513   0.514   3.679
 3698SOL    HW111993   1.439   0.522   3.745
 3698SOL    HW211994   1.598   0.492   3.726
 3699SOL     OW11995   3.306   1.718   3.371
 3699SOL    HW111996   3.371   1.647   3.397
 3699SOL    HW211997   3.221   1.707   3.424
 3700SOL     OW11998   1.299   5.099   4.593
 3700SOL    HW111999   1.199   5.097   4.596
 3700SOL    HW212000   1.330   5.131   4.504
 3701SOL     OW12001   6.190   0.391   2.406
 3701SOL    HW112002   6.260   0.454   2.440
 3701SOL    HW212003   6.106   0.441   2.387
 3702SOL     OW12004   0.024   4.608   3.528
 3702SOL    HW112005   7.010   4.702   3.520
 3702SOL    HW212006   6.968   4.549   3.558
 3703SOL     OW12007   0.920   2.171   3.376
 3703SOL    HW112008   0.823   2.193   3.368
 3703SOL    HW212009   0.951   2.128   3.292
 3704SOL     OW12010   6.475   6.731   0.891
 3704SOL    HW112011   6.545   6.710   0.960
 3704SOL    HW212012   6.391   6.683   0.914
 3705SOL     OW12013   6.746   4.139   3.821
 3705SOL    HW112014   6.828   4.082   3.824
 3705SOL    HW212015   6.752   4.209   3.892
 3706SOL     OW12016   0.090   6.424   6.707
 3706SOL    HW112017   0.178   6.439   6.663
 3706SOL    HW212018   0.037   6.510   6.706
 3707SOL     OW12019   6.548   4.245   3.582
 3707SOL    HW112020   6.523   4.341   3.597
 3707SOL    HW212021   6.618   4.218   3.648
 3708SOL     OW12022   0.628   5.711   0.267
 3708SOL    HW112023   0.597   5.806   0.257
 3708SOL    HW212024   0.656   5.695   0.362
 3709SOL     OW12025   0.791   1.745   1.310
 3709SOL    HW112026   0.752   1.687   1.382
 3709SOL    HW212027   0.889   1.756   1.325
 3710SOL     OW12028   1.804   3.663   4.908
 3710SOL    HW112029   1.828   3.693   5.001
 3710SOL    HW212030   1.747   3.582   4.913
 3711SOL     OW12031   1.058   4.770   6.257
 3711SOL    HW112032   1.089   4.849   6.310
 3711SOL    HW212033   1.108   4.767   6.170
 3712SOL     OW12034   3.785   4.882   3.222
 3712SOL    HW112035   3.687   4.901   3.227
 3712SOL    HW212036   3.808   4.850   3.130
 3713SOL     OW12037   6.600   0.637   6.475
 3713SOL    HW112038   6.618   0.634   6.377
 3713SOL    HW212039   6.509   0.599   6.494
 3714SOL     OW12040   0.117   5.475   0.513
 3714SOL    HW112041   0.064   5.486   0.598
 3714SOL    HW212042   0.192   5.410   0.529
 3715SOL     OW12043   5.354   4.464   2.127
 3715SOL    HW112044   5.282   4.435   2.063
 3715SOL    HW212045   5.431   4.499   2.075
 3716SOL     OW12046   5.286   5.078   5.710
 3716SOL    HW112047   5.224   5.022   5.765
 3716SOL    HW212048   5.235   5.154   5.669
 3717SOL     OW12049   4.171   6.898   1.184
 3717SOL    HW112050   4.263   6.910   1.146
 3717SOL    HW212051   4.166   6.943   1.273
 3718SOL     OW12052   5.097   6.403   6.389
 3718SOL    HW112053   5.077   6.431   6.295
 3718SOL    HW212054   5.163   6.465   6.430
 3719SOL     OW12055   2.803   3.832   0.523
 3719SOL    HW112056   2.850   3.744   0.510
 3719SOL    HW212057   2.870   3.906   0.523
 3720SOL     OW12058   0.882   2.197   0.472
 3720SOL    HW112059   0.893   2.131   0.546
 3720SOL    HW212060   0.854   2.285   0.510
 3721SOL     OW12061   6.498   0.393   5.665
 3721SOL    HW112062   6.403   0.391   5.635
 3721SOL    HW212063   6.539   0.481   5.639
 3722SOL     OW12064   5.140   6.463   1.830
 3722SOL    HW112065   5.078   6.447   1.754
 3722SOL    HW212066   5.093   6.517   1.901
 3723SOL     OW12067   4.355   4.392   6.495
 3723SOL    HW112068   4.328   4.361   6.587
 3723SOL    HW212069   4.277   4.437   6.451
 3724SOL     OW12070   5.780   3.828   5.111
 3724SOL    HW112071   5.696   3.863   5.152
 3724SOL    HW212072   5.838   3.905   5.084
 3725SOL     OW12073   6.929   6.561   1.105
 3725SOL    HW112074   6.933   6.469   1.065
 3725SOL    HW212075   7.008   6.575   1.165
 3726SOL     OW12076   6.344   3.833   5.263
 3726SOL    HW112077   6.412   3.889   5.216
 3726SOL    HW212078   6.384   3.795   5.346
 3727SOL     OW12079   6.064   1.792   4.053
 3727SOL    HW112080   6.016   1.820   3.970
 3727SOL    HW212081   6.005   1.806   4.133
 3728SOL     OW12082   1.884   4.474   0.502
 3728SOL    HW112083   1.962   4.531   0.526
 3728SOL    HW212084   1.805   4.532   0.482
 3729SOL     OW12085   0.028   6.971   6.176
 3729SOL    HW112086   6.947   6.958   6.179
 3729SOL    HW212087   0.065   6.917   6.100
 3730SOL     OW12088   5.833   4.563   5.039
 3730SOL    HW112089   5.768   4.540   5.112
 3730SOL    HW212090   5.828   4.493   4.967
 3731SOL     OW12091   6.474   0.922   1.960
 3731SOL    HW112092   6.435   0.932   1.869
 3731SOL    HW212093   6.409   0.954   2.028
 3732SOL     OW12094   4.413   2.347   6.944
 3732SOL    HW112095   4.400   2.329   0.023
 3732SOL    HW212096   4.495   2.403   6.931
 3733SOL     OW12097   2.222   1.123   2.794
 3733SOL    HW112098   2.138   1.069   2.796
 3733SOL    HW212099   2.290   1.080   2.854
 3734SOL     OW12100   4.451   1.086   2.077
 3734SOL    HW112101   4.368   1.041   2.044
 3734SOL    HW212102   4.501   1.123   2.000
 3735SOL     OW12103   3.647   0.895   2.623
 3735SOL    HW112104   3.739   0.903   2.660
 3735SOL    HW212105   3.609   0.987   2.608
 3736SOL     OW12106   0.724   1.008   6.479
 3736SOL    HW112107   0.627   1.022   6.495
 3736SOL    HW212108   0.769   1.097   6.470
 3737SOL     OW12109   5.019   1.867   4.504
 3737SOL    HW112110   5.087   1.806   4.463
 3737SOL    HW212111   5.032   1.871   4.603
 3738SOL     OW12112   0.774   1.242   0.299
 3738SOL    HW112113   0.818   1.155   0.276
 3738SOL    HW212114   0.835   1.318   0.278
 3739SOL     OW12115   3.269   5.190   6.922
 3739SOL    HW112116   3.242   5.257   6.990
 3739SOL    HW212117   3.194   5.178   6.856
 3740SOL     OW12118   6.978   6.992   6.762
 3740SOL    HW112119   7.015   0.038   6.695
 3740SOL    HW212120   7.008   0.000   6.854
 3741SOL     OW12121   5.778   4.565   0.203
 3741SOL    HW112122   5.692   4.532   0.242
 3741SOL    HW212123   5.823   4.627   0.267
 3742SOL     OW12124   4.594   4.986   1.401
 3742SOL    HW112125   4.663   5.009   1.469
 3742SOL    HW212126   4.592   4.887   1.388
 3743SOL     OW12127   2.407   4.098   1.368
 3743SOL    HW112128   2.484   4.043   1.336
 3743SOL    HW212129   2.388   4.171   1.302
 3744SOL     OW12130   6.533   5.787   2.508
 3744SOL    HW112131   6.575   5.870   2.543
 3744SOL    HW212132   6.439   5.780   2.541
 3745SOL     OW12133   6.042   0.831   3.122
 3745SOL    HW112134   5.946   0.810   3.103
 3745SOL    HW212135   6.087   0.750   3.160
 3746SOL     OW12136   5.534   0.140   5.889
 3746SOL    HW112137   5.547   0.106   5.796
 3746SOL    HW212138   5.448   0.189   5.895
 3747SOL     OW12139   1.995   4.848   5.565
 3747SOL    HW112140   1.935   4.774   5.534
 3747SOL    HW212141   1.952   4.936   5.543
 3748SOL     OW12142   4.701   1.501   3.162
 3748SOL    HW112143   4.688   1.500   3.063
 3748SOL    HW212144   4.776   1.564   3.185
 3749SOL     OW12145   5.793   5.187   0.795
 3749SOL    HW112146   5.865   5.210   0.862
 3749SOL    HW212147   5.747   5.271   0.766
 3750SOL     OW12148   0.269   4.535   1.301
 3750SOL    HW112149   0.195   4.526   1.235
 3750SOL    HW212150   0.321   4.449   1.303
 3751SOL     OW12151   1.818   5.061   0.923
 3751SOL    HW112152   1.780   4.973   0.894
 3751SOL    HW212153   1.912   5.069   0.889
 3752SOL     OW12154   1.272   6.812   6.112
 3752SOL    HW112155   1.173   6.822   6.103
 3752SOL    HW212156   1.298   6.827   6.208
 3753SOL     OW12157   0.321   1.195   5.871
 3753SOL    HW112158   0.283   1.193   5.778
 3753SOL    HW212159   0.297   1.282   5.914
 3754SOL     OW12160   6.628   6.639   1.103
 3754SOL    HW112161   6.630   6.656   1.202
 3754SOL    HW212162   6.719   6.610   1.073
 3755SOL     OW12163   4.592   2.657   2.891
 3755SOL    HW112164   4.663   2.678   2.824
 3755SOL    HW212165   4.603   2.716   2.971
 3756SOL     OW12166   3.235   6.877   0.199
 3756SOL    HW112167   3.168   6.950   0.190
 3756SOL    HW212168   3.222   6.810   0.126
 3757SOL     OW12169   2.945   3.932   5.834
 3757SOL    HW112170   2.963   3.967   5.742
 3757SOL    HW212171   2.895   4.001   5.887
 3758SOL     OW12172   0.721   1.039   1.553
 3758SOL    HW112173   0.748   1.128   1.592
 3758SOL    HW212174   0.701   1.049   1.456
 3759SOL     OW12175   5.830   4.286   0.680
 3759SOL    HW112176   5.746   4.322   0.719
 3759SOL    HW212177   5.905   4.349   0.699
 3760SOL     OW12178   1.914   1.594   5.773
 3760SOL    HW112179   1.972   1.647   5.834
 3760SOL    HW212180   1.969   1.554   5.700
 3761SOL     OW12181   0.073   6.425   4.504
 3761SOL    HW112182   0.112   6.350   4.450
 3761SOL    HW212183   7.016   6.391   4.560
 3762SOL     OW12184   0.209   3.726   1.284
 3762SOL    HW112185   0.224   3.723   1.382
 3762SOL    HW212186   0.180   3.819   1.258
 3763SOL     OW12187   0.600   2.578   4.949
 3763SOL    HW112188   0.691   2.565   4.988
 3763SOL    HW212189   0.589   2.674   4.921
 3764SOL     OW12190   2.349   0.387   2.965
 3764SOL    HW112191   2.329   0.445   2.886
 3764SOL    HW212192   2.448   0.383   2.979
 3765SOL     OW12193   6.436   1.542   3.504
 3765SOL    HW112194   6.372   1.539   3.581
 3765SOL    HW212195   6.482   1.631   3.503
 3766SOL     OW12196   2.362   1.469   4.398
 3766SOL    HW112197   2.362   1.448   4.495
 3766SOL    HW212198   2.320   1.559   4.383
 3767SOL     OW12199   6.814   4.213   1.604
 3767SOL    HW112200   6.752   4.223   1.681
 3767SOL    HW212201   6.814   4.297   1.550
 3768SOL     OW12202   4.641   6.830   1.454
 3768SOL    HW112203   4.557   6.877   1.483
 3768SOL    HW212204   4.708   6.832   1.528
 3769SOL     OW12205   4.158   6.899   4.628
 3769SOL    HW112206   4.124   6.833   4.695
 3769SOL    HW212207   4.111   6.986   4.639
 3770SOL     OW12208   1.685   3.039   0.605
 3770SOL    HW112209   1.675   3.092   0.689
 3770SOL    HW212210   1.782   3.029   0.583
 3771SOL     OW12211   4.934   1.323   5.109
 3771SOL    HW112212   4.859   1.379   5.074
 3771SOL    HW212213   4.906   1.280   5.195
 3772SOL     OW12214   5.144   0.524   3.034
 3772SOL    HW112215   5.061   0.551   2.986
 3772SOL    HW212216   5.125   0.514   3.132
 3773SOL     OW12217   5.934   2.724   1.102
 3773SOL    HW112218   5.863   2.757   1.165
 3773SOL    HW212219   6.023   2.761   1.131
 3774SOL     OW12220   2.002   1.094   1.835
 3774SOL    HW112221   1.905   1.101   1.857
 3774SOL    HW212222   2.054   1.156   1.894
 3775SOL     OW12223   5.429   2.541   3.631
 3775SOL    HW112224   5.472   2.549   3.541
 3775SOL    HW212225   5.331   2.559   3.624
 3776SOL     OW12226   3.234   1.648   6.895
 3776SOL    HW112227   3.269   1.738   6.867
 3776SOL    HW212228   3.279   1.577   6.840
 3777SOL     OW12229   1.598   4.307   3.325
 3777SOL    HW112230   1.596   4.283   3.228
 3777SOL    HW212231   1.601   4.224   3.380
 3778SOL     OW12232   2.177   0.320   1.730
 3778SOL    HW112233   2.238   0.298   1.806
 3778SOL    HW212234   2.220   0.390   1.673
 3779SOL     OW12235   1.937   3.828   0.159
 3779SOL    HW112236   1.858   3.799   0.214
 3779SOL    HW212237   1.904   3.872   0.075
 3780SOL     OW12238   2.487   0.474   4.125
 3780SOL    HW112239   2.559   0.489   4.058
 3780SOL    HW212240   2.527   0.439   4.210
 3781SOL     OW12241   3.296   4.974   4.426
 3781SOL    HW112242   3.211   4.921   4.427
 3781SOL    HW212243   3.314   5.010   4.518
 3782SOL     OW12244   2.920   0.965   2.083
 3782SOL    HW112245   2.902   1.010   1.995
 3782SOL    HW212246   3.018   0.949   2.093
 3783SOL     OW12247   5.096   3.972   5.495
 3783SOL    HW112248   5.005   3.972   5.454
 3783SOL    HW212249   5.161   4.014   5.432
 3784SOL     OW12250   4.873   2.820   5.039
 3784SOL    HW112251   4.787   2.846   5.083
 3784SOL    HW212252   4.880   2.865   4.950
 3785SOL     OW12253   0.000   0.175   1.503
 3785SOL    HW112254   0.028   0.206   1.594
 3785SOL    HW212255   6.920   0.188   1.492
 3786SOL     OW12256   2.704   6.025   1.561
 3786SOL    HW112257   2.746   6.083   1.491
 3786SOL    HW212258   2.695   5.932   1.525
 3787SOL     OW12259   4.060   1.330   3.351
 3787SOL    HW112260   3.990   1.259   3.356
 3787SOL    HW212261   4.148   1.291   3.381
 3788SOL     OW12262   0.573   2.992   2.719
 3788SOL    HW112263   0.505   3.032   2.781
 3788SOL    HW212264   0.643   3.061   2.698
 3789SOL     OW12265   1.915   5.246   2.169
 3789SOL    HW112266   1.910   5.232   2.268
 3789SOL    HW212267   2.000   5.208   2.134
 3790SOL     OW12268   2.169   3.739   2.957
 3790SOL    HW112269   2.252   3.780   2.995
 3790SOL    HW212270   2.102   3.811   2.939
 3791SOL     OW12271   6.850   0.524   2.571
 3791SOL    HW112272   6.948   0.518   2.550
 3791SOL    HW212273   6.805   0.580   2.501
 3792SOL     OW12274   1.190   5.149   5.979
 3792SOL    HW112275   1.285   5.139   6.011
 3792SOL    HW212276   1.149   5.230   6.020
 3793SOL     OW12277   6.303   6.065   2.657
 3793SOL    HW112278   6.379   6.122   2.690
 3793SOL    HW212279   6.244   6.041   2.734
 3794SOL     OW12280   4.060   6.764   5.046
 3794SOL    HW112281   4.126   6.838   5.057
 3794SOL    HW212282   4.097   6.696   4.982
 3795SOL     OW12283   5.698   0.513   0.709
 3795SOL    HW112284   5.712   0.451   0.632
 3795SOL    HW212285   5.612   0.564   0.695
 3796SOL     OW12286   0.600   2.342   1.502
 3796SOL    HW112287   0.609   2.332   1.601
 3796SOL    HW212288   0.668   2.283   1.457
 3797SOL     OW12289   6.363   6.172   2.400
 3797SOL    HW112290   6.452   6.151   2.361
 3797SOL    HW212291   6.346   6.114   2.480
 3798SOL     OW12292   1.376   4.302   6.808
 3798SOL    HW112293   1.341   4.305   6.714
 3798SOL    HW212294   1.475   4.285   6.805
 3799SOL     OW12295   0.270   0.641   5.201
 3799SOL    HW112296   0.205   0.715   5.183
 3799SOL    HW212297   0.247   0.597   5.287
 3800SOL     OW12298   4.605   2.550   4.974
 3800SOL    HW112299   4.575   2.462   4.936
 3800SOL    HW212300   4.637   2.609   4.900
 3801SOL     OW12301   6.928   0.719   5.669
 3801SOL    HW112302   6.978   0.684   5.748
 3801SOL    HW212303   6.990   0.726   5.591
 3802SOL     OW12304   1.768   2.167   4.936
 3802SOL    HW112305   1.718   2.250   4.911
 3802SOL    HW212306   1.858   2.169   4.892
 3803SOL     OW12307   4.520   0.822   1.208
 3803SOL    HW112308   4.529   0.760   1.286
 3803SOL    HW212309   4.462   0.899   1.234
 3804SOL     OW12310   5.040   4.140   4.514
 3804SOL    HW112311   5.057   4.070   4.444
 3804SOL    HW212312   5.125   4.190   4.532
 3805SOL     OW12313   2.099   3.182   1.672
 3805SOL    HW112314   2.017   3.208   1.723
 3805SOL    HW212315   2.092   3.216   1.578
 3806SOL     OW12316   3.969   0.030   0.614
 3806SOL    HW112317   3.918   0.043   0.529
 3806SOL    HW212318   4.064   0.007   0.593
 3807SOL     OW12319   1.953   6.696   2.708
 3807SOL    HW112320   2.008   6.615   2.687
 3807SOL    HW212321   2.014   6.771   2.735
 3808SOL     OW12322   3.613   1.226   0.832
 3808SOL    HW112323   3.634   1.162   0.759
 3808SOL    HW212324   3.521   1.208   0.867
 3809SOL     OW12325   3.894   1.202   0.408
 3809SOL    HW112326   3.802   1.223   0.374
 3809SOL    HW212327   3.952   1.176   0.331
 3810SOL     OW12328   1.406   3.331   6.913
 3810SOL    HW112329   1.339   3.298   6.980
 3810SOL    HW212330   1.384   3.425   6.888
 3811SOL     OW12331   6.680   0.878   5.416
 3811SOL    HW112332   6.637   0.896   5.504
 3811SOL    HW212333   6.755   0.942   5.401
 3812SOL     OW12334   4.149   0.308   5.830
 3812SOL    HW112335   4.110   0.398   5.847
 3812SOL    HW212336   4.076   0.244   5.804
 3813SOL     OW12337   4.046   5.173   1.778
 3813SOL    HW112338   3.955   5.134   1.795
 3813SOL    HW212339   4.115   5.102   1.794
 3814SOL     OW12340   1.940   7.016   1.687
 3814SOL    HW112341   1.938   0.064   1.613
 3814SOL    HW212342   1.847   6.989   1.711
 3815SOL     OW12343   5.178   2.151   1.902
 3815SOL    HW112344   5.214   2.241   1.878
 3815SOL    HW212345   5.114   2.161   1.979
 3816SOL     OW12346   0.397   5.566   0.740
 3816SOL    HW112347   0.323   5.633   0.749
 3816SOL    HW212348   0.366   5.489   0.684
 3817SOL     OW12349   5.647   1.804   4.970
 3817SOL    HW112350   5.590   1.768   4.896
 3817SOL    HW212351   5.736   1.758   4.969
 3818SOL     OW12352   3.660   0.105   3.189
 3818SOL    HW112353   3.588   0.037   3.205
 3818SOL    HW212354   3.647   0.146   3.098
 3819SOL     OW12355   5.826   3.655   6.370
 3819SOL    HW112356   5.731   3.625   6.379
 3819SOL    HW212357   5.866   3.665   6.460
 3820SOL     OW12358   4.061   6.502   3.264
 3820SOL    HW112359   4.001   6.441   3.317
 3820SOL    HW212360   4.154   6.466   3.267
 3821SOL     OW12361   1.059   4.498   1.426
 3821SOL    HW112362   1.008   4.414   1.405
 3821SOL    HW212363   1.038   4.528   1.519
 3822SOL     OW12364   0.948   3.533   1.917
 3822SOL    HW112365   0.938   3.439   1.884
 3822SOL    HW212366   0.938   3.534   2.016
 3823SOL     OW12367   2.160   3.549   5.231
 3823SOL    HW112368   2.248   3.507   5.251
 3823SOL    HW212369   2.174   3.647   5.212
 3824SOL     OW12370   0.150   3.132   6.283
 3824SOL    HW112371   0.066   3.090   6.250
 3824SOL    HW212372   0.204   3.064   6.334
 3825SOL     OW12373   0.258   6.075   6.607
 3825SOL    HW112374   0.327   6.143   6.628
 3825SOL    HW212375   0.289   6.017   6.532
 3826SOL     OW12376   0.186   1.475   1.361
 3826SOL    HW112377   0.106   1.531   1.379
 3826SOL    HW212378   0.243   1.471   1.443
 3827SOL     OW12379   4.404   1.813   1.747
 3827SOL    HW112380   4.385   1.864   1.831
 3827SOL    HW212381   4.475   1.861   1.694
 3828SOL     OW12382   3.631   1.527   1.073
 3828SOL    HW112383   3.692   1.481   1.009
 3828SOL    HW212384   3.550   1.470   1.088
 3829SOL     OW12385   0.898   5.119   3.834
 3829SOL    HW112386   0.800   5.111   3.851
 3829SOL    HW212387   0.914   5.179   3.755
 3830SOL     OW12388   1.771   6.970   6.269
 3830SOL    HW112389   1.715   7.018   6.202
 3830SOL    HW212390   1.729   6.978   6.360
 3831SOL     OW12391   4.788   2.431   2.292
 3831SOL    HW112392   4.823   2.422   2.199
 3831SOL    HW212393   4.864   2.430   2.357
 3832SOL     OW12394   6.375   0.134   2.566
 3832SOL    HW112395   6.379   0.199   2.490
 3832SOL    HW212396   6.460   0.082   2.570
 3833SOL     OW12397   1.363   5.895   2.315
 3833SOL    HW112398   1.303   5.855   2.245
 3833SOL    HW212399   1.410   5.975   2.277
 3834SOL     OW12400   3.077   2.276   0.424
 3834SOL    HW112401   3.115   2.272   0.331
 3834SOL    HW212402   2.980   2.300   0.419
 3835SOL     OW12403   3.452   4.918   3.304
 3835SOL    HW112404   3.412   4.923   3.213
 3835SOL    HW212405   3.500   5.004   3.324
 3836SOL     OW12406   1.404   2.493   6.107
 3836SOL    HW112407   1.452   2.548   6.038
 3836SOL    HW212408   1.424   2.396   6.092
 3837SOL     OW12409   3.412   4.448   6.609
 3837SOL    HW112410   3.324   4.459   6.656
 3837SOL    HW212411   3.477   4.403   6.669
 3838SOL     OW12412   0.177   3.457   5.024
 3838SOL    HW112413   0.196   3.504   5.110
 3838SOL    HW212414   0.167   3.359   5.041
 3839SOL     OW12415   0.612   6.566   0.005
 3839SOL    HW112416   0.634   6.482   6.973
 3839SOL    HW212417   0.560   6.543   0.087
 3840SOL     OW12418   3.768   1.848   3.245
 3840SOL    HW112419   3.728   1.914   3.181
 3840SOL    HW212420   3.850   1.888   3.286
 3841SOL     OW12421   1.701   3.012   3.818
 3841SOL    HW112422   1.679   3.020   3.915
 3841SOL    HW212423   1.751   3.094   3.788
 3842SOL     OW12424   1.255   4.877   0.138
 3842SOL    HW112425   1.239   4.911   0.045
 3842SOL    HW212426   1.197   4.796   0.154
 3843SOL     OW12427   6.771   5.603   0.103
 3843SOL    HW112428   6.822   5.631   0.184
 3843SOL    HW212429   6.748   5.506   0.110
 3844SOL     OW12430   3.030   4.331   5.923
 3844SOL    HW112431   3.069   4.362   5.836
 3844SOL    HW212432   2.944   4.283   5.906
 3845SOL     OW12433   3.236   3.965   5.047
 3845SOL    HW112434   3.230   3.891   5.114
 3845SOL    HW212435   3.178   3.942   4.968
 3846SOL     OW12436   6.869   4.523   4.314
 3846SOL    HW112437   6.776   4.523   4.351
 3846SOL    HW212438   6.905   4.429   4.316
 3847SOL     OW12439   1.297   6.691   1.025
 3847SOL    HW112440   1.382   6.734   0.994
 3847SOL    HW212441   1.318   6.618   1.090
 3848SOL     OW12442   2.535   6.265   2.930
 3848SOL    HW112443   2.602   6.306   2.868
 3848SOL    HW212444   2.564   6.173   2.955
 3849SOL     OW12445   2.624   1.568   4.764
 3849SOL    HW112446   2.545   1.556   4.824
 3849SOL    HW212447   2.704   1.527   4.807
 3850SOL     OW12448   1.861   3.213   1.788
 3850SOL    HW112449   1.788   3.244   1.728
 3850SOL    HW212450   1.848   3.249   1.880
 3851SOL     OW12451   2.589   3.076   0.280
 3851SOL    HW112452   2.572   3.127   0.364
 3851SOL    HW212453   2.565   2.980   0.293
 3852SOL     OW12454   4.056   0.657   5.522
 3852SOL    HW112455   4.014   0.567   5.511
 3852SOL    HW212456   4.061   0.702   5.432
 3853SOL     OW12457   0.399   3.392   1.968
 3853SOL    HW112458   0.460   3.322   1.932
 3853SOL    HW212459   0.447   3.446   2.037
 3854SOL     OW12460   1.293   3.979   4.030
 3854SOL    HW112461   1.231   3.908   4.064
 3854SOL    HW212462   1.246   4.068   4.034
 3855SOL     OW12463   6.951   2.340   4.971
 3855SOL    HW112464   6.870   2.281   4.965
 3855SOL    HW212465   6.968   2.363   5.067
 3856SOL     OW12466   0.916   6.404   6.022
 3856SOL    HW112467   1.003   6.379   5.979
 3856SOL    HW212468   0.933   6.443   6.113
 3857SOL     OW12469   0.440   0.579   6.380
 3857SOL    HW112470   0.429   0.521   6.300
 3857SOL    HW212471   0.381   0.659   6.372
 3858SOL     OW12472   4.132   4.936   6.691
 3858SOL    HW112473   4.177   4.919   6.778
 3858SOL    HW212474   4.151   5.030   6.662
 3859SOL     OW12475   6.938   2.180   2.880
 3859SOL    HW112476   0.009   2.163   2.839
 3859SOL    HW212477   6.949   2.215   2.972
 3860SOL     OW12478   2.354   6.143   5.050
 3860SOL    HW112479   2.399   6.072   5.103
 3860SOL    HW212480   2.298   6.200   5.111
 3861SOL     OW12481   3.437   3.787   0.341
 3861SOL    HW112482   3.434   3.692   0.309
 3861SOL    HW212483   3.410   3.790   0.437
 3862SOL     OW12484   0.383   6.445   5.644
 3862SOL    HW112485   0.477   6.418   5.624
 3862SOL    HW212486   0.320   6.386   5.593
 3863SOL     OW12487   2.389   3.076   0.617
 3863SOL    HW112488   2.476   3.027   0.630
 3863SOL    HW212489   2.406   3.162   0.569
 3864SOL     OW12490   3.440   1.670   1.891
 3864SOL    HW112491   3.498   1.667   1.810
 3864SOL    HW212492   3.351   1.709   1.866
 3865SOL     OW12493   4.336   0.718   2.216
 3865SOL    HW112494   4.268   0.788   2.237
 3865SOL    HW212495   4.425   0.762   2.201
 3866SOL     OW12496   4.518   6.055   6.036
 3866SOL    HW112497   4.505   6.144   5.991
 3866SOL    HW212498   4.563   6.069   6.124
 3867SOL     OW12499   2.386   5.131   2.978
 3867SOL    HW112500   2.312   5.187   3.016
 3867SOL    HW212501   2.348   5.070   2.908
 3868SOL     OW12502   2.727   5.117   2.777
 3868SOL    HW112503   2.722   5.052   2.853
 3868SOL    HW212504   2.735   5.067   2.691
 3869SOL     OW12505   1.383   1.116   3.460
 3869SOL    HW112506   1.329   1.147   3.381
 3869SOL    HW212507   1.470   1.080   3.427
 3870SOL     OW12508   3.956   3.767   0.551
 3870SOL    HW112509   3.963   3.777   0.452
 3870SOL    HW212510   4.047   3.747   0.589
 3871SOL     OW12511   2.415   0.734   4.805
 3871SOL    HW112512   2.427   0.663   4.873
 3871SOL    HW212513   2.328   0.781   4.821
 3872SOL     OW12514   4.894   3.637   0.132
 3872SOL    HW112515   4.912   3.551   0.085
 3872SOL    HW212516   4.881   3.710   0.065
 3873SOL     OW12517   6.200   5.156   1.880
 3873SOL    HW112518   6.202   5.243   1.832
 3873SOL    HW212519   6.108   5.140   1.916
 3874SOL     OW12520   5.528   6.371   5.647
 3874SOL    HW112521   5.589   6.394   5.723
 3874SOL    HW212522   5.443   6.423   5.656
 3875SOL     OW12523   3.209   3.123   0.652
 3875SOL    HW112524   3.252   3.213   0.649
 3875SOL    HW212525   3.219   3.078   0.563
 3876SOL     OW12526   5.519   3.991   3.058
 3876SOL    HW112527   5.478   3.998   2.967
 3876SOL    HW212528   5.451   3.960   3.124
 3877SOL     OW12529   4.685   2.282   2.015
 3877SOL    HW112530   4.621   2.209   2.040
 3877SOL    HW212531   4.733   2.256   1.931
 3878SOL     OW12532   6.324   5.132   5.381
 3878SOL    HW112533   6.250   5.188   5.345
 3878SOL    HW212534   6.411   5.178   5.364
 3879SOL     OW12535   2.062   6.783   0.936
 3879SOL    HW112536   1.964   6.801   0.925
 3879SOL    HW212537   2.113   6.842   0.873
 3880SOL     OW12538   5.674   1.848   4.483
 3880SOL    HW112539   5.678   1.749   4.495
 3880SOL    HW212540   5.736   1.892   4.548
 3881SOL     OW12541   0.016   6.455   6.087
 3881SOL    HW112542   0.038   6.416   5.998
 3881SOL    HW212543   6.957   6.406   6.127
 3882SOL     OW12544   6.853   5.854   0.314
 3882SOL    HW112545   6.922   5.783   0.328
 3882SOL    HW212546   6.892   5.943   0.338
 3883SOL     OW12547   4.057   1.975   0.664
 3883SOL    HW112548   3.998   1.958   0.743
 3883SOL    HW212549   4.060   2.073   0.645
 3884SOL     OW12550   2.779   6.090   6.233
 3884SOL    HW112551   2.857   6.079   6.295
 3884SOL    HW212552   2.711   6.020   6.252
 3885SOL     OW12553   0.961   1.362   4.206
 3885SOL    HW112554   0.939   1.314   4.121
 3885SOL    HW212555   0.891   1.341   4.275
 3886SOL     OW12556   0.073   5.644   4.453
 3886SOL    HW112557   7.002   5.658   4.413
 3886SOL    HW212558   0.082   5.548   4.482
 3887SOL     OW12559   0.499   2.843   4.876
 3887SOL    HW112560   0.511   2.942   4.873
 3887SOL    HW212561   0.471   2.811   4.785
 3888SOL     OW12562   4.732   1.955   3.252
 3888SOL    HW112563   4.668   1.902   3.308
 3888SOL    HW212564   4.686   1.985   3.168
 3889SOL     OW12565   6.294   5.426   0.717
 3889SOL    HW112566   6.220   5.469   0.769
 3889SOL    HW212567   6.340   5.495   0.660
 3890SOL     OW12568   6.006   3.062   3.507
 3890SOL    HW112569   6.096   3.060   3.551
 3890SOL    HW212570   5.948   2.991   3.546
 3891SOL     OW12571   3.609   4.371   6.330
 3891SOL    HW112572   3.582   4.404   6.420
 3891SOL    HW212573   3.597   4.272   6.325
 3892SOL     OW12574   5.354   5.698   4.426
 3892SOL    HW112575   5.265   5.744   4.417
 3892SOL    HW212576   5.348   5.627   4.496
 3893SOL     OW12577   2.780   6.008   4.845
 3893SOL    HW112578   2.712   5.942   4.876
 3893SOL    HW212579   2.847   5.961   4.788
 3894SOL     OW12580   5.645   5.267   6.076
 3894SOL    HW112581   5.548   5.291   6.077
 3894SOL    HW212582   5.660   5.192   6.011
 3895SOL     OW12583   1.358   2.154   4.552
 3895SOL    HW112584   1.309   2.105   4.480
 3895SOL    HW212585   1.305   2.149   4.637
 3896SOL     OW12586   6.216   3.143   1.501
 3896SOL    HW112587   6.198   3.210   1.429
 3896SOL    HW212588   6.314   3.141   1.522
 3897SOL     OW12589   2.259   0.815   2.974
 3897SOL    HW112590   2.305   0.740   2.926
 3897SOL    HW212591   2.327   0.880   3.008
 3898SOL     OW12592   3.362   3.812   2.794
 3898SOL    HW112593   3.453   3.787   2.827
 3898SOL    HW212594   3.303   3.836   2.871
 3899SOL     OW12595   4.159   1.099   6.107
 3899SOL    HW112596   4.161   1.000   6.089
 3899SOL    HW212597   4.194   1.148   6.027
 3900SOL     OW12598   1.211   2.076   3.986
 3900SOL    HW112599   1.182   2.150   3.925
 3900SOL    HW212600   1.233   2.113   4.076
 3901SOL     OW12601   4.184   6.642   4.261
 3901SOL    HW112602   4.237   6.670   4.341
 3901SOL    HW212603   4.242   6.589   4.200
 3902SOL     OW12604   2.997   4.820   3.264
 3902SOL    HW112605   2.929   4.746   3.266
 3902SOL    HW212606   3.006   4.853   3.170
 3903SOL     OW12607   2.439   4.199   6.031
 3903SOL    HW112608   2.379   4.147   5.970
 3903SOL    HW212609   2.405   4.191   6.125
 3904SOL     OW12610   2.579   6.355   0.713
 3904SOL    HW112611   2.492   6.319   0.679
 3904SOL    HW212612   2.621   6.412   0.642
 3905SOL     OW12613   4.446   6.510   4.871
 3905SOL    HW112614   4.447   6.431   4.811
 3905SOL    HW212615   4.438   6.480   4.966
 3906SOL     OW12616   6.945   5.792   4.011
 3906SOL    HW112617   0.012   5.753   3.976
 3906SOL    HW212618   6.902   5.848   3.940
 3907SOL     OW12619   1.494   0.705   4.866
 3907SOL    HW112620   1.432   0.733   4.792
 3907SOL    HW212621   1.525   0.611   4.850
 3908SOL     OW12622   2.378   1.895   4.546
 3908SOL    HW112623   2.393   1.950   4.464
 3908SOL    HW212624   2.453   1.831   4.558
 3909SOL     OW12625   6.537   3.198   2.864
 3909SOL    HW112626   6.452   3.211   2.915
 3909SOL    HW212627   6.613   3.188   2.929
 3910SOL     OW12628   1.292   2.283   6.860
 3910SOL    HW112629   1.303   2.372   6.817
 3910SOL    HW212630   1.332   2.212   6.802
 3911SOL     OW12631   6.355   0.569   2.542
 3911SOL    HW112632   6.276   0.609   2.589
 3911SOL    HW212633   6.400   0.638   2.486
 3912SOL     OW12634   4.655   4.270   0.802
 3912SOL    HW112635   4.668   4.262   0.703
 3912SOL    HW212636   4.567   4.313   0.821
 3913SOL     OW12637   4.166   4.550   0.573
 3913SOL    HW112638   4.240   4.482   0.576
 3913SOL    HW212639   4.129   4.562   0.665
 3914SOL     OW12640   0.626   0.795   0.258
 3914SOL    HW112641   0.668   0.709   0.229
 3914SOL    HW212642   0.630   0.860   0.182
 3915SOL     OW12643   5.403   0.040   4.708
 3915SOL    HW112644   5.391   0.138   4.722
 3915SOL    HW212645   5.382   0.017   4.613
 3916SOL     OW12646   1.756   2.606   2.246
 3916SOL    HW112647   1.795   2.695   2.222
 3916SOL    HW212648   1.821   2.555   2.303
 3917SOL     OW12649   3.107   5.616   1.941
 3917SOL    HW112650   3.098   5.667   1.856
 3917SOL    HW212651   3.115   5.681   2.017
 3918SOL     OW12652   3.958   6.448   0.114
 3918SOL    HW112653   3.878   6.440   0.054
 3918SOL    HW212654   4.003   6.359   0.122
 3919SOL     OW12655   5.105   4.565   3.499
 3919SOL    HW112656   5.119   4.663   3.518
 3919SOL    HW212657   5.022   4.534   3.544
 3920SOL     OW12658   4.329   0.511   5.583
 3920SOL    HW112659   4.230   0.505   5.577
 3920SOL    HW212660   4.357   0.513   5.679
 3921SOL     OW12661   1.371   3.915   5.380
 3921SOL    HW112662   1.357   3.880   5.288
 3921SOL    HW212663   1.288   3.963   5.411
 3922SOL     OW12664   5.492   1.323   3.965
 3922SOL    HW112665   5.561   1.361   3.904
 3922SOL    HW212666   5.454   1.239   3.925
 3923SOL     OW12667   5.867   1.125   1.441
 3923SOL    HW112668   5.841   1.031   1.464
 3923SOL    HW212669   5.911   1.125   1.351
 3924SOL     OW12670   5.723   4.697   4.023
 3924SOL    HW112671   5.660   4.636   3.975
 3924SOL    HW212672   5.680   4.730   4.107
 3925SOL     OW12673   3.740   4.589   1.622
 3925SOL    HW112674   3.676   4.562   1.694
 3925SOL    HW212675   3.734   4.525   1.546
 3926SOL     OW12676   0.629   6.064   5.099
 3926SOL    HW112677   0.617   6.007   5.018
 3926SOL    HW212678   0.606   6.012   5.181
 3927SOL     OW12679   6.592   6.015   5.417
 3927SOL    HW112680   6.549   5.993   5.330
 3927SOL    HW212681   6.521   6.035   5.485
 3928SOL     OW12682   4.408   5.405   2.073
 3928SOL    HW112683   4.494   5.361   2.048
 3928SOL    HW212684   4.404   5.416   2.172
 3929SOL     OW12685   1.734   0.717   5.421
 3929SOL    HW112686   1.831   0.696   5.413
 3929SOL    HW212687   1.721   0.792   5.485
 3930SOL     OW12688   1.871   5.649   4.811
 3930SOL    HW112689   1.852   5.732   4.758
 3930SOL    HW212690   1.843   5.663   4.906
 3931SOL     OW12691   0.362   2.297   0.712
 3931SOL    HW112692   0.361   2.397   0.701
 3931SOL    HW212693   0.298   2.271   0.784
 3932SOL     OW12694   1.749   4.974   2.841
 3932SOL    HW112695   1.717   4.880   2.826
 3932SOL    HW212696   1.849   4.976   2.835
 3933SOL     OW12697   1.027   6.854   1.393
 3933SOL    HW112698   1.041   6.951   1.415
 3933SOL    HW212699   0.932   6.829   1.412
 3934SOL     OW12700   1.078   6.540   1.764
 3934SOL    HW112701   1.146   6.482   1.808
 3934SOL    HW212702   1.123   6.599   1.697
 3935SOL     OW12703   6.652   1.151   4.821
 3935SOL    HW112704   6.679   1.103   4.904
 3935SOL    HW212705   6.572   1.208   4.841
 3936SOL     OW12706   6.491   4.902   4.352
 3936SOL    HW112707   6.545   4.966   4.407
 3936SOL    HW212708   6.402   4.887   4.395
 3937SOL     OW12709   1.524   6.533   6.967
 3937SOL    HW112710   1.500   6.477   0.028
 3937SOL    HW212711   1.465   6.613   6.964
 3938SOL     OW12712   1.258   4.621   6.844
 3938SOL    HW112713   1.211   4.640   6.758
 3938SOL    HW212714   1.249   4.524   6.866
 3939SOL     OW12715   1.510   5.513   4.674
 3939SOL    HW112716   1.593   5.458   4.673
 3939SOL    HW212717   1.468   5.514   4.584
 3940SOL     OW12718   2.213   6.130   6.824
 3940SOL    HW112719   2.150   6.056   6.844
 3940SOL    HW212720   2.293   6.094   6.775
 3941SOL     OW12721   5.624   5.162   3.223
 3941SOL    HW112722   5.712   5.119   3.246
 3941SOL    HW212723   5.580   5.194   3.306
 3942SOL     OW12724   0.735   0.100   0.408
 3942SOL    HW112725   0.657   0.136   0.460
 3942SOL    HW212726   0.702   0.048   0.329
 3943SOL     OW12727   0.557   4.646   0.446
 3943SOL    HW112728   0.500   4.612   0.371
 3943SOL    HW212729   0.536   4.594   0.530
 3944SOL     OW12730   5.666   2.889   0.725
 3944SOL    HW112731   5.661   2.958   0.797
 3944SOL    HW212732   5.652   2.798   0.765
 3945SOL     OW12733   0.745   0.542   2.911
 3945SOL    HW112734   0.790   0.529   2.823
 3945SOL    HW212735   0.647   0.559   2.897
 3946SOL     OW12736   4.997   1.076   1.057
 3946SOL    HW112737   5.025   1.172   1.044
 3946SOL    HW212738   4.901   1.074   1.084
 3947SOL     OW12739   5.321   0.153   0.980
 3947SOL    HW112740   5.223   0.153   0.957
 3947SOL    HW212741   5.339   0.224   1.048
 3948SOL     OW12742   1.975   1.602   3.902
 3948SOL    HW112743   2.038   1.679   3.914
 3948SOL    HW212744   1.887   1.635   3.867
 3949SOL     OW12745   6.115   6.662   2.451
 3949SOL    HW112746   6.094   6.759   2.459
 3949SOL    HW212747   6.157   6.630   2.536
 3950SOL     OW12748   2.314   4.643   1.756
 3950SOL    HW112749   2.400   4.640   1.705
 3950SOL    HW212750   2.248   4.701   1.707
 3951SOL     OW12751   0.119   3.199   2.961
 3951SOL    HW112752   0.071   3.135   2.901
 3951SOL    HW212753   0.084   3.191   3.054
 3952SOL     OW12754   5.742   5.340   6.862
 3952SOL    HW112755   5.801   5.300   6.932
 3952SOL    HW212756   5.793   5.410   6.811
 3953SOL     OW12757   3.406   2.906   4.992
 3953SOL    HW112758   3.470   2.983   4.993
 3953SOL    HW212759   3.335   2.923   4.924
 3954SOL     OW12760   0.624   5.320   6.433
 3954SOL    HW112761   0.715   5.281   6.421
 3954SOL    HW212762   0.590   5.297   6.524
 3955SOL     OW12763   5.893   3.268   0.254
 3955SOL    HW112764   5.872   3.218   0.338
 3955SOL    HW212765   5.914   3.203   0.181
 3956SOL     OW12766   0.001   3.325   4.748
 3956SOL    HW112767   6.958   3.312   4.826
 3956SOL    HW212768   6.996   3.410   4.702
 3957SOL     OW12769   1.593   2.582   1.745
 3957SOL    HW112770   1.678   2.589   1.798
 3957SOL    HW212771   1.575   2.486   1.724
 3958SOL     OW12772   5.026   5.374   0.973
 3958SOL    HW112773   5.003   5.364   0.876
 3958SOL    HW212774   5.023   5.285   1.018
 3959SOL     OW12775   2.341   4.956   0.376
 3959SOL    HW112776   2.371   4.953   0.471
 3959SOL    HW212777   2.333   5.051   0.346
 3960SOL     OW12778   5.898   3.549   1.322
 3960SOL    HW112779   5.944   3.465   1.350
 3960SOL    HW212780   5.917   3.566   1.225
 3961SOL     OW12781   0.266   1.371   2.224
 3961SOL    HW112782   0.174   1.353   2.189
 3961SOL    HW212783   0.299   1.458   2.187
 3962SOL     OW12784   0.446   6.754   0.255
 3962SOL    HW112785   0.466   6.806   0.338
 3962SOL    HW212786   0.459   6.656   0.273
 3963SOL     OW12787   6.316   3.000   4.983
 3963SOL    HW112788   6.245   2.969   5.046
 3963SOL    HW212789   6.387   3.049   5.034
 3964SOL     OW12790   5.835   4.992   6.635
 3964SOL    HW112791   5.923   5.037   6.618
 3964SOL    HW212792   5.796   5.027   6.720
 3965SOL     OW12793   2.120   5.150   2.021
 3965SOL    HW112794   2.182   5.170   1.945
 3965SOL    HW212795   2.152   5.068   2.069
 3966SOL     OW12796   6.750   4.438   5.633
 3966SOL    HW112797   6.848   4.418   5.639
 3966SOL    HW212798   6.737   4.532   5.603
 3967SOL     OW12799   3.168   0.548   0.796
 3967SOL    HW112800   3.180   0.457   0.755
 3967SOL    HW212801   3.256   0.580   0.831
 3968SOL     OW12802   4.808   2.430   0.761
 3968SOL    HW112803   4.844   2.521   0.782
 3968SOL    HW212804   4.804   2.419   0.662
 3969SOL     OW12805   6.418   6.586   1.451
 3969SOL    HW112806   6.503   6.623   1.488
 3969SOL    HW212807   6.348   6.586   1.522
 3970SOL     OW12808   5.755   3.988   3.422
 3970SOL    HW112809   5.741   4.079   3.383
 3970SOL    HW212810   5.724   3.987   3.517
 3971SOL     OW12811   6.829   5.431   4.200
 3971SOL    HW112812   6.814   5.364   4.272
 3971SOL    HW212813   6.918   5.475   4.213
 3972SOL     OW12814   0.441   0.999   6.403
 3972SOL    HW112815   0.429   1.026   6.307
 3972SOL    HW212816   0.468   0.903   6.407
 3973SOL     OW12817   4.070   3.305   1.581
 3973SOL    HW112818   4.091   3.397   1.613
 3973SOL    HW212819   4.061   3.305   1.481
 3974SOL     OW12820   5.654   0.722   6.643
 3974SOL    HW112821   5.696   0.690   6.558
 3974SOL    HW212822   5.658   0.650   6.712
 3975SOL     OW12823   0.022   6.391   3.612
 3975SOL    HW112824   0.074   6.310   3.640
 3975SOL    HW212825   7.012   6.382   3.517
 3976SOL     OW12826   0.932   2.899   5.017
 3976SOL    HW112827   0.927   2.976   5.082
 3976SOL    HW212828   0.995   2.922   4.943
 3977SOL     OW12829   2.195   4.906   6.119
 3977SOL    HW112830   2.146   4.832   6.166
 3977SOL    HW212831   2.181   4.898   6.020
 3978SOL     OW12832   4.228   3.200   6.231
 3978SOL    HW112833   4.199   3.287   6.270
 3978SOL    HW212834   4.185   3.125   6.281
 3979SOL     OW12835   0.066   5.622   2.935
 3979SOL    HW112836   0.101   5.536   2.972
 3979SOL    HW212837   0.034   5.680   3.010
 3980SOL     OW12838   5.327   4.244   3.942
 3980SOL    HW112839   5.378   4.304   4.005
 3980SOL    HW212840   5.230   4.270   3.942
 3981SOL     OW12841   6.782   1.069   6.948
 3981SOL    HW112842   6.754   1.163   6.969
 3981SOL    HW212843   6.703   1.019   6.912
 3982SOL     OW12844   2.091   2.930   3.697
 3982SOL    HW112845   2.066   2.878   3.779
 3982SOL    HW212846   2.009   2.944   3.641
 3983SOL     OW12847   2.252   1.748   3.483
 3983SOL    HW112848   2.260   1.736   3.384
 3983SOL    HW212849   2.211   1.666   3.522
 3984SOL     OW12850   1.460   6.084   2.783
 3984SOL    HW112851   1.490   6.119   2.694
 3984SOL    HW212852   1.397   6.150   2.824
 3985SOL     OW12853   0.997   2.426   0.977
 3985SOL    HW112854   1.078   2.484   0.984
 3985SOL    HW212855   1.023   2.330   0.989
 3986SOL     OW12856   1.048   0.566   3.022
 3986SOL    HW112857   1.011   0.556   2.930
 3986SOL    HW212858   1.073   0.661   3.038
 3987SOL     OW12859   1.513   4.404   5.729
 3987SOL    HW112860   1.567   4.384   5.647
 3987SOL    HW212861   1.468   4.493   5.719
 3988SOL     OW12862   4.765   5.346   2.320
 3988SOL    HW112863   4.813   5.388   2.397
 3988SOL    HW212864   4.831   5.298   2.262
 3989SOL     OW12865   4.622   0.972   6.086
 3989SOL    HW112866   4.567   0.945   6.008
 3989SOL    HW212867   4.616   0.902   6.158
 3990SOL     OW12868   6.239   6.215   3.862
 3990SOL    HW112869   6.213   6.311   3.853
 3990SOL    HW212870   6.171   6.167   3.917
 3991SOL     OW12871   0.523   2.100   4.375
 3991SOL    HW112872   0.551   2.168   4.308
 3991SOL    HW212873   0.423   2.098   4.381
 3992SOL     OW12874   6.012   3.569   5.594
 3992SOL    HW112875   5.982   3.659   5.562
 3992SOL    HW212876   5.946   3.500   5.565
 3993SOL     OW12877   1.883   0.749   4.458
 3993SOL    HW112878   1.902   0.799   4.542
 3993SOL    HW212879   1.897   0.651   4.474
 3994SOL     OW12880   3.178   2.013   3.616
 3994SOL    HW112881   3.205   1.928   3.661
 3994SOL    HW212882   3.213   2.014   3.522
 3995SOL     OW12883   2.001   3.889   1.927
 3995SOL    HW112884   1.921   3.855   1.878
 3995SOL    HW212885   2.081   3.836   1.901
 3996SOL     OW12886   0.205   5.644   5.450
 3996SOL    HW112887   0.242   5.708   5.383
 3996SOL    HW212888   0.211   5.684   5.542
 3997SOL     OW12889   6.297   3.312   4.862
 3997SOL    HW112890   6.254   3.390   4.907
 3997SOL    HW212891   6.274   3.229   4.912
 3998SOL     OW12892   4.577   2.403   2.744
 3998SOL    HW112893   4.597   2.338   2.817
 3998SOL    HW212894   4.574   2.495   2.782
 3999SOL     OW12895   4.543   3.586   1.093
 3999SOL    HW112896   4.487   3.510   1.129
 3999SOL    HW212897   4.640   3.563   1.101
 4000SOL     OW12898   2.973   4.859   2.591
 4000SOL    HW112899   2.909   4.787   2.618
 4000SOL    HW212900   2.940   4.904   2.508
 4001SOL     OW12901   0.981   5.570   4.067
 4001SOL    HW112902   1.035   5.621   4.134
 4001SOL    HW212903   0.897   5.620   4.046
 4002SOL     OW12904   4.051   3.854   4.717
 4002SOL    HW112905   4.054   3.951   4.742
 4002SOL    HW212906   4.096   3.801   4.789
 4003SOL     OW12907   3.166   1.700   4.372
 4003SOL    HW112908   3.134   1.679   4.280
 4003SOL    HW212909   3.170   1.800   4.384
 4004SOL     OW12910   2.068   3.679   4.779
 4004SOL    HW112911   2.079   3.581   4.762
 4004SOL    HW212912   1.981   3.696   4.825
 4005SOL     OW12913   5.759   2.066   1.387
 4005SOL    HW112914   5.742   1.983   1.441
 4005SOL    HW212915   5.822   2.045   1.313
 4006SOL     OW12916   6.732   5.897   2.106
 4006SOL    HW112917   6.819   5.850   2.088
 4006SOL    HW212918   6.694   5.930   2.019
 4007SOL     OW12919   0.923   1.467   1.490
 4007SOL    HW112920   0.959   1.559   1.499
 4007SOL    HW212921   0.930   1.437   1.395
 4008SOL     OW12922   4.150   0.333   1.427
 4008SOL    HW112923   4.118   0.329   1.522
 4008SOL    HW212924   4.096   0.401   1.376
 4009SOL     OW12925   3.552   2.513   1.272
 4009SOL    HW112926   3.489   2.552   1.205
 4009SOL    HW212927   3.534   2.415   1.281
 4010SOL     OW12928   0.990   5.476   0.652
 4010SOL    HW112929   1.003   5.555   0.712
 4010SOL    HW212930   1.040   5.398   0.688
 4011SOL     OW12931   5.952   6.747   0.109
 4011SOL    HW112932   5.992   6.714   0.024
 4011SOL    HW212933   6.016   6.807   0.156
 4012SOL     OW12934   5.531   4.490   1.934
 4012SOL    HW112935   5.455   4.478   1.871
 4012SOL    HW212936   5.604   4.541   1.890
 4013SOL     OW12937   6.958   1.958   6.818
 4013SOL    HW112938   0.022   1.908   6.791
 4013SOL    HW212939   6.969   2.055   6.796
 4014SOL     OW12940   4.070   6.337   2.962
 4014SOL    HW112941   3.988   6.280   2.973
 4014SOL    HW212942   4.059   6.422   3.013
 4015SOL     OW12943   3.419   6.206   4.855
 4015SOL    HW112944   3.498   6.263   4.831
 4015SOL    HW212945   3.346   6.221   4.788
 4016SOL     OW12946   4.558   4.966   3.901
 4016SOL    HW112947   4.537   5.059   3.871
 4016SOL    HW212948   4.473   4.913   3.908
 4017SOL     OW12949   1.705   5.768   6.039
 4017SOL    HW112950   1.610   5.777   6.069
 4017SOL    HW212951   1.763   5.749   6.119
 4018SOL     OW12952   5.542   5.707   6.756
 4018SOL    HW112953   5.631   5.745   6.783
 4018SOL    HW212954   5.524   5.730   6.660
 4019SOL     OW12955   1.026   2.085   3.119
 4019SOL    HW112956   1.034   2.148   3.042
 4019SOL    HW212957   1.032   1.991   3.086
 4020SOL     OW12958   6.785   5.628   4.697
 4020SOL    HW112959   6.789   5.530   4.680
 4020SOL    HW212960   6.832   5.677   4.624
 4021SOL     OW12961   4.859   5.475   5.747
 4021SOL    HW112962   4.935   5.522   5.791
 4021SOL    HW212963   4.783   5.538   5.734
 4022SOL     OW12964   3.776   0.310   1.366
 4022SOL    HW112965   3.810   0.249   1.295
 4022SOL    HW212966   3.745   0.257   1.445
 4023SOL     OW12967   1.105   1.991   3.714
 4023SOL    HW112968   1.122   1.919   3.782
 4023SOL    HW212969   1.084   2.077   3.760
 4024SOL     OW12970   0.812   6.763   6.599
 4024SOL    HW112971   0.800   6.760   6.500
 4024SOL    HW212972   0.892   6.709   6.624
 4025SOL     OW12973   1.234   4.611   4.694
 4025SOL    HW112974   1.228   4.628   4.793
 4025SOL    HW212975   1.278   4.689   4.650
 4026SOL     OW12976   0.662   6.468   4.219
 4026SOL    HW112977   0.729   6.423   4.159
 4026SOL    HW212978   0.644   6.410   4.298
 4027SOL     OW12979   3.224   5.824   4.741
 4027SOL    HW112980   3.236   5.837   4.839
 4027SOL    HW212981   3.235   5.727   4.718
 4028SOL     OW12982   4.557   1.922   4.832
 4028SOL    HW112983   4.589   1.854   4.766
 4028SOL    HW212984   4.474   1.965   4.798
 4029SOL     OW12985   2.168   7.008   1.119
 4029SOL    HW112986   2.127   0.075   1.088
 4029SOL    HW212987   2.125   6.931   1.071
 4030SOL     OW12988   0.526   1.226   1.998
 4030SOL    HW112989   0.482   1.149   2.042
 4030SOL    HW212990   0.585   1.273   2.063
 4031SOL     OW12991   6.165   5.777   0.690
 4031SOL    HW112992   6.113   5.767   0.605
 4031SOL    HW212993   6.181   5.873   0.708
 4032SOL     OW12994   4.887   2.047   2.121
 4032SOL    HW112995   4.866   2.142   2.146
 4032SOL    HW212996   4.847   2.027   2.032
 4033SOL     OW12997   1.153   4.162   2.893
 4033SOL    HW112998   1.187   4.179   2.986
 4033SOL    HW212999   1.151   4.063   2.877
 4034SOL     OW13000   2.898   2.050   4.260
 4034SOL    HW113001   2.907   2.127   4.324
 4034SOL    HW213002   2.975   2.051   4.196
 4035SOL     OW13003   3.502   2.246   1.284
 4035SOL    HW113004   3.545   2.197   1.208
 4035SOL    HW213005   3.416   2.200   1.308
 4036SOL     OW13006   4.585   0.166   3.207
 4036SOL    HW113007   4.656   0.230   3.237
 4036SOL    HW213008   4.622   0.073   3.205
 4037SOL     OW13009   2.083   0.694   5.860
 4037SOL    HW113010   2.162   0.661   5.809
 4037SOL    HW213011   2.027   0.616   5.889
 4038SOL     OW13012   3.818   5.058   5.286
 4038SOL    HW113013   3.902   5.016   5.319
 4038SOL    HW213014   3.840   5.140   5.233
 4039SOL     OW13015   5.915   4.460   2.100
 4039SOL    HW113016   5.956   4.491   2.014
 4039SOL    HW213017   5.984   4.411   2.154
 4040SOL     OW13018   2.427   6.509   5.546
 4040SOL    HW113019   2.387   6.418   5.539
 4040SOL    HW213020   2.414   6.558   5.461
 4041SOL     OW13021   1.247   6.288   1.417
 4041SOL    HW113022   1.276   6.272   1.323
 4041SOL    HW213023   1.273   6.381   1.444
 4042SOL     OW13024   1.437   1.789   4.418
 4042SOL    HW113025   1.502   1.792   4.343
 4042SOL    HW213026   1.476   1.834   4.498
 4043SOL     OW13027   3.466   2.871   5.851
 4043SOL    HW113028   3.379   2.822   5.857
 4043SOL    HW213029   3.519   2.836   5.774
 4044SOL     OW13030   4.672   4.273   3.695
 4044SOL    HW113031   4.638   4.322   3.615
 4044SOL    HW213032   4.614   4.294   3.774
 4045SOL     OW13033   4.387   1.549   5.041
 4045SOL    HW113034   4.371   1.567   4.944
 4045SOL    HW213035   4.304   1.569   5.093
 4046SOL     OW13036   5.254   0.810   4.145
 4046SOL    HW113037   5.245   0.734   4.209
 4046SOL    HW213038   5.184   0.878   4.165
 4047SOL     OW13039   2.429   2.316   6.580
 4047SOL    HW113040   2.399   2.281   6.669
 4047SOL    HW213041   2.357   2.372   6.539
 4048SOL     OW13042   4.678   2.255   2.950
 4048SOL    HW113043   4.645   2.165   2.981
 4048SOL    HW213044   4.770   2.246   2.912
 4049SOL     OW13045   3.858   3.794   2.626
 4049SOL    HW113046   3.950   3.756   2.615
 4049SOL    HW213047   3.856   3.854   2.707
 4050SOL     OW13048   0.108   4.802   2.971
 4050SOL    HW113049   0.055   4.883   2.946
 4050SOL    HW213050   0.145   4.760   2.888
 4051SOL     OW13051   5.904   0.396   3.618
 4051SOL    HW113052   5.838   0.448   3.673
 4051SOL    HW213053   5.986   0.452   3.603
 4052SOL     OW13054   4.279   1.043   4.762
 4052SOL    HW113055   4.241   1.131   4.733
 4052SOL    HW213056   4.350   1.014   4.697
 4053SOL     OW13057   0.927   4.787   2.827
 4053SOL    HW113058   0.887   4.836   2.750
 4053SOL    HW213059   0.855   4.744   2.881
 4054SOL     OW13060   5.526   4.129   1.645
 4054SOL    HW113061   5.610   4.132   1.698
 4054SOL    HW213062   5.507   4.036   1.615
 4055SOL     OW13063   6.915   4.347   0.032
 4055SOL    HW113064   6.827   4.390   0.053
 4055SOL    HW213065   6.926   4.264   0.087
 4056SOL     OW13066   4.747   4.133   6.890
 4056SOL    HW113067   4.753   4.147   6.989
 4056SOL    HW213068   4.683   4.059   6.871
 4057SOL     OW13069   0.020   4.707   5.454
 4057SOL    HW113070   0.099   4.767   5.441
 4057SOL    HW213071   6.954   4.762   5.452
 4058SOL     OW13072   2.981   0.821   4.163
 4058SOL    HW113073   3.031   0.737   4.146
 4058SOL    HW213074   2.902   0.826   4.102
 4059SOL     OW13075   1.867   1.325   3.539
 4059SOL    HW113076   1.804   1.346   3.464
 4059SOL    HW213077   1.824   1.260   3.601
 4060SOL     OW13078   6.957   6.542   4.098
 4060SOL    HW113079   6.971   6.639   4.118
 4060SOL    HW213080   0.021   6.490   4.124
 4061SOL     OW13081   1.581   4.238   2.660
 4061SOL    HW113082   1.483   4.252   2.675
 4061SOL    HW213083   1.595   4.157   2.604
 4062SOL     OW13084   2.576   3.862   0.351
 4062SOL    HW113085   2.552   3.859   0.254
 4062SOL    HW213086   2.674   3.880   0.361
 4063SOL     OW13087   3.569   0.893   1.340
 4063SOL    HW113088   3.655   0.873   1.293
 4063SOL    HW213089   3.550   0.822   1.408
 4064SOL     OW13090   2.520   6.571   5.041
 4064SOL    HW113091   2.522   6.476   5.012
 4064SOL    HW213092   2.496   6.629   4.962
 4065SOL     OW13093   2.274   1.323   1.757
 4065SOL    HW113094   2.240   1.271   1.836
 4065SOL    HW213095   2.363   1.287   1.730
 4066SOL     OW13096   0.402   4.214   4.999
 4066SOL    HW113097   0.359   4.224   5.088
 4066SOL    HW213098   0.356   4.272   4.932
 4067SOL     OW13099   5.817   4.175   1.413
 4067SOL    HW113100   5.912   4.146   1.417
 4067SOL    HW213101   5.810   4.259   1.358
 4068SOL     OW13102   2.450   2.366   5.955
 4068SOL    HW113103   2.446   2.403   6.048
 4068SOL    HW213104   2.367   2.393   5.906
 4069SOL     OW13105   4.080   0.316   6.198
 4069SOL    HW113106   4.095   0.413   6.216
 4069SOL    HW213107   4.048   0.303   6.104
 4070SOL     OW13108   1.719   4.020   4.410
 4070SOL    HW113109   1.737   3.922   4.420
 4070SOL    HW213110   1.705   4.061   4.500
 4071SOL     OW13111   1.048   0.470   5.272
 4071SOL    HW113112   0.982   0.502   5.204
 4071SOL    HW213113   1.130   0.436   5.225
 4072SOL     OW13114   2.717   6.391   2.735
 4072SOL    HW113115   2.809   6.389   2.695
 4072SOL    HW213116   2.650   6.411   2.664
 4073SOL     OW13117   4.811   4.998   6.707
 4073SOL    HW113118   4.769   5.083   6.675
 4073SOL    HW213119   4.909   5.000   6.688
 4074SOL     OW13120   1.522   5.512   2.039
 4074SOL    HW113121   1.536   5.467   2.128
 4074SOL    HW213122   1.449   5.465   1.989
 4075SOL     OW13123   5.467   0.496   6.507
 4075SOL    HW113124   5.520   0.510   6.590
 4075SOL    HW213125   5.449   0.583   6.462
 4076SOL     OW13126   2.322   5.678   3.604
 4076SOL    HW113127   2.283   5.744   3.668
 4076SOL    HW213128   2.409   5.713   3.570
 4077SOL     OW13129   2.536   1.930   1.267
 4077SOL    HW113130   2.549   1.832   1.278
 4077SOL    HW213131   2.604   1.966   1.203
 4078SOL     OW13132   4.452   4.830   2.074
 4078SOL    HW113133   4.478   4.745   2.028
 4078SOL    HW213134   4.531   4.891   2.080
 4079SOL     OW13135   0.873   2.743   3.958
 4079SOL    HW113136   0.889   2.684   4.038
 4079SOL    HW213137   0.942   2.815   3.956
 4080SOL     OW13138   6.225   2.203   4.787
 4080SOL    HW113139   6.140   2.253   4.801
 4080SOL    HW213140   6.300   2.249   4.835
 4081SOL     OW13141   6.119   3.640   2.489
 4081SOL    HW113142   6.200   3.611   2.437
 4081SOL    HW213143   6.093   3.568   2.553
 4082SOL     OW13144   0.580   3.668   0.852
 4082SOL    HW113145   0.609   3.631   0.940
 4082SOL    HW213146   0.645   3.739   0.822
 4083SOL     OW13147   6.881   3.534   5.479
 4083SOL    HW113148   6.904   3.436   5.476
 4083SOL    HW213149   6.828   3.553   5.561
 4084SOL     OW13150   4.826   0.538   3.974
 4084SOL    HW113151   4.885   0.494   4.041
 4084SOL    HW213152   4.799   0.629   4.007
 4085SOL     OW13153   2.575   5.356   6.627
 4085SOL    HW113154   2.626   5.437   6.655
 4085SOL    HW213155   2.555   5.300   6.707
 4086SOL     OW13156   0.036   2.387   1.933
 4086SOL    HW113157   0.120   2.341   1.962
 4086SOL    HW213158   0.052   2.434   1.846
 4087SOL     OW13159   1.056   0.798   3.340
 4087SOL    HW113160   1.120   0.873   3.327
 4087SOL    HW213161   1.065   0.761   3.432
 4088SOL     OW13162   0.238   2.908   6.414
 4088SOL    HW113163   0.216   2.811   6.419
 4088SOL    HW213164   0.236   2.948   6.505
 4089SOL     OW13165   0.596   1.832   5.613
 4089SOL    HW113166   0.692   1.822   5.589
 4089SOL    HW213167   0.571   1.929   5.609
 4090SOL     OW13168   3.291   5.169   6.612
 4090SOL    HW113169   3.335   5.251   6.577
 4090SOL    HW213170   3.332   5.143   6.699
 4091SOL     OW13171   4.220   6.236   1.299
 4091SOL    HW113172   4.249   6.141   1.283
 4091SOL    HW213173   4.121   6.240   1.309
 4092SOL     OW13174   1.228   1.288   3.892
 4092SOL    HW113175   1.225   1.270   3.793
 4092SOL    HW213176   1.171   1.368   3.912
 4093SOL     OW13177   4.645   6.825   3.666
 4093SOL    HW113178   4.581   6.888   3.709
 4093SOL    HW213179   4.732   6.826   3.717
 4094SOL     OW13180   3.067   2.972   6.374
 4094SOL    HW113181   3.120   2.997   6.293
 4094SOL    HW213182   3.124   2.980   6.455
 4095SOL     OW13183   1.929   3.792   5.849
 4095SOL    HW113184   2.023   3.759   5.851
 4095SOL    HW213185   1.899   3.813   5.942
 4096SOL     OW13186   4.658   4.466   1.538
 4096SOL    HW113187   4.721   4.541   1.558
 4096SOL    HW213188   4.705   4.379   1.548
 4097SOL     OW13189   3.849   3.771   2.977
 4097SOL    HW113190   3.841   3.845   2.910
 4097SOL    HW213191   3.930   3.716   2.956
 4098SOL     OW13192   1.488   3.160   2.340
 4098SOL    HW113193   1.512   3.118   2.428
 4098SOL    HW213194   1.527   3.252   2.336
 4099SOL     OW13195   2.304   6.171   1.435
 4099SOL    HW113196   2.374   6.125   1.380
 4099SOL    HW213197   2.250   6.232   1.376
 4100SOL     OW13198   3.410   0.275   2.850
 4100SOL    HW113199   3.411   0.249   2.947
 4100SOL    HW213200   3.472   0.352   2.836
 4101SOL     OW13201   5.022   1.608   0.146
 4101SOL    HW113202   4.930   1.647   0.134
 4101SOL    HW213203   5.053   1.569   0.059
 4102SOL     OW13204   4.884   1.736   5.780
 4102SOL    HW113205   4.819   1.810   5.797
 4102SOL    HW213206   4.871   1.701   5.688
 4103SOL     OW13207   6.818   0.060   1.811
 4103SOL    HW113208   6.867   7.000   1.774
 4103SOL    HW213209   6.824   0.059   1.911
 4104SOL     OW13210   2.265   4.520   2.120
 4104SOL    HW113211   2.181   4.496   2.169
 4104SOL    HW213212   2.265   4.473   2.031
 4105SOL     OW13213   6.301   4.953   0.685
 4105SOL    HW113214   6.395   4.951   0.721
 4105SOL    HW213215   6.256   5.037   0.713
 4106SOL     OW13216   0.796   3.084   4.186
 4106SOL    HW113217   0.802   3.063   4.089
 4106SOL    HW213218   0.712   3.135   4.205
 4107SOL     OW13219   6.667   0.418   0.906
 4107SOL    HW113220   6.747   0.475   0.888
 4107SOL    HW213221   6.677   0.373   0.995
 4108SOL     OW13222   6.576   2.489   4.691
 4108SOL    HW113223   6.661   2.436   4.692
 4108SOL    HW213224   6.597   2.586   4.686
 4109SOL     OW13225   2.117   6.340   3.814
 4109SOL    HW113226   2.125   6.367   3.718
 4109SOL    HW213227   2.052   6.264   3.822
 4110SOL     OW13228   4.854   3.310   5.097
 4110SOL    HW113229   4.885   3.247   5.025
 4110SOL    HW213230   4.814   3.391   5.054
 4111SOL     OW13231   3.962   3.344   6.658
 4111SOL    HW113232   4.025   3.266   6.652
 4111SOL    HW213233   3.997   3.411   6.723
 4112SOL     OW13234   4.049   0.867   5.968
 4112SOL    HW113235   4.145   0.841   5.957
 4112SOL    HW213236   4.001   0.858   5.880
 4113SOL     OW13237   3.811   5.429   3.939
 4113SOL    HW113238   3.835   5.483   3.858
 4113SOL    HW213239   3.851   5.472   4.020
 4114SOL     OW13240   3.614   1.363   3.320
 4114SOL    HW113241   3.625   1.449   3.270
 4114SOL    HW213242   3.703   1.323   3.338
 4115SOL     OW13243   5.060   3.643   3.362
 4115SOL    HW113244   5.025   3.684   3.446
 4115SOL    HW213245   5.126   3.705   3.319
 4116SOL     OW13246   2.547   1.515   1.481
 4116SOL    HW113247   2.544   1.613   1.498
 4116SOL    HW213248   2.642   1.486   1.466
 4117SOL     OW13249   1.204   5.888   2.065
 4117SOL    HW113250   1.150   5.905   1.983
 4117SOL    HW213251   1.189   5.794   2.097
 4118SOL     OW13252   1.844   0.545   5.935
 4118SOL    HW113253   1.888   0.557   6.025
 4118SOL    HW213254   1.863   0.453   5.902
 4119SOL     OW13255   5.123   1.473   3.125
 4119SOL    HW113256   5.071   1.542   3.075
 4119SOL    HW213257   5.117   1.385   3.077
 4120SOL     OW13258   5.797   0.779   1.713
 4120SOL    HW113259   5.756   0.754   1.625
 4120SOL    HW213260   5.836   0.697   1.755
 4121SOL     OW13261   5.394   2.432   3.885
 4121SOL    HW113262   5.351   2.347   3.854
 4121SOL    HW213263   5.404   2.495   3.808
 4122SOL     OW13264   2.310   5.204   0.065
 4122SOL    HW113265   2.328   5.295   0.029
 4122SOL    HW213266   2.321   5.204   0.165
 4123SOL     OW13267   3.919   3.626   5.121
 4123SOL    HW113268   3.969   3.568   5.186
 4123SOL    HW213269   3.983   3.666   5.055
 4124SOL     OW13270   4.808   6.327   2.737
 4124SOL    HW113271   4.849   6.372   2.816
 4124SOL    HW213272   4.872   6.261   2.699
 4125SOL     OW13273   4.611   1.897   1.578
 4125SOL    HW113274   4.527   1.944   1.549
 4125SOL    HW213275   4.622   1.813   1.526
 4126SOL     OW13276   1.918   4.093   4.781
 4126SOL    HW113277   1.996   4.031   4.785
 4126SOL    HW213278   1.947   4.181   4.744
 4127SOL     OW13279   5.213   4.777   3.959
 4127SOL    HW113280   5.157   4.746   4.035
 4127SOL    HW213281   5.235   4.699   3.900
 4128SOL     OW13282   6.989   1.846   1.944
 4128SOL    HW113283   6.971   1.880   2.036
 4128SOL    HW213284   0.056   1.883   1.910
 4129SOL     OW13285   0.135   3.078   0.140
 4129SOL    HW113286   0.131   2.989   0.186
 4129SOL    HW213287   0.165   3.148   0.204
 4130SOL     OW13288   6.672   2.232   1.301
 4130SOL    HW113289   6.666   2.134   1.283
 4130SOL    HW213290   6.651   2.250   1.397
 4131SOL     OW13291   6.977   3.704   3.489
 4131SOL    HW113292   6.881   3.680   3.500
 4131SOL    HW213293   0.010   3.672   3.568
 4132SOL     OW13294   4.685   1.287   4.148
 4132SOL    HW113295   4.669   1.300   4.246
 4132SOL    HW213296   4.597   1.268   4.103
 4133SOL     OW13297   2.718   2.731   0.502
 4133SOL    HW113298   2.749   2.690   0.416
 4133SOL    HW213299   2.633   2.686   0.532
 4134SOL     OW13300   2.482   1.291   0.070
 4134SOL    HW113301   2.472   1.360   7.017
 4134SOL    HW213302   2.563   1.235   0.051
 4135SOL     OW13303   1.613   0.260   0.708
 4135SOL    HW113304   1.636   0.330   0.776
 4135SOL    HW213305   1.586   0.176   0.754
 4136SOL     OW13306   1.588   1.848   3.262
 4136SOL    HW113307   1.639   1.870   3.179
 4136SOL    HW213308   1.548   1.932   3.300
 4137SOL     OW13309   3.573   3.109   4.940
 4137SOL    HW113310   3.542   3.204   4.933
 4137SOL    HW213311   3.666   3.106   4.975
 4138SOL     OW13312   4.765   5.357   1.467
 4138SOL    HW113313   4.738   5.355   1.371
 4138SOL    HW213314   4.832   5.430   1.481
 4139SOL     OW13315   3.039   1.447   6.778
 4139SOL    HW113316   3.032   1.546   6.793
 4139SOL    HW213317   3.089   1.430   6.693
 4140SOL     OW13318   4.806   2.480   4.639
 4140SOL    HW113319   4.859   2.513   4.561
 4140SOL    HW213320   4.711   2.510   4.630
 4141SOL     OW13321   5.234   6.067   0.982
 4141SOL    HW113322   5.235   6.133   0.906
 4141SOL    HW213323   5.230   5.974   0.945
 4142SOL     OW13324   5.916   3.012   2.006
 4142SOL    HW113325   5.886   3.093   2.056
 4142SOL    HW213326   5.966   3.039   1.924
 4143SOL     OW13327   1.844   2.606   1.823
 4143SOL    HW113328   1.881   2.544   1.755
 4143SOL    HW213329   1.913   2.674   1.848
 4144SOL     OW13330   4.281   0.647   2.542
 4144SOL    HW113331   4.358   0.605   2.589
 4144SOL    HW213332   4.297   0.647   2.443
 4145SOL     OW13333   2.953   0.361   3.520
 4145SOL    HW113334   3.012   0.418   3.576
 4145SOL    HW213335   2.863   0.354   3.563
 4146SOL     OW13336   4.887   4.812   0.559
 4146SOL    HW113337   4.811   4.765   0.604
 4146SOL    HW213338   4.951   4.744   0.522
 4147SOL     OW13339   2.645   1.648   5.567
 4147SOL    HW113340   2.554   1.632   5.605
 4147SOL    HW213341   2.652   1.743   5.537
 4148SOL     OW13342   6.805   6.538   2.189
 4148SOL    HW113343   6.740   6.496   2.252
 4148SOL    HW213344   6.865   6.601   2.239
 4149SOL     OW13345   4.753   4.223   2.159
 4149SOL    HW113346   4.684   4.203   2.089
 4149SOL    HW213347   4.779   4.320   2.153
 4150SOL     OW13348   3.210   0.634   4.633
 4150SOL    HW113349   3.141   0.702   4.657
 4150SOL    HW213350   3.215   0.564   4.704
 4151SOL     OW13351   0.211   5.581   0.120
 4151SOL    HW113352   0.206   5.481   0.131
 4151SOL    HW213353   0.283   5.604   0.054
 4152SOL     OW13354   3.812   4.359   1.027
 4152SOL    HW113355   3.832   4.266   1.057
 4152SOL    HW213356   3.893   4.416   1.038
 4153SOL     OW13357   6.266   5.696   6.396
 4153SOL    HW113358   6.241   5.761   6.324
 4153SOL    HW213359   6.217   5.610   6.383
 4154SOL     OW13360   4.559   2.592   4.593
 4154SOL    HW113361   4.518   2.506   4.623
 4154SOL    HW213362   4.524   2.616   4.503
 4155SOL     OW13363   1.872   3.244   0.942
 4155SOL    HW113364   1.916   3.322   0.898
 4155SOL    HW213365   1.922   3.160   0.921
 4156SOL     OW13366   6.087   1.390   5.633
 4156SOL    HW113367   6.074   1.411   5.536
 4156SOL    HW213368   6.038   1.457   5.688
 4157SOL     OW13369   3.491   1.286   3.704
 4157SOL    HW113370   3.585   1.297   3.672
 4157SOL    HW213371   3.491   1.238   3.792
 4158SOL     OW13372   0.689   0.288   3.042
 4158SOL    HW113373   0.608   0.320   3.091
 4158SOL    HW213374   0.752   0.364   3.026
 4159SOL     OW13375   0.983   4.578   5.261
 4159SOL    HW113376   0.981   4.478   5.261
 4159SOL    HW213377   1.068   4.611   5.219
 4160SOL     OW13378   6.582   0.861   1.544
 4160SOL    HW113379   6.628   0.898   1.463
 4160SOL    HW213380   6.523   0.785   1.518
 4161SOL     OW13381   6.700   0.959   1.797
 4161SOL    HW113382   6.627   0.951   1.864
 4161SOL    HW213383   6.670   0.921   1.709
 4162SOL     OW13384   0.837   6.961   4.861
 4162SOL    HW113385   0.928   6.963   4.902
 4162SOL    HW213386   0.773   7.011   4.920
 4163SOL     OW13387   0.551   2.019   5.248
 4163SOL    HW113388   0.532   1.921   5.237
 4163SOL    HW213389   0.596   2.054   5.166
 4164SOL     OW13390   2.513   6.714   5.722
 4164SOL    HW113391   2.589   6.689   5.782
 4164SOL    HW213392   2.491   6.637   5.662
 4165SOL     OW13393   1.038   6.273   1.061
 4165SOL    HW113394   1.055   6.182   1.024
 4165SOL    HW213395   1.122   6.326   1.061
 4166SOL     OW13396   6.220   1.816   2.744
 4166SOL    HW113397   6.271   1.845   2.663
 4166SOL    HW213398   6.125   1.795   2.719
 4167SOL     OW13399   1.556   2.531   1.225
 4167SOL    HW113400   1.640   2.480   1.206
 4167SOL    HW213401   1.561   2.620   1.180
 4168SOL     OW13402   2.227   5.901   0.700
 4168SOL    HW113403   2.285   5.880   0.621
 4168SOL    HW213404   2.253   5.991   0.736
 4169SOL     OW13405   6.099   3.616   6.739
 4169SOL    HW113406   6.027   3.675   6.775
 4169SOL    HW213407   6.062   3.526   6.719
 4170SOL     OW13408   3.006   0.699   5.285
 4170SOL    HW113409   3.007   0.680   5.187
 4170SOL    HW213410   2.983   0.795   5.301
 4171SOL     OW13411   6.638   2.934   1.775
 4171SOL    HW113412   6.574   2.859   1.793
 4171SOL    HW213413   6.657   2.939   1.677
 4172SOL     OW13414   2.729   0.261   1.188
 4172SOL    HW113415   2.738   0.166   1.160
 4172SOL    HW213416   2.771   0.274   1.278
 4173SOL     OW13417   4.200   4.120   5.542
 4173SOL    HW113418   4.285   4.137   5.593
 4173SOL    HW213419   4.189   4.189   5.471
 4174SOL     OW13420   4.552   0.954   3.776
 4174SOL    HW113421   4.475   0.977   3.835
 4174SOL    HW213422   4.531   0.871   3.725
 4175SOL     OW13423   2.438   1.471   2.072
 4175SOL    HW113424   2.453   1.564   2.037
 4175SOL    HW213425   2.347   1.467   2.115
 4176SOL     OW13426   5.567   4.771   2.941
 4176SOL    HW113427   5.519   4.683   2.940
 4176SOL    HW213428   5.661   4.758   2.912
 4177SOL     OW13429   0.301   6.087   2.877
 4177SOL    HW113430   0.303   5.989   2.898
 4177SOL    HW213431   0.351   6.103   2.791
 4178SOL     OW13432   4.061   2.690   5.313
 4178SOL    HW113433   3.978   2.636   5.301
 4178SOL    HW213434   4.137   2.647   5.263
 4179SOL     OW13435   0.242   1.660   0.066
 4179SOL    HW113436   0.177   1.652   0.142
 4179SOL    HW213437   0.322   1.712   0.095
 4180SOL     OW13438   5.749   4.205   1.821
 4180SOL    HW113439   5.741   4.288   1.766
 4180SOL    HW213440   5.823   4.215   1.887
 4181SOL     OW13441   6.120   0.983   0.142
 4181SOL    HW113442   6.203   1.039   0.144
 4181SOL    HW213443   6.057   1.020   0.074
 4182SOL     OW13444   5.928   0.857   3.780
 4182SOL    HW113445   6.023   0.888   3.780
 4182SOL    HW213446   5.910   0.805   3.697
 4183SOL     OW13447   0.559   0.454   1.678
 4183SOL    HW113448   0.604   0.511   1.747
 4183SOL    HW213449   0.629   0.407   1.624
 4184SOL     OW13450   4.324   4.912   6.082
 4184SOL    HW113451   4.298   4.847   6.011
 4184SOL    HW213452   4.245   4.932   6.139
 4185SOL     OW13453   6.974   0.919   4.431
 4185SOL    HW113454   0.039   0.866   4.443
 4185SOL    HW213455   6.896   0.869   4.469
 4186SOL     OW13456   3.266   3.793   1.939
 4186SOL    HW113457   3.278   3.745   2.026
 4186SOL    HW213458   3.193   3.861   1.948
 4187SOL     OW13459   4.776   5.131   5.447
 4187SOL    HW113460   4.688   5.177   5.432
 4187SOL    HW213461   4.850   5.198   5.443
 4188SOL     OW13462   5.536   5.650   2.414
 4188SOL    HW113463   5.549   5.742   2.377
 4188SOL    HW213464   5.477   5.598   2.352
 4189SOL     OW13465   1.485   3.167   2.985
 4189SOL    HW113466   1.537   3.083   3.001
 4189SOL    HW213467   1.389   3.145   2.972
 4190SOL     OW13468   2.504   6.397   2.018
 4190SOL    HW113469   2.561   6.331   2.067
 4190SOL    HW213470   2.520   6.489   2.054
 4191SOL     OW13471   0.154   1.957   3.852
 4191SOL    HW113472   0.211   2.020   3.906
 4191SOL    HW213473   0.143   1.872   3.903
 4192SOL     OW13474   5.918   6.333   4.012
 4192SOL    HW113475   5.863   6.263   3.966
 4192SOL    HW213476   5.858   6.407   4.044
 4193SOL     OW13477   1.501   6.726   3.870
 4193SOL    HW113478   1.536   6.775   3.950
 4193SOL    HW213479   1.541   6.764   3.787
 4194SOL     OW13480   4.935   0.094   3.147
 4194SOL    HW113481   5.006   0.023   3.148
 4194SOL    HW213482   4.848   0.053   3.175
 4195SOL     OW13483   4.743   0.395   3.301
 4195SOL    HW113484   4.778   0.405   3.208
 4195SOL    HW213485   4.697   0.479   3.329
 4196SOL     OW13486   4.920   2.682   2.985
 4196SOL    HW113487   4.902   2.701   2.889
 4196SOL    HW213488   4.941   2.585   2.998
 4197SOL     OW13489   5.886   4.409   4.816
 4197SOL    HW113490   5.970   4.359   4.837
 4197SOL    HW213491   5.858   4.391   4.722
 4198SOL     OW13492   6.447   3.559   5.970
 4198SOL    HW113493   6.424   3.483   5.909
 4198SOL    HW213494   6.540   3.546   6.005
 4199SOL     OW13495   3.124   4.487   6.122
 4199SOL    HW113496   3.200   4.428   6.149
 4199SOL    HW213497   3.071   4.442   6.050
 4200SOL     OW13498   2.812   0.479   5.538
 4200SOL    HW113499   2.767   0.567   5.520
 4200SOL    HW213500   2.898   0.496   5.587
 4201SOL     OW13501   6.171   0.271   4.893
 4201SOL    HW113502   6.153   0.306   4.985
 4201SOL    HW213503   6.225   0.188   4.898
 4202SOL     OW13504   5.769   3.541   4.915
 4202SOL    HW113505   5.708   3.610   4.875
 4202SOL    HW213506   5.752   3.534   5.013
 4203SOL     OW13507   3.354   5.887   4.431
 4203SOL    HW113508   3.372   5.797   4.470
 4203SOL    HW213509   3.255   5.905   4.434
 4204SOL     OW13510   1.756   4.156   7.014
 4204SOL    HW113511   1.743   4.205   6.928
 4204SOL    HW213512   1.764   4.222   0.071
 4205SOL     OW13513   2.478   6.629   3.610
 4205SOL    HW113514   2.572   6.663   3.607
 4205SOL    HW213515   2.426   6.681   3.677
 4206SOL     OW13516   4.803   6.445   3.454
 4206SOL    HW113517   4.719   6.483   3.491
 4206SOL    HW213518   4.831   6.498   3.373
 4207SOL     OW13519   1.821   6.306   0.183
 4207SOL    HW113520   1.915   6.274   0.179
 4207SOL    HW213521   1.780   6.281   0.271
 4208SOL     OW13522   1.008   1.624   1.940
 4208SOL    HW113523   1.023   1.583   2.030
 4208SOL    HW213524   1.086   1.604   1.881
 4209SOL     OW13525   2.416   0.385   5.664
 4209SOL    HW113526   2.491   0.337   5.708
 4209SOL    HW213527   2.364   0.321   5.608
 4210SOL     OW13528   3.669   3.298   0.667
 4210SOL    HW113529   3.668   3.397   0.650
 4210SOL    HW213530   3.749   3.258   0.621
 4211SOL     OW13531   6.672   3.147   4.030
 4211SOL    HW113532   6.674   3.100   4.118
 4211SOL    HW213533   6.766   3.167   4.001
 4212SOL     OW13534   5.785   6.822   1.728
 4212SOL    HW113535   5.701   6.862   1.691
 4212SOL    HW213536   5.860   6.887   1.715
 4213SOL     OW13537   0.837   0.335   0.912
 4213SOL    HW113538   0.759   0.297   0.862
 4213SOL    HW213539   0.878   0.409   0.858
 4214SOL     OW13540   2.948   5.289   3.593
 4214SOL    HW113541   3.000   5.291   3.679
 4214SOL    HW213542   2.862   5.240   3.607
 4215SOL     OW13543   1.583   5.971   6.889
 4215SOL    HW113544   1.497   5.982   6.939
 4215SOL    HW213545   1.617   5.878   6.901
 4216SOL     OW13546   2.569   2.820   5.354
 4216SOL    HW113547   2.525   2.866   5.277
 4216SOL    HW213548   2.574   2.882   5.432
 4217SOL     OW13549   6.218   0.472   4.698
 4217SOL    HW113550   6.119   0.470   4.682
 4217SOL    HW213551   6.241   0.410   4.772
 4218SOL     OW13552   3.201   5.593   2.231
 4218SOL    HW113553   3.103   5.578   2.247
 4218SOL    HW213554   3.239   5.516   2.180
 4219SOL     OW13555   5.244   0.182   2.681
 4219SOL    HW113556   5.318   0.238   2.643
 4219SOL    HW213557   5.228   0.103   2.622
 4220SOL     OW13558   0.754   4.659   2.988
 4220SOL    HW113559   0.771   4.565   3.018
 4220SOL    HW213560   0.682   4.659   2.919
 4221SOL     OW13561   5.146   6.244   5.811
 4221SOL    HW113562   5.229   6.195   5.784
 4221SOL    HW213563   5.128   6.317   5.745
 4222SOL     OW13564   2.276   3.081   0.072
 4222SOL    HW113565   2.307   3.094   6.997
 4222SOL    HW213566   2.317   2.998   0.109
 4223SOL     OW13567   3.666   4.091   2.788
 4223SOL    HW113568   3.634   4.075   2.694
 4223SOL    HW213569   3.587   4.091   2.850
 4224SOL     OW13570   3.415   2.166   5.182
 4224SOL    HW113571   3.338   2.229   5.171
 4224SOL    HW213572   3.391   2.078   5.141
 4225SOL     OW13573   5.039   6.581   4.619
 4225SOL    HW113574   5.076   6.488   4.621
 4225SOL    HW213575   5.115   6.646   4.623
 4226SOL     OW13576   2.482   2.053   1.792
 4226SOL    HW113577   2.508   2.019   1.882
 4226SOL    HW213578   2.563   2.088   1.744
 4227SOL     OW13579   5.684   3.694   0.328
 4227SOL    HW113580   5.663   3.596   0.331
 4227SOL    HW213581   5.625   3.739   0.260
 4228SOL     OW13582   4.510   5.542   2.870
 4228SOL    HW113583   4.534   5.619   2.811
 4228SOL    HW213584   4.541   5.457   2.828
 4229SOL     OW13585   4.607   4.775   4.518
 4229SOL    HW113586   4.570   4.700   4.462
 4229SOL    HW213587   4.581   4.761   4.614
 4230SOL     OW13588   1.537   1.121   5.340
 4230SOL    HW113589   1.473   1.055   5.379
 4230SOL    HW213590   1.581   1.081   5.259
 4231SOL     OW13591   3.715   6.773   6.526
 4231SOL    HW113592   3.714   6.873   6.532
 4231SOL    HW213593   3.791   6.737   6.580
 4232SOL     OW13594   1.926   4.201   1.288
 4232SOL    HW113595   1.923   4.187   1.189
 4232SOL    HW213596   1.834   4.193   1.326
 4233SOL     OW13597   4.779   5.344   1.170
 4233SOL    HW113598   4.728   5.284   1.108
 4233SOL    HW213599   4.768   5.439   1.141
 4234SOL     OW13600   3.698   3.492   5.951
 4234SOL    HW113601   3.781   3.465   5.902
 4234SOL    HW213602   3.707   3.468   6.048
 4235SOL     OW13603   0.350   3.928   4.992
 4235SOL    HW113604   0.365   4.025   4.974
 4235SOL    HW213605   0.413   3.873   4.936
 4236SOL     OW13606   1.252   3.214   4.267
 4236SOL    HW113607   1.219   3.146   4.202
 4236SOL    HW213608   1.174   3.261   4.308
 4237SOL     OW13609   5.014   3.382   5.365
 4237SOL    HW113610   4.965   3.467   5.345
 4237SOL    HW213611   5.076   3.361   5.290
 4238SOL     OW13612   5.046   4.657   5.076
 4238SOL    HW113613   4.972   4.710   5.118
 4238SOL    HW213614   5.134   4.690   5.110
 4239SOL     OW13615   5.100   4.585   5.344
 4239SOL    HW113616   5.187   4.615   5.304
 4239SOL    HW213617   5.032   4.576   5.272
 4240SOL     OW13618   2.053   4.132   6.043
 4240SOL    HW113619   1.968   4.135   5.990
 4240SOL    HW213620   2.121   4.079   5.992
 4241SOL     OW13621   3.608   2.360   0.328
 4241SOL    HW113622   3.656   2.272   0.332
 4241SOL    HW213623   3.543   2.366   0.404
 4242SOL     OW13624   2.803   0.525   1.877
 4242SOL    HW113625   2.763   0.434   1.870
 4242SOL    HW213626   2.823   0.546   1.973
 4243SOL     OW13627   2.001   1.936   1.941
 4243SOL    HW113628   2.088   1.928   1.893
 4243SOL    HW213629   2.000   2.020   1.996
 4244SOL     OW13630   2.617   0.061   0.836
 4244SOL    HW113631   2.541   0.123   0.850
 4244SOL    HW213632   2.584   6.994   0.797
 4245SOL     OW13633   0.594   1.426   1.459
 4245SOL    HW113634   0.675   1.373   1.433
 4245SOL    HW213635   0.623   1.512   1.500
 4246SOL     OW13636   3.491   2.114   3.526
 4246SOL    HW113637   3.424   2.188   3.534
 4246SOL    HW213638   3.570   2.134   3.583
 4247SOL     OW13639   2.425   5.158   6.806
 4247SOL    HW113640   2.484   5.115   6.874
 4247SOL    HW213641   2.338   5.110   6.802
 4248SOL     OW13642   2.725   6.569   1.790
 4248SOL    HW113643   2.683   6.580   1.699
 4248SOL    HW213644   2.744   6.660   1.828
 4249SOL     OW13645   6.116   1.357   5.352
 4249SOL    HW113646   6.152   1.436   5.302
 4249SOL    HW213647   6.145   1.273   5.306
 4250SOL     OW13648   0.816   5.320   4.308
 4250SOL    HW113649   0.871   5.401   4.327
 4250SOL    HW213650   0.794   5.273   4.394
 4251SOL     OW13651   4.603   1.748   5.587
 4251SOL    HW113652   4.605   1.743   5.487
 4251SOL    HW213653   4.636   1.662   5.626
 4252SOL     OW13654   0.764   6.763   6.868
 4252SOL    HW113655   0.728   6.676   6.902
 4252SOL    HW213656   0.773   6.759   6.769
 4253SOL     OW13657   3.334   0.272   2.554
 4253SOL    HW113658   3.376   0.268   2.644
 4253SOL    HW213659   3.314   0.368   2.531
 4254SOL     OW13660   0.809   0.774   4.860
 4254SOL    HW113661   0.839   0.689   4.816
 4254SOL    HW213662   0.889   0.824   4.892
 4255SOL     OW13663   1.684   3.109   4.450
 4255SOL    HW113664   1.770   3.158   4.442
 4255SOL    HW213665   1.608   3.169   4.425
 4256SOL     OW13666   5.884   5.929   1.146
 4256SOL    HW113667   5.826   5.875   1.207
 4256SOL    HW213668   5.873   5.898   1.052
 4257SOL     OW13669   0.218   1.350   2.496
 4257SOL    HW113670   0.146   1.282   2.486
 4257SOL    HW213671   0.272   1.353   2.412
 4258SOL     OW13672   2.347   6.480   0.903
 4258SOL    HW113673   2.423   6.546   0.905
 4258SOL    HW213674   2.365   6.410   0.834
 4259SOL     OW13675   1.014   0.578   0.472
 4259SOL    HW113676   0.982   0.664   0.512
 4259SOL    HW213677   1.014   0.584   0.372
 4260SOL     OW13678   6.899   0.355   5.515
 4260SOL    HW113679   6.994   0.351   5.548
 4260SOL    HW213680   6.837   0.359   5.593
 4261SOL     OW13681   1.908   6.225   3.097
 4261SOL    HW113682   1.826   6.282   3.106
 4261SOL    HW213683   1.880   6.129   3.090
 4262SOL     OW13684   1.409   4.000   4.535
 4262SOL    HW113685   1.346   4.023   4.609
 4262SOL    HW213686   1.411   4.075   4.468
 4263SOL     OW13687   3.244   0.954   2.418
 4263SOL    HW113688   3.204   1.036   2.459
 4263SOL    HW213689   3.231   0.955   2.319
 4264SOL     OW13690   4.227   2.397   6.279
 4264SOL    HW113691   4.287   2.335   6.329
 4264SOL    HW213692   4.132   2.379   6.304
 4265SOL     OW13693   3.661   5.911   6.385
 4265SOL    HW113694   3.600   5.973   6.335
 4265SOL    HW213695   3.697   5.843   6.322
 4266SOL     OW13696   1.308   3.731   2.465
 4266SOL    HW113697   1.342   3.657   2.407
 4266SOL    HW213698   1.359   3.731   2.551
 4267SOL     OW13699   1.577   3.558   3.497
 4267SOL    HW113700   1.605   3.601   3.584
 4267SOL    HW213701   1.478   3.558   3.491
 4268SOL     OW13702   1.334   4.412   5.271
 4268SOL    HW113703   1.268   4.369   5.334
 4268SOL    HW213704   1.306   4.394   5.177
 4269SOL     OW13705   2.233   2.040   4.180
 4269SOL    HW113706   2.158   2.074   4.237
 4269SOL    HW213707   2.320   2.074   4.216
 4270SOL     OW13708   4.049   4.190   1.045
 4270SOL    HW113709   4.089   4.196   1.136
 4270SOL    HW213710   3.968   4.132   1.047
 4271SOL     OW13711   6.361   7.000   0.013
 4271SOL    HW113712   6.279   0.027   6.998
 4271SOL    HW213713   6.339   6.946   0.094
 4272SOL     OW13714   6.465   2.114   5.507
 4272SOL    HW113715   6.496   2.164   5.588
 4272SOL    HW213716   6.398   2.170   5.458
 4273SOL     OW13717   3.615   6.237   3.696
 4273SOL    HW113718   3.655   6.290   3.621
 4273SOL    HW213719   3.516   6.234   3.686
 4274SOL     OW13720   5.971   0.508   2.254
 4274SOL    HW113721   6.024   0.566   2.192
 4274SOL    HW213722   5.888   0.555   2.281
 4275SOL     OW13723   5.666   1.861   4.091
 4275SOL    HW113724   5.586   1.812   4.126
 4275SOL    HW213725   5.743   1.849   4.154
 4276SOL     OW13726   2.436   0.977   3.065
 4276SOL    HW113727   2.468   1.071   3.068
 4276SOL    HW213728   2.489   0.925   2.999
 4277SOL     OW13729   6.471   4.845   2.747
 4277SOL    HW113730   6.564   4.828   2.782
 4277SOL    HW213731   6.421   4.901   2.812
 4278SOL     OW13732   0.511   6.778   1.479
 4278SOL    HW113733   0.487   6.853   1.417
 4278SOL    HW213734   0.453   6.782   1.561
 4279SOL     OW13735   1.444   3.727   2.714
 4279SOL    HW113736   1.499   3.643   2.722
 4279SOL    HW213737   1.485   3.799   2.771
 4280SOL     OW13738   2.462   6.873   6.199
 4280SOL    HW113739   2.461   6.775   6.183
 4280SOL    HW213740   2.387   6.897   6.261
 4281SOL     OW13741   6.692   6.677   2.770
 4281SOL    HW113742   6.792   6.682   2.773
 4281SOL    HW213743   6.653   6.769   2.774
 4282SOL     OW13744   5.000   4.694   2.565
 4282SOL    HW113745   5.095   4.716   2.546
 4282SOL    HW213746   4.980   4.601   2.532
 4283SOL     OW13747   6.994   2.011   5.430
 4283SOL    HW113748   6.941   1.990   5.513
 4283SOL    HW213749   0.037   1.934   5.410
 4284SOL     OW13750   4.673   6.214   0.188
 4284SOL    HW113751   4.648   6.254   0.276
 4284SOL    HW213752   4.590   6.199   0.134
 4285SOL     OW13753   2.643   1.529   6.167
 4285SOL    HW113754   2.574   1.581   6.117
 4285SOL    HW213755   2.638   1.432   6.141
 4286SOL     OW13756   5.298   6.782   6.707
 4286SOL    HW113757   5.246   6.867   6.702
 4286SOL    HW213758   5.329   6.768   6.801
 4287SOL     OW13759   4.521   0.135   0.845
 4287SOL    HW113760   4.588   0.203   0.813
 4287SOL    HW213761   4.433   0.154   0.802
 4288SOL     OW13762   6.203   6.326   2.631
 4288SOL    HW113763   6.115   6.326   2.584
 4288SOL    HW213764   6.232   6.232   2.648
 4289SOL     OW13765   0.211   4.781   5.687
 4289SOL    HW113766   0.129   4.838   5.692
 4289SOL    HW213767   0.198   4.699   5.743
 4290SOL     OW13768   0.233   1.017   3.034
 4290SOL    HW113769   0.291   1.008   3.115
 4290SOL    HW213770   0.142   1.047   3.062
 4291SOL     OW13771   4.621   4.860   5.481
 4291SOL    HW113772   4.524   4.844   5.501
 4291SOL    HW213773   4.632   4.875   5.382
 4292SOL     OW13774   6.581   0.119   0.191
 4292SOL    HW113775   6.576   0.111   0.290
 4292SOL    HW213776   6.529   0.046   0.148
 4293SOL     OW13777   4.178   2.009   6.024
 4293SOL    HW113778   4.195   1.991   6.121
 4293SOL    HW213779   4.245   1.960   5.969
 4294SOL     OW13780   2.907   1.661   0.218
 4294SOL    HW113781   2.958   1.578   0.192
 4294SOL    HW213782   2.812   1.651   0.190
 4295SOL     OW13783   4.100   7.001   2.612
 4295SOL    HW113784   4.156   6.957   2.682
 4295SOL    HW213785   4.146   0.066   2.580
 4296SOL     OW13786   1.722   5.189   1.663
 4296SOL    HW113787   1.633   5.193   1.710
 4296SOL    HW213788   1.737   5.097   1.628
 4297SOL     OW13789   5.022   4.049   0.356
 4297SOL    HW113790   5.017   3.950   0.368
 4297SOL    HW213791   5.115   4.080   0.377
 4298SOL     OW13792   1.802   6.507   0.971
 4298SOL    HW113793   1.784   6.500   0.873
 4298SOL    HW213794   1.900   6.506   0.987
 4299SOL     OW13795   0.100   3.659   0.098
 4299SOL    HW113796   0.150   3.623   0.019
 4299SOL    HW213797   0.006   3.682   0.072
 4300SOL     OW13798   3.648   0.768   2.386
 4300SOL    HW113799   3.608   0.805   2.302
 4300SOL    HW213800   3.635   0.834   2.460
 4301SOL     OW13801   2.133   5.946   4.674
 4301SOL    HW113802   2.045   5.926   4.717
 4301SOL    HW213803   2.193   5.866   4.682
 4302SOL     OW13804   3.471   4.779   7.016
 4302SOL    HW113805   3.429   4.749   6.930
 4302SOL    HW213806   3.565   4.808   6.998
 4303SOL     OW13807   4.681   5.393   3.412
 4303SOL    HW113808   4.660   5.361   3.319
 4303SOL    HW213809   4.598   5.434   3.452
 4304SOL     OW13810   2.916   4.150   1.200
 4304SOL    HW113811   2.857   4.186   1.127
 4304SOL    HW213812   3.011   4.175   1.183
 4305SOL     OW13813   0.738   6.927   6.089
 4305SOL    HW113814   0.731   6.993   6.014
 4305SOL    HW213815   0.648   6.893   6.112
 4306SOL     OW13816   6.337   4.188   4.980
 4306SOL    HW113817   6.380   4.166   4.893
 4306SOL    HW213818   6.407   4.205   5.049
 4307SOL     OW13819   6.865   1.696   4.303
 4307SOL    HW113820   6.824   1.734   4.220
 4307SOL    HW213821   6.847   1.757   4.380
 4308SOL     OW13822   4.993   5.831   6.301
 4308SOL    HW113823   5.012   5.824   6.399
 4308SOL    HW213824   4.971   5.925   6.277
 4309SOL     OW13825   2.354   1.956   0.512
 4309SOL    HW113826   2.452   1.958   0.494
 4309SOL    HW213827   2.317   2.049   0.510
 4310SOL     OW13828   6.369   1.212   4.712
 4310SOL    HW113829   6.394   1.307   4.731
 4310SOL    HW213830   6.340   1.204   4.617
 4311SOL     OW13831   1.061   6.680   0.853
 4311SOL    HW113832   0.976   6.704   0.900
 4311SOL    HW213833   1.137   6.689   0.917
 4312SOL     OW13834   0.533   3.394   2.628
 4312SOL    HW113835   0.530   3.324   2.557
 4312SOL    HW213836   0.474   3.471   2.602
 4313SOL     OW13837   0.458   3.685   0.537
 4313SOL    HW113838   0.444   3.639   0.625
 4313SOL    HW213839   0.372   3.724   0.505
 4314SOL     OW13840   2.590   1.968   5.748
 4314SOL    HW113841   2.503   2.016   5.759
 4314SOL    HW213842   2.615   1.964   5.651
 4315SOL     OW13843   2.752   2.378   5.532
 4315SOL    HW113844   2.765   2.476   5.514
 4315SOL    HW213845   2.693   2.339   5.462
 4316SOL     OW13846   4.969   4.194   1.182
 4316SOL    HW113847   4.913   4.177   1.263
 4316SOL    HW213848   5.007   4.108   1.149
 4317SOL     OW13849   4.880   0.272   3.749
 4317SOL    HW113850   4.782   0.263   3.766
 4317SOL    HW213851   4.904   0.369   3.746
 4318SOL     OW13852   2.032   5.753   3.793
 4318SOL    HW113853   1.964   5.788   3.729
 4318SOL    HW213854   2.107   5.819   3.802
 4319SOL     OW13855   2.737   4.617   0.919
 4319SOL    HW113856   2.798   4.600   0.996
 4319SOL    HW213857   2.649   4.650   0.952
 4320SOL     OW13858   4.445   1.296   1.822
 4320SOL    HW113859   4.414   1.348   1.901
 4320SOL    HW213860   4.520   1.234   1.849
 4321SOL     OW13861   6.784   5.821   3.557
 4321SOL    HW113862   6.757   5.894   3.620
 4321SOL    HW213863   6.760   5.732   3.597
 4322SOL     OW13864   2.546   2.075   4.112
 4322SOL    HW113865   2.503   2.163   4.088
 4322SOL    HW213866   2.634   2.068   4.066
 4323SOL     OW13867   5.697   3.935   1.994
 4323SOL    HW113868   5.646   3.970   2.073
 4323SOL    HW213869   5.723   4.011   1.935
 4324SOL     OW13870   6.579   3.944   5.150
 4324SOL    HW113871   6.671   3.904   5.161
 4324SOL    HW213872   6.556   3.947   5.053
 4325SOL     OW13873   1.628   0.706   0.581
 4325SOL    HW113874   1.606   0.799   0.610
 4325SOL    HW213875   1.576   0.683   0.499
 4326SOL     OW13876   5.319   2.896   2.182
 4326SOL    HW113877   5.387   2.934   2.119
 4326SOL    HW213878   5.365   2.854   2.259
 4327SOL     OW13879   3.617   6.432   3.903
 4327SOL    HW113880   3.641   6.377   3.823
 4327SOL    HW213881   3.661   6.521   3.897
 4328SOL     OW13882   5.666   0.289   1.648
 4328SOL    HW113883   5.622   0.362   1.595
 4328SOL    HW213884   5.752   0.263   1.604
 4329SOL     OW13885   6.383   3.791   0.543
 4329SOL    HW113886   6.285   3.770   0.551
 4329SOL    HW213887   6.401   3.834   0.454
 4330SOL     OW13888   2.829   5.998   5.187
 4330SOL    HW113889   2.813   6.078   5.129
 4330SOL    HW213890   2.781   6.009   5.274
 4331SOL     OW13891   5.943   1.367   2.890
 4331SOL    HW113892   6.006   1.290   2.897
 4331SOL    HW213893   5.849   1.332   2.885
 4332SOL     OW13894   6.702   6.060   1.298
 4332SOL    HW113895   6.620   6.004   1.311
 4332SOL    HW213896   6.679   6.139   1.241
 4333SOL     OW13897   3.403   3.218   6.030
 4333SOL    HW113898   3.444   3.195   5.942
 4333SOL    HW213899   3.352   3.139   6.064
 4334SOL     OW13900   0.568   1.596   3.677
 4334SOL    HW113901   0.623   1.516   3.654
 4334SOL    HW213902   0.523   1.581   3.765
 4335SOL     OW13903   2.134   2.431   1.453
 4335SOL    HW113904   2.225   2.409   1.489
 4335SOL    HW213905   2.101   2.356   1.396
 4336SOL     OW13906   2.460   5.609   5.369
 4336SOL    HW113907   2.464   5.535   5.301
 4336SOL    HW213908   2.372   5.605   5.417
 4337SOL     OW13909   6.805   4.653   4.097
 4337SOL    HW113910   6.706   4.667   4.098
 4337SOL    HW213911   6.834   4.616   4.185
 4338SOL     OW13912   3.109   3.519   5.528
 4338SOL    HW113913   3.053   3.437   5.544
 4338SOL    HW213914   3.142   3.555   5.616
 4339SOL     OW13915   3.664   3.868   5.396
 4339SOL    HW113916   3.654   3.791   5.458
 4339SOL    HW213917   3.628   3.844   5.306
 4340SOL     OW13918   0.070   4.424   0.267
 4340SOL    HW113919   0.000   4.365   0.307
 4340SOL    HW213920   0.115   4.377   0.191
 4341SOL     OW13921   5.990   6.962   1.649
 4341SOL    HW113922   6.044   0.027   1.660
 4341SOL    HW213923   6.008   6.921   1.560
 4342SOL     OW13924   5.197   3.815   2.197
 4342SOL    HW113925   5.241   3.853   2.278
 4342SOL    HW213926   5.114   3.766   2.224
 4343SOL     OW13927   4.727   6.859   6.368
 4343SOL    HW113928   4.686   6.809   6.293
 4343SOL    HW213929   4.684   6.831   6.454
 4344SOL     OW13930   1.639   4.345   2.288
 4344SOL    HW113931   1.567   4.397   2.241
 4344SOL    HW213932   1.639   4.251   2.254
 4345SOL     OW13933   4.030   3.467   2.226
 4345SOL    HW113934   4.048   3.372   2.200
 4345SOL    HW213935   4.045   3.479   2.324
 4346SOL     OW13936   1.254   3.184   1.978
 4346SOL    HW113937   1.178   3.121   1.997
 4346SOL    HW213938   1.306   3.151   1.900
 4347SOL     OW13939   5.874   5.864   0.873
 4347SOL    HW113940   5.877   5.834   0.778
 4347SOL    HW213941   5.849   5.961   0.877
 4348SOL     OW13942   6.553   4.384   5.990
 4348SOL    HW113943   6.493   4.460   6.015
 4348SOL    HW213944   6.565   4.382   5.891
 4349SOL     OW13945   0.828   3.615   3.716
 4349SOL    HW113946   0.862   3.558   3.791
 4349SOL    HW213947   0.841   3.711   3.739
 4350SOL     OW13948   4.822   6.998   4.221
 4350SOL    HW113949   4.841   6.901   4.202
 4350SOL    HW213950   4.795   0.025   4.136
 4351SOL     OW13951   0.229   6.394   1.329
 4351SOL    HW113952   0.252   6.313   1.275
 4351SOL    HW213953   0.313   6.432   1.370
 4352SOL     OW13954   4.347   4.452   1.270
 4352SOL    HW113955   4.412   4.379   1.249
 4352SOL    HW213956   4.313   4.442   1.363
 4353SOL     OW13957   2.336   3.295   0.201
 4353SOL    HW113958   2.358   3.284   0.298
 4353SOL    HW213959   2.315   3.206   0.160
 4354SOL     OW13960   6.465   4.222   2.984
 4354SOL    HW113961   6.393   4.161   2.949
 4354SOL    HW213962   6.428   4.278   3.058
 4355SOL     OW13963   2.210   5.119   3.890
 4355SOL    HW113964   2.204   5.184   3.815
 4355SOL    HW213965   2.162   5.035   3.865
 4356SOL     OW13966   5.790   1.531   5.576
 4356SOL    HW113967   5.847   1.579   5.642
 4356SOL    HW213968   5.814   1.560   5.484
 4357SOL     OW13969   5.245   5.818   2.944
 4357SOL    HW113970   5.278   5.768   2.864
 4357SOL    HW213971   5.169   5.877   2.917
 4358SOL     OW13972   3.803   0.573   1.443
 4358SOL    HW113973   3.719   0.623   1.467
 4358SOL    HW213974   3.779   0.480   1.414
 4359SOL     OW13975   3.173   3.959   1.566
 4359SOL    HW113976   3.271   3.949   1.545
 4359SOL    HW213977   3.149   4.056   1.569
 4360SOL     OW13978   2.768   6.677   3.704
 4360SOL    HW113979   2.858   6.633   3.701
 4360SOL    HW213980   2.773   6.761   3.756
 4361SOL     OW13981   1.782   0.215   6.711
 4361SOL    HW113982   1.814   0.184   6.621
 4361SOL    HW213983   1.690   0.252   6.702
 4362SOL     OW13984   5.927   5.331   2.155
 4362SOL    HW113985   5.867   5.386   2.214
 4362SOL    HW213986   6.000   5.291   2.210
 4363SOL     OW13987   4.448   0.518   2.766
 4363SOL    HW113988   4.421   0.600   2.816
 4363SOL    HW213989   4.471   0.445   2.831
 4364SOL     OW13990   3.793   3.186   3.071
 4364SOL    HW113991   3.781   3.145   2.981
 4364SOL    HW213992   3.788   3.286   3.063
 4365SOL     OW13993   2.140   1.248   0.898
 4365SOL    HW113994   2.149   1.162   0.847
 4365SOL    HW213995   2.203   1.247   0.975
 4366SOL     OW13996   4.876   5.379   4.779
 4366SOL    HW113997   4.794   5.434   4.763
 4366SOL    HW213998   4.878   5.347   4.874
 4367SOL     OW13999   1.455   0.135   1.661
 4367SOL    HW114000   1.369   0.170   1.623
 4367SOL    HW214001   1.531   0.193   1.631
 4368SOL     OW14002   5.330   5.360   4.310
 4368SOL    HW114003   5.264   5.391   4.378
 4368SOL    HW214004   5.386   5.437   4.281
 4369SOL     OW14005   6.729   4.199   4.288
 4369SOL    HW114006   6.799   4.235   4.350
 4369SOL    HW214007   6.652   4.165   4.342
 4370SOL     OW14008   5.400   4.426   1.127
 4370SOL    HW114009   5.454   4.343   1.122
 4370SOL    HW214010   5.388   4.453   1.222
 4371SOL     OW14011   3.079   0.878   3.528
 4371SOL    HW114012   3.011   0.922   3.586
 4371SOL    HW214013   3.133   0.813   3.582
 4372SOL     OW14014   2.192   4.223   5.635
 4372SOL    HW114015   2.182   4.319   5.609
 4372SOL    HW214016   2.103   4.178   5.632
 4373SOL     OW14017   3.845   0.421   0.404
 4373SOL    HW114018   3.941   0.449   0.407
 4373SOL    HW214019   3.798   0.455   0.486
 4374SOL     OW14020   1.662   6.277   0.415
 4374SOL    HW114021   1.751   6.266   0.460
 4374SOL    HW214022   1.620   6.362   0.445
 4375SOL     OW14023   4.565   0.639   5.449
 4375SOL    HW114024   4.634   0.589   5.501
 4375SOL    HW214025   4.474   0.619   5.485
 4376SOL     OW14026   2.444   4.675   0.131
 4376SOL    HW114027   2.520   4.696   0.070
 4376SOL    HW214028   2.402   4.761   0.162
 4377SOL     OW14029   5.494   6.192   0.168
 4377SOL    HW114030   5.455   6.174   0.258
 4377SOL    HW214031   5.592   6.171   0.169
 4378SOL     OW14032   2.925   5.090   1.607
 4378SOL    HW114033   2.851   5.053   1.663
 4378SOL    HW214034   3.004   5.028   1.611
 4379SOL     OW14035   6.007   6.156   1.111
 4379SOL    HW114036   6.001   6.163   1.012
 4379SOL    HW214037   5.955   6.077   1.143
 4380SOL     OW14038   1.659   5.989   5.051
 4380SOL    HW114039   1.596   6.060   5.082
 4380SOL    HW214040   1.689   5.934   5.129
 4381SOL     OW14041   3.204   6.175   4.626
 4381SOL    HW114042   3.242   6.084   4.613
 4381SOL    HW214043   3.216   6.229   4.543
 4382SOL     OW14044   6.008   3.497   3.474
 4382SOL    HW114045   5.952   3.579   3.487
 4382SOL    HW214046   5.973   3.423   3.531
 4383SOL     OW14047   1.455   0.045   6.801
 4383SOL    HW114048   1.469   0.048   6.900
 4383SOL    HW214049   1.467   0.137   6.762
 4384SOL     OW14050   4.023   0.000   1.616
 4384SOL    HW114051   4.058   0.018   1.524
 4384SOL    HW214052   3.975   6.931   1.616
 4385SOL     OW14053   5.925   2.456   4.253
 4385SOL    HW114054   5.927   2.422   4.347
 4385SOL    HW214055   5.836   2.436   4.212
 4386SOL     OW14056   1.705   5.236   0.245
 4386SOL    HW114057   1.760   5.168   0.293
 4386SOL    HW214058   1.761   5.281   0.175
 4387SOL     OW14059   6.628   2.843   0.756
 4387SOL    HW114060   6.568   2.822   0.833
 4387SOL    HW214061   6.646   2.941   0.753
 4388SOL     OW14062   3.984   0.861   5.698
 4388SOL    HW114063   4.032   0.805   5.630
 4388SOL    HW214064   3.889   0.874   5.669
 4389SOL     OW14065   0.835   2.884   2.569
 4389SOL    HW114066   0.929   2.880   2.603
 4389SOL    HW214067   0.798   2.975   2.585
 4390SOL     OW14068   5.087   3.932   1.148
 4390SOL    HW114069   5.143   3.889   1.077
 4390SOL    HW214070   5.068   3.865   1.220
 4391SOL     OW14071   0.572   5.655   1.505
 4391SOL    HW114072   0.595   5.741   1.458
 4391SOL    HW214073   0.473   5.651   1.518
 4392SOL     OW14074   5.338   5.272   4.727
 4392SOL    HW114075   5.284   5.188   4.729
 4392SOL    HW214076   5.279   5.351   4.739
 4393SOL     OW14077   5.075   6.879   2.625
 4393SOL    HW114078   5.174   6.873   2.619
 4393SOL    HW214079   5.038   6.792   2.659
 4394SOL     OW14080   4.868   1.054   3.436
 4394SOL    HW114081   4.953   1.002   3.429
 4394SOL    HW214082   4.875   1.135   3.378
 4395SOL     OW14083   5.016   2.720   1.097
 4395SOL    HW114084   4.987   2.767   1.181
 4395SOL    HW214085   5.073   2.642   1.121
 4396SOL     OW14086   1.817   0.683   2.127
 4396SOL    HW114087   1.814   0.594   2.080
 4396SOL    HW214088   1.884   0.678   2.202
 4397SOL     OW14089   3.941   1.965   0.221
 4397SOL    HW114090   4.031   1.953   0.264
 4397SOL    HW214091   3.952   1.983   0.124
 4398SOL     OW14092   0.736   5.222   4.575
 4398SOL    HW114093   0.785   5.184   4.653
 4398SOL    HW214094   0.680   5.299   4.605
 4399SOL     OW14095   2.632   0.539   1.536
 4399SOL    HW114096   2.579   0.588   1.467
 4399SOL    HW214097   2.675   0.604   1.598
 4400SOL     OW14098   3.653   4.949   2.952
 4400SOL    HW114099   3.559   4.943   2.983
 4400SOL    HW214100   3.655   4.980   2.857
 4401SOL     OW14101   4.675   6.679   4.493
 4401SOL    HW114102   4.694   6.648   4.587
 4401SOL    HW214103   4.631   6.605   4.442
 4402SOL     OW14104   6.937   6.790   0.840
 4402SOL    HW114105   6.875   6.714   0.819
 4402SOL    HW214106   6.893   6.876   0.816
 4403SOL     OW14107   6.533   1.646   3.070
 4403SOL    HW114108   6.446   1.657   3.117
 4403SOL    HW214109   6.520   1.661   2.972
 4404SOL     OW14110   1.605   3.508   2.705
 4404SOL    HW114111   1.583   3.469   2.616
 4404SOL    HW214112   1.635   3.435   2.767
 4405SOL     OW14113   3.236   3.993   6.762
 4405SOL    HW114114   3.272   4.086   6.758
 4405SOL    HW214115   3.176   3.984   6.842
 4406SOL     OW14116   6.214   2.445   2.836
 4406SOL    HW114117   6.126   2.403   2.817
 4406SOL    HW214118   6.216   2.539   2.801
 4407SOL     OW14119   0.859   0.803   0.507
 4407SOL    HW114120   0.827   0.874   0.568
 4407SOL    HW214121   0.796   0.726   0.509
 4408SOL     OW14122   5.118   6.165   1.213
 4408SOL    HW114123   5.176   6.137   1.136
 4408SOL    HW214124   5.166   6.232   1.269
 4409SOL     OW14125   3.683   1.597   3.202
 4409SOL    HW114126   3.705   1.690   3.232
 4409SOL    HW214127   3.758   1.562   3.146
 4410SOL     OW14128   2.003   6.051   0.691
 4410SOL    HW114129   2.006   6.096   0.781
 4410SOL    HW214130   2.072   5.978   0.689
 4411SOL     OW14131   3.576   3.134   1.904
 4411SOL    HW114132   3.541   3.054   1.856
 4411SOL    HW214133   3.644   3.180   1.847
 4412SOL     OW14134   3.452   1.315   6.539
 4412SOL    HW114135   3.445   1.289   6.443
 4412SOL    HW214136   3.535   1.274   6.579
 4413SOL     OW14137   3.849   5.901   4.096
 4413SOL    HW114138   3.873   5.962   4.171
 4413SOL    HW214139   3.830   5.954   4.014
 4414SOL     OW14140   3.296   4.496   1.648
 4414SOL    HW114141   3.301   4.397   1.659
 4414SOL    HW214142   3.374   4.539   1.694
 4415SOL     OW14143   4.645   1.144   1.908
 4415SOL    HW114144   4.715   1.158   1.977
 4415SOL    HW214145   4.688   1.139   1.818
 4416SOL     OW14146   2.785   2.328   4.871
 4416SOL    HW114147   2.822   2.417   4.897
 4416SOL    HW214148   2.861   2.267   4.846
 4417SOL     OW14149   4.817   1.093   1.503
 4417SOL    HW114150   4.810   1.008   1.451
 4417SOL    HW214151   4.863   1.163   1.448
 4418SOL     OW14152   4.240   0.441   3.055
 4418SOL    HW114153   4.281   0.391   2.979
 4418SOL    HW214154   4.303   0.512   3.087
 4419SOL     OW14155   6.363   5.435   6.523
 4419SOL    HW114156   6.271   5.433   6.484
 4419SOL    HW214157   6.394   5.529   6.533
 4420SOL     OW14158   5.710   1.293   0.637
 4420SOL    HW114159   5.703   1.207   0.689
 4420SOL    HW214160   5.629   1.304   0.580
 4421SOL     OW14161   1.002   1.570   3.273
 4421SOL    HW114162   1.003   1.470   3.268
 4421SOL    HW214163   1.094   1.603   3.293
 4422SOL     OW14164   1.930   4.115   5.669
 4422SOL    HW114165   1.889   4.024   5.669
 4422SOL    HW214166   1.900   4.165   5.751
 4423SOL     OW14167   6.516   2.245   5.784
 4423SOL    HW114168   6.555   2.177   5.847
 4423SOL    HW214169   6.590   2.291   5.734
 4424SOL     OW14170   2.137   5.060   3.258
 4424SOL    HW114171   2.187   4.994   3.314
 4424SOL    HW214172   2.039   5.053   3.277
 4425SOL     OW14173   5.261   4.134   2.828
 4425SOL    HW114174   5.356   4.149   2.802
 4425SOL    HW214175   5.201   4.180   2.762
 4426SOL     OW14176   0.271   6.443   6.943
 4426SOL    HW114177   0.191   6.405   6.897
 4426SOL    HW214178   0.330   6.488   6.877
 4427SOL     OW14179   0.282   5.099   4.183
 4427SOL    HW114180   0.316   5.073   4.274
 4427SOL    HW214181   0.313   5.031   4.116
 4428SOL     OW14182   1.786   6.982   2.502
 4428SOL    HW114183   1.758   6.991   2.407
 4428SOL    HW214184   1.828   6.893   2.517
 4429SOL     OW14185   2.464   0.074   1.610
 4429SOL    HW114186   2.439   0.156   1.558
 4429SOL    HW214187   2.427   7.012   1.564
 4430SOL     OW14188   1.847   0.452   2.009
 4430SOL    HW114189   1.829   0.431   1.913
 4430SOL    HW214190   1.938   0.419   2.034
 4431SOL     OW14191   2.126   2.070   2.580
 4431SOL    HW114192   2.190   2.070   2.503
 4431SOL    HW214193   2.095   1.977   2.597
 4432SOL     OW14194   3.729   4.144   4.757
 4432SOL    HW114195   3.777   4.145   4.670
 4432SOL    HW214196   3.659   4.074   4.756
 4433SOL     OW14197   6.270   0.105   1.407
 4433SOL    HW114198   6.195   0.108   1.341
 4433SOL    HW214199   6.337   0.176   1.386
 4434SOL     OW14200   5.350   2.050   5.891
 4434SOL    HW114201   5.256   2.021   5.876
 4434SOL    HW214202   5.408   1.970   5.904
 4435SOL     OW14203   3.682   2.646   1.762
 4435SOL    HW114204   3.663   2.639   1.664
 4435SOL    HW214205   3.687   2.554   1.801
 4436SOL     OW14206   5.829   0.096   0.266
 4436SOL    HW114207   5.730   0.101   0.256
 4436SOL    HW214208   5.853   0.018   0.324
 4437SOL     OW14209   3.009   6.759   5.801
 4437SOL    HW114210   2.978   6.850   5.829
 4437SOL    HW214211   2.995   6.748   5.702
 4438SOL     OW14212   3.972   2.649   6.674
 4438SOL    HW114213   3.961   2.746   6.653
 4438SOL    HW214214   4.045   2.637   6.741
 4439SOL     OW14215   1.181   5.164   2.946
 4439SOL    HW114216   1.220   5.218   2.871
 4439SOL    HW214217   1.174   5.220   3.028
 4440SOL     OW14218   6.230   1.470   0.299
 4440SOL    HW114219   6.301   1.411   0.336
 4440SOL    HW214220   6.230   1.557   0.350
 4441SOL     OW14221   6.209   0.947   3.944
 4441SOL    HW114222   6.171   0.876   4.004
 4441SOL    HW214223   6.139   1.016   3.925
 4442SOL     OW14224   2.181   6.063   2.245
 4442SOL    HW114225   2.192   6.148   2.193
 4442SOL    HW214226   2.190   6.082   2.343
 4443SOL     OW14227   2.001   1.121   1.347
 4443SOL    HW114228   2.039   1.117   1.439
 4443SOL    HW214229   1.981   1.216   1.323
 4444SOL     OW14230   5.201   2.089   2.686
 4444SOL    HW114231   5.138   2.018   2.653
 4444SOL    HW214232   5.278   2.097   2.623
 4445SOL     OW14233   1.254   2.043   6.104
 4445SOL    HW114234   1.159   2.068   6.087
 4445SOL    HW214235   1.275   1.957   6.058
 4446SOL     OW14236   6.552   5.681   4.329
 4446SOL    HW114237   6.580   5.724   4.243
 4446SOL    HW214238   6.519   5.752   4.392
 4447SOL     OW14239   4.968   3.818   4.962
 4447SOL    HW114240   4.924   3.728   4.954
 4447SOL    HW214241   4.903   3.889   4.935
 4448SOL     OW14242   2.615   3.655   6.613
 4448SOL    HW114243   2.577   3.744   6.585
 4448SOL    HW214244   2.654   3.609   6.533
 4449SOL     OW14245   0.186   2.119   5.709
 4449SOL    HW114246   0.173   2.091   5.613
 4449SOL    HW214247   0.277   2.160   5.719
 4450SOL     OW14248   4.136   3.444   3.242
 4450SOL    HW114249   4.108   3.351   3.267
 4450SOL    HW214250   4.200   3.439   3.165
 4451SOL     OW14251   0.726   5.325   1.183
 4451SOL    HW114252   0.715   5.287   1.092
 4451SOL    HW214253   0.639   5.363   1.215
 4452SOL     OW14254   1.107   4.017   6.265
 4452SOL    HW114255   1.069   4.013   6.173
 4452SOL    HW214256   1.196   3.973   6.267
 4453SOL     OW14257   5.577   0.779   0.810
 4453SOL    HW114258   5.629   0.864   0.801
 4453SOL    HW214259   5.604   0.733   0.895
 4454SOL     OW14260   6.073   3.413   2.037
 4454SOL    HW114261   6.075   3.354   2.117
 4454SOL    HW214262   6.167   3.437   2.011
 4455SOL     OW14263   4.966   2.694   2.355
 4455SOL    HW114264   4.911   2.689   2.271
 4455SOL    HW214265   4.968   2.788   2.388
 4456SOL     OW14266   0.075   5.829   2.755
 4456SOL    HW114267   0.097   5.757   2.820
 4456SOL    HW214268   6.999   5.857   2.766
 4457SOL     OW14269   5.153   2.514   6.361
 4457SOL    HW114270   5.182   2.610   6.355
 4457SOL    HW214271   5.234   2.455   6.366
 4458SOL     OW14272   4.563   1.989   1.238
 4458SOL    HW114273   4.505   2.027   1.311
 4458SOL    HW214274   4.526   1.901   1.209
 4459SOL     OW14275   6.384   5.114   6.331
 4459SOL    HW114276   6.422   5.153   6.248
 4459SOL    HW214277   6.297   5.160   6.353
 4460SOL     OW14278   1.886   0.175   0.363
 4460SOL    HW114279   1.902   0.121   0.281
 4460SOL    HW214280   1.878   0.115   0.442
 4461SOL     OW14281   2.026   0.176   3.321
 4461SOL    HW114282   1.957   0.104   3.324
 4461SOL    HW214283   2.076   0.171   3.235
 4462SOL     OW14284   0.507   3.115   1.538
 4462SOL    HW114285   0.486   3.163   1.452
 4462SOL    HW214286   0.435   3.048   1.556
 4463SOL     OW14287   0.589   3.972   6.681
 4463SOL    HW114288   0.618   3.928   6.596
 4463SOL    HW214289   0.493   4.000   6.672
 4464SOL     OW14290   6.877   3.308   0.728
 4464SOL    HW114291   6.798   3.277   0.675
 4464SOL    HW214292   6.961   3.295   0.674
 4465SOL     OW14293   5.856   4.737   1.411
 4465SOL    HW114294   5.883   4.717   1.505
 4465SOL    HW214295   5.757   4.748   1.406
 4466SOL     OW14296   6.898   3.201   3.830
 4466SOL    HW114297   6.991   3.206   3.866
 4466SOL    HW214298   6.883   3.112   3.787
 4467SOL     OW14299   1.390   0.560   4.360
 4467SOL    HW114300   1.403   0.518   4.450
 4467SOL    HW214301   1.369   0.489   4.293
 4468SOL     OW14302   1.045   1.385   0.546
 4468SOL    HW114303   1.011   1.477   0.523
 4468SOL    HW214304   0.972   1.318   0.531
 4469SOL     OW14305   4.896   6.550   0.505
 4469SOL    HW114306   4.967   6.493   0.546
 4469SOL    HW214307   4.900   6.542   0.405
 4470SOL     OW14308   4.637   4.309   1.240
 4470SOL    HW114309   4.684   4.225   1.264
 4470SOL    HW214310   4.675   4.386   1.292
 4471SOL     OW14311   6.337   2.147   1.807
 4471SOL    HW114312   6.242   2.137   1.779
 4471SOL    HW214313   6.397   2.133   1.728
 4472SOL     OW14314   2.198   5.449   1.524
 4472SOL    HW114315   2.107   5.457   1.481
 4472SOL    HW214316   2.214   5.528   1.583
 4473SOL     OW14317   5.662   0.844   0.286
 4473SOL    HW114318   5.748   0.889   0.311
 4473SOL    HW214319   5.592   0.864   0.354
 4474SOL     OW14320   6.868   1.689   5.073
 4474SOL    HW114321   6.791   1.728   5.122
 4474SOL    HW214322   6.896   1.750   4.998
 4475SOL     OW14323   1.632   3.206   0.849
 4475SOL    HW114324   1.721   3.214   0.894
 4475SOL    HW214325   1.613   3.289   0.797
 4476SOL     OW14326   3.448   6.532   2.853
 4476SOL    HW114327   3.377   6.576   2.907
 4476SOL    HW214328   3.405   6.481   2.778
 4477SOL     OW14329   1.603   1.902   0.601
 4477SOL    HW114330   1.602   1.996   0.635
 4477SOL    HW214331   1.512   1.877   0.569
 4478SOL     OW14332   1.362   4.397   0.673
 4478SOL    HW114333   1.371   4.333   0.749
 4478SOL    HW214334   1.448   4.402   0.623
 4479SOL     OW14335   1.207   5.736   6.224
 4479SOL    HW114336   1.110   5.755   6.210
 4479SOL    HW214337   1.219   5.638   6.243
 4480SOL     OW14338   6.974   3.184   3.190
 4480SOL    HW114339   7.005   3.240   3.266
 4480SOL    HW214340   6.896   3.128   3.219
 4481SOL     OW14341   0.902   0.625   4.234
 4481SOL    HW114342   0.958   0.671   4.166
 4481SOL    HW214343   0.960   0.577   4.299
 4482SOL     OW14344   0.724   3.971   3.207
 4482SOL    HW114345   0.800   4.027   3.241
 4482SOL    HW214346   0.684   3.921   3.283
 4483SOL     OW14347   6.499   4.149   1.035
 4483SOL    HW114348   6.504   4.187   1.128
 4483SOL    HW214349   6.545   4.212   0.972
 4484SOL     OW14350   3.472   3.871   6.487
 4484SOL    HW114351   3.458   3.904   6.580
 4484SOL    HW214352   3.419   3.788   6.473
 4485SOL     OW14353   4.273   6.609   5.588
 4485SOL    HW114354   4.371   6.617   5.606
 4485SOL    HW214355   4.255   6.522   5.542
 4486SOL     OW14356   6.293   3.728   4.274
 4486SOL    HW114357   6.340   3.694   4.356
 4486SOL    HW214358   6.206   3.768   4.301
 4487SOL     OW14359   3.348   2.751   6.163
 4487SOL    HW114360   3.301   2.676   6.209
 4487SOL    HW214361   3.282   2.805   6.110
 4488SOL     OW14362   0.010   2.528   6.787
 4488SOL    HW114363   0.007   2.434   6.821
 4488SOL    HW214364   7.007   2.530   6.690
 4489SOL     OW14365   0.410   1.624   3.920
 4489SOL    HW114366   0.400   1.719   3.892
 4489SOL    HW214367   0.490   1.614   3.979
 4490SOL     OW14368   6.723   2.079   3.692
 4490SOL    HW114369   6.813   2.036   3.685
 4490SOL    HW214370   6.702   2.125   3.605
 4491SOL     OW14371   1.887   4.860   2.104
 4491SOL    HW114372   1.898   4.797   2.180
 4491SOL    HW214373   1.909   4.953   2.134
 4492SOL     OW14374   5.402   3.785   4.948
 4492SOL    HW114375   5.365   3.694   4.966
 4492SOL    HW214376   5.341   3.834   4.885
 4493SOL     OW14377   5.994   4.919   3.658
 4493SOL    HW114378   5.942   4.900   3.741
 4493SOL    HW214379   6.023   5.015   3.657
 4494SOL     OW14380   5.232   3.022   1.847
 4494SOL    HW114381   5.310   3.035   1.786
 4494SOL    HW214382   5.248   3.073   1.932
 4495SOL     OW14383   5.924   4.640   2.341
 4495SOL    HW114384   5.879   4.561   2.299
 4495SOL    HW214385   5.970   4.612   2.425
 4496SOL     OW14386   5.961   3.266   6.323
 4496SOL    HW114387   6.045   3.291   6.274
 4496SOL    HW214388   5.889   3.247   6.257
 4497SOL     OW14389   6.069   6.972   0.861
 4497SOL    HW114390   6.072   6.918   0.945
 4497SOL    HW214391   6.152   6.956   0.808
 4498SOL     OW14392   1.286   4.525   6.268
 4498SOL    HW114393   1.308   4.468   6.347
 4498SOL    HW214394   1.224   4.598   6.296
 4499SOL     OW14395   5.751   4.005   0.354
 4499SOL    HW114396   5.670   4.027   0.408
 4499SOL    HW214397   5.818   4.079   0.363
 4500SOL     OW14398   3.452   3.992   1.850
 4500SOL    HW114399   3.380   3.981   1.919
 4500SOL    HW214400   3.419   4.051   1.777
 4501SOL     OW14401   1.299   5.441   5.053
 4501SOL    HW114402   1.355   5.520   5.077
 4501SOL    HW214403   1.209   5.472   5.023
 4502SOL     OW14404   5.366   2.496   0.456
 4502SOL    HW114405   5.354   2.543   0.368
 4502SOL    HW214406   5.359   2.562   0.530
 4503SOL     OW14407   1.042   3.885   2.640
 4503SOL    HW114408   1.067   3.793   2.609
 4503SOL    HW214409   1.080   3.900   2.731
 4504SOL     OW14410   4.407   1.900   4.125
 4504SOL    HW114411   4.320   1.925   4.082
 4504SOL    HW214412   4.472   1.875   4.053
 4505SOL     OW14413   2.453   5.452   0.036
 4505SOL    HW114414   2.401   5.497   0.108
 4505SOL    HW214415   2.513   5.519   7.010
 4506SOL     OW14416   3.557   5.898   6.079
 4506SOL    HW114417   3.520   5.811   6.048
 4506SOL    HW214418   3.642   5.918   6.030
 4507SOL     OW14419   6.184   4.181   2.553
 4507SOL    HW114420   6.183   4.082   2.535
 4507SOL    HW214421   6.276   4.209   2.580
 4508SOL     OW14422   1.877   4.586   1.382
 4508SOL    HW114423   1.780   4.565   1.382
 4508SOL    HW214424   1.904   4.625   1.470
 4509SOL     OW14425   1.347   2.725   3.601
 4509SOL    HW114426   1.387   2.720   3.510
 4509SOL    HW214427   1.361   2.816   3.639
 4510SOL     OW14428   2.840   0.440   6.828
 4510SOL    HW114429   2.818   0.366   6.890
 4510SOL    HW214430   2.785   0.432   6.745
 4511SOL     OW14431   0.203   2.831   0.250
 4511SOL    HW114432   0.270   2.776   0.299
 4511SOL    HW214433   0.205   2.808   0.153
 4512SOL     OW14434   2.133   3.675   0.798
 4512SOL    HW114435   2.089   3.765   0.793
 4512SOL    HW214436   2.232   3.686   0.789
 4513SOL     OW14437   6.112   1.636   2.370
 4513SOL    HW114438   6.145   1.542   2.362
 4513SOL    HW214439   6.049   1.655   2.296
 4514SOL     OW14440   1.709   0.314   4.415
 4514SOL    HW114441   1.785   0.272   4.366
 4514SOL    HW214442   1.649   0.243   4.451
 4515SOL     OW14443   0.148   4.176   0.499
 4515SOL    HW114444   0.155   4.123   0.414
 4515SOL    HW214445   0.198   4.128   0.571
 4516SOL     OW14446   0.255   6.966   3.879
 4516SOL    HW114447   0.317   7.014   3.817
 4516SOL    HW214448   0.163   7.005   3.871
 4517SOL     OW14449   2.904   0.598   0.303
 4517SOL    HW114450   2.921   0.544   0.220
 4517SOL    HW214451   2.922   0.695   0.284
 4518SOL     OW14452   1.018   0.771   3.606
 4518SOL    HW114453   0.964   0.825   3.671
 4518SOL    HW214454   1.114   0.794   3.615
 4519SOL     OW14455   0.131   2.440   4.304
 4519SOL    HW114456   0.122   2.537   4.326
 4519SOL    HW214457   0.077   2.419   4.222
 4520SOL     OW14458   6.750   3.770   3.216
 4520SOL    HW114459   6.718   3.795   3.125
 4520SOL    HW214460   6.701   3.824   3.284
 4521SOL     OW14461   5.100   1.504   6.361
 4521SOL    HW114462   5.012   1.547   6.377
 4521SOL    HW214463   5.173   1.572   6.366
 4522SOL     OW14464   5.231   6.816   3.348
 4522SOL    HW114465   5.154   6.880   3.341
 4522SOL    HW214466   5.295   6.849   3.417
 4523SOL     OW14467   5.157   1.733   5.546
 4523SOL    HW114468   5.124   1.827   5.552
 4523SOL    HW214469   5.202   1.708   5.632
 4524SOL     OW14470   5.919   1.608   5.308
 4524SOL    HW114471   5.915   1.700   5.346
 4524SOL    HW214472   5.998   1.601   5.246
 4525SOL     OW14473   0.238   1.418   4.045
 4525SOL    HW114474   0.233   1.328   4.001
 4525SOL    HW214475   0.302   1.476   3.994
 4526SOL     OW14476   2.556   2.048   0.979
 4526SOL    HW114477   2.638   2.081   1.026
 4526SOL    HW214478   2.555   2.083   0.885
 4527SOL     OW14479   4.720   6.961   3.192
 4527SOL    HW114480   4.682   6.889   3.134
 4527SOL    HW214481   4.743   6.923   3.282
 4528SOL     OW14482   4.452   0.285   6.469
 4528SOL    HW114483   4.406   0.344   6.535
 4528SOL    HW214484   4.385   0.225   6.425
 4529SOL     OW14485   2.668   0.035   4.164
 4529SOL    HW114486   2.704   0.126   4.142
 4529SOL    HW214487   2.725   7.013   4.236
 4530SOL     OW14488   6.391   2.350   4.142
 4530SOL    HW114489   6.411   2.351   4.240
 4530SOL    HW214490   6.466   2.394   4.092
 4531SOL     OW14491   0.371   4.124   3.458
 4531SOL    HW114492   0.310   4.068   3.513
 4531SOL    HW214493   0.391   4.077   3.372
 4532SOL     OW14494   0.594   2.173   0.651
 4532SOL    HW114495   0.506   2.210   0.682
 4532SOL    HW214496   0.668   2.229   0.685
 4533SOL     OW14497   3.573   6.031   1.787
 4533SOL    HW114498   3.664   6.062   1.759
 4533SOL    HW214499   3.505   6.067   1.724
 4534SOL     OW14500   6.488   3.859   6.498
 4534SOL    HW114501   6.504   3.780   6.557
 4534SOL    HW214502   6.403   3.904   6.525
 4535SOL     OW14503   4.780   2.088   2.448
 4535SOL    HW114504   4.869   2.112   2.411
 4535SOL    HW214505   4.708   2.127   2.391
 4536SOL     OW14506   6.739   6.909   3.394
 4536SOL    HW114507   6.827   6.936   3.356
 4536SOL    HW214508   6.753   6.853   3.476
 4537SOL     OW14509   5.144   3.038   5.326
 4537SOL    HW114510   5.045   3.040   5.314
 4537SOL    HW214511   5.171   3.108   5.391
 4538SOL     OW14512   3.754   1.920   1.363
 4538SOL    HW114513   3.739   1.951   1.457
 4538SOL    HW214514   3.819   1.844   1.363
 4539SOL     OW14515   2.259   4.062   0.889
 4539SOL    HW114516   2.321   4.064   0.810
 4539SOL    HW214517   2.305   4.017   0.966
 4540SOL     OW14518   3.632   3.329   4.246
 4540SOL    HW114519   3.651   3.425   4.270
 4540SOL    HW214520   3.535   3.320   4.225
 4541SOL     OW14521   6.216   1.068   1.565
 4541SOL    HW114522   6.211   1.006   1.486
 4541SOL    HW214523   6.301   1.120   1.561
 4542SOL     OW14524   5.674   6.343   3.434
 4542SOL    HW114525   5.604   6.353   3.363
 4542SOL    HW214526   5.669   6.420   3.497
 4543SOL     OW14527   5.250   2.674   2.822
 4543SOL    HW114528   5.346   2.654   2.804
 4543SOL    HW214529   5.194   2.637   2.748
 4544SOL     OW14530   5.367   4.651   0.159
 4544SOL    HW114531   5.448   4.602   0.193
 4544SOL    HW214532   5.372   4.747   0.187
 4545SOL     OW14533   4.460   3.382   0.707
 4545SOL    HW114534   4.444   3.471   0.664
 4545SOL    HW214535   4.399   3.314   0.667
 4546SOL     OW14536   0.881   6.055   0.443
 4546SOL    HW114537   0.897   6.063   0.345
 4546SOL    HW214538   0.968   6.060   0.492
 4547SOL     OW14539   4.314   1.556   2.572
 4547SOL    HW114540   4.362   1.477   2.610
 4547SOL    HW214541   4.223   1.528   2.541
 4548SOL     OW14542   1.290   2.956   4.396
 4548SOL    HW114543   1.221   3.023   4.424
 4548SOL    HW214544   1.316   2.900   4.474
 4549SOL     OW14545   5.770   1.589   2.982
 4549SOL    HW114546   5.851   1.535   2.958
 4549SOL    HW214547   5.797   1.665   3.041
 4550SOL     OW14548   1.874   5.072   5.527
 4550SOL    HW114549   1.881   5.162   5.569
 4550SOL    HW214550   1.778   5.051   5.508
 4551SOL     OW14551   6.139   3.289   1.055
 4551SOL    HW114552   6.099   3.356   0.992
 4551SOL    HW214553   6.114   3.197   1.026
 4552SOL     OW14554   0.174   3.758   5.177
 4552SOL    HW114555   0.227   3.811   5.110
 4552SOL    HW214556   0.079   3.749   5.145
 4553SOL     OW14557   5.375   5.557   6.904
 4553SOL    HW114558   5.420   5.641   6.873
 4553SOL    HW214559   5.278   5.576   6.923
 4554SOL     OW14560   6.634   6.091   4.039
 4554SOL    HW114561   6.540   6.110   4.068
 4554SOL    HW214562   6.678   6.177   4.011
 4555SOL     OW14563   3.847   2.739   6.980
 4555SOL    HW114564   3.927   2.799   6.980
 4555SOL    HW214565   3.810   2.734   6.887
 4556SOL     OW14566   3.762   0.650   4.866
 4556SOL    HW114567   3.834   0.717   4.849
 4556SOL    HW214568   3.794   0.559   4.840
 4557SOL     OW14569   5.087   0.995   3.836
 4557SOL    HW114570   5.080   0.977   3.934
 4557SOL    HW214571   5.181   1.021   3.814
 4558SOL     OW14572   0.008   3.726   6.718
 4558SOL    HW114573   0.027   3.769   6.630
 4558SOL    HW214574   0.025   3.791   6.792
 4559SOL     OW14575   1.745   6.460   1.558
 4559SOL    HW114576   1.810   6.507   1.617
 4559SOL    HW214577   1.656   6.456   1.603
 4560SOL     OW14578   5.782   2.224   3.612
 4560SOL    HW114579   5.683   2.218   3.626
 4560SOL    HW214580   5.829   2.177   3.687
 4561SOL     OW14581   2.432   6.054   6.650
 4561SOL    HW114582   2.476   6.054   6.740
 4561SOL    HW214583   2.465   6.133   6.598
 4562SOL     OW14584   3.173   4.385   5.689
 4562SOL    HW114585   3.122   4.328   5.625
 4562SOL    HW214586   3.191   4.474   5.648
 4563SOL     OW14587   5.539   2.838   6.899
 4563SOL    HW114588   5.440   2.851   6.902
 4563SOL    HW214589   5.560   2.742   6.918
 4564SOL     OW14590   6.510   5.225   0.118
 4564SOL    HW114591   6.598   5.273   0.119
 4564SOL    HW214592   6.513   5.149   0.183
 4565SOL     OW14593   4.181   0.782   4.350
 4565SOL    HW114594   4.262   0.724   4.363
 4565SOL    HW214595   4.130   0.751   4.270
 4566SOL     OW14596   1.876   0.546   1.241
 4566SOL    HW114597   1.942   0.481   1.278
 4566SOL    HW214598   1.908   0.579   1.152
 4567SOL     OW14599   5.780   2.756   0.498
 4567SOL    HW114600   5.718   2.778   0.423
 4567SOL    HW214601   5.752   2.805   0.580
 4568SOL     OW14602   4.320   4.809   3.950
 4568SOL    HW114603   4.242   4.815   3.889
 4568SOL    HW214604   4.296   4.847   4.039
 4569SOL     OW14605   2.052   1.533   3.497
 4569SOL    HW114606   2.110   1.463   3.454
 4569SOL    HW214607   1.970   1.490   3.534
 4570SOL     OW14608   5.373   6.044   4.988
 4570SOL    HW114609   5.416   6.028   5.077
 4570SOL    HW214610   5.397   6.136   4.955
 4571SOL     OW14611   3.628   2.982   3.922
 4571SOL    HW114612   3.681   3.057   3.961
 4571SOL    HW214613   3.666   2.957   3.833
 4572SOL     OW14614   2.516   5.280   1.056
 4572SOL    HW114615   2.560   5.237   0.977
 4572SOL    HW214616   2.487   5.209   1.120
 4573SOL     OW14617   5.068   6.923   1.811
 4573SOL    HW114618   5.055   6.946   1.715
 4573SOL    HW214619   5.157   6.878   1.823
 4574SOL     OW14620   0.107   5.034   2.078
 4574SOL    HW114621   0.154   4.960   2.127
 4574SOL    HW214622   0.150   5.121   2.099
 4575SOL     OW14623   6.255   5.763   1.316
 4575SOL    HW114624   6.286   5.670   1.293
 4575SOL    HW214625   6.176   5.757   1.377
 4576SOL     OW14626   3.535   6.090   4.418
 4576SOL    HW114627   3.481   6.006   4.424
 4576SOL    HW214628   3.499   6.148   4.345
 4577SOL     OW14629   2.527   4.485   3.424
 4577SOL    HW114630   2.513   4.418   3.351
 4577SOL    HW214631   2.529   4.439   3.513
 4578SOL     OW14632   5.923   6.310   3.608
 4578SOL    HW114633   5.979   6.230   3.587
 4578SOL    HW214634   5.852   6.320   3.538
 4579SOL     OW14635   4.132   1.636   2.956
 4579SOL    HW114636   4.039   1.601   2.958
 4579SOL    HW214637   4.184   1.588   2.885
 4580SOL     OW14638   0.493   5.003   0.281
 4580SOL    HW114639   0.535   4.976   0.367
 4580SOL    HW214640   0.474   4.921   0.226
 4581SOL     OW14641   2.904   5.490   4.424
 4581SOL    HW114642   2.832   5.423   4.442
 4581SOL    HW214643   2.863   5.579   4.405
 4582SOL     OW14644   5.020   6.434   2.897
 4582SOL    HW114645   5.032   6.337   2.915
 4582SOL    HW214646   5.109   6.479   2.895
 4583SOL     OW14647   3.644   6.810   5.367
 4583SOL    HW114648   3.674   6.813   5.272
 4583SOL    HW214649   3.724   6.805   5.427
 4584SOL     OW14650   6.847   5.267   5.740
 4584SOL    HW114651   6.873   5.363   5.750
 4584SOL    HW214652   6.749   5.261   5.721
 4585SOL     OW14653   3.300   6.807   2.054
 4585SOL    HW114654   3.278   6.898   2.019
 4585SOL    HW214655   3.389   6.810   2.100
 4586SOL     OW14656   1.600   6.147   1.564
 4586SOL    HW114657   1.554   6.062   1.589
 4586SOL    HW214658   1.636   6.191   1.646
 4587SOL     OW14659   3.444   4.489   1.385
 4587SOL    HW114660   3.393   4.482   1.471
 4587SOL    HW214661   3.538   4.516   1.403
 4588SOL     OW14662   3.481   4.043   4.704
 4588SOL    HW114663   3.399   4.090   4.737
 4588SOL    HW214664   3.467   3.944   4.710
 4589SOL     OW14665   2.293   2.072   3.681
 4589SOL    HW114666   2.214   2.012   3.671
 4589SOL    HW214667   2.367   2.039   3.621
 4590SOL     OW14668   4.211   6.642   2.638
 4590SOL    HW114669   4.175   6.559   2.681
 4590SOL    HW214670   4.235   6.708   2.709
 4591SOL     OW14671   4.793   5.651   4.651
 4591SOL    HW114672   4.839   5.633   4.564
 4591SOL    HW214673   4.724   5.580   4.667
 4592SOL     OW14674   3.266   2.208   6.002
 4592SOL    HW114675   3.326   2.268   5.950
 4592SOL    HW214676   3.306   2.116   6.005
 4593SOL     OW14677   4.811   5.091   1.555
 4593SOL    HW114678   4.803   5.175   1.502
 4593SOL    HW214679   4.764   5.102   1.643
 4594SOL     OW14680   4.417   2.438   2.523
 4594SOL    HW114681   4.459   2.423   2.612
 4594SOL    HW214682   4.475   2.501   2.470
 4595SOL     OW14683   4.062   3.160   5.158
 4595SOL    HW114684   3.996   3.190   5.227
 4595SOL    HW214685   4.152   3.195   5.181
 4596SOL     OW14686   4.543   1.303   2.218
 4596SOL    HW114687   4.548   1.372   2.146
 4596SOL    HW214688   4.533   1.213   2.178
 4597SOL     OW14689   0.044   3.489   6.516
 4597SOL    HW114690   0.024   3.587   6.508
 4597SOL    HW214691   6.977   3.438   6.512
 4598SOL     OW14692   2.531   3.909   0.082
 4598SOL    HW114693   2.456   3.844   0.070
 4598SOL    HW214694   2.546   3.958   7.015
 4599SOL     OW14695   3.245   4.571   0.784
 4599SOL    HW114696   3.209   4.642   0.723
 4599SOL    HW214697   3.312   4.611   0.846
 4600SOL     OW14698   2.450   3.506   0.862
 4600SOL    HW114699   2.437   3.446   0.941
 4600SOL    HW214700   2.435   3.453   0.778
 4601SOL     OW14701   1.850   5.347   3.333
 4601SOL    HW114702   1.871   5.370   3.428
 4601SOL    HW214703   1.840   5.247   3.325
 4602SOL     OW14704   1.265   0.280   1.543
 4602SOL    HW114705   1.183   0.316   1.588
 4602SOL    HW214706   1.295   0.344   1.473
 4603SOL     OW14707   2.682   1.690   1.157
 4603SOL    HW114708   2.601   1.682   1.098
 4603SOL    HW214709   2.762   1.652   1.110
 4604SOL     OW14710   1.243   6.525   3.069
 4604SOL    HW114711   1.165   6.530   3.006
 4604SOL    HW214712   1.210   6.503   3.161
 4605SOL     OW14713   5.357   6.605   5.674
 4605SOL    HW114714   5.443   6.639   5.712
 4605SOL    HW214715   5.289   6.678   5.678
 4606SOL     OW14716   5.846   6.104   4.846
 4606SOL    HW114717   5.808   6.108   4.753
 4606SOL    HW214718   5.781   6.146   4.910
 4607SOL     OW14719   2.952   3.205   0.571
 4607SOL    HW114720   2.918   3.119   0.532
 4607SOL    HW214721   3.046   3.193   0.601
 4608SOL     OW14722   1.837   3.458   6.045
 4608SOL    HW114723   1.739   3.460   6.064
 4608SOL    HW214724   1.879   3.384   6.097
 4609SOL     OW14725   3.386   0.079   0.345
 4609SOL    HW114726   3.349   0.050   0.257
 4609SOL    HW214727   3.460   0.144   0.330
 4610SOL     OW14728   6.477   3.590   0.710
 4610SOL    HW114729   6.450   3.667   0.651
 4610SOL    HW214730   6.537   3.624   0.782
 4611SOL     OW14731   1.427   4.815   5.950
 4611SOL    HW114732   1.513   4.816   6.002
 4611SOL    HW214733   1.447   4.810   5.852
 4612SOL     OW14734   1.451   0.458   6.490
 4612SOL    HW114735   1.386   0.521   6.533
 4612SOL    HW214736   1.461   0.482   6.393
 4613SOL     OW14737   4.031   4.809   1.444
 4613SOL    HW114738   4.039   4.882   1.376
 4613SOL    HW214739   4.122   4.779   1.472
 4614SOL     OW14740   1.897   4.241   0.638
 4614SOL    HW114741   1.910   4.334   0.602
 4614SOL    HW214742   1.973   4.184   0.608
 4615SOL     OW14743   5.986   2.852   6.563
 4615SOL    HW114744   5.915   2.889   6.623
 4615SOL    HW214745   6.073   2.850   6.611
 4616SOL     OW14746   5.221   0.619   6.585
 4616SOL    HW114747   5.209   0.520   6.580
 4616SOL    HW214748   5.296   0.646   6.525
 4617SOL     OW14749   0.689   4.205   1.816
 4617SOL    HW114750   0.749   4.177   1.891
 4617SOL    HW214751   0.703   4.302   1.797
 4618SOL     OW14752   1.393   2.747   6.206
 4618SOL    HW114753   1.401   2.660   6.157
 4618SOL    HW214754   1.476   2.764   6.259
 4619SOL     OW14755   3.896   0.963   3.937
 4619SOL    HW114756   3.907   0.917   3.849
 4619SOL    HW214757   3.946   1.050   3.936
 4620SOL     OW14758   1.720   5.921   0.644
 4620SOL    HW114759   1.621   5.930   0.654
 4620SOL    HW214760   1.766   5.951   0.728
 4621SOL     OW14761   6.591   1.046   0.200
 4621SOL    HW114762   6.633   1.133   0.223
 4621SOL    HW214763   6.570   1.044   0.102
 4622SOL     OW14764   1.654   4.637   0.520
 4622SOL    HW114765   1.569   4.673   0.483
 4622SOL    HW214766   1.634   4.564   0.585
 4623SOL     OW14767   6.485   3.336   3.965
 4623SOL    HW114768   6.404   3.309   4.016
 4623SOL    HW214769   6.557   3.267   3.979
 4624SOL     OW14770   4.476   6.347   5.624
 4624SOL    HW114771   4.388   6.352   5.578
 4624SOL    HW214772   4.530   6.271   5.587
 4625SOL     OW14773   0.736   4.206   6.056
 4625SOL    HW114774   0.733   4.287   5.997
 4625SOL    HW214775   0.647   4.194   6.101
 4626SOL     OW14776   6.770   4.887   2.281
 4626SOL    HW114777   6.784   4.983   2.304
 4626SOL    HW214778   6.777   4.874   2.182
 4627SOL     OW14779   2.273   6.757   4.580
 4627SOL    HW114780   2.248   6.724   4.490
 4627SOL    HW214781   2.366   6.793   4.578
 4628SOL     OW14782   6.298   2.456   1.787
 4628SOL    HW114783   6.265   2.362   1.774
 4628SOL    HW214784   6.366   2.458   1.860
 4629SOL     OW14785   4.526   5.500   3.798
 4629SOL    HW114786   4.573   5.438   3.734
 4629SOL    HW214787   4.474   5.446   3.864
 4630SOL     OW14788   2.956   6.039   3.000
 4630SOL    HW114789   2.959   5.939   3.007
 4630SOL    HW214790   3.028   6.079   3.056
 4631SOL     OW14791   1.707   0.604   2.656
 4631SOL    HW114792   1.752   0.678   2.607
 4631SOL    HW214793   1.673   0.638   2.744
 4632SOL     OW14794   5.811   6.018   4.578
 4632SOL    HW114795   5.778   6.077   4.504
 4632SOL    HW214796   5.910   6.005   4.570
 4633SOL     OW14797   4.907   3.213   6.238
 4633SOL    HW114798   4.910   3.213   6.138
 4633SOL    HW214799   4.815   3.237   6.269
 4634SOL     OW14800   2.570   3.595   0.407
 4634SOL    HW114801   2.566   3.695   0.401
 4634SOL    HW214802   2.478   3.558   0.416
 4635SOL     OW14803   4.870   3.203   1.472
 4635SOL    HW114804   4.836   3.130   1.532
 4635SOL    HW214805   4.795   3.241   1.418
 4636SOL     OW14806   1.268   5.305   1.879
 4636SOL    HW114807   1.272   5.394   1.832
 4636SOL    HW214808   1.207   5.244   1.829
 4637SOL     OW14809   0.368   0.850   5.477
 4637SOL    HW114810   0.468   0.861   5.479
 4637SOL    HW214811   0.334   0.841   5.571
 4638SOL     OW14812   4.511   5.099   5.670
 4638SOL    HW114813   4.491   5.132   5.763
 4638SOL    HW214814   4.430   5.109   5.613
 4639SOL     OW14815   6.534   2.484   5.189
 4639SOL    HW114816   6.577   2.506   5.102
 4639SOL    HW214817   6.500   2.568   5.232
 4640SOL     OW14818   0.298   5.986   3.241
 4640SOL    HW114819   0.253   6.062   3.195
 4640SOL    HW214820   0.268   5.981   3.336
 4641SOL     OW14821   2.202   3.846   5.216
 4641SOL    HW114822   2.132   3.908   5.180
 4641SOL    HW214823   2.292   3.889   5.209
 4642SOL     OW14824   5.927   5.294   4.680
 4642SOL    HW114825   5.983   5.359   4.629
 4642SOL    HW214826   5.911   5.213   4.623
 4643SOL     OW14827   4.467   3.863   1.099
 4643SOL    HW114828   4.497   3.772   1.124
 4643SOL    HW214829   4.527   3.900   1.028
 4644SOL     OW14830   3.421   5.164   5.551
 4644SOL    HW114831   3.360   5.107   5.495
 4644SOL    HW214832   3.468   5.107   5.618
 4645SOL     OW14833   1.806   5.942   4.817
 4645SOL    HW114834   1.795   5.943   4.916
 4645SOL    HW214835   1.753   6.016   4.776
 4646SOL     OW14836   3.385   1.410   1.056
 4646SOL    HW114837   3.308   1.460   1.096
 4646SOL    HW214838   3.361   1.313   1.047
 4647SOL     OW14839   6.313   0.519   5.474
 4647SOL    HW114840   6.401   0.526   5.427
 4647SOL    HW214841   6.250   0.588   5.439
 4648SOL     OW14842   2.431   6.439   3.380
 4648SOL    HW114843   2.454   6.487   3.465
 4648SOL    HW214844   2.474   6.349   3.380
 4649SOL     OW14845   5.721   4.752   6.191
 4649SOL    HW114846   5.624   4.765   6.207
 4649SOL    HW214847   5.773   4.826   6.232
 4650SOL     OW14848   6.301   4.599   1.778
 4650SOL    HW114849   6.295   4.610   1.877
 4650SOL    HW214850   6.283   4.504   1.754
 4651SOL     OW14851   6.420   1.441   1.104
 4651SOL    HW114852   6.497   1.447   1.169
 4651SOL    HW214853   6.440   1.370   1.037
 4652SOL     OW14854   0.233   6.569   5.824
 4652SOL    HW114855   0.319   6.555   5.776
 4652SOL    HW214856   0.165   6.505   5.789
 4653SOL     OW14857   1.605   4.836   0.058
 4653SOL    HW114858   1.683   4.828   0.120
 4653SOL    HW214859   1.600   4.754   0.000
 4654SOL     OW14860   1.486   1.163   0.381
 4654SOL    HW114861   1.396   1.181   0.421
 4654SOL    HW214862   1.523   1.248   0.344
 4655SOL     OW14863   0.137   4.916   4.645
 4655SOL    HW114864   0.155   4.930   4.742
 4655SOL    HW214865   0.159   4.821   4.620
 4656SOL     OW14866   2.545   0.409   2.468
 4656SOL    HW114867   2.554   0.349   2.548
 4656SOL    HW214868   2.452   0.445   2.464
 4657SOL     OW14869   6.412   1.093   5.408
 4657SOL    HW114870   6.448   1.183   5.385
 4657SOL    HW214871   6.441   1.027   5.338
 4658SOL     OW14872   5.371   6.873   3.629
 4658SOL    HW114873   5.471   6.863   3.629
 4658SOL    HW214874   5.346   6.959   3.671
 4659SOL     OW14875   2.202   3.042   3.436
 4659SOL    HW114876   2.188   3.136   3.405
 4659SOL    HW214877   2.201   3.039   3.536
 4660SOL     OW14878   6.821   1.418   4.992
 4660SOL    HW114879   6.843   1.507   5.032
 4660SOL    HW214880   6.877   1.404   4.910
 4661SOL     OW14881   3.394   3.246   3.804
 4661SOL    HW114882   3.400   3.154   3.766
 4661SOL    HW214883   3.465   3.304   3.763
 4662SOL     OW14884   6.353   6.651   4.643
 4662SOL    HW114885   6.404   6.734   4.619
 4662SOL    HW214886   6.363   6.633   4.741
 4663SOL     OW14887   0.563   1.896   2.731
 4663SOL    HW114888   0.497   1.858   2.667
 4663SOL    HW214889   0.638   1.830   2.743
 4664SOL     OW14890   3.211   5.031   0.231
 4664SOL    HW114891   3.204   4.948   0.176
 4664SOL    HW214892   3.221   5.006   0.327
 4665SOL     OW14893   5.966   0.924   6.491
 4665SOL    HW114894   5.931   0.940   6.398
 4665SOL    HW214895   6.001   0.830   6.498
 4666SOL     OW14896   1.711   0.978   0.819
 4666SOL    HW114897   1.693   1.076   0.831
 4666SOL    HW214898   1.775   0.965   0.744
 4667SOL     OW14899   0.286   6.044   4.085
 4667SOL    HW114900   0.275   5.978   4.158
 4667SOL    HW214901   0.381   6.074   4.081
 4668SOL     OW14902   5.925   1.102   4.948
 4668SOL    HW114903   5.837   1.107   4.901
 4668SOL    HW214904   5.969   1.192   4.946
 4669SOL     OW14905   2.243   2.120   2.087
 4669SOL    HW114906   2.158   2.131   2.036
 4669SOL    HW214907   2.302   2.054   2.041
 4670SOL     OW14908   2.789   2.027   4.702
 4670SOL    HW114909   2.879   2.071   4.697
 4670SOL    HW214910   2.796   1.933   4.670
 4671SOL     OW14911   6.404   2.354   2.688
 4671SOL    HW114912   6.488   2.397   2.721
 4671SOL    HW214913   6.327   2.380   2.746
 4672SOL     OW14914   2.943   2.378   5.274
 4672SOL    HW114915   2.867   2.417   5.222
 4672SOL    HW214916   3.009   2.336   5.211
 4673SOL     OW14917   5.465   0.864   2.307
 4673SOL    HW114918   5.427   0.777   2.338
 4673SOL    HW214919   5.392   0.921   2.269
 4674SOL     OW14920   4.308   0.027   5.530
 4674SOL    HW114921   4.350   0.071   5.610
 4674SOL    HW214922   4.304   0.093   5.455
 4675SOL     OW14923   0.625   4.056   5.748
 4675SOL    HW114924   0.696   4.007   5.697
 4675SOL    HW214925   0.661   4.145   5.778
 4676SOL     OW14926   1.347   4.258   3.831
 4676SOL    HW114927   1.272   4.201   3.795
 4676SOL    HW214928   1.331   4.353   3.805
 4677SOL     OW14929   1.327   3.494   1.123
 4677SOL    HW114930   1.361   3.572   1.176
 4677SOL    HW214931   1.382   3.482   1.041
 4678SOL     OW14932   1.498   1.942   1.028
 4678SOL    HW114933   1.434   1.933   0.952
 4678SOL    HW214934   1.517   1.851   1.067
 4679SOL     OW14935   4.469   0.212   1.964
 4679SOL    HW114936   4.471   0.207   2.064
 4679SOL    HW214937   4.562   0.203   1.929
 4680SOL     OW14938   3.023   1.000   6.779
 4680SOL    HW114939   2.952   0.983   6.710
 4680SOL    HW214940   2.995   1.076   6.838
 4681SOL     OW14941   4.953   5.257   2.117
 4681SOL    HW114942   4.988   5.166   2.140
 4681SOL    HW214943   4.887   5.249   2.042
 4682SOL     OW14944   3.729   3.209   6.596
 4682SOL    HW114945   3.703   3.180   6.688
 4682SOL    HW214946   3.805   3.274   6.601
 4683SOL     OW14947   6.938   3.791   4.049
 4683SOL    HW114948   6.854   3.737   4.044
 4683SOL    HW214949   6.963   3.804   4.145
 4684SOL     OW14950   4.952   0.452   5.737
 4684SOL    HW114951   5.019   0.402   5.682
 4684SOL    HW214952   4.996   0.534   5.776
 4685SOL     OW14953   2.944   3.803   4.309
 4685SOL    HW114954   2.979   3.726   4.257
 4685SOL    HW214955   2.846   3.790   4.325
 4686SOL     OW14956   1.463   6.598   6.246
 4686SOL    HW114957   1.543   6.649   6.277
 4686SOL    HW214958   1.391   6.662   6.219
 4687SOL     OW14959   1.379   6.918   2.329
 4687SOL    HW114960   1.329   6.978   2.266
 4687SOL    HW214961   1.344   6.931   2.422
 4688SOL     OW14962   4.961   2.577   4.429
 4688SOL    HW114963   5.039   2.638   4.439
 4688SOL    HW214964   4.993   2.486   4.403
 4689SOL     OW14965   6.925   1.139   1.374
 4689SOL    HW114966   0.003   1.146   1.351
 4689SOL    HW214967   6.889   1.052   1.342
 4690SOL     OW14968   3.628   2.078   1.073
 4690SOL    HW114969   3.620   2.002   1.138
 4690SOL    HW214970   3.553   2.074   1.007
 4691SOL     OW14971   6.148   2.663   1.734
 4691SOL    HW114972   6.199   2.584   1.699
 4691SOL    HW214973   6.054   2.659   1.700
 4692SOL     OW14974   6.351   2.581   3.055
 4692SOL    HW114975   6.336   2.651   2.986
 4692SOL    HW214976   6.327   2.491   3.017
 4693SOL     OW14977   0.012   0.050   3.798
 4693SOL    HW114978   7.000   6.979   3.829
 4693SOL    HW214979   6.953   0.112   3.791
 4694SOL     OW14980   1.801   6.671   5.897
 4694SOL    HW114981   1.735   6.738   5.862
 4694SOL    HW214982   1.888   6.684   5.849
 4695SOL     OW14983   1.742   4.607   1.952
 4695SOL    HW114984   1.673   4.659   1.901
 4695SOL    HW214985   1.830   4.655   1.949
 4696SOL     OW14986   2.288   6.190   6.070
 4696SOL    HW114987   2.204   6.152   6.109
 4696SOL    HW214988   2.270   6.217   5.975
 4697SOL     OW14989   4.362   6.004   1.237
 4697SOL    HW114990   4.323   5.920   1.274
 4697SOL    HW214991   4.426   5.982   1.164
 4698SOL     OW14992   5.769   1.499   4.619
 4698SOL    HW114993   5.845   1.533   4.674
 4698SOL    HW214994   5.696   1.466   4.679
 4699SOL     OW14995   0.888   1.677   3.057
 4699SOL    HW114996   0.887   1.590   3.007
 4699SOL    HW214997   0.922   1.662   3.150
 4700SOL     OW14998   6.446   2.071   3.804
 4700SOL    HW114999   6.540   2.069   3.771
 4700SOL    HW215000   6.409   2.164   3.794
 4701SOL     OW15001   2.515   2.671   1.793
 4701SOL    HW115002   2.582   2.606   1.829
 4701SOL    HW215003   2.550   2.764   1.804
 4702SOL     OW15004   6.078   4.834   1.270
 4702SOL    HW115005   6.117   4.910   1.322
 4702SOL    HW215006   5.988   4.812   1.308
 4703SOL     OW15007   6.824   5.230   4.383
 4703SOL    HW115008   6.888   5.162   4.348
 4703SOL    HW215009   6.743   5.185   4.420
 4704SOL     OW15010   1.580   4.768   3.966
 4704SOL    HW115011   1.515   4.737   3.897
 4704SOL    HW215012   1.670   4.778   3.924
 4705SOL     OW15013   3.184   2.354   1.134
 4705SOL    HW115014   3.140   2.289   1.073
 4705SOL    HW215015   3.238   2.305   1.202
 4706SOL     OW15016   2.133   1.733   1.066
 4706SOL    HW115017   2.039   1.767   1.068
 4706SOL    HW215018   2.185   1.773   1.141
 4707SOL     OW15019   2.174   5.793   2.150
 4707SOL    HW115020   2.187   5.885   2.189
 4707SOL    HW215021   2.182   5.725   2.222
 4708SOL     OW15022   1.723   2.715   6.864
 4708SOL    HW115023   1.677   2.761   6.940
 4708SOL    HW215024   1.821   2.705   6.885
 4709SOL     OW15025   6.178   3.575   4.576
 4709SOL    HW115026   6.101   3.560   4.514
 4709SOL    HW215027   6.143   3.602   4.666
 4710SOL     OW15028   6.263   4.725   5.629
 4710SOL    HW115029   6.165   4.729   5.649
 4710SOL    HW215030   6.281   4.770   5.541
 4711SOL     OW15031   4.767   4.226   2.831
 4711SOL    HW115032   4.716   4.265   2.755
 4711SOL    HW215033   4.783   4.129   2.815
 4712SOL     OW15034   4.375   5.155   5.930
 4712SOL    HW115035   4.290   5.179   5.883
 4712SOL    HW215036   4.359   5.076   5.989
 4713SOL     OW15037   5.748   4.434   1.650
 4713SOL    HW115038   5.690   4.443   1.569
 4713SOL    HW215039   5.728   4.510   1.712
 4714SOL     OW15040   4.810   2.326   5.710
 4714SOL    HW115041   4.804   2.272   5.794
 4714SOL    HW215042   4.843   2.418   5.732
 4715SOL     OW15043   0.356   1.380   1.866
 4715SOL    HW115044   0.390   1.323   1.941
 4715SOL    HW215045   0.401   1.353   1.780
 4716SOL     OW15046   3.916   4.553   5.343
 4716SOL    HW115047   3.906   4.563   5.442
 4716SOL    HW215048   3.875   4.467   5.313
 4717SOL     OW15049   1.411   4.407   6.030
 4717SOL    HW115050   1.500   4.444   6.001
 4717SOL    HW215051   1.372   4.466   6.100
 4718SOL     OW15052   4.968   3.688   2.288
 4718SOL    HW115053   4.933   3.717   2.199
 4718SOL    HW215054   4.959   3.589   2.297
 4719SOL     OW15055   5.630   3.903   3.663
 4719SOL    HW115056   5.663   3.814   3.695
 4719SOL    HW215057   5.532   3.895   3.641
 4720SOL     OW15058   1.060   1.661   6.056
 4720SOL    HW115059   1.007   1.741   6.027
 4720SOL    HW215060   1.067   1.597   5.980
 4721SOL     OW15061   0.290   2.560   2.803
 4721SOL    HW115062   0.272   2.658   2.795
 4721SOL    HW215063   0.224   2.520   2.867
 4722SOL     OW15064   1.521   5.315   5.752
 4722SOL    HW115065   1.592   5.332   5.820
 4722SOL    HW215066   1.458   5.393   5.750
 4723SOL     OW15067   3.434   4.543   5.996
 4723SOL    HW115068   3.467   4.625   6.042
 4723SOL    HW215069   3.406   4.475   6.065
 4724SOL     OW15070   0.442   0.517   4.311
 4724SOL    HW115071   0.351   0.495   4.346
 4724SOL    HW215072   0.446   0.613   4.285
 4725SOL     OW15073   5.504   5.678   1.167
 4725SOL    HW115074   5.535   5.630   1.249
 4725SOL    HW215075   5.572   5.746   1.141
 4726SOL     OW15076   1.799   2.520   6.022
 4726SOL    HW115077   1.854   2.591   6.067
 4726SOL    HW215078   1.766   2.456   6.091
 4727SOL     OW15079   6.364   5.278   2.083
 4727SOL    HW115080   6.311   5.222   2.019
 4727SOL    HW215081   6.461   5.274   2.058
 4728SOL     OW15082   4.357   1.061   3.280
 4728SOL    HW115083   4.304   0.979   3.300
 4728SOL    HW215084   4.442   1.060   3.333
 4729SOL     OW15085   0.621   0.891   3.139
 4729SOL    HW115086   0.575   0.939   3.214
 4729SOL    HW215087   0.555   0.872   3.067
 4730SOL     OW15088   2.754   1.124   3.101
 4730SOL    HW115089   2.719   1.126   3.007
 4730SOL    HW215090   2.830   1.188   3.109
 4731SOL     OW15091   3.665   6.695   2.852
 4731SOL    HW115092   3.578   6.647   2.858
 4731SOL    HW215093   3.653   6.791   2.878
 4732SOL     OW15094   0.320   4.797   4.315
 4732SOL    HW115095   0.271   4.882   4.330
 4732SOL    HW215096   0.255   4.723   4.298
 4733SOL     OW15097   2.172   4.058   3.173
 4733SOL    HW115098   2.218   4.053   3.084
 4733SOL    HW215099   2.190   3.974   3.224
 4734SOL     OW15100   4.536   4.692   6.210
 4734SOL    HW115101   4.476   4.647   6.145
 4734SOL    HW215102   4.521   4.791   6.206
 4735SOL     OW15103   6.930   1.011   5.381
 4735SOL    HW115104   6.936   1.078   5.455
 4735SOL    HW215105   6.968   1.051   5.297
 4736SOL     OW15106   6.167   0.138   4.629
 4736SOL    HW115107   6.126   0.184   4.708
 4736SOL    HW215108   6.134   0.180   4.545
 4737SOL     OW15109   1.911   5.057   0.316
 4737SOL    HW115110   1.934   5.076   0.412
 4737SOL    HW215111   1.888   4.960   0.307
 4738SOL     OW15112   0.291   5.971   3.837
 4738SOL    HW115113   0.267   6.043   3.772
 4738SOL    HW215114   0.289   6.008   3.930
 4739SOL     OW15115   6.038   3.663   3.100
 4739SOL    HW115116   6.087   3.618   3.174
 4739SOL    HW215117   5.986   3.740   3.136
 4740SOL     OW15118   1.780   6.507   0.715
 4740SOL    HW115119   1.722   6.438   0.670
 4740SOL    HW215120   1.779   6.592   0.662
 4741SOL     OW15121   5.611   4.470   2.272
 4741SOL    HW115122   5.622   4.410   2.192
 4741SOL    HW215123   5.666   4.436   2.348
 4742SOL     OW15124   2.317   5.680   1.957
 4742SOL    HW115125   2.256   5.712   2.030
 4742SOL    HW215126   2.356   5.592   1.983
 4743SOL     OW15127   2.717   3.302   0.457
 4743SOL    HW115128   2.750   3.362   0.384
 4743SOL    HW215129   2.796   3.263   0.506
 4744SOL     OW15130   2.941   1.649   5.650
 4744SOL    HW115131   2.844   1.632   5.630
 4744SOL    HW215132   2.991   1.662   5.564
 4745SOL     OW15133   4.454   5.963   4.327
 4745SOL    HW115134   4.475   5.974   4.424
 4745SOL    HW215135   4.480   5.871   4.298
 4746SOL     OW15136   5.769   1.499   0.809
 4746SOL    HW115137   5.727   1.452   0.731
 4746SOL    HW215138   5.703   1.505   0.884
 4747SOL     OW15139   1.174   2.744   2.302
 4747SOL    HW115140   1.174   2.841   2.279
 4747SOL    HW215141   1.222   2.692   2.231
 4748SOL     OW15142   1.805   6.741   0.521
 4748SOL    HW115143   1.903   6.738   0.542
 4748SOL    HW215144   1.792   6.746   0.422
 4749SOL     OW15145   4.009   1.040   6.956
 4749SOL    HW115146   3.918   1.004   6.937
 4749SOL    HW215147   4.021   1.127   6.909
 4750SOL     OW15148   1.004   2.273   5.043
 4750SOL    HW115149   0.904   2.265   5.046
 4750SOL    HW215150   1.045   2.185   5.064
 4751SOL     OW15151   1.583   3.701   6.477
 4751SOL    HW115152   1.604   3.690   6.380
 4751SOL    HW215153   1.555   3.796   6.493
 4752SOL     OW15154   1.558   5.648   0.901
 4752SOL    HW115155   1.527   5.576   0.963
 4752SOL    HW215156   1.657   5.658   0.907
 4753SOL     OW15157   0.157   1.276   6.789
 4753SOL    HW115158   0.058   1.262   6.795
 4753SOL    HW215159   0.180   1.367   6.824
 4754SOL     OW15160   1.456   0.599   6.822
 4754SOL    HW115161   1.452   0.522   6.885
 4754SOL    HW215162   1.468   0.684   6.874
 4755SOL     OW15163   2.978   6.994   3.246
 4755SOL    HW115164   2.931   6.908   3.227
 4755SOL    HW215165   2.923   0.031   3.308
 4756SOL     OW15166   5.606   2.211   1.135
 4756SOL    HW115167   5.570   2.159   1.213
 4756SOL    HW215168   5.659   2.288   1.169
 4757SOL     OW15169   2.281   3.015   0.938
 4757SOL    HW115170   2.353   3.083   0.927
 4757SOL    HW215171   2.284   2.976   1.030
 4758SOL     OW15172   6.515   3.628   6.638
 4758SOL    HW115173   6.454   3.572   6.583
 4758SOL    HW215174   6.492   3.619   6.735
 4759SOL     OW15175   6.766   3.926   6.706
 4759SOL    HW115176   6.797   3.902   6.614
 4759SOL    HW215177   6.799   4.017   6.730
 4760SOL     OW15178   0.831   2.661   0.063
 4760SOL    HW115179   0.896   2.613   0.004
 4760SOL    HW215180   0.855   2.758   0.068
 4761SOL     OW15181   3.072   6.186   6.907
 4761SOL    HW115182   2.977   6.216   6.915
 4761SOL    HW215183   3.078   6.112   6.840
 4762SOL     OW15184   3.171   0.681   2.960
 4762SOL    HW115185   3.122   0.614   2.904
 4762SOL    HW215186   3.210   0.751   2.901
 4763SOL     OW15187   5.107   4.835   4.763
 4763SOL    HW115188   5.202   4.857   4.740
 4763SOL    HW215189   5.052   4.919   4.760
 4764SOL     OW15190   3.252   3.713   4.061
 4764SOL    HW115191   3.254   3.619   4.030
 4764SOL    HW215192   3.336   3.734   4.112
 4765SOL     OW15193   6.579   5.298   6.547
 4765SOL    HW115194   6.497   5.355   6.556
 4765SOL    HW215195   6.566   5.231   6.473
 4766SOL     OW15196   3.446   1.734   3.019
 4766SOL    HW115197   3.500   1.724   3.102
 4766SOL    HW215198   3.461   1.655   2.960
 4767SOL     OW15199   4.555   0.721   6.187
 4767SOL    HW115200   4.465   0.757   6.208
 4767SOL    HW215201   4.574   0.641   6.245
 4768SOL     OW15202   2.119   0.463   5.506
 4768SOL    HW115203   2.088   0.396   5.573
 4768SOL    HW215204   2.179   0.529   5.551
 4769SOL     OW15205   4.573   0.844   2.164
 4769SOL    HW115206   4.609   0.795   2.085
 4769SOL    HW215207   4.535   0.932   2.135
 4770SOL     OW15208   2.982   1.523   3.794
 4770SOL    HW115209   3.055   1.456   3.783
 4770SOL    HW215210   2.894   1.476   3.798
 4771SOL     OW15211   4.134   4.968   6.281
 4771SOL    HW115212   4.109   4.891   6.340
 4771SOL    HW215213   4.106   5.054   6.325
 4772SOL     OW15214   3.724   2.542   6.691
 4772SOL    HW115215   3.821   2.557   6.674
 4772SOL    HW215216   3.711   2.498   6.780
 4773SOL     OW15217   6.875   4.926   4.619
 4773SOL    HW115218   6.969   4.943   4.589
 4773SOL    HW215219   6.859   4.827   4.622
 4774SOL     OW15220   2.249   4.052   0.106
 4774SOL    HW115221   2.264   3.954   0.092
 4774SOL    HW215222   2.179   4.066   0.176
 4775SOL     OW15223   1.866   3.126   2.553
 4775SOL    HW115224   1.857   3.200   2.620
 4775SOL    HW215225   1.960   3.124   2.518
 4776SOL     OW15226   4.499   5.482   1.285
 4776SOL    HW115227   4.437   5.407   1.263
 4776SOL    HW215228   4.477   5.517   1.376
 4777SOL     OW15229   1.840   3.971   1.679
 4777SOL    HW115230   1.930   3.990   1.640
 4777SOL    HW215231   1.826   3.872   1.685
 4778SOL     OW15232   5.674   3.244   2.737
 4778SOL    HW115233   5.585   3.288   2.752
 4778SOL    HW215234   5.746   3.298   2.781
 4779SOL     OW15235   6.010   1.758   2.621
 4779SOL    HW115236   6.031   1.735   2.526
 4779SOL    HW215237   5.915   1.734   2.640
 4780SOL     OW15238   1.388   1.439   5.267
 4780SOL    HW115239   1.372   1.478   5.358
 4780SOL    HW215240   1.449   1.361   5.275
 4781SOL     OW15241   2.916   5.752   3.085
 4781SOL    HW115242   2.822   5.755   3.121
 4781SOL    HW215243   2.980   5.749   3.162
 4782SOL     OW15244   6.049   6.109   6.947
 4782SOL    HW115245   6.049   6.136   0.024
 4782SOL    HW215246   6.143   6.088   6.918
 4783SOL     OW15247   5.682   4.854   3.185
 4783SOL    HW115248   5.727   4.767   3.206
 4783SOL    HW215249   5.621   4.841   3.107
 4784SOL     OW15250   4.898   4.382   4.457
 4784SOL    HW115251   4.957   4.309   4.491
 4784SOL    HW215252   4.924   4.405   4.363
 4785SOL     OW15253   5.770   5.978   0.447
 4785SOL    HW115254   5.811   6.069   0.439
 4785SOL    HW215255   5.670   5.986   0.449
 4786SOL     OW15256   1.398   4.587   3.081
 4786SOL    HW115257   1.321   4.578   3.144
 4786SOL    HW215258   1.457   4.663   3.110
 4787SOL     OW15259   4.039   2.219   2.467
 4787SOL    HW115260   3.962   2.175   2.513
 4787SOL    HW215261   4.095   2.267   2.534
 4788SOL     OW15262   2.269   0.405   4.721
 4788SOL    HW115263   2.211   0.416   4.639
 4788SOL    HW215264   2.364   0.390   4.693
 4789SOL     OW15265   4.880   5.807   6.680
 4789SOL    HW115266   4.785   5.779   6.692
 4789SOL    HW215267   4.927   5.740   6.622
 4790SOL     OW15268   5.651   6.898   0.050
 4790SOL    HW115269   5.677   6.947   6.985
 4790SOL    HW215270   5.734   6.868   0.098
 4791SOL     OW15271   4.490   2.457   3.048
 4791SOL    HW115272   4.523   2.540   3.002
 4791SOL    HW215273   4.553   2.382   3.029
 4792SOL     OW15274   3.230   3.057   0.379
 4792SOL    HW115275   3.303   2.999   0.344
 4792SOL    HW215276   3.152   3.055   0.317
 4793SOL     OW15277   1.011   0.965   6.901
 4793SOL    HW115278   0.941   1.032   6.926
 4793SOL    HW215279   0.979   0.912   6.823
 4794SOL     OW15280   5.668   1.228   1.576
 4794SOL    HW115281   5.644   1.159   1.644
 4794SOL    HW215282   5.740   1.193   1.516
 4795SOL     OW15283   6.463   2.104   4.518
 4795SOL    HW115284   6.479   2.147   4.429
 4795SOL    HW215285   6.436   2.008   4.504
 4796SOL     OW15286   4.754   3.523   0.544
 4796SOL    HW115287   4.775   3.434   0.505
 4796SOL    HW215288   4.754   3.517   0.644
 4797SOL     OW15289   1.370   6.065   4.898
 4797SOL    HW115290   1.406   6.075   4.991
 4797SOL    HW215291   1.418   5.991   4.851
 4798SOL     OW15292   0.284   5.756   6.260
 4798SOL    HW115293   0.237   5.769   6.347
 4798SOL    HW215294   0.299   5.844   6.216
 4799SOL     OW15295   5.207   1.242   4.453
 4799SOL    HW115296   5.250   1.292   4.528
 4799SOL    HW215297   5.245   1.274   4.366
 4800SOL     OW15298   1.665   3.022   4.082
 4800SOL    HW115299   1.763   3.043   4.090
 4800SOL    HW215300   1.633   2.979   4.166
 4801SOL     OW15301   0.202   1.980   0.744
 4801SOL    HW115302   0.207   1.887   0.707
 4801SOL    HW215303   0.285   1.998   0.797
 4802SOL     OW15304   1.675   6.979   1.724
 4802SOL    HW115305   1.640   6.950   1.635
 4802SOL    HW215306   1.598   7.006   1.783
 4803SOL     OW15307   0.451   6.645   1.126
 4803SOL    HW115308   0.392   6.608   1.198
 4803SOL    HW215309   0.395   6.691   1.057
 4804SOL     OW15310   4.410   4.957   0.071
 4804SOL    HW115311   4.356   4.899   0.132
 4804SOL    HW215312   4.348   5.012   0.015
 4805SOL     OW15313   6.673   6.691   1.469
 4805SOL    HW115314   6.751   6.744   1.501
 4805SOL    HW215315   6.695   6.593   1.472
 4806SOL     OW15316   0.399   1.850   3.791
 4806SOL    HW115317   0.468   1.901   3.742
 4806SOL    HW215318   0.313   1.902   3.792
 4807SOL     OW15319   1.043   0.100   3.149
 4807SOL    HW115320   1.034   0.001   3.138
 4807SOL    HW215321   0.969   0.134   3.208
 4808SOL     OW15322   6.710   1.882   0.663
 4808SOL    HW115323   6.752   1.813   0.722
 4808SOL    HW215324   6.783   1.936   0.620
 4809SOL     OW15325   4.717   6.655   0.822
 4809SOL    HW115326   4.720   6.718   0.745
 4809SOL    HW215327   4.677   6.568   0.793
 4810SOL     OW15328   2.320   6.600   6.055
 4810SOL    HW115329   2.257   6.561   6.123
 4810SOL    HW215330   2.411   6.608   6.096
 4811SOL     OW15331   5.028   4.337   4.207
 4811SOL    HW115332   4.960   4.264   4.215
 4811SOL    HW215333   5.118   4.301   4.233
 4812SOL     OW15334   6.705   5.060   3.154
 4812SOL    HW115335   6.673   5.138   3.207
 4812SOL    HW215336   6.628   4.998   3.137
 4813SOL     OW15337   5.802   3.578   2.620
 4813SOL    HW115338   5.747   3.506   2.578
 4813SOL    HW215339   5.795   3.662   2.565
 4814SOL     OW15340   0.311   2.974   1.629
 4814SOL    HW115341   0.233   2.945   1.574
 4814SOL    HW215342   0.278   3.011   1.716
 4815SOL     OW15343   4.885   0.889   3.679
 4815SOL    HW115344   4.904   0.939   3.595
 4815SOL    HW215345   4.952   0.912   3.749
 4816SOL     OW15346   6.090   4.254   4.288
 4816SOL    HW115347   6.180   4.211   4.289
 4816SOL    HW215348   6.045   4.236   4.201
 4817SOL     OW15349   5.878   1.562   6.662
 4817SOL    HW115350   5.944   1.495   6.698
 4817SOL    HW215351   5.888   1.648   6.710
 4818SOL     OW15352   7.018   6.290   3.362
 4818SOL    HW115353   6.968   6.203   3.365
 4818SOL    HW215354   6.955   6.365   3.347
 4819SOL     OW15355   1.125   3.057   1.317
 4819SOL    HW115356   1.101   3.138   1.263
 4819SOL    HW215357   1.105   2.975   1.265
 4820SOL     OW15358   6.260   3.159   2.004
 4820SOL    HW115359   6.211   3.194   1.924
 4820SOL    HW215360   6.195   3.111   2.064
 4821SOL     OW15361   0.154   5.710   3.900
 4821SOL    HW115362   0.188   5.627   3.856
 4821SOL    HW215363   0.213   5.787   3.876
 4822SOL     OW15364   2.864   5.472   4.727
 4822SOL    HW115365   2.901   5.462   4.635
 4822SOL    HW215366   2.772   5.433   4.730
 4823SOL     OW15367   1.235   1.963   0.304
 4823SOL    HW115368   1.237   1.882   0.246
 4823SOL    HW215369   1.271   2.041   0.253
 4824SOL     OW15370   6.109   2.243   6.828
 4824SOL    HW115371   6.121   2.290   6.916
 4824SOL    HW215372   6.196   2.239   6.780
 4825SOL     OW15373   1.009   5.547   3.590
 4825SOL    HW115374   1.054   5.569   3.677
 4825SOL    HW215375   1.067   5.577   3.514
 4826SOL     OW15376   4.621   6.493   0.603
 4826SOL    HW115377   4.711   6.529   0.582
 4826SOL    HW215378   4.563   6.566   0.639
 4827SOL     OW15379   5.840   1.110   2.147
 4827SOL    HW115380   5.770   1.053   2.103
 4827SOL    HW215381   5.820   1.206   2.128
 4828SOL     OW15382   4.995   1.296   5.680
 4828SOL    HW115383   4.898   1.317   5.670
 4828SOL    HW215384   5.050   1.364   5.631
 4829SOL     OW15385   4.878   5.624   4.990
 4829SOL    HW115386   4.878   5.532   5.029
 4829SOL    HW215387   4.894   5.619   4.892
 4830SOL     OW15388   1.778   5.945   3.128
 4830SOL    HW115389   1.786   5.845   3.118
 4830SOL    HW215390   1.689   5.975   3.092
 4831SOL     OW15391   2.699   4.280   6.292
 4831SOL    HW115392   2.795   4.290   6.319
 4831SOL    HW215393   2.668   4.364   6.247
 4832SOL     OW15394   4.034   3.288   3.682
 4832SOL    HW115395   3.947   3.293   3.731
 4832SOL    HW215396   4.050   3.374   3.634
 4833SOL     OW15397   5.861   2.228   5.287
 4833SOL    HW115398   5.864   2.265   5.380
 4833SOL    HW215399   5.828   2.134   5.289
 4834SOL     OW15400   1.145   4.538   0.806
 4834SOL    HW115401   1.084   4.466   0.840
 4834SOL    HW215402   1.204   4.499   0.735
 4835SOL     OW15403   0.619   3.647   6.316
 4835SOL    HW115404   0.549   3.605   6.373
 4835SOL    HW215405   0.683   3.577   6.284
 4836SOL     OW15406   4.074   0.599   5.831
 4836SOL    HW115407   4.050   0.658   5.754
 4836SOL    HW215408   4.002   0.605   5.901
 4837SOL     OW15409   1.329   3.547   4.541
 4837SOL    HW115410   1.286   3.614   4.480
 4837SOL    HW215411   1.404   3.591   4.591
 4838SOL     OW15412   1.723   4.511   6.005
 4838SOL    HW115413   1.799   4.482   6.062
 4838SOL    HW215414   1.721   4.456   5.921
 4839SOL     OW15415   2.547   0.918   1.761
 4839SOL    HW115416   2.588   0.847   1.819
 4839SOL    HW215417   2.531   1.000   1.816
 4840SOL     OW15418   5.254   2.206   3.522
 4840SOL    HW115419   5.289   2.133   3.463
 4840SOL    HW215420   5.194   2.266   3.469
 4841SOL     OW15421   2.784   5.037   3.346
 4841SOL    HW115422   2.867   5.036   3.290
 4841SOL    HW215423   2.704   5.027   3.286
 4842SOL     OW15424   4.041   5.197   3.453
 4842SOL    HW115425   3.975   5.250   3.506
 4842SOL    HW215426   4.004   5.181   3.361
 4843SOL     OW15427   5.852   2.542   0.067
 4843SOL    HW115428   5.950   2.555   0.087
 4843SOL    HW215429   5.811   2.486   0.139
 4844SOL     OW15430   0.903   4.806   6.640
 4844SOL    HW115431   0.827   4.828   6.580
 4844SOL    HW215432   0.954   4.890   6.660
 4845SOL     OW15433   5.848   4.269   5.179
 4845SOL    HW115434   5.767   4.300   5.129
 4845SOL    HW215435   5.924   4.258   5.115
 4846SOL     OW15436   6.297   4.011   4.381
 4846SOL    HW115437   6.377   3.951   4.383
 4846SOL    HW215438   6.214   3.958   4.397
 4847SOL     OW15439   2.366   6.660   6.635
 4847SOL    HW115440   2.369   6.698   6.727
 4847SOL    HW215441   2.273   6.670   6.598
 4848SOL     OW15442   5.002   1.709   2.993
 4848SOL    HW115443   5.062   1.785   2.969
 4848SOL    HW215444   4.929   1.742   3.053
 4849SOL     OW15445   1.408   5.453   1.501
 4849SOL    HW115446   1.465   5.522   1.456
 4849SOL    HW215447   1.367   5.492   1.584
 4850SOL     OW15448   3.421   0.318   2.270
 4850SOL    HW115449   3.354   0.324   2.344
 4850SOL    HW215450   3.512   0.304   2.309
 4851SOL     OW15451   4.396   4.823   6.679
 4851SOL    HW115452   4.472   4.759   6.668
 4851SOL    HW215453   4.334   4.788   6.750
 4852SOL     OW15454   4.423   4.059   5.776
 4852SOL    HW115455   4.414   3.963   5.751
 4852SOL    HW215456   4.506   4.071   5.831
 4853SOL     OW15457   4.261   0.254   2.791
 4853SOL    HW115458   4.259   0.233   2.693
 4853SOL    HW215459   4.356   0.253   2.823
 4854SOL     OW15460   3.884   6.781   1.588
 4854SOL    HW115461   3.901   6.716   1.514
 4854SOL    HW215462   3.791   6.767   1.624
 4855SOL     OW15463   4.602   4.922   5.193
 4855SOL    HW115464   4.564   4.982   5.264
 4855SOL    HW215465   4.527   4.870   5.150
 4856SOL     OW15466   0.603   2.552   2.847
 4856SOL    HW115467   0.523   2.608   2.825
 4856SOL    HW215468   0.686   2.607   2.839
 4857SOL     OW15469   2.599   1.121   5.819
 4857SOL    HW115470   2.626   1.092   5.727
 4857SOL    HW215471   2.509   1.163   5.816
 4858SOL     OW15472   2.889   5.314   5.147
 4858SOL    HW115473   2.987   5.334   5.158
 4858SOL    HW215474   2.876   5.253   5.069
 4859SOL     OW15475   6.829   5.481   3.239
 4859SOL    HW115476   6.805   5.471   3.142
 4859SOL    HW215477   6.844   5.577   3.261
 4860SOL     OW15478   4.079   5.224   0.739
 4860SOL    HW115479   4.143   5.189   0.671
 4860SOL    HW215480   4.085   5.324   0.742
 4861SOL     OW15481   5.225   4.595   4.527
 4861SOL    HW115482   5.282   4.677   4.527
 4861SOL    HW215483   5.137   4.616   4.568
 4862SOL     OW15484   1.676   5.262   3.963
 4862SOL    HW115485   1.611   5.338   3.970
 4862SOL    HW215486   1.626   5.178   3.938
 4863SOL     OW15487   5.874   1.554   1.869
 4863SOL    HW115488   5.919   1.640   1.844
 4863SOL    HW215489   5.870   1.494   1.789
 4864SOL     OW15490   2.792   3.145   1.727
 4864SOL    HW115491   2.853   3.139   1.806
 4864SOL    HW215492   2.733   3.225   1.737
 4865SOL     OW15493   3.684   6.829   5.098
 4865SOL    HW115494   3.644   6.860   5.012
 4865SOL    HW215495   3.677   6.729   5.103
 4866SOL     OW15496   1.125   5.110   1.770
 4866SOL    HW115497   1.180   5.108   1.687
 4866SOL    HW215498   1.149   5.032   1.828
 4867SOL     OW15499   5.625   4.330   6.091
 4867SOL    HW115500   5.579   4.241   6.098
 4867SOL    HW215501   5.723   4.316   6.075
 4868SOL     OW15502   1.887   5.925   1.824
 4868SOL    HW115503   1.913   6.005   1.879
 4868SOL    HW215504   1.936   5.844   1.858
 4869SOL     OW15505   0.612   1.912   1.586
 4869SOL    HW115506   0.521   1.884   1.616
 4869SOL    HW215507   0.611   1.930   1.488
 4870SOL     OW15508   6.085   1.342   1.505
 4870SOL    HW115509   6.039   1.254   1.515
 4870SOL    HW215510   6.173   1.339   1.552
 4871SOL     OW15511   1.558   2.126   5.513
 4871SOL    HW115512   1.542   2.218   5.475
 4871SOL    HW215513   1.484   2.104   5.577
 4872SOL     OW15514   2.358   2.756   2.501
 4872SOL    HW115515   2.445   2.751   2.550
 4872SOL    HW215516   2.291   2.805   2.557
 4873SOL     OW15517   1.272   6.335   5.942
 4873SOL    HW115518   1.356   6.357   5.992
 4873SOL    HW215519   1.239   6.417   5.895
 4874SOL     OW15520   6.214   1.779   4.383
 4874SOL    HW115521   6.195   1.872   4.415
 4874SOL    HW215522   6.296   1.779   4.326
 4875SOL     OW15523   0.053   3.458   0.941
 4875SOL    HW115524   0.129   3.520   0.917
 4875SOL    HW215525   0.059   3.375   0.886
 4876SOL     OW15526   6.856   1.447   0.035
 4876SOL    HW115527   6.937   1.388   0.032
 4876SOL    HW215528   6.775   1.392   0.016
 4877SOL     OW15529   4.370   2.010   1.955
 4877SOL    HW115530   4.377   1.982   2.051
 4877SOL    HW215531   4.344   2.106   1.950
 4878SOL     OW15532   1.157   2.563   2.586
 4878SOL    HW115533   1.106   2.479   2.570
 4878SOL    HW215534   1.162   2.617   2.502
 4879SOL     OW15535   3.385   6.558   3.127
 4879SOL    HW115536   3.430   6.546   3.216
 4879SOL    HW215537   3.312   6.625   3.136
 4880SOL     OW15538   0.004   2.158   6.084
 4880SOL    HW115539   0.048   2.093   6.022
 4880SOL    HW215540   6.926   2.135   6.094
 4881SOL     OW15541   2.954   6.069   6.006
 4881SOL    HW115542   2.925   6.100   6.097
 4881SOL    HW215543   2.918   6.132   5.937
 4882SOL     OW15544   5.589   6.282   6.206
 4882SOL    HW115545   5.503   6.305   6.160
 4882SOL    HW215546   5.645   6.364   6.214
 4883SOL     OW15547   6.214   6.038   0.356
 4883SOL    HW115548   6.153   5.961   0.371
 4883SOL    HW215549   6.179   6.094   0.281
 4884SOL     OW15550   4.464   6.521   2.103
 4884SOL    HW115551   4.371   6.551   2.125
 4884SOL    HW215552   4.481   6.537   2.006
 4885SOL     OW15553   1.123   6.916   1.845
 4885SOL    HW115554   1.103   6.916   1.747
 4885SOL    HW215555   1.085   6.833   1.887
 4886SOL     OW15556   6.180   1.222   5.858
 4886SOL    HW115557   6.137   1.266   5.779
 4886SOL    HW215558   6.185   1.287   5.933
 4887SOL     OW15559   0.077   2.754   5.467
 4887SOL    HW115560   0.163   2.740   5.419
 4887SOL    HW215561   0.001   2.742   5.404
 4888SOL     OW15562   4.530   5.930   1.027
 4888SOL    HW115563   4.477   5.845   1.024
 4888SOL    HW215564   4.533   5.971   0.936
 4889SOL     OW15565   1.258   3.353   6.217
 4889SOL    HW115566   1.221   3.350   6.124
 4889SOL    HW215567   1.289   3.262   6.244
 4890SOL     OW15568   6.473   0.298   4.117
 4890SOL    HW115569   6.566   0.312   4.082
 4890SOL    HW215570   6.427   0.229   4.062
 4891SOL     OW15571   0.511   4.897   0.794
 4891SOL    HW115572   0.573   4.957   0.844
 4891SOL    HW215573   0.494   4.814   0.848
 4892SOL     OW15574   1.875   5.409   1.757
 4892SOL    HW115575   1.835   5.320   1.736
 4892SOL    HW215576   1.946   5.398   1.827
 4893SOL     OW15577   6.601   4.424   6.594
 4893SOL    HW115578   6.644   4.500   6.544
 4893SOL    HW215579   6.649   4.339   6.571
 4894SOL     OW15580   0.167   6.816   3.571
 4894SOL    HW115581   0.210   6.906   3.575
 4894SOL    HW215582   0.084   6.821   3.516
 4895SOL     OW15583   6.430   3.634   6.916
 4895SOL    HW115584   6.435   3.639   7.015
 4895SOL    HW215585   6.338   3.604   6.889
 4896SOL     OW15586   4.594   0.933   5.114
 4896SOL    HW115587   4.546   1.020   5.129
 4896SOL    HW215588   4.688   0.952   5.087
 4897SOL     OW15589   2.731   6.019   0.197
 4897SOL    HW115590   2.759   5.973   0.282
 4897SOL    HW215591   2.801   6.085   0.171
 4898SOL     OW15592   4.948   2.904   4.515
 4898SOL    HW115593   5.012   2.833   4.546
 4898SOL    HW215594   4.999   2.986   4.489
 4899SOL     OW15595   0.569   3.206   4.230
 4899SOL    HW115596   0.506   3.184   4.304
 4899SOL    HW215597   0.526   3.270   4.166
 4900SOL     OW15598   0.262   6.547   6.532
 4900SOL    HW115599   0.324   6.575   6.606
 4900SOL    HW215600   0.191   6.616   6.520
 4901SOL     OW15601   6.499   6.597   2.937
 4901SOL    HW115602   6.570   6.648   2.888
 4901SOL    HW215603   6.418   6.589   2.879
 4902SOL     OW15604   3.264   5.690   0.138
 4902SOL    HW115605   3.240   5.732   0.051
 4902SOL    HW215606   3.363   5.675   0.142
 4903SOL     OW15607   5.869   4.518   6.794
 4903SOL    HW115608   5.880   4.441   6.732
 4903SOL    HW215609   5.872   4.603   6.742
 4904SOL     OW15610   2.794   0.790   3.969
 4904SOL    HW115611   2.726   0.726   4.005
 4904SOL    HW215612   2.835   0.752   3.887
 4905SOL     OW15613   5.950   4.290   3.279
 4905SOL    HW115614   5.941   4.382   3.315
 4905SOL    HW215615   5.862   4.243   3.285
 4906SOL     OW15616   5.175   0.355   2.087
 4906SOL    HW115617   5.247   0.387   2.148
 4906SOL    HW215618   5.215   0.328   1.999
 4907SOL     OW15619   3.130   2.636   1.069
 4907SOL    HW115620   3.201   2.703   1.091
 4907SOL    HW215621   3.149   2.550   1.118
 4908SOL     OW15622   5.231   4.351   6.027
 4908SOL    HW115623   5.233   4.256   6.059
 4908SOL    HW215624   5.153   4.398   6.068
 4909SOL     OW15625   6.269   6.588   5.370
 4909SOL    HW115626   6.244   6.559   5.278
 4909SOL    HW215627   6.234   6.680   5.386
 4910SOL     OW15628   5.618   0.088   5.611
 4910SOL    HW115629   5.568   0.016   5.563
 4910SOL    HW215630   5.613   0.173   5.558
 4911SOL     OW15631   6.838   3.576   6.839
 4911SOL    HW115632   6.900   3.625   6.777
 4911SOL    HW215633   6.830   3.627   6.925
 4912SOL     OW15634   1.857   3.287   2.101
 4912SOL    HW115635   1.818   3.362   2.155
 4912SOL    HW215636   1.798   3.207   2.108
 4913SOL     OW15637   2.972   3.492   1.944
 4913SOL    HW115638   2.991   3.494   2.042
 4913SOL    HW215639   2.920   3.574   1.918
 4914SOL     OW15640   1.304   7.017   2.582
 4914SOL    HW115641   1.355   0.083   2.597
 4914SOL    HW215642   1.207   0.014   2.601
 4915SOL     OW15643   4.123   6.578   3.640
 4915SOL    HW115644   4.174   6.537   3.716
 4915SOL    HW215645   4.169   6.662   3.610
 4916SOL     OW15646   1.762   1.782   1.821
 4916SOL    HW115647   1.819   1.711   1.780
 4916SOL    HW215648   1.815   1.866   1.831
 4917SOL     OW15649   0.528   5.759   6.558
 4917SOL    HW115650   0.616   5.713   6.549
 4917SOL    HW215651   0.454   5.694   6.543
 4918SOL     OW15652   2.227   6.553   3.944
 4918SOL    HW115653   2.197   6.472   3.893
 4918SOL    HW215654   2.152   6.620   3.947
 4919SOL     OW15655   2.307   2.746   1.616
 4919SOL    HW115656   2.241   2.671   1.612
 4919SOL    HW215657   2.376   2.727   1.686
 4920SOL     OW15658   3.802   2.364   6.072
 4920SOL    HW115659   3.708   2.387   6.096
 4920SOL    HW215660   3.838   2.432   6.008
 4921SOL     OW15661   6.640   4.301   1.775
 4921SOL    HW115662   6.666   4.393   1.745
 4921SOL    HW215663   6.540   4.292   1.770
 4922SOL     OW15664   1.141   3.586   5.915
 4922SOL    HW115665   1.183   3.610   5.828
 4922SOL    HW215666   1.128   3.487   5.920
 4923SOL     OW15667   3.718   2.430   6.970
 4923SOL    HW115668   3.779   2.504   7.000
 4923SOL    HW215669   3.623   2.457   6.987
 4924SOL     OW15670   1.024   3.104   4.504
 4924SOL    HW115671   1.020   3.028   4.440
 4924SOL    HW215672   0.989   3.187   4.460
 4925SOL     OW15673   4.812   4.981   4.906
 4925SOL    HW115674   4.843   4.887   4.917
 4925SOL    HW215675   4.862   5.023   4.829
 4926SOL     OW15676   4.205   3.605   0.671
 4926SOL    HW115677   4.274   3.622   0.601
 4926SOL    HW215678   4.248   3.606   0.761
 4927SOL     OW15679   2.891   3.285   2.216
 4927SOL    HW115680   2.814   3.257   2.159
 4927SOL    HW215681   2.955   3.208   2.225
 4928SOL     OW15682   6.540   1.824   6.038
 4928SOL    HW115683   6.578   1.739   6.001
 4928SOL    HW215684   6.446   1.808   6.067
 4929SOL     OW15685   1.114   4.334   4.101
 4929SOL    HW115686   1.075   4.403   4.039
 4929SOL    HW215687   1.119   4.372   4.194
 4930SOL     OW15688   0.985   3.382   0.322
 4930SOL    HW115689   0.931   3.460   0.355
 4930SOL    HW215690   0.942   3.345   0.239
 4931SOL     OW15691   5.481   6.457   0.874
 4931SOL    HW115692   5.441   6.382   0.822
 4931SOL    HW215693   5.563   6.425   0.921
 4932SOL     OW15694   3.198   1.959   0.794
 4932SOL    HW115695   3.214   1.988   0.700
 4932SOL    HW215696   3.100   1.949   0.811
 4933SOL     OW15697   2.326   0.019   4.867
 4933SOL    HW115698   2.256   7.015   4.800
 4933SOL    HW215699   2.301   0.104   4.915
 4934SOL     OW15700   1.971   6.470   6.024
 4934SOL    HW115701   1.936   6.536   5.958
 4934SOL    HW215702   1.899   6.447   6.089
 4935SOL     OW15703   1.098   2.835   1.152
 4935SOL    HW115704   1.063   2.744   1.174
 4935SOL    HW215705   1.192   2.827   1.117
 4936SOL     OW15706   6.794   3.939   1.491
 4936SOL    HW115707   6.796   3.904   1.398
 4936SOL    HW215708   6.789   4.038   1.490
 4937SOL     OW15709   0.906   3.658   5.454
 4937SOL    HW115710   0.873   3.606   5.533
 4937SOL    HW215711   0.848   3.739   5.442
 4938SOL     OW15712   3.187   3.928   1.089
 4938SOL    HW115713   3.257   3.886   1.032
 4938SOL    HW215714   3.102   3.876   1.080
 4939SOL     OW15715   1.247   1.692   1.739
 4939SOL    HW115716   1.346   1.697   1.727
 4939SOL    HW215717   1.209   1.624   1.677
 4940SOL     OW15718   1.773   1.533   5.134
 4940SOL    HW115719   1.687   1.586   5.130
 4940SOL    HW215720   1.776   1.482   5.220
 4941SOL     OW15721   3.400   1.936   6.133
 4941SOL    HW115722   3.492   1.904   6.110
 4941SOL    HW215723   3.361   1.878   6.205
 4942SOL     OW15724   0.327   0.886   2.552
 4942SOL    HW115725   0.399   0.819   2.536
 4942SOL    HW215726   0.362   0.978   2.534
 4943SOL     OW15727   5.160   2.265   6.793
 4943SOL    HW115728   5.190   2.250   6.698
 4943SOL    HW215729   5.155   2.363   6.811
 4944SOL     OW15730   0.817   4.706   0.392
 4944SOL    HW115731   0.864   4.746   0.471
 4944SOL    HW215732   0.718   4.705   0.410
 4945SOL     OW15733   2.561   0.627   6.508
 4945SOL    HW115734   2.639   0.568   6.486
 4945SOL    HW215735   2.539   0.684   6.429
 4946SOL     OW15736   1.872   5.901   0.126
 4946SOL    HW115737   1.837   5.895   0.219
 4946SOL    HW215738   1.841   5.986   0.084
 4947SOL     OW15739   1.327   0.513   1.391
 4947SOL    HW115740   1.331   0.611   1.372
 4947SOL    HW215741   1.420   0.477   1.396
 4948SOL     OW15742   1.560   3.607   2.148
 4948SOL    HW115743   1.497   3.636   2.076
 4948SOL    HW215744   1.654   3.606   2.112
 4949SOL     OW15745   6.154   4.846   6.759
 4949SOL    HW115746   6.228   4.834   6.825
 4949SOL    HW215747   6.193   4.870   6.669
 4950SOL     OW15748   4.049   3.728   5.780
 4950SOL    HW115749   3.968   3.778   5.747
 4950SOL    HW215750   4.116   3.720   5.707
 4951SOL     OW15751   4.458   5.513   3.491
 4951SOL    HW115752   4.412   5.557   3.569
 4951SOL    HW215753   4.390   5.469   3.433
 4952SOL     OW15754   0.785   0.777   6.350
 4952SOL    HW115755   0.870   0.734   6.380
 4952SOL    HW215756   0.761   0.851   6.412
 4953SOL     OW15757   0.866   1.387   5.887
 4953SOL    HW115758   0.857   1.360   5.983
 4953SOL    HW215759   0.778   1.420   5.853
 4954SOL     OW15760   3.432   3.467   5.910
 4954SOL    HW115761   3.424   3.395   5.979
 4954SOL    HW215762   3.520   3.514   5.920
 4955SOL     OW15763   3.800   6.034   6.980
 4955SOL    HW115764   3.760   6.071   0.045
 4955SOL    HW215765   3.859   5.957   7.003
 4956SOL     OW15766   2.441   0.232   3.962
 4956SOL    HW115767   2.432   0.294   4.040
 4956SOL    HW215768   2.431   0.283   3.877
 4957SOL     OW15769   5.969   5.497   0.177
 4957SOL    HW115770   5.959   5.422   0.111
 4957SOL    HW215771   5.928   5.471   0.264
 4958SOL     OW15772   3.105   5.231   0.866
 4958SOL    HW115773   3.044   5.170   0.816
 4958SOL    HW215774   3.154   5.179   0.936
 4959SOL     OW15775   2.239   1.480   2.351
 4959SOL    HW115776   2.245   1.579   2.339
 4959SOL    HW215777   2.169   1.459   2.419
 4960SOL     OW15778   5.360   4.042   4.692
 4960SOL    HW115779   5.284   3.996   4.738
 4960SOL    HW215780   5.370   4.006   4.600
 4961SOL     OW15781   4.090   3.456   2.567
 4961SOL    HW115782   4.000   3.411   2.567
 4961SOL    HW215783   4.134   3.444   2.655
 4962SOL     OW15784   1.647   2.786   0.533
 4962SOL    HW115785   1.672   2.877   0.568
 4962SOL    HW215786   1.548   2.779   0.529
 4963SOL     OW15787   0.324   3.980   6.657
 4963SOL    HW115788   0.273   3.954   6.575
 4963SOL    HW215789   0.277   3.945   6.738
 4964SOL     OW15790   1.223   5.198   3.722
 4964SOL    HW115791   1.188   5.124   3.778
 4964SOL    HW215792   1.235   5.280   3.778
 4965SOL     OW15793   2.443   0.113   2.759
 4965SOL    HW115794   2.348   0.132   2.735
 4965SOL    HW215795   2.453   0.111   2.859
 4966SOL     OW15796   3.902   6.869   5.697
 4966SOL    HW115797   3.837   6.862   5.621
 4966SOL    HW215798   3.995   6.860   5.663
 4967SOL     OW15799   4.616   4.910   3.132
 4967SOL    HW115800   4.599   4.843   3.060
 4967SOL    HW215801   4.553   4.987   3.123
 4968SOL     OW15802   6.510   2.744   3.223
 4968SOL    HW115803   6.471   2.685   3.152
 4968SOL    HW215804   6.436   2.781   3.280
 4969SOL     OW15805   1.651   5.462   4.297
 4969SOL    HW115806   1.566   5.483   4.345
 4969SOL    HW215807   1.646   5.370   4.258
 4970SOL     OW15808   2.463   0.844   0.769
 4970SOL    HW115809   2.387   0.794   0.812
 4970SOL    HW215810   2.500   0.789   0.694
 4971SOL     OW15811   0.474   6.234   2.335
 4971SOL    HW115812   0.456   6.312   2.277
 4971SOL    HW215813   0.393   6.213   2.390
 4972SOL     OW15814   0.360   3.663   1.074
 4972SOL    HW115815   0.334   3.584   1.019
 4972SOL    HW215816   0.312   3.660   1.161
 4973SOL     OW15817   5.341   2.188   0.158
 4973SOL    HW115818   5.283   2.262   0.191
 4973SOL    HW215819   5.409   2.166   0.227
 4974SOL     OW15820   3.082   0.457   5.363
 4974SOL    HW115821   3.062   0.464   5.461
 4974SOL    HW215822   3.044   0.537   5.316
 4975SOL     OW15823   5.933   4.069   1.031
 4975SOL    HW115824   5.904   4.048   0.938
 4975SOL    HW215825   5.914   4.165   1.052
 4976SOL     OW15826   1.673   0.177   3.966
 4976SOL    HW115827   1.608   0.162   4.040
 4976SOL    HW215828   1.743   0.243   3.996
 4977SOL     OW15829   0.979   3.659   4.390
 4977SOL    HW115830   0.937   3.573   4.362
 4977SOL    HW215831   1.075   3.661   4.362
 4978SOL     OW15832   6.542   5.415   4.445
 4978SOL    HW115833   6.572   5.497   4.397
 4978SOL    HW215834   6.502   5.350   4.380
 4979SOL     OW15835   3.506   6.367   6.044
 4979SOL    HW115836   3.524   6.326   5.955
 4979SOL    HW215837   3.592   6.388   6.090
 4980SOL     OW15838   5.428   2.891   3.937
 4980SOL    HW115839   5.505   2.934   3.890
 4980SOL    HW215840   5.425   2.922   4.032
 4981SOL     OW15841   3.050   0.066   2.978
 4981SOL    HW115842   3.112   7.014   2.943
 4981SOL    HW215843   3.019   0.042   3.069
 4982SOL     OW15844   3.772   1.882   4.954
 4982SOL    HW115845   3.796   1.860   5.049
 4982SOL    HW215846   3.836   1.950   4.919
 4983SOL     OW15847   5.254   3.843   3.295
 4983SOL    HW115848   5.236   3.940   3.315
 4983SOL    HW215849   5.352   3.825   3.302
 4984SOL     OW15850   4.847   3.608   5.340
 4984SOL    HW115851   4.894   3.692   5.312
 4984SOL    HW215852   4.780   3.583   5.270
 4985SOL     OW15853   4.891   6.992   2.451
 4985SOL    HW115854   4.954   6.954   2.519
 4985SOL    HW215855   4.943   0.011   2.375
 4986SOL     OW15856   1.239   5.622   1.167
 4986SOL    HW115857   1.228   5.662   1.076
 4986SOL    HW215858   1.260   5.525   1.157
 4987SOL     OW15859   2.070   4.140   1.934
 4987SOL    HW115860   2.025   4.051   1.931
 4987SOL    HW215861   2.003   4.211   1.955
 4988SOL     OW15862   6.338   4.915   4.024
 4988SOL    HW115863   6.436   4.928   4.011
 4988SOL    HW215864   6.310   4.826   3.987
 4989SOL     OW15865   6.921   0.243   4.280
 4989SOL    HW115866   6.838   0.298   4.277
 4989SOL    HW215867   6.907   0.165   4.342
 4990SOL     OW15868   4.603   2.000   5.841
 4990SOL    HW115869   4.592   2.095   5.869
 4990SOL    HW215870   4.627   1.997   5.744
 4991SOL     OW15871   2.447   5.176   5.351
 4991SOL    HW115872   2.422   5.212   5.441
 4991SOL    HW215873   2.386   5.100   5.327
 4992SOL     OW15874   3.134   2.579   5.400
 4992SOL    HW115875   3.153   2.516   5.324
 4992SOL    HW215876   3.044   2.559   5.438
 4993SOL     OW15877   2.243   5.300   3.667
 4993SOL    HW115878   2.338   5.326   3.679
 4993SOL    HW215879   2.183   5.374   3.695
 4994SOL     OW15880   3.149   4.986   5.778
 4994SOL    HW115881   3.247   4.965   5.770
 4994SOL    HW215882   3.134   5.044   5.859
 4995SOL     OW15883   0.318   2.322   6.093
 4995SOL    HW115884   0.304   2.240   6.148
 4995SOL    HW215885   0.412   2.354   6.105
 4996SOL     OW15886   0.172   0.830   4.875
 4996SOL    HW115887   0.264   0.845   4.914
 4996SOL    HW215888   0.123   0.764   4.932
 4997SOL     OW15889   3.685   1.812   0.986
 4997SOL    HW115890   3.631   1.728   0.999
 4997SOL    HW215891   3.781   1.788   0.977
 4998SOL     OW15892   1.114   3.818   3.220
 4998SOL    HW115893   1.054   3.738   3.230
 4998SOL    HW215894   1.059   3.899   3.199
 4999SOL     OW15895   7.005   2.857   3.273
 4999SOL    HW115896   6.954   2.775   3.248
 4999SOL    HW215897   6.947   2.937   3.258
 5000SOL     OW15898   2.846   6.589   2.951
 5000SOL    HW115899   2.787   6.513   2.925
 5000SOL    HW215900   2.916   6.602   2.881
 5001SOL     OW15901   0.133   6.135   3.085
 5001SOL    HW115902   0.050   6.185   3.058
 5001SOL    HW215903   0.187   6.115   3.004
 5002SOL     OW15904   1.449   5.457   4.031
 5002SOL    HW115905   1.414   5.494   3.945
 5002SOL    HW215906   1.400   5.373   4.053
 5003SOL     OW15907   3.956   1.278   1.222
 5003SOL    HW115908   3.868   1.242   1.192
 5003SOL    HW215909   3.945   1.322   1.312
 5004SOL     OW15910   3.772   6.150   0.196
 5004SOL    HW115911   3.818   6.172   0.281
 5004SOL    HW215912   3.688   6.204   0.188
 5005SOL     OW15913   4.364   3.308   0.969
 5005SOL    HW115914   4.412   3.378   0.916
 5005SOL    HW215915   4.331   3.348   1.054
 5006SOL     OW15916   4.499   0.866   2.680
 5006SOL    HW115917   4.543   0.954   2.697
 5006SOL    HW215918   4.534   0.826   2.595
 5007SOL     OW15919   6.722   5.428   2.999
 5007SOL    HW115920   6.707   5.515   2.951
 5007SOL    HW215921   6.696   5.352   2.939
 5008SOL     OW15922   4.640   0.340   3.886
 5008SOL    HW115923   4.704   0.414   3.904
 5008SOL    HW215924   4.555   0.356   3.938
 5009SOL     OW15925   0.744   1.688   6.196
 5009SOL    HW115926   0.724   1.773   6.246
 5009SOL    HW215927   0.807   1.708   6.121
 5010SOL     OW15928   5.357   4.593   0.899
 5010SOL    HW115929   5.393   4.535   0.972
 5010SOL    HW215930   5.433   4.641   0.854
 5011SOL     OW15931   1.791   2.085   5.337
 5011SOL    HW115932   1.746   2.076   5.248
 5011SOL    HW215933   1.732   2.137   5.399
 5012SOL     OW15934   5.776   2.964   5.271
 5012SOL    HW115935   5.815   2.881   5.310
 5012SOL    HW215936   5.742   3.023   5.344
 5013SOL     OW15937   6.195   5.692   5.609
 5013SOL    HW115938   6.189   5.626   5.684
 5013SOL    HW215939   6.183   5.645   5.522
 5014SOL     OW15940   5.856   3.074   0.441
 5014SOL    HW115941   5.945   3.029   0.438
 5014SOL    HW215942   5.787   3.014   0.401
 5015SOL     OW15943   6.390   5.171   4.310
 5015SOL    HW115944   6.420   5.207   4.221
 5015SOL    HW215945   6.405   5.073   4.313
 5016SOL     OW15946   1.009   1.813   6.520
 5016SOL    HW115947   1.064   1.873   6.462
 5016SOL    HW215948   1.062   1.732   6.545
 5017SOL     OW15949   1.095   2.985   1.962
 5017SOL    HW115950   1.021   3.009   1.899
 5017SOL    HW215951   1.145   2.906   1.925
 5018SOL     OW15952   0.438   0.680   0.456
 5018SOL    HW115953   0.364   0.726   0.505
 5018SOL    HW215954   0.475   0.742   0.386
 5019SOL     OW15955   2.045   4.160   3.883
 5019SOL    HW115956   2.119   4.171   3.949
 5019SOL    HW215957   1.959   4.191   3.924
 5020SOL     OW15958   1.640   6.934   2.907
 5020SOL    HW115959   1.652   6.985   2.822
 5020SOL    HW215960   1.666   6.991   2.985
 5021SOL     OW15961   2.308   0.524   1.605
 5021SOL    HW115962   2.356   0.580   1.672
 5021SOL    HW215963   2.253   0.583   1.546
 5022SOL     OW15964   0.254   3.188   1.809
 5022SOL    HW115965   0.324   3.252   1.842
 5022SOL    HW215966   0.220   3.219   1.720
 5023SOL     OW15967   0.787   2.465   3.123
 5023SOL    HW115968   0.813   2.428   3.213
 5023SOL    HW215969   0.710   2.412   3.087
 5024SOL     OW15970   4.075   4.067   0.150
 5024SOL    HW115971   4.066   4.165   0.166
 5024SOL    HW215972   4.145   4.030   0.211
 5025SOL     OW15973   4.847   2.057   4.411
 5025SOL    HW115974   4.784   2.085   4.484
 5025SOL    HW215975   4.909   1.987   4.446
 5026SOL     OW15976   5.272   5.852   4.835
 5026SOL    HW115977   5.358   5.809   4.805
 5026SOL    HW215978   5.292   5.926   4.898
 5027SOL     OW15979   5.501   6.501   1.444
 5027SOL    HW115980   5.577   6.465   1.497
 5027SOL    HW215981   5.535   6.570   1.379
 5028SOL     OW15982   0.013   2.111   2.359
 5028SOL    HW115983   0.100   2.138   2.321
 5028SOL    HW215984   0.027   2.041   2.430
 5029SOL     OW15985   5.952   2.739   2.932
 5029SOL    HW115986   5.964   2.771   2.837
 5029SOL    HW215987   5.875   2.787   2.974
 5030SOL     OW15988   0.743   3.219   0.734
 5030SOL    HW115989   0.759   3.135   0.681
 5030SOL    HW215990   0.772   3.204   0.829
 5031SOL     OW15991   6.296   0.543   6.369
 5031SOL    HW115992   6.292   0.530   6.270
 5031SOL    HW215993   6.326   0.458   6.413
 5032SOL     OW15994   2.203   4.916   6.644
 5032SOL    HW115995   2.278   4.943   6.584
 5032SOL    HW215996   2.230   4.928   6.740
 5033SOL     OW15997   1.984   6.759   3.985
 5033SOL    HW115998   1.929   6.837   3.955
 5033SOL    HW215999   2.043   6.788   4.060
 5034SOL     OW16000   4.404   6.118   3.295
 5034SOL    HW116001   4.489   6.068   3.313
 5034SOL    HW216002   4.337   6.098   3.367
 5035SOL     OW16003   1.758   3.847   4.044
 5035SOL    HW116004   1.674   3.879   4.089
 5035SOL    HW216005   1.800   3.775   4.099
 5036SOL     OW16006   1.329   3.052   4.726
 5036SOL    HW116007   1.427   3.058   4.740
 5036SOL    HW216008   1.305   3.093   4.638
 5037SOL     OW16009   5.370   4.864   1.252
 5037SOL    HW116010   5.322   4.944   1.289
 5037SOL    HW216011   5.365   4.866   1.152
 5038SOL     OW16012   3.218   3.525   4.826
 5038SOL    HW116013   3.158   3.446   4.842
 5038SOL    HW216014   3.290   3.500   4.761
 5039SOL     OW16015   0.198   3.120   6.606
 5039SOL    HW116016   0.267   3.096   6.673
 5039SOL    HW216017   0.226   3.203   6.557
 5040SOL     OW16018   0.881   1.500   4.925
 5040SOL    HW116019   0.900   1.441   4.846
 5040SOL    HW216020   0.783   1.512   4.935
 5041SOL     OW16021   6.867   2.429   1.235
 5041SOL    HW116022   6.788   2.369   1.242
 5041SOL    HW216023   6.884   2.472   1.324
 5042SOL     OW16024   1.082   1.543   5.365
 5042SOL    HW116025   1.001   1.601   5.352
 5042SOL    HW216026   1.087   1.476   5.291
 5043SOL     OW16027   2.851   0.129   1.896
 5043SOL    HW116028   2.878   0.158   1.988
 5043SOL    HW216029   2.794   0.048   1.903
 5044SOL     OW16030   0.137   6.091   1.175
 5044SOL    HW116031   0.134   5.991   1.174
 5044SOL    HW216032   0.212   6.122   1.116
 5045SOL     OW16033   5.817   2.598   2.203
 5045SOL    HW116034   5.809   2.587   2.104
 5045SOL    HW216035   5.897   2.655   2.224
 5046SOL     OW16036   4.197   3.126   1.787
 5046SOL    HW116037   4.143   3.104   1.868
 5046SOL    HW216038   4.148   3.195   1.733
 5047SOL     OW16039   2.338   4.280   3.669
 5047SOL    HW116040   2.286   4.269   3.753
 5047SOL    HW216041   2.411   4.346   3.683
 5048SOL     OW16042   1.685   6.702   6.364
 5048SOL    HW116043   1.730   6.785   6.332
 5048SOL    HW216044   1.739   6.662   6.438
 5049SOL     OW16045   3.790   1.783   6.598
 5049SOL    HW116046   3.701   1.739   6.585
 5049SOL    HW216047   3.783   1.851   6.671
 5050SOL     OW16048   1.075   0.389   1.331
 5050SOL    HW116049   1.092   0.410   1.234
 5050SOL    HW216050   1.143   0.435   1.388
 5051SOL     OW16051   4.251   4.082   0.908
 5051SOL    HW116052   4.173   4.137   0.939
 5051SOL    HW216053   4.323   4.086   0.977
 5052SOL     OW16054   1.877   3.701   4.243
 5052SOL    HW116055   1.943   3.632   4.216
 5052SOL    HW216056   1.805   3.658   4.299
 5053SOL     OW16057   6.871   0.513   0.219
 5053SOL    HW116058   6.857   0.475   0.128
 5053SOL    HW216059   6.822   0.600   0.227
 5054SOL     OW16060   4.097   5.495   2.863
 5054SOL    HW116061   4.097   5.593   2.844
 5054SOL    HW216062   4.166   5.450   2.807
 5055SOL     OW16063   6.105   4.265   5.526
 5055SOL    HW116064   6.178   4.328   5.553
 5055SOL    HW216065   6.129   4.172   5.553
 5056SOL     OW16066   6.468   4.927   3.119
 5056SOL    HW116067   6.422   4.997   3.065
 5056SOL    HW216068   6.409   4.847   3.128
 5057SOL     OW16069   6.719   6.403   2.690
 5057SOL    HW116070   6.818   6.395   2.678
 5057SOL    HW216071   6.700   6.479   2.753
 5058SOL     OW16072   3.081   5.728   5.782
 5058SOL    HW116073   2.995   5.770   5.810
 5058SOL    HW216074   3.090   5.639   5.825
 5059SOL     OW16075   6.573   6.666   2.489
 5059SOL    HW116076   6.608   6.578   2.456
 5059SOL    HW216077   6.586   6.673   2.588
 5060SOL     OW16078   6.837   3.178   0.172
 5060SOL    HW116079   6.824   3.099   0.111
 5060SOL    HW216080   6.778   3.253   0.142
 5061SOL     OW16081   5.565   3.339   0.872
 5061SOL    HW116082   5.534   3.383   0.788
 5061SOL    HW216083   5.487   3.322   0.932
 5062SOL     OW16084   6.826   0.224   0.092
 5062SOL    HW116085   6.735   0.185   0.106
 5062SOL    HW216086   6.825   0.285   0.013
 5063SOL     OW16087   1.084   6.337   2.702
 5063SOL    HW116088   1.061   6.247   2.737
 5063SOL    HW216089   1.077   6.337   2.602
 5064SOL     OW16090   5.289   4.257   6.940
 5064SOL    HW116091   5.347   4.301   6.872
 5064SOL    HW216092   5.203   4.229   6.897
 5065SOL     OW16093   1.936   6.960   5.877
 5065SOL    HW116094   1.975   0.032   5.894
 5065SOL    HW216095   1.947   6.904   5.960
 5066SOL     OW16096   4.973   4.453   0.544
 5066SOL    HW116097   5.067   4.421   0.544
 5066SOL    HW216098   4.957   4.511   0.623
 5067SOL     OW16099   5.429   0.761   6.451
 5067SOL    HW116100   5.529   0.767   6.449
 5067SOL    HW216101   5.391   0.854   6.453
 5068SOL     OW16102   3.116   5.101   1.360
 5068SOL    HW116103   3.112   5.010   1.319
 5068SOL    HW216104   3.042   5.111   1.427
 5069SOL     OW16105   0.254   5.519   3.178
 5069SOL    HW116106   0.230   5.616   3.189
 5069SOL    HW216107   0.185   5.463   3.224
 5070SOL     OW16108   5.342   2.240   3.191
 5070SOL    HW116109   5.249   2.266   3.216
 5070SOL    HW216110   5.353   2.245   3.092
 5071SOL     OW16111   4.693   0.779   1.609
 5071SOL    HW116112   4.731   0.769   1.701
 5071SOL    HW216113   4.640   0.863   1.605
 5072SOL     OW16114   0.832   4.107   2.250
 5072SOL    HW116115   0.813   4.016   2.286
 5072SOL    HW216116   0.913   4.104   2.192
 5073SOL     OW16117   4.392   2.360   3.288
 5073SOL    HW116118   4.460   2.294   3.320
 5073SOL    HW216119   4.396   2.366   3.188
 5074SOL     OW16120   4.129   3.646   4.941
 5074SOL    HW116121   4.141   3.564   4.885
 5074SOL    HW216122   4.216   3.669   4.985
 5075SOL     OW16123   6.571   0.147   4.459
 5075SOL    HW116124   6.667   0.153   4.435
 5075SOL    HW216125   6.519   0.109   4.382
 5076SOL     OW16126   5.419   0.475   0.466
 5076SOL    HW116127   5.344   0.408   0.467
 5076SOL    HW216128   5.388   0.561   0.508
 5077SOL     OW16129   0.315   1.340   2.754
 5077SOL    HW116130   0.258   1.353   2.673
 5077SOL    HW216131   0.337   1.429   2.794
 5078SOL     OW16132   0.256   2.110   4.386
 5078SOL    HW116133   0.234   2.044   4.458
 5078SOL    HW216134   0.182   2.112   4.319
 5079SOL     OW16135   4.972   5.118   4.722
 5079SOL    HW116136   5.024   5.176   4.786
 5079SOL    HW216137   4.928   5.176   4.654
 5080SOL     OW16138   4.893   0.721   5.864
 5080SOL    HW116139   4.864   0.810   5.827
 5080SOL    HW216140   4.815   0.677   5.909
 5081SOL     OW16141   3.234   3.378   3.534
 5081SOL    HW116142   3.209   3.423   3.448
 5081SOL    HW216143   3.281   3.292   3.514
 5082SOL     OW16144   0.923   2.266   5.360
 5082SOL    HW116145   0.993   2.209   5.318
 5082SOL    HW216146   0.903   2.344   5.301
 5083SOL     OW16147   1.069   3.781   2.291
 5083SOL    HW116148   1.143   3.745   2.348
 5083SOL    HW216149   1.107   3.826   2.210
 5084SOL     OW16150   1.726   5.854   2.708
 5084SOL    HW116151   1.790   5.836   2.634
 5084SOL    HW216152   1.718   5.953   2.723
 5085SOL     OW16153   6.348   3.146   0.850
 5085SOL    HW116154   6.343   3.245   0.834
 5085SOL    HW216155   6.258   3.112   0.878
 5086SOL     OW16156   6.216   5.060   4.737
 5086SOL    HW116157   6.168   5.102   4.814
 5086SOL    HW216158   6.214   5.121   4.658
 5087SOL     OW16159   5.383   5.351   5.989
 5087SOL    HW116160   5.378   5.258   5.954
 5087SOL    HW216161   5.328   5.411   5.929
 5088SOL     OW16162   5.707   1.268   6.655
 5088SOL    HW116163   5.722   1.234   6.562
 5088SOL    HW216164   5.616   1.309   6.661
 5089SOL     OW16165   5.439   3.046   4.181
 5089SOL    HW116166   5.424   3.092   4.269
 5089SOL    HW216167   5.537   3.039   4.163
 5090SOL     OW16168   0.820   4.417   6.932
 5090SOL    HW116169   0.917   4.422   6.907
 5090SOL    HW216170   0.806   4.341   6.996
 5091SOL     OW16171   0.829   5.989   4.027
 5091SOL    HW116172   0.795   5.992   3.934
 5091SOL    HW216173   0.919   6.032   4.031
 5092SOL     OW16174   3.617   2.914   0.715
 5092SOL    HW116175   3.597   2.986   0.648
 5092SOL    HW216176   3.593   2.825   0.675
 5093SOL     OW16177   0.863   1.117   2.563
 5093SOL    HW116178   0.823   1.037   2.607
 5093SOL    HW216179   0.899   1.179   2.633
 5094SOL     OW16180   0.794   0.419   6.232
 5094SOL    HW116181   0.865   0.433   6.163
 5094SOL    HW216182   0.735   0.499   6.236
 5095SOL     OW16183   3.407   6.087   5.290
 5095SOL    HW116184   3.466   6.006   5.280
 5095SOL    HW216185   3.312   6.061   5.276
 5096SOL     OW16186   3.424   5.813   1.894
 5096SOL    HW116187   3.502   5.875   1.882
 5096SOL    HW216188   3.344   5.867   1.919
 5097SOL     OW16189   0.499   2.430   6.861
 5097SOL    HW116190   0.511   2.333   6.884
 5097SOL    HW216191   0.585   2.467   6.826
 5098SOL     OW16192   1.336   2.602   2.950
 5098SOL    HW116193   1.281   2.539   2.895
 5098SOL    HW216194   1.406   2.644   2.892
 5099SOL     OW16195   0.735   1.595   4.310
 5099SOL    HW116196   0.791   1.612   4.391
 5099SOL    HW216197   0.735   1.498   4.289
 5100SOL     OW16198   4.823   4.704   5.629
 5100SOL    HW116199   4.740   4.727   5.579
 5100SOL    HW216200   4.846   4.608   5.614
 5101SOL     OW16201   5.407   6.156   0.427
 5101SOL    HW116202   5.442   6.208   0.504
 5101SOL    HW216203   5.312   6.185   0.408
 5102SOL     OW16204   3.831   6.098   3.781
 5102SOL    HW116205   3.751   6.158   3.772
 5102SOL    HW216206   3.909   6.152   3.813
 5103SOL     OW16207   1.761   2.088   3.560
 5103SOL    HW116208   1.734   2.017   3.625
 5103SOL    HW216209   1.858   2.078   3.537
 5104SOL     OW16210   0.770   0.646   0.835
 5104SOL    HW116211   0.758   0.619   0.740
 5104SOL    HW216212   0.863   0.622   0.865
 5105SOL     OW16213   1.545   3.387   0.310
 5105SOL    HW116214   1.526   3.390   0.408
 5105SOL    HW216215   1.567   3.293   0.283
 5106SOL     OW16216   2.106   6.901   2.218
 5106SOL    HW116217   2.024   6.913   2.163
 5106SOL    HW216218   2.183   6.946   2.174
 5107SOL     OW16219   1.536   6.820   5.795
 5107SOL    HW116220   1.451   6.872   5.800
 5107SOL    HW216221   1.606   6.874   5.749
 5108SOL     OW16222   3.664   3.729   4.495
 5108SOL    HW116223   3.720   3.674   4.557
 5108SOL    HW216224   3.684   3.826   4.509
 5109SOL     OW16225   0.696   2.218   2.287
 5109SOL    HW116226   0.767   2.287   2.303
 5109SOL    HW216227   0.641   2.245   2.208
 5110SOL     OW16228   1.211   5.681   5.648
 5110SOL    HW116229   1.165   5.705   5.733
 5110SOL    HW216230   1.144   5.675   5.574
 5111SOL     OW16231   1.053   0.938   6.258
 5111SOL    HW116232   0.961   0.911   6.288
 5111SOL    HW216233   1.119   0.919   6.331
 5112SOL     OW16234   0.461   7.005   3.195
 5112SOL    HW116235   0.492   6.947   3.269
 5112SOL    HW216236   0.537   0.004   3.132
 5113SOL     OW16237   0.225   1.621   6.282
 5113SOL    HW116238   0.132   1.657   6.287
 5113SOL    HW216239   0.230   1.535   6.334
 5114SOL     OW16240   5.163   5.479   6.290
 5114SOL    HW116241   5.135   5.396   6.242
 5114SOL    HW216242   5.244   5.460   6.345
 5115SOL     OW16243   2.616   3.839   5.334
 5115SOL    HW116244   2.573   3.762   5.381
 5115SOL    HW216245   2.549   3.883   5.274
 5116SOL     OW16246   6.656   3.783   1.674
 5116SOL    HW116247   6.559   3.779   1.648
 5116SOL    HW216248   6.704   3.846   1.614
 5117SOL     OW16249   2.494   5.487   2.424
 5117SOL    HW116250   2.515   5.584   2.434
 5117SOL    HW216251   2.536   5.436   2.499
 5118SOL     OW16252   4.263   0.141   1.735
 5118SOL    HW116253   4.169   0.126   1.702
 5118SOL    HW216254   4.260   0.195   1.819
 5119SOL     OW16255   6.370   0.987   3.052
 5119SOL    HW116256   6.410   0.974   2.962
 5119SOL    HW216257   6.382   0.904   3.107
 5120SOL     OW16258   3.719   1.175   1.139
 5120SOL    HW116259   3.677   1.159   1.050
 5120SOL    HW216260   3.648   1.177   1.209
 5121SOL     OW16261   0.645   3.864   4.260
 5121SOL    HW116262   0.707   3.885   4.336
 5121SOL    HW216263   0.566   3.927   4.263
 5122SOL     OW16264   2.910   5.654   2.826
 5122SOL    HW116265   2.914   5.563   2.867
 5122SOL    HW216266   2.884   5.721   2.896
 5123SOL     OW16267   6.559   3.065   2.020
 5123SOL    HW116268   6.577   3.036   1.926
 5123SOL    HW216269   6.464   3.096   2.028
 5124SOL     OW16270   3.483   6.830   6.953
 5124SOL    HW116271   3.386   6.810   6.968
 5124SOL    HW216272   3.528   6.846   0.022
 5125SOL     OW16273   0.709   2.161   6.258
 5125SOL    HW116274   0.684   2.187   6.351
 5125SOL    HW216275   0.743   2.241   6.209
 5126SOL     OW16276   4.169   1.529   0.569
 5126SOL    HW116277   4.196   1.552   0.475
 5126SOL    HW216278   4.070   1.523   0.574
 5127SOL     OW16279   4.803   3.688   5.772
 5127SOL    HW116280   4.724   3.707   5.831
 5127SOL    HW216281   4.772   3.674   5.678
 5128SOL     OW16282   0.391   0.554   0.026
 5128SOL    HW116283   0.438   0.554   6.955
 5128SOL    HW216284   0.387   0.460   0.060
 5129SOL     OW16285   4.592   2.428   3.845
 5129SOL    HW116286   4.515   2.413   3.907
 5129SOL    HW216287   4.650   2.501   3.881
 5130SOL     OW16288   1.804   6.588   4.781
 5130SOL    HW116289   1.779   6.538   4.864
 5130SOL    HW216290   1.903   6.605   4.782
 5131SOL     OW16291   3.372   4.962   3.009
 5131SOL    HW116292   3.371   4.887   2.942
 5131SOL    HW216293   3.336   5.045   2.966
 5132SOL     OW16294   3.118   1.671   6.098
 5132SOL    HW116295   3.038   1.632   6.144
 5132SOL    HW216296   3.095   1.692   6.003
 5133SOL     OW16297   3.443   4.034   6.136
 5133SOL    HW116298   3.346   4.059   6.140
 5133SOL    HW216299   3.473   4.033   6.040
 5134SOL     OW16300   5.558   5.970   1.602
 5134SOL    HW116301   5.596   5.978   1.510
 5134SOL    HW216302   5.576   6.054   1.653
 5135SOL     OW16303   0.769   2.931   2.204
 5135SOL    HW116304   0.820   2.851   2.238
 5135SOL    HW216305   0.774   2.932   2.104
 5136SOL     OW16306   6.979   0.179   5.032
 5136SOL    HW116307   0.036   0.230   5.073
 5136SOL    HW216308   7.013   0.123   4.956
 5137SOL     OW16309   5.220   1.227   3.558
 5137SOL    HW116310   5.208   1.323   3.583
 5137SOL    HW216311   5.208   1.217   3.459
 5138SOL     OW16312   3.765   3.489   2.796
 5138SOL    HW116313   3.783   3.433   2.715
 5138SOL    HW216314   3.705   3.565   2.771
 5139SOL     OW16315   5.068   0.777   4.550
 5139SOL    HW116316   5.017   0.692   4.565
 5139SOL    HW216317   5.156   0.771   4.598
 5140SOL     OW16318   2.536   3.678   5.723
 5140SOL    HW116319   2.631   3.711   5.721
 5140SOL    HW216320   2.533   3.588   5.766
 5141SOL     OW16321   0.780   2.820   1.743
 5141SOL    HW116322   0.788   2.881   1.664
 5141SOL    HW216323   0.849   2.749   1.737
 5142SOL     OW16324   6.868   6.195   3.031
 5142SOL    HW116325   6.802   6.212   3.104
 5142SOL    HW216326   6.899   6.282   2.993
 5143SOL     OW16327   6.023   5.710   2.542
 5143SOL    HW116328   6.019   5.758   2.455
 5143SOL    HW216329   6.118   5.705   2.573
 5144SOL     OW16330   1.517   2.785   5.245
 5144SOL    HW116331   1.522   2.884   5.256
 5144SOL    HW216332   1.608   2.745   5.254
 5145SOL     OW16333   1.137   5.269   6.652
 5145SOL    HW116334   1.136   5.176   6.690
 5145SOL    HW216335   1.231   5.295   6.631
 5146SOL     OW16336   5.135   6.115   6.415
 5146SOL    HW116337   5.136   6.208   6.376
 5146SOL    HW216338   5.153   6.120   6.513
 5147SOL     OW16339   4.250   1.258   3.063
 5147SOL    HW116340   4.257   1.199   3.143
 5147SOL    HW216341   4.301   1.342   3.078
 5148SOL     OW16342   6.388   1.508   0.718
 5148SOL    HW116343   6.432   1.453   0.789
 5148SOL    HW216344   6.317   1.453   0.673
 5149SOL     OW16345   2.649   0.062   3.615
 5149SOL    HW116346   2.565   0.112   3.593
 5149SOL    HW216347   2.702   0.114   3.683
 5150SOL     OW16348   0.159   0.951   4.153
 5150SOL    HW116349   0.082   0.991   4.203
 5150SOL    HW216350   0.155   0.851   4.159
 5151SOL     OW16351   5.161   4.689   1.853
 5151SOL    HW116352   5.159   4.709   1.755
 5151SOL    HW216353   5.248   4.720   1.891
 5152SOL     OW16354   2.326   1.174   0.484
 5152SOL    HW116355   2.365   1.170   0.576
 5152SOL    HW216356   2.291   1.266   0.466
 5153SOL     OW16357   2.396   1.936   6.983
 5153SOL    HW116358   2.479   1.881   6.971
 5153SOL    HW216359   2.398   1.981   0.054
 5154SOL     OW16360   0.984   3.084   6.868
 5154SOL    HW116361   1.056   3.141   6.829
 5154SOL    HW216362   0.942   3.029   6.795
 5155SOL     OW16363   1.570   0.824   6.980
 5155SOL    HW116364   1.591   0.881   0.041
 5155SOL    HW216365   1.574   0.880   6.897
 5156SOL     OW16366   5.276   3.650   5.518
 5156SOL    HW116367   5.267   3.684   5.424
 5156SOL    HW216368   5.187   3.655   5.564
 5157SOL     OW16369   3.546   0.893   2.156
 5157SOL    HW116370   3.495   0.824   2.105
 5157SOL    HW216371   3.565   0.972   2.098
 5158SOL     OW16372   1.184   3.320   2.208
 5158SOL    HW116373   1.212   3.270   2.127
 5158SOL    HW216374   1.228   3.280   2.289
 5159SOL     OW16375   6.300   3.225   6.007
 5159SOL    HW116376   6.266   3.136   6.036
 5159SOL    HW216377   6.256   3.251   5.921
 5160SOL     OW16378   6.440   1.155   3.257
 5160SOL    HW116379   6.401   1.132   3.168
 5160SOL    HW216380   6.446   1.254   3.266
 5161SOL     OW16381   1.351   1.908   6.523
 5161SOL    HW116382   1.324   1.897   6.618
 5161SOL    HW216383   1.275   1.948   6.471
 5162SOL     OW16384   0.166   0.614   6.008
 5162SOL    HW116385   0.182   0.712   6.020
 5162SOL    HW216386   0.231   0.563   6.065
 5163SOL     OW16387   3.609   1.444   1.366
 5163SOL    HW116388   3.587   1.347   1.359
 5163SOL    HW216389   3.704   1.459   1.339
 5164SOL     OW16390   2.358   2.822   0.108
 5164SOL    HW116391   2.291   2.827   0.033
 5164SOL    HW216392   2.315   2.778   0.187
 5165SOL     OW16393   1.086   5.388   5.433
 5165SOL    HW116394   1.155   5.329   5.390
 5165SOL    HW216395   1.099   5.482   5.403
 5166SOL     OW16396   6.267   5.520   5.875
 5166SOL    HW116397   6.264   5.518   5.975
 5166SOL    HW216398   6.345   5.466   5.843
 5167SOL     OW16399   5.957   3.024   6.057
 5167SOL    HW116400   6.044   2.976   6.049
 5167SOL    HW216401   5.928   3.024   6.153
 5168SOL     OW16402   5.236   1.140   3.201
 5168SOL    HW116403   5.318   1.139   3.258
 5168SOL    HW216404   5.257   1.103   3.111
 5169SOL     OW16405   4.953   5.889   4.981
 5169SOL    HW116406   4.925   5.793   4.992
 5169SOL    HW216407   4.956   5.911   4.883
 5170SOL     OW16408   2.612   2.940   6.624
 5170SOL    HW116409   2.696   2.994   6.633
 5170SOL    HW216410   2.566   2.966   6.538
 5171SOL     OW16411   1.578   6.517   5.870
 5171SOL    HW116412   1.543   6.535   5.962
 5171SOL    HW216413   1.665   6.564   5.857
 5172SOL     OW16414   4.773   5.216   5.819
 5172SOL    HW116415   4.788   5.303   5.773
 5172SOL    HW216416   4.726   5.232   5.906
 5173SOL     OW16417   4.658   6.192   3.739
 5173SOL    HW116418   4.574   6.217   3.691
 5173SOL    HW216419   4.710   6.275   3.760
 5174SOL     OW16420   0.718   5.982   3.786
 5174SOL    HW116421   0.689   6.077   3.785
 5174SOL    HW216422   0.648   5.924   3.744
 5175SOL     OW16423   2.935   1.998   5.945
 5175SOL    HW116424   2.950   1.972   6.041
 5175SOL    HW216425   2.968   2.091   5.930
 5176SOL     OW16426   5.642   6.797   6.093
 5176SOL    HW116427   5.564   6.735   6.104
 5176SOL    HW216428   5.622   6.884   6.140
 5177SOL     OW16429   4.966   5.157   1.234
 5177SOL    HW116430   4.926   5.065   1.234
 5177SOL    HW216431   4.897   5.223   1.205
 5178SOL     OW16432   0.922   3.855   1.180
 5178SOL    HW116433   0.833   3.894   1.204
 5178SOL    HW216434   0.955   3.797   1.254
 5179SOL     OW16435   3.868   5.337   2.756
 5179SOL    HW116436   3.947   5.380   2.800
 5179SOL    HW216437   3.824   5.401   2.694
 5180SOL     OW16438   3.069   5.231   2.268
 5180SOL    HW116439   3.026   5.321   2.260
 5180SOL    HW216440   3.131   5.216   2.192
 5181SOL     OW16441   6.713   1.743   5.352
 5181SOL    HW116442   6.763   1.664   5.384
 5181SOL    HW216443   6.725   1.819   5.415
 5182SOL     OW16444   2.490   5.815   2.480
 5182SOL    HW116445   2.466   5.834   2.384
 5182SOL    HW216446   2.424   5.860   2.540
 5183SOL     OW16447   5.404   1.793   3.141
 5183SOL    HW116448   5.441   1.701   3.127
 5183SOL    HW216449   5.470   1.861   3.110
 5184SOL     OW16450   2.928   1.393   1.812
 5184SOL    HW116451   3.021   1.417   1.785
 5184SOL    HW216452   2.869   1.473   1.804
 5185SOL     OW16453   6.412   0.674   1.391
 5185SOL    HW116454   6.317   0.668   1.359
 5185SOL    HW216455   6.440   0.587   1.430
 5186SOL     OW16456   5.988   2.520   6.555
 5186SOL    HW116457   5.897   2.481   6.543
 5186SOL    HW216458   6.056   2.447   6.550
 5187SOL     OW16459   1.192   4.648   5.066
 5187SOL    HW116460   1.166   4.724   5.007
 5187SOL    HW216461   1.271   4.675   5.122
 5188SOL     OW16462   0.085   0.575   1.500
 5188SOL    HW116463   0.162   0.518   1.529
 5188SOL    HW216464   0.084   0.583   1.401
 5189SOL     OW16465   5.365   6.332   6.043
 5189SOL    HW116466   5.391   6.302   5.951
 5189SOL    HW216467   5.266   6.345   6.048
 5190SOL     OW16468   1.130   5.276   0.737
 5190SOL    HW116469   1.140   5.199   0.674
 5190SOL    HW216470   1.078   5.248   0.817
 5191SOL     OW16471   3.134   3.783   1.343
 5191SOL    HW116472   3.132   3.843   1.264
 5191SOL    HW216473   3.153   3.836   1.426
 5192SOL     OW16474   0.641   4.784   2.543
 5192SOL    HW116475   0.594   4.832   2.469
 5192SOL    HW216476   0.578   4.768   2.618
 5193SOL     OW16477   3.510   0.512   4.783
 5193SOL    HW116478   3.579   0.568   4.828
 5193SOL    HW216479   3.461   0.567   4.716
 5194SOL     OW16480   4.039   1.534   5.500
 5194SOL    HW116481   4.033   1.617   5.555
 5194SOL    HW216482   3.950   1.516   5.457
 5195SOL     OW16483   2.221   1.322   4.939
 5195SOL    HW116484   2.130   1.302   4.903
 5195SOL    HW216485   2.212   1.360   5.032
 5196SOL     OW16486   5.810   6.039   2.901
 5196SOL    HW116487   5.711   6.043   2.918
 5196SOL    HW216488   5.830   5.962   2.840
 5197SOL     OW16489   2.368   3.881   5.673
 5197SOL    HW116490   2.432   3.805   5.682
 5197SOL    HW216491   2.398   3.941   5.599
 5198SOL     OW16492   6.786   5.567   3.672
 5198SOL    HW116493   6.724   5.499   3.633
 5198SOL    HW216494   6.878   5.529   3.676
 5199SOL     OW16495   0.890   5.109   1.317
 5199SOL    HW116496   0.855   5.176   1.252
 5199SOL    HW216497   0.862   5.134   1.409
 5200SOL     OW16498   0.190   4.179   5.820
 5200SOL    HW116499   0.141   4.094   5.836
 5200SOL    HW216500   0.279   4.160   5.778
 5201SOL     OW16501   0.956   5.519   4.450
 5201SOL    HW116502   0.932   5.614   4.469
 5201SOL    HW216503   1.007   5.481   4.528
 5202SOL     OW16504   0.044   5.052   1.803
 5202SOL    HW116505   0.078   5.133   1.755
 5202SOL    HW216506   0.073   5.056   1.898
 5203SOL     OW16507   6.644   3.291   7.013
 5203SOL    HW116508   6.644   3.198   6.976
 5203SOL    HW216509   6.639   3.357   6.939
 5204SOL     OW16510   5.385   5.403   6.441
 5204SOL    HW116511   5.441   5.417   6.523
 5204SOL    HW216512   5.368   5.305   6.428
 5205SOL     OW16513   2.437   6.027   0.541
 5205SOL    HW116514   2.449   5.966   0.618
 5205SOL    HW216515   2.525   6.070   0.519
 5206SOL     OW16516   0.156   4.626   4.708
 5206SOL    HW116517   0.128   4.696   4.774
 5206SOL    HW216518   0.164   4.538   4.755
 5207SOL     OW16519   1.421   6.298   2.267
 5207SOL    HW116520   1.453   6.388   2.238
 5207SOL    HW216521   1.482   6.228   2.231
 5208SOL     OW16522   4.619   2.038   0.430
 5208SOL    HW116523   4.689   1.966   0.430
 5208SOL    HW216524   4.562   2.029   0.348
 5209SOL     OW16525   6.328   5.196   3.428
 5209SOL    HW116526   6.409   5.188   3.369
 5209SOL    HW216527   6.358   5.204   3.524
 5210SOL     OW16528   4.848   3.433   3.507
 5210SOL    HW116529   4.806   3.444   3.417
 5210SOL    HW216530   4.943   3.405   3.496
 5211SOL     OW16531   2.964   4.209   1.704
 5211SOL    HW116532   2.945   4.284   1.767
 5211SOL    HW216533   2.969   4.245   1.611
 5212SOL     OW16534   0.479   6.974   6.204
 5212SOL    HW116535   0.516   0.048   6.202
 5212SOL    HW216536   0.481   6.940   6.298
 5213SOL     OW16537   4.727   1.975   6.848
 5213SOL    HW116538   4.752   2.067   6.819
 5213SOL    HW216539   4.805   1.932   6.894
 5214SOL     OW16540   5.051   2.153   0.044
 5214SOL    HW116541   5.111   2.233   0.053
 5214SOL    HW216542   4.979   2.172   6.997
 5215SOL     OW16543   6.140   5.503   4.481
 5215SOL    HW116544   6.157   5.405   4.481
 5215SOL    HW216545   6.191   5.546   4.407
 5216SOL     OW16546   3.087   6.347   1.394
 5216SOL    HW116547   3.038   6.409   1.333
 5216SOL    HW216548   3.169   6.313   1.347
 5217SOL     OW16549   2.821   5.579   3.989
 5217SOL    HW116550   2.816   5.610   4.084
 5217SOL    HW216551   2.854   5.485   3.986
 5218SOL     OW16552   0.785   0.372   3.800
 5218SOL    HW116553   0.816   0.396   3.708
 5218SOL    HW216554   0.696   0.414   3.817
 5219SOL     OW16555   2.941   6.509   1.228
 5219SOL    HW116556   2.988   6.478   1.145
 5219SOL    HW216557   2.862   6.565   1.202
 5220SOL     OW16558   0.862   6.590   2.369
 5220SOL    HW116559   0.953   6.599   2.411
 5220SOL    HW216560   0.867   6.525   2.293
 5221SOL     OW16561   4.638   0.382   0.386
 5221SOL    HW116562   4.645   0.472   0.343
 5221SOL    HW216563   4.717   0.327   0.361
 5222SOL     OW16564   6.627   5.487   2.559
 5222SOL    HW116565   6.544   5.514   2.606
 5222SOL    HW216566   6.699   5.554   2.578
 5223SOL     OW16567   4.371   6.735   1.698
 5223SOL    HW116568   4.361   6.721   1.599
 5223SOL    HW216569   4.459   6.779   1.717
 5224SOL     OW16570   5.577   0.468   3.500
 5224SOL    HW116571   5.601   0.550   3.552
 5224SOL    HW216572   5.553   0.394   3.563
 5225SOL     OW16573   0.136   6.802   5.946
 5225SOL    HW116574   0.048   6.767   5.915
 5225SOL    HW216575   0.209   6.743   5.911
 5226SOL     OW16576   2.304   0.975   3.497
 5226SOL    HW116577   2.339   1.040   3.564
 5226SOL    HW216578   2.227   1.015   3.448
 5227SOL     OW16579   5.765   3.885   4.254
 5227SOL    HW116580   5.720   3.826   4.321
 5227SOL    HW216581   5.751   3.848   4.162
 5228SOL     OW16582   4.897   6.538   2.343
 5228SOL    HW116583   4.831   6.591   2.396
 5228SOL    HW216584   4.990   6.560   2.372
 5229SOL     OW16585   0.901   3.860   3.805
 5229SOL    HW116586   0.930   3.931   3.869
 5229SOL    HW216587   0.849   3.901   3.731
 5230SOL     OW16588   0.489   1.391   6.689
 5230SOL    HW116589   0.421   1.339   6.638
 5230SOL    HW216590   0.446   1.438   6.765
 5231SOL     OW16591   2.864   3.666   3.212
 5231SOL    HW116592   2.921   3.673   3.293
 5231SOL    HW216593   2.779   3.716   3.226
 5232SOL     OW16594   5.473   2.930   4.654
 5232SOL    HW116595   5.515   2.864   4.591
 5232SOL    HW216596   5.537   2.952   4.727
 5233SOL     OW16597   0.832   0.116   2.478
 5233SOL    HW116598   0.821   0.177   2.557
 5233SOL    HW216599   0.795   0.026   2.500
 5234SOL     OW16600   3.440   4.092   1.423
 5234SOL    HW116601   3.456   3.996   1.447
 5234SOL    HW216602   3.505   4.121   1.353
 5235SOL     OW16603   0.711   1.586   1.882
 5235SOL    HW116604   0.808   1.597   1.904
 5235SOL    HW216605   0.672   1.510   1.934
 5236SOL     OW16606   6.101   2.981   0.485
 5236SOL    HW116607   6.105   3.074   0.449
 5236SOL    HW216608   6.177   2.966   0.548
 5237SOL     OW16609   1.669   1.865   2.365
 5237SOL    HW116610   1.679   1.877   2.267
 5237SOL    HW216611   1.705   1.946   2.412
 5238SOL     OW16612   1.834   3.702   1.791
 5238SOL    HW116613   1.753   3.644   1.786
 5238SOL    HW216614   1.916   3.645   1.786
 5239SOL     OW16615   2.829   3.310   5.294
 5239SOL    HW116616   2.788   3.219   5.283
 5239SOL    HW216617   2.865   3.342   5.207
 5240SOL     OW16618   3.974   2.139   3.834
 5240SOL    HW116619   4.016   2.227   3.811
 5240SOL    HW216620   3.927   2.147   3.922
 5241SOL     OW16621   4.693   5.796   5.181
 5241SOL    HW116622   4.731   5.794   5.088
 5241SOL    HW216623   4.607   5.847   5.181
 5242SOL     OW16624   3.107   0.767   5.933
 5242SOL    HW116625   3.054   0.841   5.974
 5242SOL    HW216626   3.054   0.725   5.859
 5243SOL     OW16627   1.628   4.053   0.246
 5243SOL    HW116628   1.691   4.020   0.317
 5243SOL    HW216629   1.679   4.072   0.162
 5244SOL     OW16630   6.107   3.107   6.891
 5244SOL    HW116631   6.158   3.051   6.827
 5244SOL    HW216632   6.147   3.199   6.896
 5245SOL     OW16633   4.519   4.454   5.822
 5245SOL    HW116634   4.474   4.424   5.906
 5245SOL    HW216635   4.451   4.463   5.749
 5246SOL     OW16636   1.238   3.223   3.434
 5246SOL    HW116637   1.223   3.137   3.385
 5246SOL    HW216638   1.324   3.217   3.485
 5247SOL     OW16639   0.544   4.228   6.924
 5247SOL    HW116640   0.558   4.270   6.834
 5247SOL    HW216641   0.486   4.147   6.914
 5248SOL     OW16642   4.658   1.221   0.317
 5248SOL    HW116643   4.743   1.249   0.272
 5248SOL    HW216644   4.674   1.137   0.370
 5249SOL     OW16645   0.608   5.341   0.237
 5249SOL    HW116646   0.682   5.308   0.297
 5249SOL    HW216647   0.602   5.282   0.157
 5250SOL     OW16648   1.320   1.610   5.478
 5250SOL    HW116649   1.320   1.685   5.545
 5250SOL    HW216650   1.230   1.603   5.436
 5251SOL     OW16651   0.998   2.171   1.497
 5251SOL    HW116652   1.015   2.269   1.487
 5251SOL    HW216653   0.920   2.145   1.441
 5252SOL     OW16654   5.361   5.394   1.495
 5252SOL    HW116655   5.387   5.304   1.530
 5252SOL    HW216656   5.265   5.391   1.467
 5253SOL     OW16657   5.725   3.017   4.084
 5253SOL    HW116658   5.746   2.930   4.130
 5253SOL    HW216659   5.748   3.008   3.986
 5254SOL     OW16660   5.436   0.446   4.586
 5254SOL    HW116661   5.466   0.465   4.492
 5254SOL    HW216662   5.506   0.392   4.633
 5255SOL     OW16663   2.216   5.602   2.367
 5255SOL    HW116664   2.272   5.522   2.345
 5255SOL    HW216665   2.168   5.587   2.453
 5256SOL     OW16666   4.906   6.053   2.165
 5256SOL    HW116667   4.925   6.142   2.207
 5256SOL    HW216668   4.916   5.981   2.234
 5257SOL     OW16669   2.292   1.715   2.096
 5257SOL    HW116670   2.232   1.750   2.168
 5257SOL    HW216671   2.353   1.789   2.066
 5258SOL     OW16672   5.577   2.046   1.656
 5258SOL    HW116673   5.512   2.070   1.584
 5258SOL    HW216674   5.630   1.966   1.628
 5259SOL     OW16675   5.767   5.121   1.257
 5259SOL    HW116676   5.694   5.101   1.323
 5259SOL    HW216677   5.850   5.146   1.306
 5260SOL     OW16678   5.291   3.232   2.037
 5260SOL    HW116679   5.379   3.238   2.085
 5260SOL    HW216680   5.230   3.303   2.071
 5261SOL     OW16681   2.304   2.728   5.139
 5261SOL    HW116682   2.319   2.826   5.121
 5261SOL    HW216683   2.351   2.674   5.069
 5262SOL     OW16684   1.002   0.643   2.052
 5262SOL    HW116685   0.927   0.706   2.072
 5262SOL    HW216686   1.089   0.693   2.053
 5263SOL     OW16687   1.256   6.739   6.549
 5263SOL    HW116688   1.183   6.763   6.612
 5263SOL    HW216689   1.313   6.668   6.590
 5264SOL     OW16690   1.281   0.635   0.697
 5264SOL    HW116691   1.278   0.717   0.639
 5264SOL    HW216692   1.336   0.565   0.653
 5265SOL     OW16693   5.052   4.992   3.831
 5265SOL    HW116694   5.099   4.951   3.909
 5265SOL    HW216695   5.098   4.964   3.747
 5266SOL     OW16696   1.344   6.564   1.502
 5266SOL    HW116697   1.275   6.631   1.530
 5266SOL    HW216698   1.390   6.596   1.419
 5267SOL     OW16699   3.737   3.448   5.017
 5267SOL    HW116700   3.810   3.389   4.983
 5267SOL    HW216701   3.776   3.523   5.070
 5268SOL     OW16702   6.027   4.261   6.342
 5268SOL    HW116703   5.977   4.315   6.274
 5268SOL    HW216704   6.040   4.168   6.307
 5269SOL     OW16705   3.009   5.087   5.254
 5269SOL    HW116706   2.968   5.178   5.244
 5269SOL    HW216707   2.959   5.035   5.323
 5270SOL     OW16708   0.064   1.088   2.824
 5270SOL    HW116709   0.118   1.125   2.748
 5270SOL    HW216710   0.126   1.054   2.894
 5271SOL     OW16711   5.656   3.782   4.867
 5271SOL    HW116712   5.695   3.806   4.956
 5271SOL    HW216713   5.556   3.795   4.870
 5272SOL     OW16714   2.250   2.524   3.722
 5272SOL    HW116715   2.192   2.498   3.799
 5272SOL    HW216716   2.199   2.514   3.636
 5273SOL     OW16717   6.517   0.933   5.621
 5273SOL    HW116718   6.552   0.997   5.689
 5273SOL    HW216719   6.455   0.981   5.558
 5274SOL     OW16720   0.868   5.118   4.795
 5274SOL    HW116721   0.912   5.136   4.883
 5274SOL    HW216722   0.791   5.055   4.808
 5275SOL     OW16723   2.597   6.508   6.824
 5275SOL    HW116724   2.513   6.455   6.835
 5275SOL    HW216725   2.575   6.606   6.823
 5276SOL     OW16726   6.981   0.844   6.927
 5276SOL    HW116727   6.937   0.912   6.986
 5276SOL    HW216728   0.049   0.880   6.893
 5277SOL     OW16729   0.993   0.824   1.389
 5277SOL    HW116730   0.954   0.797   1.478
 5277SOL    HW216731   0.991   0.923   1.381
 5278SOL     OW16732   6.965   4.740   6.611
 5278SOL    HW116733   7.010   4.751   6.699
 5278SOL    HW216734   6.960   4.643   6.587
 5279SOL     OW16735   2.509   6.209   0.200
 5279SOL    HW116736   2.566   6.284   0.168
 5279SOL    HW216737   2.560   6.123   0.194
 5280SOL     OW16738   4.785   6.440   5.778
 5280SOL    HW116739   4.745   6.348   5.782
 5280SOL    HW216740   4.787   6.471   5.683
 5281SOL     OW16741   2.072   6.365   5.066
 5281SOL    HW116742   2.137   6.374   4.990
 5281SOL    HW216743   2.045   6.269   5.074
 5282SOL     OW16744   6.717   5.680   1.211
 5282SOL    HW116745   6.708   5.582   1.198
 5282SOL    HW216746   6.663   5.708   1.290
 5283SOL     OW16747   1.529   0.143   4.188
 5283SOL    HW116748   1.440   0.140   4.142
 5283SOL    HW216749   1.516   0.163   4.285
 5284SOL     OW16750   4.957   3.203   1.893
 5284SOL    HW116751   5.025   3.193   1.965
 5284SOL    HW216752   4.872   3.157   1.920
 5285SOL     OW16753   2.257   1.499   4.140
 5285SOL    HW116754   2.306   1.462   4.219
 5285SOL    HW216755   2.308   1.479   4.056
 5286SOL     OW16756   0.447   2.730   1.625
 5286SOL    HW116757   0.498   2.734   1.710
 5286SOL    HW216758   0.397   2.815   1.611
 5287SOL     OW16759   0.270   5.659   2.070
 5287SOL    HW116760   0.334   5.661   1.993
 5287SOL    HW216761   0.217   5.574   2.067
 5288SOL     OW16762   3.908   0.628   1.904
 5288SOL    HW116763   3.908   0.540   1.856
 5288SOL    HW216764   3.988   0.681   1.876
 5289SOL     OW16765   1.406   5.236   6.478
 5289SOL    HW116766   1.393   5.322   6.528
 5289SOL    HW216767   1.487   5.189   6.514
 5290SOL     OW16768   1.940   2.530   5.465
 5290SOL    HW116769   1.884   2.547   5.546
 5290SOL    HW216770   1.971   2.435   5.465
 5291SOL     OW16771   2.881   6.181   4.544
 5291SOL    HW116772   2.927   6.126   4.614
 5291SOL    HW216773   2.869   6.274   4.578
 5292SOL     OW16774   0.694   4.255   4.561
 5292SOL    HW116775   0.709   4.209   4.648
 5292SOL    HW216776   0.771   4.235   4.499
 5293SOL     OW16777   2.451   0.413   3.768
 5293SOL    HW116778   2.380   0.388   3.701
 5293SOL    HW216779   2.451   0.512   3.782
 5294SOL     OW16780   5.127   0.009   4.285
 5294SOL    HW116781   5.037   0.032   4.250
 5294SOL    HW216782   5.172   6.963   4.224
 5295SOL     OW16783   2.061   0.392   1.390
 5295SOL    HW116784   2.072   0.435   1.479
 5295SOL    HW216785   2.068   0.293   1.400
 5296SOL     OW16786   4.636   5.103   2.185
 5296SOL    HW116787   4.716   5.045   2.195
 5296SOL    HW216788   4.650   5.167   2.110
 5297SOL     OW16789   3.632   5.002   6.002
 5297SOL    HW116790   3.638   5.088   5.951
 5297SOL    HW216791   3.709   4.995   6.065
 5298SOL     OW16792   3.549   1.069   6.891
 5298SOL    HW116793   3.629   1.049   6.947
 5298SOL    HW216794   3.492   0.987   6.883
 5299SOL     OW16795   1.688   0.239   1.145
 5299SOL    HW116796   1.635   0.301   1.202
 5299SOL    HW216797   1.784   0.266   1.147
 5300SOL     OW16798   2.698   4.880   6.712
 5300SOL    HW116799   2.656   4.800   6.668
 5300SOL    HW216800   2.707   4.954   6.645
 5301SOL     OW16801   6.338   0.105   5.959
 5301SOL    HW116802   6.295   0.024   5.919
 5301SOL    HW216803   6.272   0.153   6.016
 5302SOL     OW16804   4.874   5.645   3.638
 5302SOL    HW116805   4.842   5.624   3.546
 5302SOL    HW216806   4.922   5.566   3.676
 5303SOL     OW16807   1.718   6.449   5.291
 5303SOL    HW116808   1.625   6.416   5.308
 5303SOL    HW216809   1.776   6.426   5.369
 5304SOL     OW16810   0.411   0.257   3.210
 5304SOL    HW116811   0.350   0.260   3.131
 5304SOL    HW216812   0.452   0.166   3.218
 5305SOL     OW16813   6.521   5.234   4.888
 5305SOL    HW116814   6.435   5.268   4.848
 5305SOL    HW216815   6.539   5.142   4.853
 5306SOL     OW16816   0.772   1.903   6.359
 5306SOL    HW116817   0.842   1.872   6.423
 5306SOL    HW216818   0.797   1.993   6.323
 5307SOL     OW16819   0.829   1.278   1.665
 5307SOL    HW116820   0.863   1.342   1.596
 5307SOL    HW216821   0.887   1.283   1.746
 5308SOL     OW16822   2.111   4.469   2.932
 5308SOL    HW116823   2.127   4.470   3.031
 5308SOL    HW216824   2.119   4.562   2.896
 5309SOL     OW16825   5.989   6.045   3.099
 5309SOL    HW116826   5.911   6.058   3.038
 5309SOL    HW216827   5.963   5.984   3.174
 5310SOL     OW16828   6.083   1.927   3.286
 5310SOL    HW116829   6.040   1.882   3.208
 5310SOL    HW216830   6.042   1.894   3.371
 5311SOL     OW16831   5.885   0.158   0.568
 5311SOL    HW116832   5.850   0.065   0.558
 5311SOL    HW216833   5.837   0.219   0.505
 5312SOL     OW16834   5.314   6.633   1.254
 5312SOL    HW116835   5.298   6.621   1.352
 5312SOL    HW216836   5.318   6.731   1.232
 5313SOL     OW16837   0.861   6.409   5.734
 5313SOL    HW116838   0.855   6.507   5.756
 5313SOL    HW216839   0.882   6.358   5.818
 5314SOL     OW16840   5.694   1.877   2.302
 5314SOL    HW116841   5.627   1.828   2.358
 5314SOL    HW216842   5.766   1.913   2.361
 5315SOL     OW16843   4.289   1.995   3.439
 5315SOL    HW116844   4.256   2.090   3.431
 5315SOL    HW216845   4.212   1.935   3.457
 5316SOL     OW16846   0.154   3.049   4.951
 5316SOL    HW116847   0.123   2.954   4.954
 5316SOL    HW216848   0.087   3.105   4.903
 5317SOL     OW16849   5.539   2.885   1.541
 5317SOL    HW116850   5.481   2.943   1.599
 5317SOL    HW216851   5.569   2.805   1.593
 5318SOL     OW16852   6.702   4.738   6.033
 5318SOL    HW116853   6.642   4.818   6.033
 5318SOL    HW216854   6.651   4.657   6.061
 5319SOL     OW16855   4.310   5.593   2.621
 5319SOL    HW116856   4.373   5.666   2.594
 5319SOL    HW216857   4.218   5.614   2.588
 5320SOL     OW16858   4.473   6.161   0.020
 5320SOL    HW116859   4.455   6.137   6.943
 5320SOL    HW216860   4.440   6.087   0.079
 5321SOL     OW16861   1.338   4.032   5.057
 5321SOL    HW116862   1.371   4.047   5.151
 5321SOL    HW216863   1.414   4.001   5.000
 5322SOL     OW16864   4.396   5.773   1.725
 5322SOL    HW116865   4.438   5.752   1.813
 5322SOL    HW216866   4.448   5.845   1.679
 5323SOL     OW16867   3.880   0.245   6.018
 5323SOL    HW116868   3.919   0.206   5.935
 5323SOL    HW216869   3.850   0.172   6.079
 5324SOL     OW16870   0.948   1.055   2.003
 5324SOL    HW116871   0.994   1.009   1.927
 5324SOL    HW216872   0.928   1.150   1.977
 5325SOL     OW16873   2.213   3.117   4.087
 5325SOL    HW116874   2.145   3.066   4.141
 5325SOL    HW216875   2.215   3.212   4.119
 5326SOL     OW16876   6.106   0.159   1.185
 5326SOL    HW116877   6.030   0.174   1.122
 5326SOL    HW216878   6.191   0.190   1.143
 5327SOL     OW16879   0.370   2.504   5.889
 5327SOL    HW116880   0.390   2.458   5.802
 5327SOL    HW216881   0.315   2.443   5.947
 5328SOL     OW16882   3.603   5.165   0.725
 5328SOL    HW116883   3.552   5.237   0.771
 5328SOL    HW216884   3.690   5.201   0.691
 5329SOL     OW16885   2.334   5.857   6.268
 5329SOL    HW116886   2.242   5.895   6.279
 5329SOL    HW216887   2.345   5.826   6.174
 5330SOL     OW16888   2.531   5.660   0.946
 5330SOL    HW116889   2.516   5.656   1.045
 5330SOL    HW216890   2.625   5.631   0.926
 5331SOL     OW16891   6.447   1.695   6.856
 5331SOL    HW116892   6.534   1.653   6.831
 5331SOL    HW216893   6.395   1.717   6.773
 5332SOL     OW16894   1.096   4.745   2.476
 5332SOL    HW116895   1.128   4.823   2.531
 5332SOL    HW216896   1.134   4.753   2.384
 5333SOL     OW16897   1.025   6.375   4.381
 5333SOL    HW116898   1.116   6.338   4.398
 5333SOL    HW216899   0.972   6.373   4.466
 5334SOL     OW16900   2.943   6.705   5.548
 5334SOL    HW116901   2.970   6.639   5.477
 5334SOL    HW216902   2.885   6.775   5.507
 5335SOL     OW16903   6.268   6.593   1.006
 5335SOL    HW116904   6.311   6.563   1.091
 5335SOL    HW216905   6.180   6.548   0.996
 5336SOL     OW16906   0.979   3.695   1.424
 5336SOL    HW116907   0.973   3.602   1.387
 5336SOL    HW216908   1.066   3.705   1.473
 5337SOL     OW16909   5.366   5.028   1.593
 5337SOL    HW116910   5.367   4.928   1.604
 5337SOL    HW216911   5.451   5.057   1.549
 5338SOL     OW16912   5.301   2.893   0.788
 5338SOL    HW116913   5.223   2.956   0.788
 5338SOL    HW216914   5.368   2.923   0.855
 5339SOL     OW16915   6.368   0.480   2.031
 5339SOL    HW116916   6.435   0.552   2.053
 5339SOL    HW216917   6.280   0.523   2.011
 5340SOL     OW16918   4.796   2.615   0.279
 5340SOL    HW116919   4.826   2.683   0.211
 5340SOL    HW216920   4.742   2.544   0.233
 5341SOL     OW16921   4.056   0.387   0.917
 5341SOL    HW116922   4.146   0.409   0.955
 5341SOL    HW216923   4.043   0.436   0.831
 5342SOL     OW16924   1.939   0.213   6.176
 5342SOL    HW116925   1.863   0.176   6.230
 5342SOL    HW216926   2.025   0.190   6.221
 5343SOL     OW16927   3.150   4.198   1.031
 5343SOL    HW116928   3.178   4.108   1.064
 5343SOL    HW216929   3.120   4.191   0.936
 5344SOL     OW16930   2.133   2.721   2.843
 5344SOL    HW116931   2.159   2.628   2.820
 5344SOL    HW216932   2.058   2.720   2.909
 5345SOL     OW16933   5.159   0.495   3.335
 5345SOL    HW116934   5.198   0.502   3.427
 5345SOL    HW216935   5.158   0.399   3.307
 5346SOL     OW16936   3.432   0.908   3.798
 5346SOL    HW116937   3.511   0.913   3.859
 5346SOL    HW216938   3.354   0.953   3.840
 5347SOL     OW16939   6.818   1.118   2.137
 5347SOL    HW116940   6.845   1.110   2.041
 5347SOL    HW216941   6.780   1.208   2.153
 5348SOL     OW16942   6.459   2.114   0.101
 5348SOL    HW116943   6.515   2.136   0.021
 5348SOL    HW216944   6.468   2.017   0.122
 5349SOL     OW16945   5.417   1.097   0.758
 5349SOL    HW116946   5.440   0.999   0.755
 5349SOL    HW216947   5.456   1.143   0.678
 5350SOL     OW16948   3.128   0.679   6.601
 5350SOL    HW116949   3.156   0.623   6.679
 5350SOL    HW216950   3.208   0.729   6.566
 5351SOL     OW16951   4.632   1.579   2.363
 5351SOL    HW116952   4.547   1.558   2.411
 5351SOL    HW216953   4.612   1.613   2.272
 5352SOL     OW16954   3.603   0.698   3.726
 5352SOL    HW116955   3.557   0.778   3.765
 5352SOL    HW216956   3.550   0.663   3.649
 5353SOL     OW16957   6.430   0.031   6.270
 5353SOL    HW116958   6.425   6.950   6.285
 5353SOL    HW216959   6.342   0.073   6.295
 5354SOL     OW16960   0.760   3.047   1.543
 5354SOL    HW116961   0.666   3.081   1.531
 5354SOL    HW216962   0.775   2.970   1.480
 5355SOL     OW16963   4.744   1.382   5.601
 5355SOL    HW116964   4.674   1.428   5.656
 5355SOL    HW216965   4.702   1.306   5.552
 5356SOL     OW16966   6.798   3.620   1.849
 5356SOL    HW116967   6.897   3.629   1.836
 5356SOL    HW216968   6.750   3.675   1.779
 5357SOL     OW16969   4.417   5.592   0.222
 5357SOL    HW116970   4.511   5.587   0.186
 5357SOL    HW216971   4.365   5.514   0.187
 5358SOL     OW16972   5.558   4.436   1.446
 5358SOL    HW116973   5.527   4.342   1.463
 5358SOL    HW216974   5.479   4.496   1.437
 5359SOL     OW16975   3.039   0.523   5.680
 5359SOL    HW116976   3.136   0.514   5.705
 5359SOL    HW216977   2.984   0.462   5.736
 5360SOL     OW16978   4.173   1.966   0.396
 5360SOL    HW116979   4.129   1.946   0.483
 5360SOL    HW216980   4.267   1.932   0.397
 5361SOL     OW16981   0.243   1.356   6.382
 5361SOL    HW116982   0.169   1.305   6.338
 5361SOL    HW216983   0.281   1.301   6.457
 5362SOL     OW16984   4.276   6.012   3.973
 5362SOL    HW116985   4.254   6.107   3.950
 5362SOL    HW216986   4.373   5.996   3.958
 5363SOL     OW16987   0.944   5.676   4.917
 5363SOL    HW116988   0.852   5.663   4.879
 5363SOL    HW216989   1.002   5.722   4.850
 5364SOL     OW16990   0.899   5.882   6.549
 5364SOL    HW116991   0.855   5.798   6.518
 5364SOL    HW216992   0.856   5.961   6.505
 5365SOL     OW16993   4.083   2.105   5.750
 5365SOL    HW116994   3.985   2.104   5.731
 5365SOL    HW216995   4.098   2.095   5.849
 5366SOL     OW16996   3.993   4.117   5.780
 5366SOL    HW116997   4.056   4.089   5.852
 5366SOL    HW216998   4.035   4.097   5.691
 5367SOL     OW16999   0.396   3.942   0.959
 5367SOL    HW117000   0.423   3.853   0.995
 5367SOL    HW217001   0.296   3.950   0.960
 5368SOL     OW17002   0.498   6.913   3.467
 5368SOL    HW117003   0.582   6.953   3.504
 5368SOL    HW217004   0.420   6.968   3.497
 5369SOL     OW17005   1.850   3.729   2.378
 5369SOL    HW117006   1.899   3.732   2.291
 5369SOL    HW217007   1.753   3.746   2.361
 5370SOL     OW17008   3.359   2.674   1.801
 5370SOL    HW117009   3.458   2.670   1.810
 5370SOL    HW217010   3.333   2.646   1.708
 5371SOL     OW17011   2.112   4.258   5.016
 5371SOL    HW117012   2.135   4.354   5.034
 5371SOL    HW217013   2.188   4.199   5.046
 5372SOL     OW17014   3.675   6.460   2.484
 5372SOL    HW117015   3.634   6.372   2.507
 5372SOL    HW217016   3.728   6.451   2.400
 5373SOL     OW17017   2.558   5.002   3.931
 5373SOL    HW117018   2.515   4.994   3.841
 5373SOL    HW217019   2.608   5.088   3.937
 5374SOL     OW17020   3.430   2.325   0.592
 5374SOL    HW117021   3.510   2.341   0.650
 5374SOL    HW217022   3.354   2.383   0.623
 5375SOL     OW17023   1.556   4.301   4.580
 5375SOL    HW117024   1.490   4.281   4.507
 5375SOL    HW217025   1.562   4.399   4.594
 5376SOL     OW17026   3.087   4.874   6.262
 5376SOL    HW117027   3.053   4.822   6.184
 5376SOL    HW217028   3.055   4.832   6.347
 5377SOL     OW17029   1.030   2.216   1.775
 5377SOL    HW117030   1.075   2.246   1.691
 5377SOL    HW217031   0.939   2.182   1.754
 5378SOL     OW17032   4.851   7.015   6.712
 5378SOL    HW117033   4.771   0.053   6.691
 5378SOL    HW217034   4.919   0.008   6.639
 5379SOL     OW17035   7.013   0.032   0.012
 5379SOL    HW117036   6.936   0.088   0.043
 5379SOL    HW217037   7.007   6.959   0.053
 5380SOL     OW17038   2.123   1.606   4.861
 5380SOL    HW117039   2.141   1.686   4.804
 5380SOL    HW217040   2.079   1.535   4.806
 5381SOL     OW17041   5.854   3.677   1.965
 5381SOL    HW117042   5.850   3.644   2.060
 5381SOL    HW217043   5.773   3.732   1.945
 5382SOL     OW17044   2.266   6.565   1.278
 5382SOL    HW117045   2.339   6.518   1.326
 5382SOL    HW217046   2.189   6.503   1.265
 5383SOL     OW17047   2.532   2.329   4.978
 5383SOL    HW117048   2.473   2.255   4.947
 5383SOL    HW217049   2.624   2.316   4.942
 5384SOL     OW17050   5.426   6.303   4.919
 5384SOL    HW117051   5.468   6.336   5.004
 5384SOL    HW217052   5.452   6.362   4.843
 5385SOL     OW17053   3.630   4.139   2.318
 5385SOL    HW117054   3.654   4.222   2.269
 5385SOL    HW217055   3.602   4.068   2.253
 5386SOL     OW17056   5.647   6.464   5.872
 5386SOL    HW117057   5.734   6.433   5.833
 5386SOL    HW217058   5.655   6.469   5.972
 5387SOL     OW17059   4.335   4.867   0.510
 5387SOL    HW117060   4.265   4.825   0.569
 5387SOL    HW217061   4.402   4.915   0.567
 5388SOL     OW17062   5.887   5.915   3.343
 5388SOL    HW117063   5.822   5.958   3.405
 5388SOL    HW217064   5.944   5.850   3.394
 5389SOL     OW17065   5.812   3.275   1.491
 5389SOL    HW117066   5.879   3.222   1.543
 5389SOL    HW217067   5.788   3.357   1.543
 5390SOL     OW17068   6.577   5.046   6.712
 5390SOL    HW117069   6.570   5.139   6.673
 5390SOL    HW217070   6.640   5.047   6.789
 5391SOL     OW17071   3.237   4.792   0.099
 5391SOL    HW117072   3.256   4.715   0.161
 5391SOL    HW217073   3.313   4.803   0.035
 5392SOL     OW17074   0.794   2.787   3.287
 5392SOL    HW117075   0.819   2.750   3.377
 5392SOL    HW217076   0.853   2.748   3.217
 5393SOL     OW17077   6.626   0.194   6.287
 5393SOL    HW117078   6.548   0.131   6.280
 5393SOL    HW217079   6.655   0.200   6.382
 5394SOL     OW17080   2.103   3.807   6.219
 5394SOL    HW117081   2.192   3.852   6.229
 5394SOL    HW217082   2.116   3.709   6.204
 5395SOL     OW17083   4.933   0.475   1.589
 5395SOL    HW117084   4.866   0.429   1.647
 5395SOL    HW217085   4.887   0.540   1.529
 5396SOL     OW17086   4.370   2.071   1.026
 5396SOL    HW117087   4.318   1.990   1.054
 5396SOL    HW217088   4.458   2.042   0.987
 5397SOL     OW17089   1.267   2.114   1.929
 5397SOL    HW117090   1.255   2.027   1.976
 5397SOL    HW217091   1.183   2.137   1.879
 5398SOL     OW17092   2.916   3.566   2.256
 5398SOL    HW117093   2.901   3.469   2.236
 5398SOL    HW217094   2.878   3.588   2.346
 5399SOL     OW17095   0.412   5.353   0.408
 5399SOL    HW117096   0.486   5.371   0.343
 5399SOL    HW217097   0.337   5.308   0.361
 5400SOL     OW17098   2.573   4.023   6.869
 5400SOL    HW117099   2.633   3.968   6.812
 5400SOL    HW217100   2.539   4.101   6.815
 5401SOL     OW17101   6.374   1.707   0.944
 5401SOL    HW117102   6.379   1.683   0.847
 5401SOL    HW217103   6.385   1.624   0.999
 5402SOL     OW17104   0.881   5.899   2.086
 5402SOL    HW117105   0.910   5.824   2.145
 5402SOL    HW217106   0.839   5.862   2.003
 5403SOL     OW17107   0.060   2.416   6.163
 5403SOL    HW117108   0.142   2.390   6.113
 5403SOL    HW217109   7.008   2.346   6.151
 5404SOL     OW17110   0.553   2.341   3.023
 5404SOL    HW117111   0.584   2.377   2.935
 5404SOL    HW217112   0.478   2.397   3.058
 5405SOL     OW17113   6.072   4.291   5.017
 5405SOL    HW117114   6.100   4.385   4.995
 5405SOL    HW217115   6.152   4.231   5.016
 5406SOL     OW17116   1.936   0.172   2.879
 5406SOL    HW117117   2.028   0.195   2.912
 5406SOL    HW217118   1.913   0.235   2.804
 5407SOL     OW17119   3.934   3.055   5.953
 5407SOL    HW117120   3.860   3.112   5.989
 5407SOL    HW217121   3.917   2.959   5.974
 5408SOL     OW17122   4.303   1.047   7.000
 5408SOL    HW117123   4.329   0.951   6.997
 5408SOL    HW217124   4.203   1.054   7.006
 5409SOL     OW17125   4.495   0.692   1.892
 5409SOL    HW117126   4.429   0.619   1.909
 5409SOL    HW217127   4.586   0.653   1.878
 5410SOL     OW17128   1.547   2.670   2.781
 5410SOL    HW117129   1.557   2.617   2.697
 5410SOL    HW217130   1.617   2.641   2.847
 5411SOL     OW17131   2.942   4.865   4.930
 5411SOL    HW117132   3.035   4.873   4.966
 5411SOL    HW217133   2.906   4.774   4.951
 5412SOL     OW17134   6.505   1.583   2.398
 5412SOL    HW117135   6.436   1.545   2.461
 5412SOL    HW217136   6.534   1.673   2.431
 5413SOL     OW17137   1.525   6.557   2.195
 5413SOL    HW117138   1.446   6.586   2.141
 5413SOL    HW217139   1.525   6.606   2.282
 5414SOL     OW17140   4.331   0.202   6.235
 5414SOL    HW117141   4.319   0.114   6.190
 5414SOL    HW217142   4.241   0.241   6.255
 5415SOL     OW17143   6.411   3.537   2.768
 5415SOL    HW117144   6.365   3.480   2.701
 5415SOL    HW217145   6.347   3.563   2.840
 5416SOL     OW17146   4.155   5.263   4.569
 5416SOL    HW117147   4.173   5.174   4.613
 5416SOL    HW217148   4.086   5.251   4.498
 5417SOL     OW17149   2.836   6.513   5.715
 5417SOL    HW117150   2.874   6.582   5.654
 5417SOL    HW217151   2.892   6.506   5.798
 5418SOL     OW17152   3.385   1.437   3.452
 5418SOL    HW117153   3.427   1.395   3.532
 5418SOL    HW217154   3.435   1.410   3.370
 5419SOL     OW17155   3.206   4.608   0.289
 5419SOL    HW117156   3.119   4.648   0.318
 5419SOL    HW217157   3.225   4.527   0.345
 5420SOL     OW17158   1.175   2.123   2.759
 5420SOL    HW117159   1.266   2.086   2.741
 5420SOL    HW217160   1.110   2.085   2.693
 5421SOL     OW17161   2.605   2.949   0.672
 5421SOL    HW117162   2.622   2.908   0.762
 5421SOL    HW217163   2.648   2.892   0.601
 5422SOL     OW17164   0.671   3.287   0.329
 5422SOL    HW117165   0.608   3.259   0.401
 5422SOL    HW217166   0.648   3.380   0.299
 5423SOL     OW17167   3.768   3.242   5.730
 5423SOL    HW117168   3.842   3.302   5.760
 5423SOL    HW217169   3.801   3.180   5.659
 5424SOL     OW17170   5.648   3.459   5.172
 5424SOL    HW117171   5.595   3.536   5.206
 5424SOL    HW217172   5.588   3.378   5.165
 5425SOL     OW17173   5.032   1.679   4.994
 5425SOL    HW117174   5.063   1.642   5.081
 5425SOL    HW217175   4.934   1.696   4.997
 5426SOL     OW17176   0.600   0.089   4.650
 5426SOL    HW117177   0.635   0.041   4.730
 5426SOL    HW217178   0.512   0.050   4.623
 5427SOL     OW17179   3.794   6.793   0.284
 5427SOL    HW117180   3.872   6.729   0.284
 5427SOL    HW217181   3.772   6.818   0.379
 5428SOL     OW17182   1.705   0.392   0.345
 5428SOL    HW117183   1.732   0.459   0.414
 5428SOL    HW217184   1.769   0.315   0.347
 5429SOL     OW17185   1.004   2.153   5.980
 5429SOL    HW117186   1.005   2.253   5.984
 5429SOL    HW217187   1.041   2.124   5.891
 5430SOL     OW17188   2.212   2.669   5.401
 5430SOL    HW117189   2.141   2.601   5.418
 5430SOL    HW217190   2.227   2.678   5.302
 5431SOL     OW17191   3.059   5.566   4.190
 5431SOL    HW117192   3.044   5.503   4.114
 5431SOL    HW217193   3.014   5.532   4.272
 5432SOL     OW17194   6.246   4.249   0.925
 5432SOL    HW117195   6.319   4.193   0.964
 5432SOL    HW217196   6.161   4.232   0.974
 5433SOL     OW17197   1.519   1.456   3.538
 5433SOL    HW117198   1.528   1.549   3.575
 5433SOL    HW217199   1.483   1.395   3.608
 5434SOL     OW17200   2.044   6.300   5.787
 5434SOL    HW117201   2.114   6.370   5.780
 5434SOL    HW217202   2.001   6.304   5.878
 5435SOL     OW17203   4.656   1.970   1.937
 5435SOL    HW117204   4.557   1.956   1.929
 5435SOL    HW217205   4.686   2.036   1.868
 5436SOL     OW17206   5.456   4.065   3.356
 5436SOL    HW117207   5.436   3.981   3.407
 5436SOL    HW217208   5.380   4.129   3.367
 5437SOL     OW17209   3.536   4.739   6.134
 5437SOL    HW117210   3.535   4.824   6.081
 5437SOL    HW217211   3.584   4.755   6.220
 5438SOL     OW17212   6.657   1.341   0.275
 5438SOL    HW117213   6.565   1.328   0.312
 5438SOL    HW217214   6.689   1.433   0.297
 5439SOL     OW17215   1.722   2.370   0.572
 5439SOL    HW117216   1.673   2.291   0.608
 5439SOL    HW217217   1.665   2.416   0.504
 5440SOL     OW17218   2.144   0.521   1.051
 5440SOL    HW117219   2.207   0.472   0.991
 5440SOL    HW217220   2.153   0.486   1.144
 5441SOL     OW17221   3.876   1.792   5.191
 5441SOL    HW117222   3.959   1.826   5.147
 5441SOL    HW217223   3.864   1.838   5.279
 5442SOL     OW17224   3.979   1.021   1.831
 5442SOL    HW117225   3.989   1.048   1.735
 5442SOL    HW217226   3.927   1.091   1.880
 5443SOL     OW17227   0.664   6.402   5.355
 5443SOL    HW117228   0.613   6.468   5.300
 5443SOL    HW217229   0.736   6.361   5.299
 5444SOL     OW17230   0.490   0.444   3.614
 5444SOL    HW117231   0.539   0.519   3.569
 5444SOL    HW217232   0.399   0.435   3.573
 5445SOL     OW17233   5.871   3.529   2.219
 5445SOL    HW117234   5.881   3.458   2.149
 5445SOL    HW217235   5.959   3.542   2.265
 5446SOL     OW17236   6.420   6.458   5.817
 5446SOL    HW117237   6.436   6.494   5.725
 5446SOL    HW217238   6.398   6.533   5.879
 5447SOL     OW17239   3.461   2.672   1.011
 5447SOL    HW117240   3.561   2.678   1.008
 5447SOL    HW217241   3.422   2.761   0.985
 5448SOL     OW17242   5.258   1.723   6.427
 5448SOL    HW117243   5.229   1.744   6.520
 5448SOL    HW217244   5.213   1.785   6.363
 5449SOL     OW17245   6.803   2.942   6.829
 5449SOL    HW117246   6.778   2.847   6.812
 5449SOL    HW217247   6.868   2.946   6.905
 5450SOL     OW17248   2.289   6.152   0.877
 5450SOL    HW117249   2.216   6.205   0.922
 5450SOL    HW217250   2.340   6.101   0.946
 5451SOL     OW17251   2.641   0.248   2.282
 5451SOL    HW117252   2.668   0.322   2.219
 5451SOL    HW217253   2.574   0.284   2.347
 5452SOL     OW17254   2.784   4.134   5.971
 5452SOL    HW117255   2.730   4.131   6.055
 5452SOL    HW217256   2.736   4.190   5.902
 5453SOL     OW17257   0.149   5.371   5.569
 5453SOL    HW117258   0.128   5.431   5.492
 5453SOL    HW217259   0.123   5.416   5.655
 5454SOL     OW17260   0.863   3.797   5.983
 5454SOL    HW117261   0.901   3.719   6.033
 5454SOL    HW217262   0.920   3.877   5.998
 5455SOL     OW17263   5.934   2.000   1.212
 5455SOL    HW117264   5.902   1.940   1.139
 5455SOL    HW217265   5.960   2.089   1.173
 5456SOL     OW17266   3.834   0.035   1.345
 5456SOL    HW117267   3.904   0.019   1.415
 5456SOL    HW217268   3.758   6.989   1.358
 5457SOL     OW17269   6.484   3.279   1.241
 5457SOL    HW117270   6.393   3.283   1.282
 5457SOL    HW217271   6.544   3.344   1.287
 5458SOL     OW17272   1.446   3.965   6.029
 5458SOL    HW117273   1.410   3.885   5.982
 5458SOL    HW217274   1.496   4.022   5.964
 5459SOL     OW17275   1.835   4.240   5.905
 5459SOL    HW117276   1.737   4.217   5.901
 5459SOL    HW217277   1.852   4.321   5.848
 5460SOL     OW17278   3.857   0.408   4.541
 5460SOL    HW117279   3.939   0.371   4.498
 5460SOL    HW217280   3.777   0.388   4.484
 5461SOL     OW17281   3.749   6.564   4.675
 5461SOL    HW117282   3.779   6.502   4.602
 5461SOL    HW217283   3.827   6.592   4.730
 5462SOL     OW17284   6.998   0.988   2.312
 5462SOL    HW117285   0.074   0.980   2.281
 5462SOL    HW217286   6.947   1.046   2.250
 5463SOL     OW17287   6.817   3.133   0.928
 5463SOL    HW117288   6.846   3.194   0.854
 5463SOL    HW217289   6.722   3.108   0.915
 5464SOL     OW17290   1.556   6.205   4.293
 5464SOL    HW117291   1.600   6.288   4.258
 5464SOL    HW217292   1.554   6.208   4.393
 5465SOL     OW17293   2.597   5.897   6.288
 5465SOL    HW117294   2.618   5.800   6.291
 5465SOL    HW217295   2.499   5.911   6.304
 5466SOL     OW17296   4.770   6.440   3.806
 5466SOL    HW117297   4.866   6.434   3.831
 5466SOL    HW217298   4.731   6.524   3.842
 5467SOL     OW17299   6.635   1.301   1.693
 5467SOL    HW117300   6.654   1.355   1.775
 5467SOL    HW217301   6.698   1.327   1.620
 5468SOL     OW17302   4.668   1.566   6.593
 5468SOL    HW117303   4.662   1.542   6.690
 5468SOL    HW217304   4.603   1.510   6.541
 5469SOL     OW17305   4.857   4.532   1.295
 5469SOL    HW117306   4.836   4.559   1.389
 5469SOL    HW217307   4.953   4.554   1.275
 5470SOL     OW17308   0.315   4.854   3.718
 5470SOL    HW117309   0.259   4.772   3.705
 5470SOL    HW217310   0.271   4.931   3.672
 5471SOL     OW17311   6.348   3.517   2.393
 5471SOL    HW117312   6.327   3.420   2.379
 5471SOL    HW217313   6.441   3.527   2.426
 5472SOL     OW17314   3.510   5.439   5.212
 5472SOL    HW117315   3.575   5.453   5.137
 5472SOL    HW217316   3.466   5.350   5.202
 5473SOL     OW17317   2.366   4.298   3.955
 5473SOL    HW117318   2.341   4.205   3.984
 5473SOL    HW217319   2.414   4.344   4.030
 5474SOL     OW17320   1.180   6.149   2.979
 5474SOL    HW117321   1.127   6.166   3.062
 5474SOL    HW217322   1.237   6.229   2.958
 5475SOL     OW17323   3.308   2.026   1.769
 5475SOL    HW117324   3.402   2.028   1.737
 5475SOL    HW217325   3.257   2.102   1.727
 5476SOL     OW17326   2.038   3.138   6.801
 5476SOL    HW117327   2.073   3.120   6.709
 5476SOL    HW217328   1.948   3.096   6.812
 5477SOL     OW17329   2.051   2.473   2.279
 5477SOL    HW117330   2.030   2.403   2.347
 5477SOL    HW217331   2.150   2.486   2.274
 5478SOL     OW17332   0.429   5.635   5.185
 5478SOL    HW117333   0.387   5.550   5.216
 5478SOL    HW217334   0.394   5.712   5.239
 5479SOL     OW17335   4.258   6.957   5.102
 5479SOL    HW117336   4.203   0.005   5.152
 5479SOL    HW217337   4.335   6.928   5.158
 5480SOL     OW17338   0.242   2.005   5.933
 5480SOL    HW117339   0.199   2.048   5.853
 5480SOL    HW217340   0.293   1.925   5.904
 5481SOL     OW17341   4.548   6.703   3.119
 5481SOL    HW117342   4.540   6.704   3.019
 5481SOL    HW217343   4.468   6.748   3.159
 5482SOL     OW17344   1.547   6.040   2.160
 5482SOL    HW117345   1.636   6.000   2.178
 5482SOL    HW217346   1.513   6.005   2.072
 5483SOL     OW17347   0.709   2.543   6.749
 5483SOL    HW117348   0.776   2.587   6.809
 5483SOL    HW217349   0.694   2.600   6.669
 5484SOL     OW17350   5.058   7.008   5.421
 5484SOL    HW117351   4.980   0.025   5.472
 5484SOL    HW217352   5.026   6.958   5.341
 5485SOL     OW17353   3.409   0.605   4.476
 5485SOL    HW117354   3.324   0.597   4.528
 5485SOL    HW217355   3.399   0.675   4.405
 5486SOL     OW17356   2.742   5.923   4.221
 5486SOL    HW117357   2.789   5.904   4.307
 5486SOL    HW217358   2.705   5.837   4.184
 5487SOL     OW17359   3.797   6.090   5.104
 5487SOL    HW117360   3.713   6.042   5.079
 5487SOL    HW217361   3.876   6.033   5.082
 5488SOL     OW17362   4.547   2.184   6.467
 5488SOL    HW117363   4.447   2.184   6.471
 5488SOL    HW217364   4.581   2.098   6.505
 5489SOL     OW17365   6.602   2.456   3.953
 5489SOL    HW117366   6.549   2.433   3.872
 5489SOL    HW217367   6.676   2.389   3.964
 5490SOL     OW17368   0.825   5.183   1.609
 5490SOL    HW117369   0.890   5.252   1.575
 5490SOL    HW217370   0.870   5.124   1.675
 5491SOL     OW17371   6.974   4.171   0.754
 5491SOL    HW117372   6.961   4.090   0.697
 5491SOL    HW217373   6.898   4.179   0.818
 5492SOL     OW17374   0.948   1.861   7.015
 5492SOL    HW117375   1.036   1.906   6.995
 5492SOL    HW217376   0.929   1.793   6.944
 5493SOL     OW17377   4.348   3.816   5.628
 5493SOL    HW117378   4.263   3.806   5.577
 5493SOL    HW217379   4.426   3.812   5.565
 5494SOL     OW17380   5.937   1.999   4.632
 5494SOL    HW117381   5.910   1.980   4.726
 5494SOL    HW217382   6.035   1.978   4.621
 5495SOL     OW17383   5.831   1.205   0.130
 5495SOL    HW117384   5.784   1.177   0.047
 5495SOL    HW217385   5.869   1.125   0.176
 5496SOL     OW17386   4.171   6.543   6.129
 5496SOL    HW117387   4.166   6.465   6.067
 5496SOL    HW217388   4.083   6.590   6.132
 5497SOL     OW17389   0.973   0.344   6.036
 5497SOL    HW117390   0.921   0.308   5.958
 5497SOL    HW217391   1.002   0.438   6.015
 5498SOL     OW17392   6.984   5.824   2.044
 5498SOL    HW117393   0.028   5.834   2.121
 5498SOL    HW217394   0.008   5.860   1.961
 5499SOL     OW17395   2.400   6.935   3.544
 5499SOL    HW117396   2.364   6.918   3.635
 5499SOL    HW217397   2.497   6.959   3.550
 5500SOL     OW17398   0.661   6.213   1.328
 5500SOL    HW117399   0.598   6.243   1.399
 5500SOL    HW217400   0.751   6.253   1.344
 5501SOL     OW17401   4.820   3.521   1.040
 5501SOL    HW117402   4.782   3.450   0.981
 5501SOL    HW217403   4.900   3.562   0.996
 5502SOL     OW17404   4.637   3.666   0.341
 5502SOL    HW117405   4.664   3.599   0.410
 5502SOL    HW217406   4.664   3.633   0.250
 5503SOL     OW17407   5.734   2.779   1.303
 5503SOL    HW117408   5.649   2.737   1.336
 5503SOL    HW217409   5.714   2.865   1.258
 5504SOL     OW17410   3.460   2.529   6.985
 5504SOL    HW117411   3.388   2.494   0.027
 5504SOL    HW217412   3.419   2.590   6.917
 5505SOL     OW17413   2.846   5.353   2.859
 5505SOL    HW117414   2.835   5.256   2.838
 5505SOL    HW217415   2.898   5.363   2.944
 5506SOL     OW17416   6.563   3.021   6.945
 5506SOL    HW117417   6.502   3.044   6.869
 5506SOL    HW217418   6.638   2.964   6.911
 5507SOL     OW17419   4.165   5.920   6.596
 5507SOL    HW117420   4.106   5.911   6.515
 5507SOL    HW217421   4.108   5.919   6.678
 5508SOL     OW17422   6.497   2.752   6.062
 5508SOL    HW117423   6.552   2.829   6.029
 5508SOL    HW217424   6.501   2.749   6.162
 5509SOL     OW17425   5.948   4.190   0.411
 5509SOL    HW117426   5.981   4.261   0.349
 5509SOL    HW217427   5.908   4.233   0.492
 5510SOL     OW17428   5.184   6.535   6.928
 5510SOL    HW117429   5.184   6.633   6.910
 5510SOL    HW217430   5.094   6.497   6.906
 5511SOL     OW17431   0.599   2.885   5.862
 5511SOL    HW117432   0.538   2.952   5.904
 5511SOL    HW217433   0.602   2.802   5.918
 5512SOL     OW17434   3.360   0.088   2.134
 5512SOL    HW117435   3.268   0.112   2.102
 5512SOL    HW217436   3.410   0.171   2.157
 5513SOL     OW17437   4.096   4.777   6.494
 5513SOL    HW117438   4.099   4.842   6.570
 5513SOL    HW217439   4.034   4.702   6.517
 5514SOL     OW17440   3.952   1.855   6.972
 5514SOL    HW117441   4.048   1.845   6.998
 5514SOL    HW217442   3.911   1.764   6.960
 5515SOL     OW17443   3.443   4.901   2.728
 5515SOL    HW117444   3.523   4.852   2.693
 5515SOL    HW217445   3.362   4.875   2.676
 5516SOL     OW17446   1.252   3.019   5.682
 5516SOL    HW117447   1.288   2.935   5.643
 5516SOL    HW217448   1.177   3.054   5.626
 5517SOL     OW17449   1.394   2.423   4.581
 5517SOL    HW117450   1.456   2.455   4.509
 5517SOL    HW217451   1.385   2.323   4.575
 5518SOL     OW17452   3.844   3.866   5.660
 5518SOL    HW117453   3.819   3.841   5.566
 5518SOL    HW217454   3.761   3.890   5.711
 5519SOL     OW17455   5.344   2.701   5.552
 5519SOL    HW117456   5.284   2.745   5.485
 5519SOL    HW217457   5.359   2.763   5.629
 5520SOL     OW17458   4.454   5.589   1.529
 5520SOL    HW117459   4.407   5.639   1.601
 5520SOL    HW217460   4.522   5.529   1.569
 5521SOL     OW17461   5.040   6.889   2.077
 5521SOL    HW117462   5.127   6.907   2.123
 5521SOL    HW217463   5.052   6.897   1.978
 5522SOL     OW17464   4.914   6.102   6.699
 5522SOL    HW117465   4.860   6.027   6.662
 5522SOL    HW217466   5.009   6.072   6.711
 5523SOL     OW17467   5.567   1.728   0.595
 5523SOL    HW117468   5.629   1.806   0.582
 5523SOL    HW217469   5.563   1.674   0.511
 5524SOL     OW17470   2.278   2.021   2.359
 5524SOL    HW117471   2.244   2.067   2.277
 5524SOL    HW217472   2.377   2.029   2.363
 5525SOL     OW17473   6.468   1.275   0.903
 5525SOL    HW117474   6.547   1.292   0.844
 5525SOL    HW217475   6.461   1.177   0.921
 5526SOL     OW17476   4.878   4.128   4.208
 5526SOL    HW117477   4.850   4.102   4.301
 5526SOL    HW217478   4.892   4.046   4.153
 5527SOL     OW17479   6.637   0.224   2.810
 5527SOL    HW117480   6.625   0.196   2.714
 5527SOL    HW217481   6.672   0.318   2.814
 5528SOL     OW17482   2.038   1.476   0.308
 5528SOL    HW117483   2.010   1.493   0.213
 5528SOL    HW217484   1.975   1.411   0.350
 5529SOL     OW17485   3.479   0.629   2.105
 5529SOL    HW117486   3.517   0.569   2.035
 5529SOL    HW217487   3.380   0.636   2.092
 5530SOL     OW17488   1.170   1.462   1.363
 5530SOL    HW117489   1.130   1.447   1.454
 5530SOL    HW217490   1.245   1.398   1.349
 5531SOL     OW17491   1.086   4.389   6.840
 5531SOL    HW117492   1.130   4.358   6.924
 5531SOL    HW217493   1.055   4.309   6.787
 5532SOL     OW17494   0.297   4.939   5.877
 5532SOL    HW117495   0.270   4.893   5.792
 5532SOL    HW217496   0.240   4.907   5.952
 5533SOL     OW17497   3.632   0.914   3.956
 5533SOL    HW117498   3.589   0.942   4.042
 5533SOL    HW217499   3.731   0.914   3.967
 5534SOL     OW17500   1.540   0.056   4.454
 5534SOL    HW117501   1.580   6.984   4.437
 5534SOL    HW217502   1.517   0.064   4.551
 5535SOL     OW17503   0.765   1.634   2.723
 5535SOL    HW117504   0.761   1.585   2.810
 5535SOL    HW217505   0.857   1.630   2.686
 5536SOL     OW17506   4.686   0.592   4.777
 5536SOL    HW117507   4.630   0.633   4.849
 5536SOL    HW217508   4.783   0.607   4.797
 5537SOL     OW17509   2.654   2.271   2.603
 5537SOL    HW117510   2.645   2.337   2.677
 5537SOL    HW217511   2.726   2.302   2.540
 5538SOL     OW17512   3.550   5.370   3.853
 5538SOL    HW117513   3.573   5.299   3.787
 5538SOL    HW217514   3.631   5.425   3.872
 5539SOL     OW17515   2.283   3.873   0.438
 5539SOL    HW117516   2.382   3.876   0.423
 5539SOL    HW217517   2.240   3.814   0.369
 5540SOL     OW17518   3.784   5.468   1.418
 5540SOL    HW117519   3.703   5.483   1.475
 5540SOL    HW217520   3.777   5.379   1.373
 5541SOL     OW17521   4.585   0.492   6.343
 5541SOL    HW117522   4.671   0.455   6.307
 5541SOL    HW217523   4.535   0.420   6.390
 5542SOL     OW17524   5.439   3.679   6.656
 5542SOL    HW117525   5.531   3.638   6.655
 5542SOL    HW217526   5.371   3.606   6.651
 5543SOL     OW17527   0.733   3.019   4.810
 5543SOL    HW117528   0.826   3.008   4.844
 5543SOL    HW217529   0.672   3.044   4.885
 5544SOL     OW17530   5.193   6.794   0.342
 5544SOL    HW117531   5.222   6.807   0.437
 5544SOL    HW217532   5.094   6.779   0.339
 5545SOL     OW17533   2.651   2.419   1.891
 5545SOL    HW117534   2.661   2.384   1.798
 5545SOL    HW217535   2.738   2.408   1.940
 5546SOL     OW17536   2.939   5.886   4.683
 5546SOL    HW117537   2.987   5.909   4.598
 5546SOL    HW217538   3.005   5.856   4.752
 5547SOL     OW17539   2.873   5.132   3.848
 5547SOL    HW117540   2.969   5.105   3.835
 5547SOL    HW217541   2.822   5.113   3.764
 5548SOL     OW17542   6.639   1.547   4.335
 5548SOL    HW117543   6.566   1.614   4.318
 5548SOL    HW217544   6.727   1.584   4.306
 5549SOL     OW17545   3.831   4.909   5.014
 5549SOL    HW117546   3.738   4.892   5.048
 5549SOL    HW217547   3.864   4.997   5.048
 5550SOL     OW17548   2.986   6.026   1.742
 5550SOL    HW117549   2.921   6.051   1.670
 5550SOL    HW217550   2.939   6.029   1.830
 5551SOL     OW17551   0.636   1.214   2.380
 5551SOL    HW117552   0.641   1.312   2.359
 5551SOL    HW217553   0.714   1.187   2.436
 5552SOL     OW17554   2.243   2.651   1.933
 5552SOL    HW117555   2.343   2.658   1.926
 5552SOL    HW217556   2.217   2.634   2.028
 5553SOL     OW17557   4.593   6.737   6.152
 5553SOL    HW117558   4.494   6.746   6.154
 5553SOL    HW217559   4.618   6.643   6.126
 5554SOL     OW17560   3.315   0.306   6.080
 5554SOL    HW117561   3.393   0.310   6.018
 5554SOL    HW217562   3.259   0.388   6.068
 5555SOL     OW17563   1.269   6.064   1.608
 5555SOL    HW117564   1.276   6.143   1.546
 5555SOL    HW217565   1.353   6.010   1.602
 5556SOL     OW17566   0.031   1.051   4.785
 5556SOL    HW117567   0.103   0.984   4.803
 5556SOL    HW217568   6.987   1.055   4.863
 5557SOL     OW17569   3.430   0.743   2.775
 5557SOL    HW117570   3.461   0.741   2.680
 5557SOL    HW217571   3.402   0.835   2.799
 5558SOL     OW17572   5.343   2.630   6.648
 5558SOL    HW117573   5.365   2.545   6.600
 5558SOL    HW217574   5.272   2.613   6.716
 5559SOL     OW17575   3.542   1.171   1.341
 5559SOL    HW117576   3.447   1.165   1.309
 5559SOL    HW217577   3.560   1.096   1.404
 5560SOL     OW17578   0.220   2.551   4.783
 5560SOL    HW117579   0.188   2.631   4.732
 5560SOL    HW217580   0.229   2.473   4.721
 5561SOL     OW17581   1.457   4.812   2.593
 5561SOL    HW117582   1.512   4.792   2.512
 5561SOL    HW217583   1.460   4.734   2.656
 5562SOL     OW17584   4.592   2.727   0.647
 5562SOL    HW117585   4.659   2.699   0.717
 5562SOL    HW217586   4.545   2.647   0.612
 5563SOL     OW17587   4.087   4.469   1.059
 5563SOL    HW117588   4.071   4.371   1.046
 5563SOL    HW217589   4.168   4.482   1.115
 5564SOL     OW17590   6.133   0.745   2.604
 5564SOL    HW117591   6.178   0.759   2.692
 5564SOL    HW217592   6.036   0.730   2.618
 5565SOL     OW17593   1.876   2.789   5.672
 5565SOL    HW117594   1.867   2.690   5.682
 5565SOL    HW217595   1.972   2.814   5.661
 5566SOL     OW17596   2.532   4.338   0.640
 5566SOL    HW117597   2.585   4.339   0.555
 5566SOL    HW217598   2.452   4.279   0.629
 5567SOL     OW17599   1.102   5.768   3.090
 5567SOL    HW117600   1.055   5.802   3.009
 5567SOL    HW217601   1.110   5.843   3.157
 5568SOL     OW17602   4.443   2.726   6.741
 5568SOL    HW117603   4.368   2.664   6.764
 5568SOL    HW217604   4.422   2.818   6.774
 5569SOL     OW17605   4.309   1.418   5.907
 5569SOL    HW117606   4.254   1.375   5.836
 5569SOL    HW217607   4.253   1.485   5.957
 5570SOL     OW17608   1.726   1.801   5.650
 5570SOL    HW117609   1.742   1.808   5.552
 5570SOL    HW217610   1.786   1.731   5.689
 5571SOL     OW17611   0.546   4.743   6.816
 5571SOL    HW117612   0.607   4.670   6.782
 5571SOL    HW217613   0.525   4.726   6.912
 5572SOL     OW17614   1.162   3.526   5.135
 5572SOL    HW117615   1.148   3.431   5.161
 5572SOL    HW217616   1.231   3.531   5.062
 5573SOL     OW17617   0.049   4.102   6.706
 5573SOL    HW117618   0.107   4.091   6.625
 5573SOL    HW217619   7.017   4.187   6.699
 5574SOL     OW17620   2.302   6.162   4.768
 5574SOL    HW117621   2.242   6.088   4.737
 5574SOL    HW217622   2.306   6.162   4.868
 5575SOL     OW17623   1.031   1.587   2.642
 5575SOL    HW117624   1.052   1.492   2.622
 5575SOL    HW217625   1.102   1.646   2.605
 5576SOL     OW17626   4.958   6.753   6.795
 5576SOL    HW117627   4.979   6.676   6.735
 5576SOL    HW217628   4.968   6.838   6.744
 5577SOL     OW17629   1.484   5.082   5.312
 5577SOL    HW117630   1.576   5.046   5.299
 5577SOL    HW217631   1.466   5.093   5.410
 5578SOL     OW17632   4.015   1.845   6.422
 5578SOL    HW117633   4.010   1.801   6.333
 5578SOL    HW217634   3.949   1.804   6.484
 5579SOL     OW17635   4.787   4.881   2.137
 5579SOL    HW117636   4.831   4.870   2.048
 5579SOL    HW217637   4.748   4.794   2.166
 5580SOL     OW17638   6.310   1.203   2.478
 5580SOL    HW117639   6.234   1.173   2.536
 5580SOL    HW217640   6.396   1.168   2.514
 5581SOL     OW17641   3.405   3.261   0.556
 5581SOL    HW117642   3.412   3.193   0.483
 5581SOL    HW217643   3.484   3.254   0.617
 5582SOL     OW17644   2.952   3.952   5.526
 5582SOL    HW117645   2.897   3.869   5.533
 5582SOL    HW217646   2.963   3.977   5.430
 5583SOL     OW17647   4.259   1.323   6.404
 5583SOL    HW117648   4.244   1.409   6.454
 5583SOL    HW217649   4.176   1.300   6.352
 5584SOL     OW17650   5.183   3.487   4.718
 5584SOL    HW117651   5.098   3.439   4.738
 5584SOL    HW217652   5.227   3.445   4.638
 5585SOL     OW17653   0.217   0.754   3.682
 5585SOL    HW117654   0.278   0.827   3.651
 5585SOL    HW217655   0.186   0.701   3.604
 5586SOL     OW17656   1.502   0.948   0.556
 5586SOL    HW117657   1.548   0.967   0.642
 5586SOL    HW217658   1.511   1.027   0.495
 5587SOL     OW17659   3.829   0.177   3.376
 5587SOL    HW117660   3.775   0.145   3.298
 5587SOL    HW217661   3.912   0.122   3.384
 5588SOL     OW17662   4.385   5.919   0.115
 5588SOL    HW117663   4.472   5.898   0.160
 5588SOL    HW217664   4.369   5.853   0.042
 5589SOL     OW17665   1.148   2.429   6.209
 5589SOL    HW117666   1.234   2.474   6.186
 5589SOL    HW217667   1.085   2.434   6.132
 5590SOL     OW17668   5.948   0.122   3.572
 5590SOL    HW117669   5.905   0.088   3.488
 5590SOL    HW217670   5.911   0.212   3.595
 5591SOL     OW17671   5.143   1.182   5.876
 5591SOL    HW117672   5.123   1.244   5.952
 5591SOL    HW217673   5.080   1.200   5.801
 5592SOL     OW17674   0.996   3.280   2.859
 5592SOL    HW117675   1.028   3.314   2.770
 5592SOL    HW217676   0.973   3.358   2.917
 5593SOL     OW17677   2.431   3.450   5.544
 5593SOL    HW117678   2.400   3.382   5.477
 5593SOL    HW217679   2.410   3.542   5.511
 5594SOL     OW17680   2.649   0.907   6.062
 5594SOL    HW117681   2.747   0.911   6.084
 5594SOL    HW217682   2.633   0.955   5.976
 5595SOL     OW17683   6.624   3.633   0.967
 5595SOL    HW117684   6.551   3.571   0.995
 5595SOL    HW217685   6.603   3.726   0.998
 5596SOL     OW17686   5.399   3.910   4.151
 5596SOL    HW117687   5.335   3.947   4.084
 5596SOL    HW217688   5.413   3.813   4.133
 5597SOL     OW17689   0.439   2.240   6.433
 5597SOL    HW117690   0.469   2.177   6.505
 5597SOL    HW217691   0.377   2.191   6.371
 5598SOL     OW17692   6.983   0.240   2.749
 5598SOL    HW117693   0.037   0.175   2.728
 5598SOL    HW217694   6.925   0.205   2.822
 5599SOL     OW17695   4.919   3.403   2.343
 5599SOL    HW117696   4.897   3.322   2.290
 5599SOL    HW217697   4.914   3.381   2.441
 5600SOL     OW17698   2.102   3.649   2.192
 5600SOL    HW117699   2.127   3.601   2.276
 5600SOL    HW217700   2.143   3.603   2.114
 5601SOL     OW17701   5.133   2.560   6.835
 5601SOL    HW117702   5.054   2.577   6.776
 5601SOL    HW217703   5.104   2.558   6.931
 5602SOL     OW17704   5.402   1.131   2.787
 5602SOL    HW117705   5.379   1.083   2.703
 5602SOL    HW217706   5.491   1.175   2.778
 5603SOL     OW17707   3.618   1.550   6.436
 5603SOL    HW117708   3.680   1.521   6.363
 5603SOL    HW217709   3.558   1.475   6.462
 5604SOL     OW17710   1.927   4.112   4.203
 5604SOL    HW117711   1.876   4.109   4.289
 5604SOL    HW217712   1.914   4.025   4.154
 5605SOL     OW17713   3.023   6.635   4.139
 5605SOL    HW117714   3.068   6.551   4.107
 5605SOL    HW217715   3.014   6.699   4.062
 5606SOL     OW17716   4.391   4.620   0.871
 5606SOL    HW117717   4.323   4.673   0.820
 5606SOL    HW217718   4.382   4.523   0.850
 5607SOL     OW17719   1.689   2.008   1.551
 5607SOL    HW117720   1.620   1.989   1.621
 5607SOL    HW217721   1.771   2.045   1.595
 5608SOL     OW17722   6.540   6.377   3.805
 5608SOL    HW117723   6.491   6.290   3.810
 5608SOL    HW217724   6.604   6.375   3.728
 5609SOL     OW17725   0.369   1.118   0.313
 5609SOL    HW117726   0.305   1.118   0.389
 5609SOL    HW217727   0.449   1.062   0.337
 5610SOL     OW17728   5.260   6.558   6.556
 5610SOL    HW117729   5.255   6.633   6.622
 5610SOL    HW217730   5.253   6.471   6.604
 5611SOL     OW17731   0.094   4.121   1.938
 5611SOL    HW117732   0.078   4.219   1.928
 5611SOL    HW217733   0.059   4.073   1.858
 5612SOL     OW17734   5.267   2.146   1.211
 5612SOL    HW117735   5.333   2.178   1.142
 5612SOL    HW217736   5.283   2.194   1.297
 5613SOL     OW17737   0.073   5.274   5.229
 5613SOL    HW117738   7.012   5.253   5.171
 5613SOL    HW217739   0.052   5.250   5.324
 5614SOL     OW17740   6.193   2.324   4.495
 5614SOL    HW117741   6.118   2.312   4.560
 5614SOL    HW217742   6.271   2.267   4.523
 5615SOL     OW17743   0.844   3.505   2.947
 5615SOL    HW117744   0.820   3.602   2.956
 5615SOL    HW217745   0.767   3.456   2.905
 5616SOL     OW17746   1.445   2.852   2.117
 5616SOL    HW117747   1.412   2.765   2.080
 5616SOL    HW217748   1.505   2.897   2.051
 5617SOL     OW17749   0.556   5.331   5.363
 5617SOL    HW117750   0.517   5.258   5.419
 5617SOL    HW217751   0.652   5.310   5.344
 5618SOL     OW17752   5.213   1.523   3.582
 5618SOL    HW117753   5.243   1.509   3.677
 5618SOL    HW217754   5.260   1.603   3.544
 5619SOL     OW17755   3.643   4.021   3.968
 5619SOL    HW117756   3.699   4.050   3.891
 5619SOL    HW217757   3.575   4.091   3.989
 5620SOL     OW17758   4.940   4.310   5.292
 5620SOL    HW117759   4.912   4.383   5.354
 5620SOL    HW217760   5.039   4.301   5.292
 5621SOL     OW17761   0.559   3.536   0.283
 5621SOL    HW117762   0.536   3.564   0.376
 5621SOL    HW217763   0.630   3.596   0.246
 5622SOL     OW17764   5.727   5.275   4.125
 5622SOL    HW117765   5.670   5.237   4.198
 5622SOL    HW217766   5.808   5.318   4.165
 5623SOL     OW17767   4.581   4.436   3.483
 5623SOL    HW117768   4.661   4.445   3.425
 5623SOL    HW217769   4.511   4.502   3.455
 5624SOL     OW17770   4.873   3.834   4.123
 5624SOL    HW117771   4.840   3.791   4.206
 5624SOL    HW217772   4.966   3.804   4.103
 5625SOL     OW17773   3.778   0.448   6.395
 5625SOL    HW117774   3.750   0.368   6.342
 5625SOL    HW217775   3.769   0.530   6.338
 5626SOL     OW17776   1.571   4.194   5.910
 5626SOL    HW117777   1.537   4.239   5.827
 5626SOL    HW217778   1.526   4.233   5.990
 5627SOL     OW17779   0.693   5.152   0.924
 5627SOL    HW117780   0.756   5.075   0.930
 5627SOL    HW217781   0.710   5.203   0.840
 5628SOL     OW17782   0.851   2.956   6.660
 5628SOL    HW117783   0.779   2.893   6.630
 5628SOL    HW217784   0.919   2.965   6.587
 5629SOL     OW17785   0.941   3.523   4.994
 5629SOL    HW117786   1.012   3.530   5.065
 5629SOL    HW217787   0.966   3.579   4.916
 5630SOL     OW17788   0.541   4.342   6.681
 5630SOL    HW117789   0.598   4.424   6.681
 5630SOL    HW217790   0.554   4.291   6.596
 5631SOL     OW17791   2.400   1.141   3.691
 5631SOL    HW117792   2.391   1.224   3.746
 5631SOL    HW217793   2.390   1.061   3.750
 5632SOL     OW17794   2.800   6.354   6.136
 5632SOL    HW117795   2.794   6.260   6.171
 5632SOL    HW217796   2.713   6.400   6.149
 5633SOL     OW17797   1.726   4.959   4.996
 5633SOL    HW117798   1.650   4.977   4.935
 5633SOL    HW217799   1.782   5.041   5.004
 5634SOL     OW17800   1.701   0.260   1.588
 5634SOL    HW117801   1.767   0.304   1.649
 5634SOL    HW217802   1.739   0.173   1.557
 5635SOL     OW17803   4.284   0.788   3.325
 5635SOL    HW117804   4.187   0.764   3.319
 5635SOL    HW217805   4.333   0.745   3.249
 5636SOL     OW17806   4.979   0.269   4.744
 5636SOL    HW117807   5.074   0.237   4.748
 5636SOL    HW217808   4.949   0.295   4.835
 5637SOL     OW17809   5.900   6.958   5.436
 5637SOL    HW117810   5.924   0.022   5.384
 5637SOL    HW217811   5.852   6.894   5.376
 5638SOL     OW17812   1.722   6.630   0.262
 5638SOL    HW117813   1.630   6.665   0.276
 5638SOL    HW217814   1.717   6.535   0.232
 5639SOL     OW17815   3.559   6.981   1.578
 5639SOL    HW117816   3.493   0.022   1.623
 5639SOL    HW217817   3.603   6.922   1.646
 5640SOL     OW17818   4.589   6.371   4.054
 5640SOL    HW117819   4.662   6.388   3.988
 5640SOL    HW217820   4.592   6.275   4.083
 5641SOL     OW17821   6.756   4.750   3.586
 5641SOL    HW117822   6.787   4.679   3.649
 5641SOL    HW217823   6.826   4.821   3.578
 5642SOL     OW17824   1.935   1.873   6.572
 5642SOL    HW117825   1.971   1.966   6.572
 5642SOL    HW217826   1.956   1.829   6.659
 5643SOL     OW17827   5.112   2.320   3.285
 5643SOL    HW117828   5.077   2.404   3.243
 5643SOL    HW217829   5.037   2.256   3.300
 5644SOL     OW17830   2.554   0.706   5.731
 5644SOL    HW117831   2.591   0.666   5.647
 5644SOL    HW217832   2.590   0.657   5.810
 5645SOL     OW17833   6.901   6.006   4.486
 5645SOL    HW117834   6.971   5.998   4.557
 5645SOL    HW217835   6.935   6.063   4.411
 5646SOL     OW17836   6.737   0.709   2.401
 5646SOL    HW117837   6.696   0.790   2.359
 5646SOL    HW217838   6.803   0.669   2.338
 5647SOL     OW17839   5.839   3.190   6.919
 5647SOL    HW117840   5.883   3.280   6.916
 5647SOL    HW217841   5.901   3.121   6.882
 5648SOL     OW17842   1.607   1.729   4.157
 5648SOL    HW117843   1.685   1.771   4.111
 5648SOL    HW217844   1.618   1.630   4.160
 5649SOL     OW17845   6.828   0.590   4.754
 5649SOL    HW117846   6.835   0.639   4.841
 5649SOL    HW217847   6.732   0.581   4.729
 5650SOL     OW17848   5.795   4.597   5.968
 5650SOL    HW117849   5.735   4.647   6.029
 5650SOL    HW217850   5.767   4.612   5.873
 5651SOL     OW17851   5.726   0.839   3.130
 5651SOL    HW117852   5.710   0.800   3.221
 5651SOL    HW217853   5.725   0.939   3.136
 5652SOL     OW17854   3.902   4.241   6.219
 5652SOL    HW117855   3.877   4.338   6.221
 5652SOL    HW217856   3.844   4.190   6.282
 5653SOL     OW17857   2.283   6.795   5.851
 5653SOL    HW117858   2.271   6.727   5.923
 5653SOL    HW217859   2.374   6.783   5.810
 5654SOL     OW17860   2.905   6.630   6.998
 5654SOL    HW117861   2.956   6.551   0.013
 5654SOL    HW217862   2.932   6.650   6.903
 5655SOL     OW17863   5.919   5.096   1.989
 5655SOL    HW117864   5.919   5.022   2.056
 5655SOL    HW217865   5.899   5.183   2.036
 5656SOL     OW17866   2.716   4.580   6.462
 5656SOL    HW117867   2.651   4.602   6.389
 5656SOL    HW217868   2.804   4.555   6.423
 5657SOL     OW17869   5.113   5.519   1.874
 5657SOL    HW117870   5.178   5.540   1.801
 5657SOL    HW217871   5.150   5.449   1.934
 5658SOL     OW17872   4.330   6.779   6.166
 5658SOL    HW117873   4.290   6.691   6.143
 5658SOL    HW217874   4.258   6.846   6.184
 5659SOL     OW17875   2.961   3.449   2.593
 5659SOL    HW117876   2.943   3.543   2.562
 5659SOL    HW217877   2.986   3.450   2.689
 5660SOL     OW17878   0.807   4.433   1.816
 5660SOL    HW117879   0.817   4.449   1.915
 5660SOL    HW217880   0.869   4.494   1.767
 5661SOL     OW17881   5.921   5.549   5.058
 5661SOL    HW117882   5.874   5.561   5.145
 5661SOL    HW217883   5.870   5.596   4.986
 5662SOL     OW17884   1.664   4.021   5.193
 5662SOL    HW117885   1.608   4.031   5.275
 5662SOL    HW217886   1.753   4.066   5.207
 5663SOL     OW17887   2.311   3.518   0.498
 5663SOL    HW117888   2.283   3.449   0.564
 5663SOL    HW217889   2.247   3.595   0.501
 5664SOL     OW17890   6.334   6.839   1.323
 5664SOL    HW117891   6.386   6.923   1.336
 5664SOL    HW217892   6.393   6.759   1.337
 5665SOL     OW17893   1.180   0.690   6.139
 5665SOL    HW117894   1.272   0.656   6.156
 5665SOL    HW217895   1.176   0.788   6.157
 5666SOL     OW17896   4.702   6.141   6.232
 5666SOL    HW117897   4.791   6.096   6.229
 5666SOL    HW217898   4.706   6.226   6.180
 5667SOL     OW17899   5.149   4.929   3.557
 5667SOL    HW117900   5.063   4.931   3.506
 5667SOL    HW217901   5.220   4.975   3.505
 5668SOL     OW17902   6.384   2.508   6.396
 5668SOL    HW117903   6.294   2.485   6.359
 5668SOL    HW217904   6.420   2.588   6.349
 5669SOL     OW17905   0.856   2.030   5.686
 5669SOL    HW117906   0.952   2.059   5.689
 5669SOL    HW217907   0.815   2.061   5.600
 5670SOL     OW17908   1.480   2.547   2.534
 5670SOL    HW117909   1.398   2.601   2.513
 5670SOL    HW217910   1.562   2.601   2.512
 5671SOL     OW17911   0.458   1.127   6.092
 5671SOL    HW117912   0.392   1.168   6.029
 5671SOL    HW217913   0.502   1.199   6.146
 5672SOL     OW17914   4.242   4.688   5.921
 5672SOL    HW117915   4.142   4.683   5.926
 5672SOL    HW217916   4.269   4.733   5.836
 5673SOL     OW17917   2.108   6.340   1.339
 5673SOL    HW117918   2.036   6.303   1.397
 5673SOL    HW217919   2.111   6.289   1.253
 5674SOL     OW17920   0.523   2.877   0.240
 5674SOL    HW117921   0.615   2.916   0.235
 5674SOL    HW217922   0.515   2.803   0.173
 5675SOL     OW17923   4.120   1.343   5.713
 5675SOL    HW117924   4.097   1.385   5.625
 5675SOL    HW217925   4.058   1.266   5.730
 5676SOL     OW17926   2.455   6.006   2.126
 5676SOL    HW117927   2.440   6.024   2.029
 5676SOL    HW217928   2.368   5.977   2.168
 5677SOL     OW17929   5.675   0.729   3.354
 5677SOL    HW117930   5.612   0.687   3.419
 5677SOL    HW217931   5.764   0.742   3.396
 5678SOL     OW17932   1.200   5.468   2.533
 5678SOL    HW117933   1.154   5.454   2.621
 5678SOL    HW217934   1.214   5.565   2.518
 5679SOL     OW17935   4.183   5.831   5.522
 5679SOL    HW117936   4.231   5.917   5.506
 5679SOL    HW217937   4.209   5.765   5.452
 5680SOL     OW17938   1.116   0.431   6.538
 5680SOL    HW117939   1.150   0.384   6.619
 5680SOL    HW217940   1.139   0.378   6.456
 5681SOL     OW17941   3.080   3.357   0.399
 5681SOL    HW117942   3.026   3.301   0.462
 5681SOL    HW217943   3.054   3.335   0.305
 5682SOL     OW17944   2.184   4.469   4.542
 5682SOL    HW117945   2.194   4.567   4.562
 5682SOL    HW217946   2.240   4.417   4.606
 5683SOL     OW17947   3.250   3.759   5.196
 5683SOL    HW117948   3.244   3.667   5.157
 5683SOL    HW217949   3.307   3.757   5.278
 5684SOL     OW17950   3.019   3.933   2.469
 5684SOL    HW117951   2.987   4.028   2.466
 5684SOL    HW217952   3.092   3.924   2.537
 5685SOL     OW17953   6.704   0.193   1.584
 5685SOL    HW117954   6.746   0.123   1.641
 5685SOL    HW217955   6.732   0.283   1.616
 5686SOL     OW17956   3.298   4.656   6.423
 5686SOL    HW117957   3.336   4.577   6.471
 5686SOL    HW217958   3.360   4.684   6.350
 5687SOL     OW17959   4.638   6.949   5.981
 5687SOL    HW117960   4.687   6.916   5.900
 5687SOL    HW217961   4.632   6.876   6.049
 5688SOL     OW17962   5.456   1.210   2.386
 5688SOL    HW117963   5.464   1.133   2.449
 5688SOL    HW217964   5.420   1.178   2.298
 5689SOL     OW17965   3.792   3.169   5.283
 5689SOL    HW117966   3.808   3.157   5.185
 5689SOL    HW217967   3.698   3.202   5.298
 5690SOL     OW17968   3.244   0.416   3.377
 5690SOL    HW117969   3.256   0.505   3.332
 5690SOL    HW217970   3.186   0.358   3.320
 5691SOL     OW17971   3.034   0.391   4.520
 5691SOL    HW117972   3.101   0.320   4.498
 5691SOL    HW217973   3.070   0.449   4.593
 5692SOL     OW17974   5.979   2.868   0.790
 5692SOL    HW117975   6.012   2.951   0.744
 5692SOL    HW217976   5.879   2.866   0.787
 5693SOL     OW17977   5.603   3.475   1.685
 5693SOL    HW117978   5.513   3.506   1.716
 5693SOL    HW217979   5.674   3.524   1.735
 5694SOL     OW17980   1.947   2.449   5.045
 5694SOL    HW117981   1.847   2.448   5.053
 5694SOL    HW217982   1.980   2.542   5.057
 5695SOL     OW17983   1.908   3.158   2.906
 5695SOL    HW117984   1.910   3.147   3.006
 5695SOL    HW217985   1.881   3.071   2.864
 5696SOL     OW17986   3.354   1.469   6.754
 5696SOL    HW117987   3.345   1.401   6.827
 5696SOL    HW217988   3.353   1.423   6.666
 5697SOL     OW17989   6.494   3.878   1.039
 5697SOL    HW117990   6.405   3.871   1.085
 5697SOL    HW217991   6.522   3.974   1.035
 5698SOL     OW17992   1.909   4.830   4.200
 5698SOL    HW117993   1.990   4.797   4.249
 5698SOL    HW217994   1.901   4.929   4.212
 5699SOL     OW17995   1.118   2.149   5.682
 5699SOL    HW117996   1.207   2.168   5.722
 5699SOL    HW217997   1.091   2.225   5.623
 5700SOL     OW17998   1.610   5.191   4.236
 5700SOL    HW117999   1.634   5.146   4.323
 5700SOL    HW218000   1.573   5.122   4.173
 5701SOL     OW18001   5.057   2.211   2.349
 5701SOL    HW118002   5.110   2.294   2.330
 5701SOL    HW218003   5.102   2.158   2.421
 5702SOL     OW18004   4.127   0.500   0.053
 5702SOL    HW118005   4.196   0.488   6.999
 5702SOL    HW218006   4.091   0.594   0.049
 5703SOL     OW18007   4.811   4.097   2.402
 5703SOL    HW118008   4.799   4.143   2.314
 5703SOL    HW218009   4.742   4.129   2.466
 5704SOL     OW18010   5.679   3.363   3.374
 5704SOL    HW118011   5.779   3.359   3.380
 5704SOL    HW218012   5.647   3.295   3.308
 5705SOL     OW18013   6.441   1.180   3.980
 5705SOL    HW118014   6.504   1.131   4.041
 5705SOL    HW218015   6.367   1.119   3.953
 5706SOL     OW18016   2.024   1.529   5.483
 5706SOL    HW118017   1.943   1.487   5.442
 5706SOL    HW218018   2.009   1.627   5.492
 5707SOL     OW18019   4.436   0.413   1.296
 5707SOL    HW118020   4.405   0.504   1.323
 5707SOL    HW218021   4.360   0.348   1.303
 5708SOL     OW18022   1.072   6.951   0.399
 5708SOL    HW118023   1.087   6.915   0.491
 5708SOL    HW218024   1.044   0.028   0.405
 5709SOL     OW18025   0.361   3.349   0.981
 5709SOL    HW118026   0.299   3.277   1.013
 5709SOL    HW218027   0.325   3.388   0.896
 5710SOL     OW18028   2.977   5.355   6.408
 5710SOL    HW118029   2.998   5.407   6.491
 5710SOL    HW218030   3.030   5.270   6.408
 5711SOL     OW18031   5.190   1.387   5.100
 5711SOL    HW118032   5.237   1.300   5.089
 5711SOL    HW218033   5.091   1.373   5.100
 5712SOL     OW18034   4.965   6.937   6.203
 5712SOL    HW118035   4.930   7.012   6.145
 5712SOL    HW218036   4.892   6.906   6.264
 5713SOL     OW18037   0.362   3.620   2.485
 5713SOL    HW118038   0.372   3.714   2.517
 5713SOL    HW218039   0.264   3.598   2.478
 5714SOL     OW18040   2.491   0.667   1.345
 5714SOL    HW118041   2.413   0.727   1.360
 5714SOL    HW218042   2.552   0.708   1.277
 5715SOL     OW18043   0.727   5.671   3.995
 5715SOL    HW118044   0.747   5.766   3.971
 5715SOL    HW218045   0.678   5.627   3.920
 5716SOL     OW18046   1.229   2.720   4.775
 5716SOL    HW118047   1.241   2.709   4.874
 5716SOL    HW218048   1.158   2.789   4.758
 5717SOL     OW18049   0.334   4.520   5.307
 5717SOL    HW118050   0.306   4.541   5.213
 5717SOL    HW218051   0.254   4.497   5.361
 5718SOL     OW18052   2.599   5.658   6.048
 5718SOL    HW118053   2.694   5.675   6.071
 5718SOL    HW218054   2.550   5.623   6.128
 5719SOL     OW18055   1.634   1.019   0.219
 5719SOL    HW118056   1.677   1.109   0.208
 5719SOL    HW218057   1.563   1.025   0.290
 5720SOL     OW18058   2.013   5.733   4.392
 5720SOL    HW118059   2.009   5.734   4.292
 5720SOL    HW218060   2.104   5.703   4.422
 5721SOL     OW18061   6.151   5.321   6.841
 5721SOL    HW118062   6.205   5.263   6.902
 5721SOL    HW218063   6.161   5.416   6.868
 5722SOL     OW18064   5.442   0.844   3.956
 5722SOL    HW118065   5.362   0.832   4.015
 5722SOL    HW218066   5.437   0.782   3.879
 5723SOL     OW18067   6.564   5.062   0.763
 5723SOL    HW118068   6.555   5.138   0.828
 5723SOL    HW218069   6.573   5.097   0.670
 5724SOL     OW18070   4.840   2.910   5.988
 5724SOL    HW118071   4.857   3.007   5.973
 5724SOL    HW218072   4.908   2.873   6.053
 5725SOL     OW18073   6.168   6.831   5.433
 5725SOL    HW118074   6.084   6.884   5.417
 5725SOL    HW218075   6.247   6.885   5.404
 5726SOL     OW18076   4.427   5.915   5.203
 5726SOL    HW118077   4.434   5.891   5.300
 5726SOL    HW218078   4.337   5.954   5.185
 5727SOL     OW18079   5.105   3.310   3.515
 5727SOL    HW118080   5.160   3.366   3.576
 5727SOL    HW218081   5.067   3.232   3.566
 5728SOL     OW18082   3.749   1.066   5.274
 5728SOL    HW118083   3.790   0.998   5.213
 5728SOL    HW218084   3.664   1.029   5.312
 5729SOL     OW18085   2.675   1.900   3.823
 5729SOL    HW118086   2.719   1.979   3.866
 5729SOL    HW218087   2.575   1.910   3.828
 5730SOL     OW18088   4.095   4.976   6.993
 5730SOL    HW118089   4.014   5.031   7.010
 5730SOL    HW218090   4.080   4.883   0.007
 5731SOL     OW18091   4.493   1.169   5.176
 5731SOL    HW118092   4.403   1.195   5.142
 5731SOL    HW218093   4.516   1.224   5.256
 5732SOL     OW18094   6.733   3.747   4.455
 5732SOL    HW118095   6.660   3.789   4.400
 5732SOL    HW218096   6.769   3.814   4.520
 5733SOL     OW18097   2.113   6.413   0.672
 5733SOL    HW118098   2.195   6.357   0.655
 5733SOL    HW218099   2.109   6.438   0.769
 5734SOL     OW18100   1.700   0.250   6.367
 5734SOL    HW118101   1.645   0.231   6.286
 5734SOL    HW218102   1.693   0.174   6.432
 5735SOL     OW18103   5.570   1.498   1.006
 5735SOL    HW118104   5.536   1.410   0.971
 5735SOL    HW218105   5.635   1.481   1.080
 5736SOL     OW18106   4.151   3.414   6.380
 5736SOL    HW118107   4.180   3.385   6.471
 5736SOL    HW218108   4.069   3.470   6.387
 5737SOL     OW18109   5.466   5.342   2.331
 5737SOL    HW118110   5.398   5.329   2.404
 5737SOL    HW218111   5.454   5.271   2.261
 5738SOL     OW18112   3.247   1.759   1.013
 5738SOL    HW118113   3.342   1.746   1.041
 5738SOL    HW218114   3.242   1.767   0.914
 5739SOL     OW18115   1.895   0.894   5.858
 5739SOL    HW118116   1.966   0.828   5.833
 5739SOL    HW218117   1.864   0.876   5.951
 5740SOL     OW18118   5.498   2.732   2.366
 5740SOL    HW118119   5.595   2.746   2.349
 5740SOL    HW218120   5.472   2.639   2.341
 5741SOL     OW18121   1.530   3.411   3.904
 5741SOL    HW118122   1.571   3.429   3.994
 5741SOL    HW218123   1.441   3.368   3.916
 5742SOL     OW18124   6.596   4.680   2.009
 5742SOL    HW118125   6.512   4.633   2.037
 5742SOL    HW218126   6.584   4.778   2.019
 5743SOL     OW18127   3.122   6.457   6.284
 5743SOL    HW118128   3.203   6.399   6.272
 5743SOL    HW218129   3.114   6.519   6.206
 5744SOL     OW18130   5.473   5.596   3.964
 5744SOL    HW118131   5.491   5.538   4.044
 5744SOL    HW218132   5.552   5.594   3.903
 5745SOL     OW18133   1.929   4.044   2.184
 5745SOL    HW118134   1.978   3.985   2.120
 5745SOL    HW218135   1.989   4.119   2.214
 5746SOL     OW18136   5.376   0.710   3.579
 5746SOL    HW118137   5.310   0.646   3.616
 5746SOL    HW218138   5.361   0.721   3.481
 5747SOL     OW18139   1.234   6.379   1.919
 5747SOL    HW118140   1.308   6.318   1.893
 5747SOL    HW218141   1.177   6.336   1.989
 5748SOL     OW18142   6.539   6.913   0.450
 5748SOL    HW118143   6.634   6.888   0.469
 5748SOL    HW218144   6.521   6.903   0.352
 5749SOL     OW18145   1.791   6.094   6.083
 5749SOL    HW118146   1.760   6.142   6.165
 5749SOL    HW218147   1.732   6.014   6.067
 5750SOL     OW18148   6.142   2.491   4.090
 5750SOL    HW118149   6.220   2.432   4.110
 5750SOL    HW218150   6.066   2.468   4.151
 5751SOL     OW18151   0.016   3.768   4.350
 5751SOL    HW118152   0.078   3.749   4.426
 5751SOL    HW218153   6.942   3.778   4.384
 5752SOL     OW18154   5.605   1.616   6.671
 5752SOL    HW118155   5.582   1.694   6.729
 5752SOL    HW218156   5.702   1.620   6.647
 5753SOL     OW18157   3.606   3.692   3.927
 5753SOL    HW118158   3.603   3.738   4.016
 5753SOL    HW218159   3.650   3.752   3.860
 5754SOL     OW18160   6.060   0.875   0.955
 5754SOL    HW118161   6.124   0.801   0.978
 5754SOL    HW218162   6.110   0.962   0.950
 5755SOL     OW18163   0.954   4.050   6.028
 5755SOL    HW118164   1.019   4.088   5.963
 5755SOL    HW218165   0.873   4.109   6.033
 5756SOL     OW18166   5.515   0.116   1.781
 5756SOL    HW118167   5.469   0.049   1.723
 5756SOL    HW218168   5.577   0.171   1.725
 5757SOL     OW18169   1.353   1.832   3.931
 5757SOL    HW118170   1.439   1.882   3.943
 5757SOL    HW218171   1.278   1.886   3.971
 5758SOL     OW18172   6.309   7.017   2.803
 5758SOL    HW118173   6.334   0.054   2.723
 5758SOL    HW218174   6.278   0.059   2.876
 5759SOL     OW18175   3.184   6.769   3.145
 5759SOL    HW118176   3.170   6.799   3.051
 5759SOL    HW218177   3.101   6.786   3.198
 5760SOL     OW18178   0.474   2.304   0.196
 5760SOL    HW118179   0.489   2.243   0.274
 5760SOL    HW218180   0.561   2.344   0.167
 5761SOL     OW18181   6.817   6.700   5.130
 5761SOL    HW118182   6.844   6.664   5.219
 5761SOL    HW218183   6.886   6.677   5.062
 5762SOL     OW18184   0.678   6.489   5.971
 5762SOL    HW118185   0.772   6.461   5.991
 5762SOL    HW218186   0.615   6.415   5.997
 5763SOL     OW18187   4.825   0.499   6.996
 5763SOL    HW118188   4.848   0.402   7.006
 5763SOL    HW218189   4.838   0.527   6.901
 5764SOL     OW18190   4.090   6.243   3.998
 5764SOL    HW118191   4.056   6.334   3.973
 5764SOL    HW218192   4.053   6.216   4.086
 5765SOL     OW18193   6.567   6.905   2.758
 5765SOL    HW118194   6.586   6.925   2.662
 5765SOL    HW218195   6.471   6.924   2.778
 5766SOL     OW18196   0.950   0.625   4.667
 5766SOL    HW118197   0.905   0.536   4.657
 5766SOL    HW218198   0.911   0.690   4.602
 5767SOL     OW18199   6.334   6.955   0.760
 5767SOL    HW118200   6.348   6.952   0.661
 5767SOL    HW218201   6.390   6.885   0.804
 5768SOL     OW18202   1.535   0.317   5.103
 5768SOL    HW118203   1.496   0.254   5.036
 5768SOL    HW218204   1.465   0.342   5.170
 5769SOL     OW18205   1.159   2.027   6.365
 5769SOL    HW118206   1.204   2.031   6.276
 5769SOL    HW218207   1.101   2.108   6.377
 5770SOL     OW18208   1.338   3.343   2.539
 5770SOL    HW118209   1.411   3.391   2.491
 5770SOL    HW218210   1.375   3.264   2.587
 5771SOL     OW18211   2.900   6.733   3.175
 5771SOL    HW118212   2.813   6.741   3.224
 5771SOL    HW218213   2.888   6.676   3.094
 5772SOL     OW18214   2.547   0.863   3.356
 5772SOL    HW118215   2.587   0.920   3.427
 5772SOL    HW218216   2.455   0.895   3.336
 5773SOL     OW18217   6.052   0.271   4.418
 5773SOL    HW118218   5.973   0.313   4.462
 5773SOL    HW218219   6.106   0.341   4.372
 5774SOL     OW18220   1.225   6.238   3.515
 5774SOL    HW118221   1.256   6.214   3.423
 5774SOL    HW218222   1.213   6.154   3.568
 5775SOL     OW18223   5.710   4.796   2.614
 5775SOL    HW118224   5.690   4.704   2.579
 5775SOL    HW218225   5.631   4.855   2.599
 5776SOL     OW18226   3.719   0.456   4.200
 5776SOL    HW118227   3.683   0.534   4.149
 5776SOL    HW218228   3.755   0.388   4.136
 5777SOL     OW18229   0.468   0.688   1.498
 5777SOL    HW118230   0.430   0.615   1.554
 5777SOL    HW218231   0.546   0.729   1.544
 5778SOL     OW18232   0.165   0.999   6.855
 5778SOL    HW118233   0.166   1.094   6.823
 5778SOL    HW218234   0.257   0.961   6.850
 5779SOL     OW18235   5.975   1.433   0.180
 5779SOL    HW118236   5.930   1.354   0.138
 5779SOL    HW218237   6.059   1.404   0.224
 5780SOL     OW18238   5.312   5.007   4.634
 5780SOL    HW118239   5.407   5.037   4.634
 5780SOL    HW218240   5.271   5.027   4.545
 5781SOL     OW18241   1.408   5.909   5.661
 5781SOL    HW118242   1.347   5.832   5.641
 5781SOL    HW218243   1.412   5.925   5.760
 5782SOL     OW18244   5.166   0.987   1.618
 5782SOL    HW118245   5.247   0.951   1.664
 5782SOL    HW218246   5.108   0.911   1.588
 5783SOL     OW18247   2.148   2.138   6.632
 5783SOL    HW118248   2.203   2.099   6.559
 5783SOL    HW218249   2.172   2.094   6.719
 5784SOL     OW18250   6.737   6.140   0.697
 5784SOL    HW118251   6.710   6.055   0.653
 5784SOL    HW218252   6.715   6.217   0.637
 5785SOL     OW18253   1.932   1.081   2.254
 5785SOL    HW118254   1.990   1.007   2.288
 5785SOL    HW218255   1.987   1.164   2.240
 5786SOL     OW18256   5.589   4.904   2.296
 5786SOL    HW118257   5.573   4.933   2.391
 5786SOL    HW218258   5.519   4.839   2.269
 5787SOL     OW18259   1.941   2.603   6.575
 5787SOL    HW118260   1.986   2.540   6.639
 5787SOL    HW218261   1.956   2.697   6.605
 5788SOL     OW18262   3.205   0.974   3.898
 5788SOL    HW118263   3.144   1.012   3.829
 5788SOL    HW218264   3.154   0.959   3.983
 5789SOL     OW18265   3.428   4.945   5.774
 5789SOL    HW118266   3.487   4.956   5.853
 5789SOL    HW218267   3.387   4.854   5.775
 5790SOL     OW18268   1.803   3.259   3.772
 5790SOL    HW118269   1.736   3.330   3.794
 5790SOL    HW218270   1.836   3.273   3.678
 5791SOL     OW18271   1.190   1.268   3.594
 5791SOL    HW118272   1.265   1.216   3.553
 5791SOL    HW218273   1.110   1.208   3.605
 5792SOL     OW18274   0.935   1.314   3.239
 5792SOL    HW118275   0.941   1.251   3.161
 5792SOL    HW218276   0.886   1.269   3.314
 5793SOL     OW18277   6.508   1.374   5.332
 5793SOL    HW118278   6.503   1.328   5.243
 5793SOL    HW218279   6.427   1.431   5.345
 5794SOL     OW18280   0.068   3.814   6.472
 5794SOL    HW118281   0.164   3.800   6.450
 5794SOL    HW218282   0.024   3.864   6.397
 5795SOL     OW18283   6.642   4.405   7.001
 5795SOL    HW118284   6.618   4.313   6.971
 5795SOL    HW218285   6.613   4.472   6.933
 5796SOL     OW18286   2.885   2.033   0.484
 5796SOL    HW118287   2.949   1.989   0.420
 5796SOL    HW218288   2.861   2.123   0.449
 5797SOL     OW18289   2.948   3.478   5.800
 5797SOL    HW118290   3.045   3.499   5.805
 5797SOL    HW218291   2.929   3.427   5.716
 5798SOL     OW18292   6.329   4.645   3.930
 5798SOL    HW118293   6.294   4.656   3.837
 5798SOL    HW218294   6.314   4.551   3.960
 5799SOL     OW18295   5.315   0.187   4.184
 5799SOL    HW118296   5.385   0.122   4.156
 5799SOL    HW218297   5.246   0.140   4.240
 5800SOL     OW18298   5.465   6.814   6.486
 5800SOL    HW118299   5.415   6.806   6.573
 5800SOL    HW218300   5.559   6.782   6.499
 5801SOL     OW18301   1.696   1.039   2.142
 5801SOL    HW118302   1.784   1.075   2.172
 5801SOL    HW218303   1.681   0.948   2.182
 5802SOL     OW18304   0.283   2.864   4.396
 5802SOL    HW118305   0.214   2.895   4.331
 5802SOL    HW218306   0.372   2.859   4.350
 5803SOL     OW18307   1.388   4.708   1.244
 5803SOL    HW118308   1.393   4.632   1.180
 5803SOL    HW218309   1.309   4.765   1.222
 5804SOL     OW18310   0.349   3.331   6.887
 5804SOL    HW118311   0.440   3.295   6.906
 5804SOL    HW218312   0.306   3.276   6.815
 5805SOL     OW18313   4.414   3.216   6.954
 5805SOL    HW118314   4.370   3.291   7.004
 5805SOL    HW218315   4.507   3.204   6.988
 5806SOL     OW18316   5.735   6.520   6.113
 5806SOL    HW118317   5.823   6.476   6.097
 5806SOL    HW218318   5.746   6.592   6.182
 5807SOL     OW18319   2.705   4.443   1.292
 5807SOL    HW118320   2.674   4.379   1.222
 5807SOL    HW218321   2.770   4.397   1.352
 5808SOL     OW18322   6.590   1.762   3.390
 5808SOL    HW118323   6.674   1.748   3.442
 5808SOL    HW218324   6.565   1.859   3.393
 5809SOL     OW18325   0.934   3.357   3.806
 5809SOL    HW118326   0.997   3.363   3.729
 5809SOL    HW218327   0.864   3.289   3.786
 5810SOL     OW18328   3.363   1.854   2.473
 5810SOL    HW118329   3.349   1.885   2.567
 5810SOL    HW218330   3.410   1.925   2.421
 5811SOL     OW18331   2.645   0.024   1.393
 5811SOL    HW118332   2.677   0.062   1.479
 5811SOL    HW218333   2.661   0.090   1.319
 5812SOL     OW18334   4.471   0.809   4.300
 5812SOL    HW118335   4.469   0.730   4.362
 5812SOL    HW218336   4.457   0.778   4.206
 5813SOL     OW18337   1.607   2.118   5.138
 5813SOL    HW118338   1.680   2.146   5.076
 5813SOL    HW218339   1.532   2.078   5.085
 5814SOL     OW18340   0.701   4.891   1.286
 5814SOL    HW118341   0.787   4.940   1.275
 5814SOL    HW218342   0.661   4.912   1.375
 5815SOL     OW18343   4.008   6.438   4.728
 5815SOL    HW118344   3.957   6.369   4.780
 5815SOL    HW218345   4.045   6.397   4.645
 5816SOL     OW18346   5.190   6.035   6.714
 5816SOL    HW118347   5.282   6.067   6.737
 5816SOL    HW218348   5.192   5.938   6.692
 5817SOL     OW18349   6.129   2.511   6.316
 5817SOL    HW118350   6.053   2.520   6.380
 5817SOL    HW218351   6.096   2.528   6.223
 5818SOL     OW18352   6.004   6.316   5.242
 5818SOL    HW118353   6.072   6.366   5.189
 5818SOL    HW218354   5.957   6.379   5.305
 5819SOL     OW18355   6.814   0.877   1.363
 5819SOL    HW118356   6.827   0.826   1.448
 5819SOL    HW218357   6.832   0.816   1.285
 5820SOL     OW18358   5.136   4.687   1.588
 5820SOL    HW118359   5.136   4.597   1.546
 5820SOL    HW218360   5.070   4.746   1.542
 5821SOL     OW18361   2.922   6.821   2.742
 5821SOL    HW118362   2.886   6.841   2.651
 5821SOL    HW218363   2.847   6.808   2.806
 5822SOL     OW18364   0.603   0.768   2.494
 5822SOL    HW118365   0.646   0.790   2.582
 5822SOL    HW218366   0.574   0.673   2.494
 5823SOL     OW18367   1.636   2.498   3.619
 5823SOL    HW118368   1.644   2.512   3.521
 5823SOL    HW218369   1.636   2.587   3.665
 5824SOL     OW18370   5.204   0.516   3.623
 5824SOL    HW118371   5.220   0.449   3.695
 5824SOL    HW218372   5.105   0.531   3.614
 5825SOL     OW18373   3.268   1.719   1.661
 5825SOL    HW118374   3.172   1.701   1.685
 5825SOL    HW218375   3.309   1.636   1.623
 5826SOL     OW18376   0.203   6.769   2.810
 5826SOL    HW118377   0.190   6.719   2.725
 5826SOL    HW218378   0.164   6.716   2.886
 5827SOL     OW18379   1.801   5.029   5.834
 5827SOL    HW118380   1.708   5.013   5.799
 5827SOL    HW218381   1.831   4.950   5.886
 5828SOL     OW18382   6.618   1.447   1.299
 5828SOL    HW118383   6.701   1.502   1.298
 5828SOL    HW218384   6.546   1.494   1.350
 5829SOL     OW18385   2.111   0.907   1.701
 5829SOL    HW118386   2.066   0.978   1.756
 5829SOL    HW218387   2.200   0.940   1.670
 5830SOL     OW18388   1.236   1.092   6.096
 5830SOL    HW118389   1.174   1.035   6.149
 5830SOL    HW218390   1.222   1.074   5.998
 5831SOL     OW18391   5.567   5.500   2.804
 5831SOL    HW118392   5.636   5.468   2.739
 5831SOL    HW218393   5.525   5.422   2.850
 5832SOL     OW18394   3.706   3.863   4.157
 5832SOL    HW118395   3.674   3.930   4.090
 5832SOL    HW218396   3.805   3.869   4.167
 5833SOL     OW18397   3.046   3.322   4.841
 5833SOL    HW118398   2.978   3.302   4.771
 5833SOL    HW218399   3.101   3.240   4.859
 5834SOL     OW18400   5.444   1.290   6.337
 5834SOL    HW118401   5.366   1.246   6.293
 5834SOL    HW218402   5.525   1.231   6.327
 5835SOL     OW18403   5.502   2.638   4.011
 5835SOL    HW118404   5.467   2.559   3.961
 5835SOL    HW218405   5.458   2.721   3.976
 5836SOL     OW18406   3.655   7.015   4.033
 5836SOL    HW118407   3.744   0.037   4.057
 5836SOL    HW218408   3.588   0.069   4.019
 5837SOL     OW18409   4.033   4.178   6.686
 5837SOL    HW118410   3.974   4.165   6.766
 5837SOL    HW218411   4.023   4.100   6.624
 5838SOL     OW18412   0.290   1.439   5.961
 5838SOL    HW118413   0.323   1.493   6.038
 5838SOL    HW218414   0.287   1.495   5.879
 5839SOL     OW18415   6.790   2.641   2.435
 5839SOL    HW118416   6.849   2.588   2.496
 5839SOL    HW218417   6.847   2.696   2.374
 5840SOL     OW18418   3.028   5.850   0.226
 5840SOL    HW118419   3.109   5.807   0.265
 5840SOL    HW218420   2.955   5.853   0.295
 5841SOL     OW18421   6.517   2.027   3.451
 5841SOL    HW118422   6.427   2.067   3.468
 5841SOL    HW218423   6.585   2.100   3.443
 5842SOL     OW18424   3.843   2.315   1.007
 5842SOL    HW118425   3.826   2.350   1.100
 5842SOL    HW218426   3.921   2.253   1.009
 5843SOL     OW18427   0.370   1.833   1.707
 5843SOL    HW118428   0.330   1.921   1.732
 5843SOL    HW218429   0.305   1.760   1.727
 5844SOL     OW18430   1.760   6.097   6.429
 5844SOL    HW118431   1.667   6.087   6.394
 5844SOL    HW218432   1.783   6.019   6.487
 5845SOL     OW18433   2.212   2.775   4.416
 5845SOL    HW118434   2.115   2.774   4.437
 5845SOL    HW218435   2.264   2.791   4.500
 5846SOL     OW18436   0.412   3.715   6.833
 5846SOL    HW118437   0.331   3.700   6.889
 5846SOL    HW218438   0.422   3.812   6.813
 5847SOL     OW18439   1.179   2.535   4.092
 5847SOL    HW118440   1.230   2.535   4.178
 5847SOL    HW218441   1.234   2.578   4.020
 5848SOL     OW18442   1.129   4.579   3.546
 5848SOL    HW118443   1.080   4.664   3.563
 5848SOL    HW218444   1.067   4.502   3.559
 5849SOL     OW18445   2.217   0.130   5.994
 5849SOL    HW118446   2.283   0.095   5.927
 5849SOL    HW218447   2.229   0.082   6.081
 5850SOL     OW18448   0.803   4.882   3.178
 5850SOL    HW118449   0.766   4.812   3.117
 5850SOL    HW218450   0.903   4.877   3.177
 5851SOL     OW18451   6.827   3.346   1.762
 5851SOL    HW118452   6.832   3.420   1.829
 5851SOL    HW218453   6.876   3.266   1.798
 5852SOL     OW18454   3.721   6.197   2.797
 5852SOL    HW118455   3.772   6.230   2.717
 5852SOL    HW218456   3.691   6.274   2.852
 5853SOL     OW18457   4.977   3.839   5.252
 5853SOL    HW118458   4.980   3.838   5.152
 5853SOL    HW218459   4.949   3.929   5.284
 5854SOL     OW18460   1.542   1.380   6.919
 5854SOL    HW118461   1.599   1.301   6.895
 5854SOL    HW218462   1.455   1.375   6.869
 5855SOL     OW18463   1.694   1.911   4.857
 5855SOL    HW118464   1.755   1.988   4.879
 5855SOL    HW218465   1.618   1.910   4.922
 5856SOL     OW18466   1.034   6.723   3.158
 5856SOL    HW118467   0.962   6.784   3.191
 5856SOL    HW218468   0.995   6.633   3.138
 5857SOL     OW18469   0.724   2.281   5.098
 5857SOL    HW118470   0.672   2.220   5.038
 5857SOL    HW218471   0.661   2.339   5.149
 5858SOL     OW18472   2.974   0.325   3.918
 5858SOL    HW118473   3.019   0.390   3.857
 5858SOL    HW218474   3.035   0.248   3.936
 5859SOL     OW18475   5.666   4.931   1.844
 5859SOL    HW118476   5.713   4.973   1.766
 5859SOL    HW218477   5.666   4.995   1.920
 5860SOL     OW18478   6.718   4.864   0.420
 5860SOL    HW118479   6.759   4.819   0.500
 5860SOL    HW218480   6.744   4.816   0.337
 5861SOL     OW18481   6.127   2.048   4.339
 5861SOL    HW118482   6.066   2.128   4.337
 5861SOL    HW218483   6.174   2.039   4.252
 5862SOL     OW18484   5.884   5.311   4.380
 5862SOL    HW118485   5.947   5.346   4.310
 5862SOL    HW218486   5.906   5.215   4.399
 5863SOL     OW18487   2.255   1.444   0.461
 5863SOL    HW118488   2.169   1.478   0.422
 5863SOL    HW218489   2.288   1.508   0.531
 5864SOL     OW18490   4.749   5.409   0.326
 5864SOL    HW118491   4.664   5.371   0.361
 5864SOL    HW218492   4.765   5.375   0.233
 5865SOL     OW18493   4.786   0.158   3.434
 5865SOL    HW118494   4.730   0.160   3.516
 5865SOL    HW218495   4.793   0.251   3.396
 5866SOL     OW18496   3.447   2.152   6.276
 5866SOL    HW118497   3.429   2.083   6.205
 5866SOL    HW218498   3.545   2.157   6.294
 5867SOL     OW18499   6.778   2.742   2.096
 5867SOL    HW118500   6.683   2.732   2.065
 5867SOL    HW218501   6.833   2.782   2.023
 5868SOL     OW18502   0.243   6.343   5.393
 5868SOL    HW118503   0.278   6.302   5.309
 5868SOL    HW218504   0.223   6.271   5.460
 5869SOL     OW18505   2.426   5.050   4.744
 5869SOL    HW118506   2.358   5.026   4.814
 5869SOL    HW218507   2.379   5.079   4.660
 5870SOL     OW18508   5.456   5.857   4.088
 5870SOL    HW118509   5.482   5.780   4.029
 5870SOL    HW218510   5.407   5.822   4.168
 5871SOL     OW18511   3.580   4.224   1.212
 5871SOL    HW118512   3.499   4.282   1.205
 5871SOL    HW218513   3.633   4.232   1.127
 5872SOL     OW18514   4.152   5.881   3.740
 5872SOL    HW118515   4.222   5.810   3.733
 5872SOL    HW218516   4.184   5.954   3.800
 5873SOL     OW18517   2.137   3.330   1.269
 5873SOL    HW118518   2.219   3.285   1.304
 5873SOL    HW218519   2.056   3.287   1.309
 5874SOL     OW18520   0.524   4.580   6.095
 5874SOL    HW118521   0.603   4.621   6.049
 5874SOL    HW218522   0.555   4.526   6.173
 5875SOL     OW18523   3.961   2.471   1.601
 5875SOL    HW118524   3.866   2.498   1.587
 5875SOL    HW218525   3.964   2.383   1.648
 5876SOL     OW18526   4.145   4.301   6.092
 5876SOL    HW118527   4.146   4.204   6.068
 5876SOL    HW218528   4.076   4.317   6.164
 5877SOL     OW18529   5.554   6.345   3.046
 5877SOL    HW118530   5.499   6.419   3.008
 5877SOL    HW218531   5.649   6.355   3.017
 5878SOL     OW18532   4.895   3.551   2.914
 5878SOL    HW118533   4.928   3.595   2.830
 5878SOL    HW218534   4.826   3.483   2.890
 5879SOL     OW18535   3.188   4.610   5.554
 5879SOL    HW118536   3.105   4.664   5.562
 5879SOL    HW218537   3.202   4.585   5.458
 5880SOL     OW18538   5.885   2.369   0.654
 5880SOL    HW118539   5.813   2.427   0.694
 5880SOL    HW218540   5.886   2.281   0.701
 5881SOL     OW18541   0.809   6.144   3.358
 5881SOL    HW118542   0.781   6.236   3.386
 5881SOL    HW218543   0.732   6.098   3.314
 5882SOL     OW18544   1.218   5.871   5.246
 5882SOL    HW118545   1.191   5.847   5.153
 5882SOL    HW218546   1.205   5.969   5.260
 5883SOL     OW18547   0.109   5.660   6.791
 5883SOL    HW118548   0.149   5.751   6.798
 5883SOL    HW218549   0.014   5.662   6.823
 5884SOL     OW18550   0.883   0.836   1.635
 5884SOL    HW118551   0.844   0.926   1.620
 5884SOL    HW218552   0.811   0.767   1.637
 5885SOL     OW18553   6.883   5.928   1.698
 5885SOL    HW118554   6.953   5.904   1.766
 5885SOL    HW218555   6.928   5.961   1.615
 5886SOL     OW18556   1.716   4.522   3.435
 5886SOL    HW118557   1.677   4.452   3.376
 5886SOL    HW218558   1.774   4.479   3.504
 5887SOL     OW18559   2.192   3.617   1.315
 5887SOL    HW118560   2.147   3.528   1.300
 5887SOL    HW218561   2.291   3.605   1.308
 5888SOL     OW18562   3.131   6.376   1.824
 5888SOL    HW118563   3.123   6.457   1.881
 5888SOL    HW218564   3.044   6.327   1.824
 5889SOL     OW18565   4.354   0.823   1.684
 5889SOL    HW118566   4.395   0.911   1.664
 5889SOL    HW218567   4.398   0.782   1.764
 5890SOL     OW18568   2.389   4.802   3.183
 5890SOL    HW118569   2.432   4.892   3.185
 5890SOL    HW218570   2.460   4.732   3.182
 5891SOL     OW18571   2.422   3.127   6.862
 5891SOL    HW118572   2.420   3.143   6.763
 5891SOL    HW218573   2.517   3.125   6.893
 5892SOL     OW18574   0.700   2.330   1.740
 5892SOL    HW118575   0.723   2.233   1.747
 5892SOL    HW218576   0.714   2.375   1.828
 5893SOL     OW18577   0.086   6.635   1.369
 5893SOL    HW118578   0.148   6.710   1.345
 5893SOL    HW218579   0.133   6.548   1.355
 5894SOL     OW18580   2.943   5.048   6.918
 5894SOL    HW118581   2.946   5.019   6.823
 5894SOL    HW218582   2.956   5.147   6.923
 5895SOL     OW18583   5.784   2.768   4.137
 5895SOL    HW118584   5.706   2.707   4.149
 5895SOL    HW218585   5.839   2.737   4.060
 5896SOL     OW18586   5.432   2.334   0.949
 5896SOL    HW118587   5.391   2.265   0.891
 5896SOL    HW218588   5.488   2.290   1.020
 5897SOL     OW18589   3.417   3.527   0.261
 5897SOL    HW118590   3.419   3.440   0.311
 5897SOL    HW218591   3.322   3.549   0.237
 5898SOL     OW18592   4.048   0.659   6.609
 5898SOL    HW118593   3.982   0.674   6.682
 5898SOL    HW218594   4.054   0.561   6.589
 5899SOL     OW18595   0.372   0.429   0.370
 5899SOL    HW118596   0.406   0.517   0.402
 5899SOL    HW218597   0.280   0.439   0.332
 5900SOL     OW18598   5.318   5.990   2.648
 5900SOL    HW118599   5.326   5.928   2.569
 5900SOL    HW218600   5.395   5.974   2.710
 5901SOL     OW18601   1.243   0.408   5.100
 5901SOL    HW118602   1.268   0.501   5.128
 5901SOL    HW218603   1.231   0.405   5.001
 5902SOL     OW18604   4.510   3.425   6.051
 5902SOL    HW118605   4.571   3.404   5.975
 5902SOL    HW218606   4.426   3.372   6.042
 5903SOL     OW18607   5.343   0.900   6.154
 5903SOL    HW118608   5.337   0.804   6.181
 5903SOL    HW218609   5.275   0.920   6.084
 5904SOL     OW18610   0.114   5.337   1.802
 5904SOL    HW118611   0.015   5.344   1.814
 5904SOL    HW218612   0.160   5.375   1.883
 5905SOL     OW18613   6.599   2.101   4.761
 5905SOL    HW118614   6.532   2.118   4.689
 5905SOL    HW218615   6.594   2.005   4.788
 5906SOL     OW18616   3.854   0.395   4.801
 5906SOL    HW118617   3.937   0.363   4.845
 5906SOL    HW218618   3.867   0.396   4.702
 5907SOL     OW18619   1.181   3.316   5.939
 5907SOL    HW118620   1.128   3.307   5.854
 5907SOL    HW218621   1.271   3.275   5.927
 5908SOL     OW18622   4.579   2.992   6.520
 5908SOL    HW118623   4.674   3.009   6.494
 5908SOL    HW218624   4.564   3.021   6.614
 5909SOL     OW18625   6.995   5.347   3.039
 5909SOL    HW118626   6.902   5.378   3.016
 5909SOL    HW218627   7.007   5.352   3.138
 5910SOL     OW18628   2.148   4.326   2.384
 5910SOL    HW118629   2.182   4.274   2.305
 5910SOL    HW218630   2.163   4.272   2.467
 5911SOL     OW18631   0.133   1.331   5.079
 5911SOL    HW118632   0.133   1.371   5.171
 5911SOL    HW218633   0.115   1.402   5.011
 5912SOL     OW18634   0.530   3.643   5.945
 5912SOL    HW118635   0.499   3.732   5.978
 5912SOL    HW218636   0.610   3.656   5.886
 5913SOL     OW18637   1.522   3.005   5.048
 5913SOL    HW118638   1.615   3.024   5.079
 5913SOL    HW218639   1.522   2.919   4.997
 5914SOL     OW18640   1.138   5.612   0.107
 5914SOL    HW118641   1.068   5.607   0.179
 5914SOL    HW218642   1.154   5.521   0.071
 5915SOL     OW18643   5.591   4.117   4.853
 5915SOL    HW118644   5.522   4.085   4.788
 5915SOL    HW218645   5.682   4.109   4.811
 5916SOL     OW18646   3.667   1.200   6.660
 5916SOL    HW118647   3.708   1.129   6.604
 5916SOL    HW218648   3.626   1.158   6.742
 5917SOL     OW18649   3.595   3.707   2.225
 5917SOL    HW118650   3.589   3.618   2.271
 5917SOL    HW218651   3.506   3.753   2.231
 5918SOL     OW18652   3.277   1.872   4.107
 5918SOL    HW118653   3.366   1.917   4.118
 5918SOL    HW218654   3.290   1.773   4.104
 5919SOL     OW18655   1.523   1.580   6.131
 5919SOL    HW118656   1.489   1.674   6.130
 5919SOL    HW218657   1.572   1.562   6.045
 5920SOL     OW18658   2.302   3.856   6.763
 5920SOL    HW118659   2.216   3.835   6.716
 5920SOL    HW218660   2.354   3.922   6.708
 5921SOL     OW18661   4.010   6.141   4.275
 5921SOL    HW118662   4.063   6.191   4.343
 5921SOL    HW218663   3.924   6.110   4.316
 5922SOL     OW18664   6.703   5.439   2.303
 5922SOL    HW118665   6.668   5.463   2.394
 5922SOL    HW218666   6.800   5.462   2.298
 5923SOL     OW18667   0.855   0.190   3.363
 5923SOL    HW118668   0.766   0.156   3.394
 5923SOL    HW218669   0.843   0.279   3.318
 5924SOL     OW18670   5.878   2.017   4.903
 5924SOL    HW118671   5.794   1.972   4.935
 5924SOL    HW218672   5.894   2.099   4.958
 5925SOL     OW18673   6.544   6.393   0.978
 5925SOL    HW118674   6.478   6.330   1.020
 5925SOL    HW218675   6.575   6.459   1.047
 5926SOL     OW18676   3.140   6.604   1.965
 5926SOL    HW118677   3.087   6.573   2.044
 5926SOL    HW218678   3.206   6.673   1.994
 5927SOL     OW18679   1.979   5.446   1.366
 5927SOL    HW118680   1.889   5.424   1.403
 5927SOL    HW218681   1.971   5.467   1.269
 5928SOL     OW18682   6.415   6.170   1.083
 5928SOL    HW118683   6.368   6.181   1.171
 5928SOL    HW218684   6.371   6.098   1.030
 5929SOL     OW18685   0.254   0.200   6.144
 5929SOL    HW118686   0.318   0.142   6.093
 5929SOL    HW218687   0.193   0.142   6.198
 5930SOL     OW18688   6.800   1.711   4.727
 5930SOL    HW118689   6.894   1.681   4.744
 5930SOL    HW218690   6.746   1.632   4.697
 5931SOL     OW18691   6.107   4.623   0.423
 5931SOL    HW118692   6.083   4.704   0.476
 5931SOL    HW218693   6.165   4.563   0.478
 5932SOL     OW18694   2.547   0.407   1.049
 5932SOL    HW118695   2.581   0.465   0.976
 5932SOL    HW218696   2.622   0.353   1.088
 5933SOL     OW18697   5.323   2.007   3.341
 5933SOL    HW118698   5.378   1.930   3.307
 5933SOL    HW218699   5.336   2.086   3.282
 5934SOL     OW18700   4.040   3.376   1.918
 5934SOL    HW118701   3.998   3.440   1.982
 5934SOL    HW218702   4.060   3.290   1.964
 5935SOL     OW18703   3.828   3.347   2.563
 5935SOL    HW118704   3.808   3.250   2.548
 5935SOL    HW218705   3.779   3.402   2.495
 5936SOL     OW18706   6.418   5.799   0.332
 5936SOL    HW118707   6.376   5.875   0.282
 5936SOL    HW218708   6.505   5.774   0.290
 5937SOL     OW18709   0.929   3.805   0.921
 5937SOL    HW118710   0.954   3.710   0.899
 5937SOL    HW218711   0.913   3.813   1.019
 5938SOL     OW18712   2.783   5.064   1.232
 5938SOL    HW118713   2.695   5.021   1.251
 5938SOL    HW218714   2.852   5.024   1.293
 5939SOL     OW18715   0.540   0.093   2.462
 5939SOL    HW118716   0.519   0.011   2.516
 5939SOL    HW218717   0.638   0.097   2.446
 5940SOL     OW18718   4.400   4.939   2.813
 5940SOL    HW118719   4.436   4.855   2.773
 5940SOL    HW218720   4.343   4.918   2.892
 5941SOL     OW18721   6.277   2.903   3.973
 5941SOL    HW118722   6.320   2.837   3.911
 5941SOL    HW218723   6.294   2.876   4.067
 5942SOL     OW18724   0.258   1.584   4.970
 5942SOL    HW118725   0.272   1.683   4.962
 5942SOL    HW218726   0.319   1.548   5.041
 5943SOL     OW18727   1.576   5.890   1.174
 5943SOL    HW118728   1.498   5.926   1.122
 5943SOL    HW218729   1.661   5.928   1.137
 5944SOL     OW18730   5.084   2.975   3.008
 5944SOL    HW118731   5.125   3.006   3.093
 5944SOL    HW218732   5.113   2.881   2.988
 5945SOL     OW18733   6.485   5.960   6.063
 5945SOL    HW118734   6.500   6.045   6.013
 5945SOL    HW218735   6.393   5.925   6.042
 5946SOL     OW18736   4.132   2.314   5.395
 5946SOL    HW118737   4.125   2.379   5.471
 5946SOL    HW218738   4.043   2.305   5.351
 5947SOL     OW18739   6.023   3.921   2.822
 5947SOL    HW118740   6.007   3.836   2.873
 5947SOL    HW218741   6.006   3.905   2.725
 5948SOL     OW18742   2.623   5.687   3.069
 5948SOL    HW118743   2.566   5.604   3.073
 5948SOL    HW218744   2.629   5.719   2.975
 5949SOL     OW18745   5.167   4.107   3.311
 5949SOL    HW118746   5.067   4.106   3.317
 5949SOL    HW218747   5.202   4.185   3.362
 5950SOL     OW18748   0.341   1.926   5.015
 5950SOL    HW118749   0.336   1.994   4.942
 5950SOL    HW218750   0.272   1.946   5.084
 5951SOL     OW18751   2.255   0.212   3.659
 5951SOL    HW118752   2.276   0.160   3.576
 5951SOL    HW218753   2.196   0.290   3.636
 5952SOL     OW18754   0.381   6.671   4.465
 5952SOL    HW118755   0.381   6.674   4.365
 5952SOL    HW218756   0.287   6.681   4.499
 5953SOL     OW18757   1.386   3.579   6.154
 5953SOL    HW118758   1.335   3.498   6.181
 5953SOL    HW218759   1.368   3.599   6.058
 5954SOL     OW18760   1.149   4.212   6.469
 5954SOL    HW118761   1.081   4.168   6.528
 5954SOL    HW218762   1.166   4.153   6.390
 5955SOL     OW18763   3.742   5.151   1.929
 5955SOL    HW118764   3.786   5.136   2.018
 5955SOL    HW218765   3.704   5.064   1.896
 5956SOL     OW18766   0.470   1.716   0.685
 5956SOL    HW118767   0.448   1.726   0.782
 5956SOL    HW218768   0.388   1.689   0.635
 5957SOL     OW18769   4.019   6.500   6.402
 5957SOL    HW118770   3.923   6.474   6.410
 5957SOL    HW218771   4.029   6.569   6.330
 5958SOL     OW18772   0.969   5.749   2.312
 5958SOL    HW118773   0.958   5.754   2.411
 5958SOL    HW218774   1.066   5.741   2.289
 5959SOL     OW18775   1.585   0.570   5.687
 5959SOL    HW118776   1.648   0.579   5.764
 5959SOL    HW218777   1.634   0.589   5.601
 5960SOL     OW18778   3.746   5.848   4.905
 5960SOL    HW118779   3.675   5.788   4.868
 5960SOL    HW218780   3.712   5.942   4.909
 5961SOL     OW18781   2.699   0.842   5.124
 5961SOL    HW118782   2.639   0.914   5.158
 5961SOL    HW218783   2.747   0.874   5.042
 5962SOL     OW18784   5.659   4.223   3.292
 5962SOL    HW118785   5.579   4.166   3.306
 5962SOL    HW218786   5.631   4.311   3.253
 5963SOL     OW18787   4.180   4.111   1.714
 5963SOL    HW118788   4.087   4.139   1.737
 5963SOL    HW218789   4.245   4.151   1.778
 5964SOL     OW18790   1.643   3.435   4.919
 5964SOL    HW118791   1.545   3.447   4.909
 5964SOL    HW218792   1.662   3.392   5.007
 5965SOL     OW18793   1.781   2.412   4.611
 5965SOL    HW118794   1.721   2.452   4.681
 5965SOL    HW218795   1.755   2.447   4.521
 5966SOL     OW18796   1.391   5.539   4.413
 5966SOL    HW118797   1.308   5.500   4.374
 5966SOL    HW218798   1.368   5.625   4.459
 5967SOL     OW18799   4.986   5.858   1.033
 5967SOL    HW118800   4.934   5.788   0.983
 5967SOL    HW218801   5.082   5.855   1.005
 5968SOL     OW18802   1.699   1.997   4.017
 5968SOL    HW118803   1.623   2.052   3.982
 5968SOL    HW218804   1.763   2.056   4.065
 5969SOL     OW18805   0.893   2.300   2.946
 5969SOL    HW118806   0.973   2.347   2.910
 5969SOL    HW218807   0.846   2.360   3.012
 5970SOL     OW18808   2.037   4.272   3.364
 5970SOL    HW118809   2.051   4.245   3.459
 5970SOL    HW218810   2.058   4.195   3.304
 5971SOL     OW18811   3.066   5.541   3.547
 5971SOL    HW118812   3.025   5.451   3.532
 5971SOL    HW218813   3.031   5.580   3.631
 5972SOL     OW18814   5.364   6.951   1.636
 5972SOL    HW118815   5.346   6.866   1.587
 5972SOL    HW218816   5.344   6.938   1.733
 5973SOL     OW18817   2.735   4.686   3.423
 5973SOL    HW118818   2.690   4.601   3.450
 5973SOL    HW218819   2.729   4.696   3.323
 5974SOL     OW18820   0.655   4.268   6.445
 5974SOL    HW118821   0.699   4.185   6.477
 5974SOL    HW218822   0.619   4.254   6.352
 5975SOL     OW18823   2.023   2.422   6.758
 5975SOL    HW118824   1.931   2.384   6.747
 5975SOL    HW218825   2.080   2.357   6.808
 5976SOL     OW18826   3.439   4.183   4.112
 5976SOL    HW118827   3.393   4.156   4.196
 5976SOL    HW218828   3.494   4.265   4.128
 5977SOL     OW18829   0.465   3.908   2.844
 5977SOL    HW118830   0.386   3.851   2.864
 5977SOL    HW218831   0.447   3.964   2.763
 5978SOL     OW18832   5.124   5.347   1.335
 5978SOL    HW118833   5.179   5.383   1.260
 5978SOL    HW218834   5.053   5.287   1.299
 5979SOL     OW18835   1.213   1.428   1.652
 5979SOL    HW118836   1.258   1.340   1.633
 5979SOL    HW218837   1.201   1.438   1.751
 5980SOL     OW18838   5.663   2.386   4.933
 5980SOL    HW118839   5.750   2.338   4.922
 5980SOL    HW218840   5.598   2.328   4.981
 5981SOL     OW18841   3.451   2.046   0.874
 5981SOL    HW118842   3.361   2.006   0.888
 5981SOL    HW218843   3.442   2.143   0.855
 5982SOL     OW18844   6.318   2.732   6.822
 5982SOL    HW118845   6.249   2.661   6.807
 5982SOL    HW218846   6.407   2.689   6.838
 5983SOL     OW18847   0.703   0.673   4.012
 5983SOL    HW118848   0.785   0.660   4.067
 5983SOL    HW218849   0.659   0.585   3.996
 5984SOL     OW18850   0.351   6.991   5.921
 5984SOL    HW118851   0.255   6.978   5.899
 5984SOL    HW218852   0.376   6.936   6.000
 5985SOL     OW18853   6.130   3.333   3.748
 5985SOL    HW118854   6.132   3.262   3.818
 5985SOL    HW218855   6.206   3.319   3.684
 5986SOL     OW18856   3.402   3.444   2.245
 5986SOL    HW118857   3.415   3.429   2.147
 5986SOL    HW218858   3.334   3.517   2.259
 5987SOL     OW18859   3.758   0.080   5.107
 5987SOL    HW118860   3.740   7.000   5.105
 5987SOL    HW218861   3.727   0.121   5.021
 5988SOL     OW18862   3.310   6.747   5.879
 5988SOL    HW118863   3.375   6.818   5.905
 5988SOL    HW218864   3.231   6.788   5.834
 5989SOL     OW18865   3.139   1.417   6.524
 5989SOL    HW118866   3.043   1.415   6.498
 5989SOL    HW218867   3.187   1.340   6.481
 5990SOL     OW18868   2.605   6.226   3.379
 5990SOL    HW118869   2.666   6.251   3.303
 5990SOL    HW218870   2.660   6.200   3.458
 5991SOL     OW18871   3.922   4.933   2.999
 5991SOL    HW118872   3.825   4.947   2.980
 5991SOL    HW218873   3.967   4.896   2.917
 5992SOL     OW18874   3.811   1.698   3.863
 5992SOL    HW118875   3.777   1.614   3.821
 5992SOL    HW218876   3.870   1.674   3.941
 5993SOL     OW18877   2.757   5.630   4.254
 5993SOL    HW118878   2.690   5.564   4.219
 5993SOL    HW218879   2.712   5.694   4.316
 5994SOL     OW18880   6.301   2.466   0.332
 5994SOL    HW118881   6.275   2.563   0.330
 5994SOL    HW218882   6.236   2.416   0.390
 5995SOL     OW18883   0.236   3.823   1.798
 5995SOL    HW118884   0.257   3.917   1.827
 5995SOL    HW218885   0.285   3.759   1.856
 5996SOL     OW18886   1.457   5.853   6.135
 5996SOL    HW118887   1.369   5.821   6.172
 5996SOL    HW218888   1.440   5.921   6.064
 5997SOL     OW18889   0.627   0.214   1.294
 5997SOL    HW118890   0.593   0.308   1.303
 5997SOL    HW218891   0.710   0.214   1.240
 5998SOL     OW18892   5.294   3.433   3.246
 5998SOL    HW118893   5.261   3.441   3.340
 5998SOL    HW218894   5.229   3.476   3.184
 5999SOL     OW18895   2.157   3.240   2.760
 5999SOL    HW118896   2.058   3.226   2.749
 5999SOL    HW218897   2.176   3.337   2.773
 6000SOL     OW18898   5.323   1.153   3.801
 6000SOL    HW118899   5.284   1.182   3.713
 6000SOL    HW218900   5.390   1.081   3.786
 6001SOL     OW18901   5.429   1.367   0.310
 6001SOL    HW118902   5.360   1.439   0.307
 6001SOL    HW218903   5.462   1.349   0.217
 6002SOL     OW18904   2.342   0.038   2.225
 6002SOL    HW118905   2.427   7.013   2.255
 6002SOL    HW218906   2.363   0.116   2.165
 6003SOL     OW18907   5.248   4.521   3.833
 6003SOL    HW118908   5.298   4.485   3.754
 6003SOL    HW218909   5.162   4.471   3.844
 6004SOL     OW18910   0.667   3.542   2.039
 6004SOL    HW118911   0.693   3.613   2.105
 6004SOL    HW218912   0.701   3.567   1.948
 6005SOL     OW18913   2.486   6.480   2.442
 6005SOL    HW118914   2.533   6.561   2.408
 6005SOL    HW218915   2.542   6.399   2.425
 6006SOL     OW18916   2.172   6.249   6.433
 6006SOL    HW118917   2.191   6.310   6.510
 6006SOL    HW218918   2.205   6.157   6.454
 6007SOL     OW18919   5.628   3.764   4.462
 6007SOL    HW118920   5.586   3.853   4.442
 6007SOL    HW218921   5.677   3.769   4.549
 6008SOL     OW18922   5.105   4.072   2.055
 6008SOL    HW118923   5.191   4.020   2.049
 6008SOL    HW218924   5.031   4.011   2.082
 6009SOL     OW18925   3.487   1.550   4.671
 6009SOL    HW118926   3.392   1.543   4.701
 6009SOL    HW218927   3.542   1.594   4.742
 6010SOL     OW18928   1.676   5.126   3.522
 6010SOL    HW118929   1.762   5.161   3.559
 6010SOL    HW218930   1.643   5.052   3.581
 6011SOL     OW18931   6.567   2.320   1.576
 6011SOL    HW118932   6.528   2.405   1.539
 6011SOL    HW218933   6.634   2.342   1.647
 6012SOL     OW18934   0.778   2.347   1.116
 6012SOL    HW118935   0.856   2.365   1.057
 6012SOL    HW218936   0.726   2.432   1.129
 6013SOL     OW18937   5.078   0.966   2.050
 6013SOL    HW118938   5.023   0.965   2.133
 6013SOL    HW218939   5.032   0.915   1.978
 6014SOL     OW18940   6.322   1.748   0.444
 6014SOL    HW118941   6.414   1.729   0.479
 6014SOL    HW218942   6.260   1.766   0.521
 6015SOL     OW18943   6.151   6.935   4.468
 6015SOL    HW118944   6.233   6.913   4.415
 6015SOL    HW218945   6.164   0.005   4.513
 6016SOL     OW18946   1.034   0.018   5.538
 6016SOL    HW118947   1.110   0.024   5.473
 6016SOL    HW218948   1.064   6.991   5.622
 6017SOL     OW18949   0.088   3.556   2.490
 6017SOL    HW118950   0.059   3.650   2.471
 6017SOL    HW218951   0.069   3.533   2.585
 6018SOL     OW18952   3.504   5.165   1.639
 6018SOL    HW118953   3.561   5.159   1.558
 6018SOL    HW218954   3.518   5.085   1.697
 6019SOL     OW18955   6.731   6.974   3.723
 6019SOL    HW118956   6.662   6.983   3.794
 6019SOL    HW218957   6.752   6.877   3.709
 6020SOL     OW18958   2.365   6.443   3.049
 6020SOL    HW118959   2.422   6.369   3.012
 6020SOL    HW218960   2.367   6.441   3.149
 6021SOL     OW18961   2.855   0.748   3.436
 6021SOL    HW118962   2.842   0.772   3.340
 6021SOL    HW218963   2.924   0.808   3.477
 6022SOL     OW18964   3.445   2.045   5.758
 6022SOL    HW118965   3.528   2.010   5.801
 6022SOL    HW218966   3.385   1.968   5.736
 6023SOL     OW18967   0.772   2.064   1.754
 6023SOL    HW118968   0.710   2.033   1.683
 6023SOL    HW218969   0.828   1.988   1.786
 6024SOL     OW18970   6.238   4.950   2.350
 6024SOL    HW118971   6.312   4.917   2.408
 6024SOL    HW218972   6.194   4.873   2.304
 6025SOL     OW18973   4.599   2.597   2.355
 6025SOL    HW118974   4.691   2.561   2.347
 6025SOL    HW218975   4.571   2.638   2.268
 6026SOL     OW18976   0.823   4.184   5.487
 6026SOL    HW118977   0.830   4.266   5.431
 6026SOL    HW218978   0.809   4.210   5.582
 6027SOL     OW18979   4.003   4.338   0.186
 6027SOL    HW118980   4.085   4.394   0.187
 6027SOL    HW218981   3.965   4.332   0.278
 6028SOL     OW18982   0.899   3.972   5.683
 6028SOL    HW118983   0.943   4.002   5.599
 6028SOL    HW218984   0.969   3.937   5.746
 6029SOL     OW18985   1.057   5.288   1.486
 6029SOL    HW118986   1.108   5.222   1.540
 6029SOL    HW218987   1.117   5.362   1.457
 6030SOL     OW18988   1.881   6.619   1.740
 6030SOL    HW118989   1.965   6.662   1.708
 6030SOL    HW218990   1.903   6.542   1.800
 6031SOL     OW18991   4.181   0.634   4.641
 6031SOL    HW118992   4.280   0.651   4.639
 6031SOL    HW218993   4.165   0.536   4.645
 6032SOL     OW18994   1.358   2.377   1.965
 6032SOL    HW118995   1.448   2.382   2.008
 6032SOL    HW218996   1.328   2.281   1.962
 6033SOL     OW18997   0.067   6.700   4.466
 6033SOL    HW118998   0.109   6.715   4.376
 6033SOL    HW218999   0.051   6.602   4.479
 6034SOL     OW19000   2.591   4.525   4.442
 6034SOL    HW119001   2.682   4.510   4.481
 6034SOL    HW219002   2.526   4.548   4.515
 6035SOL     OW19003   4.813   0.130   4.003
 6035SOL    HW119004   4.877   0.174   3.939
 6035SOL    HW219005   4.731   0.186   4.011
 6036SOL     OW19006   5.368   1.002   5.465
 6036SOL    HW119007   5.460   0.984   5.431
 6036SOL    HW219008   5.319   0.915   5.477
 6037SOL     OW19009   0.318   5.428   4.888
 6037SOL    HW119010   0.325   5.486   4.806
 6037SOL    HW219011   0.394   5.446   4.949
 6038SOL     OW19012   0.346   3.803   6.393
 6038SOL    HW119013   0.425   3.832   6.340
 6038SOL    HW219014   0.374   3.735   6.461
 6039SOL     OW19015   3.283   3.442   3.961
 6039SOL    HW119016   3.198   3.432   3.910
 6039SOL    HW219017   3.355   3.389   3.917
 6040SOL     OW19018   1.144   0.975   0.820
 6040SOL    HW119019   1.233   1.011   0.849
 6040SOL    HW219020   1.156   0.921   0.736
 6041SOL     OW19021   0.376   3.071   6.805
 6041SOL    HW119022   0.474   3.077   6.788
 6041SOL    HW219023   0.360   3.038   6.898
 6042SOL     OW19024   5.984   5.874   4.949
 6042SOL    HW119025   5.963   5.969   4.923
 6042SOL    HW219026   5.900   5.821   4.955
 6043SOL     OW19027   6.923   4.946   3.267
 6043SOL    HW119028   6.952   4.865   3.216
 6043SOL    HW219029   6.841   4.985   3.224
 6044SOL     OW19030   1.199   0.891   0.575
 6044SOL    HW119031   1.298   0.903   0.571
 6044SOL    HW219032   1.163   0.875   0.482
 6045SOL     OW19033   6.121   3.794   6.513
 6045SOL    HW119034   6.050   3.851   6.556
 6045SOL    HW219035   6.121   3.703   6.555
 6046SOL     OW19036   1.041   3.923   6.800
 6046SOL    HW119037   0.964   3.868   6.767
 6046SOL    HW219038   1.010   4.016   6.816
 6047SOL     OW19039   1.128   6.217   5.170
 6047SOL    HW119040   1.171   6.188   5.256
 6047SOL    HW219041   1.080   6.139   5.129
 6048SOL     OW19042   5.121   6.148   4.237
 6048SOL    HW119043   5.197   6.109   4.184
 6048SOL    HW219044   5.061   6.200   4.176
 6049SOL     OW19045   0.035   5.650   0.309
 6049SOL    HW119046   0.070   5.628   0.218
 6049SOL    HW219047   0.070   5.583   0.375
 6050SOL     OW19048   5.427   4.290   5.225
 6050SOL    HW119049   5.408   4.193   5.236
 6050SOL    HW219050   5.505   4.316   5.283
 6051SOL     OW19051   3.030   1.801   3.425
 6051SOL    HW119052   3.016   1.833   3.331
 6051SOL    HW219053   3.025   1.879   3.488
 6052SOL     OW19054   0.574   2.101   6.654
 6052SOL    HW119055   0.543   2.124   6.746
 6052SOL    HW219056   0.619   2.012   6.654
 6053SOL     OW19057   1.028   0.695   6.428
 6053SOL    HW119058   1.103   0.703   6.363
 6053SOL    HW219059   1.036   0.608   6.478
 6054SOL     OW19060   0.530   3.944   6.274
 6054SOL    HW119061   0.569   3.960   6.184
 6054SOL    HW219062   0.602   3.918   6.338
 6055SOL     OW19063   5.836   6.772   2.769
 6055SOL    HW119064   5.821   6.840   2.697
 6055SOL    HW219065   5.821   6.680   2.732
 6056SOL     OW19066   5.038   2.991   6.635
 6056SOL    HW119067   4.970   2.987   6.562
 6056SOL    HW219068   5.128   2.969   6.597
 6057SOL     OW19069   4.787   0.958   6.540
 6057SOL    HW119070   4.831   1.038   6.582
 6057SOL    HW219071   4.853   0.883   6.537
 6058SOL     OW19072   5.353   2.511   5.750
 6058SOL    HW119073   5.329   2.565   5.669
 6058SOL    HW219074   5.286   2.528   5.823
 6059SOL     OW19075   0.173   6.319   6.371
 6059SOL    HW119076   0.244   6.346   6.306
 6059SOL    HW219077   0.190   6.361   6.460
 6060SOL     OW19078   3.277   5.660   6.563
 6060SOL    HW119079   3.250   5.702   6.476
 6060SOL    HW219080   3.349   5.715   6.606
 6061SOL     OW19081   2.202   1.258   0.133
 6061SOL    HW119082   2.291   1.267   0.088
 6061SOL    HW219083   2.146   1.340   0.113
 6062SOL     OW19084   1.109   0.200   3.504
 6062SOL    HW119085   1.009   0.205   3.500
 6062SOL    HW219086   1.138   0.105   3.494
 6063SOL     OW19087   5.791   6.209   0.116
 6063SOL    HW119088   5.820   6.247   0.204
 6063SOL    HW219089   5.798   6.280   0.045
 6064SOL     OW19090   0.774   5.573   2.186
 6064SOL    HW119091   0.810   5.643   2.249
 6064SOL    HW219092   0.677   5.557   2.207
 6065SOL     OW19093   4.951   6.934   1.303
 6065SOL    HW119094   5.031   6.923   1.244
 6065SOL    HW219095   4.877   6.875   1.271
 6066SOL     OW19096   4.840   2.034   5.708
 6066SOL    HW119097   4.825   2.132   5.704
 6066SOL    HW219098   4.913   2.009   5.643
 6067SOL     OW19099   5.287   1.539   6.797
 6067SOL    HW119100   5.225   1.479   6.847
 6067SOL    HW219101   5.336   1.486   6.728
 6068SOL     OW19102   4.986   0.919   5.251
 6068SOL    HW119103   4.999   0.841   5.312
 6068SOL    HW219104   5.052   0.913   5.176
 6069SOL     OW19105   6.966   5.247   3.563
 6069SOL    HW119106   7.012   5.334   3.583
 6069SOL    HW219107   6.867   5.260   3.562
 6070SOL     OW19108   4.980   3.510   1.620
 6070SOL    HW119109   4.983   3.470   1.711
 6070SOL    HW219110   4.917   3.458   1.563
 6071SOL     OW19111   5.336   0.707   5.085
 6071SOL    HW119112   5.341   0.610   5.107
 6071SOL    HW219113   5.394   0.759   5.147
 6072SOL     OW19114   6.188   0.940   1.850
 6072SOL    HW119115   6.094   0.928   1.882
 6072SOL    HW219116   6.188   0.985   1.761
 6073SOL     OW19117   5.934   0.928   0.631
 6073SOL    HW119118   5.895   0.958   0.718
 6073SOL    HW219119   5.915   0.830   0.618
 6074SOL     OW19120   0.171   0.940   5.865
 6074SOL    HW119121   0.231   1.015   5.893
 6074SOL    HW219122   0.227   0.864   5.832
 6075SOL     OW19123   5.377   3.211   5.760
 6075SOL    HW119124   5.465   3.165   5.776
 6075SOL    HW219125   5.392   3.293   5.705
 6076SOL     OW19126   3.090   0.544   3.731
 6076SOL    HW119127   3.158   0.611   3.702
 6076SOL    HW219128   3.003   0.590   3.748
 6077SOL     OW19129   4.912   5.244   3.324
 6077SOL    HW119130   4.985   5.284   3.380
 6077SOL    HW219131   4.825   5.286   3.349
 6078SOL     OW19132   2.252   4.787   4.559
 6078SOL    HW119133   2.238   4.796   4.658
 6078SOL    HW219134   2.306   4.865   4.526
 6079SOL     OW19135   3.248   2.112   0.562
 6079SOL    HW119136   3.326   2.174   0.560
 6079SOL    HW219137   3.170   2.154   0.516
 6080SOL     OW19138   6.285   3.300   3.527
 6080SOL    HW119139   6.357   3.365   3.554
 6080SOL    HW219140   6.304   3.266   3.436
 6081SOL     OW19141   0.994   4.583   1.681
 6081SOL    HW119142   1.067   4.612   1.742
 6081SOL    HW219143   0.933   4.661   1.663
 6082SOL     OW19144   4.647   1.724   5.315
 6082SOL    HW119145   4.690   1.798   5.263
 6082SOL    HW219146   4.706   1.644   5.315
 6083SOL     OW19147   1.771   6.555   6.850
 6083SOL    HW119148   1.689   6.554   6.907
 6083SOL    HW219149   1.832   6.628   6.880
 6084SOL     OW19150   0.316   6.004   6.179
 6084SOL    HW119151   0.222   6.036   6.187
 6084SOL    HW219152   0.373   6.049   6.249
 6085SOL     OW19153   5.447   4.760   1.626
 6085SOL    HW119154   5.358   4.718   1.605
 6085SOL    HW219155   5.458   4.765   1.726
 6086SOL     OW19156   3.491   2.031   2.028
 6086SOL    HW119157   3.462   2.002   1.937
 6086SOL    HW219158   3.548   2.113   2.021
 6087SOL     OW19159   3.538   0.948   0.348
 6087SOL    HW119160   3.450   0.936   0.301
 6087SOL    HW219161   3.568   1.043   0.337
 6088SOL     OW19162   0.638   0.868   4.679
 6088SOL    HW119163   0.640   0.968   4.685
 6088SOL    HW219164   0.689   0.830   4.756
 6089SOL     OW19165   7.000   3.542   1.501
 6089SOL    HW119166   0.059   3.504   1.450
 6089SOL    HW219167   6.914   3.515   1.457
 6090SOL     OW19168   6.376   6.542   4.377
 6090SOL    HW119169   6.372   6.514   4.473
 6090SOL    HW219170   6.374   6.642   4.371
 6091SOL     OW19171   6.780   1.775   2.356
 6091SOL    HW119172   6.713   1.800   2.287
 6091SOL    HW219173   6.751   1.810   2.445
 6092SOL     OW19174   0.359   3.431   1.299
 6092SOL    HW119175   0.275   3.395   1.257
 6092SOL    HW219176   0.430   3.437   1.229
 6093SOL     OW19177   0.878   4.255   0.671
 6093SOL    HW119178   0.823   4.312   0.732
 6093SOL    HW219179   0.919   4.180   0.723
 6094SOL     OW19180   0.543   1.503   0.990
 6094SOL    HW119181   0.538   1.603   0.994
 6094SOL    HW219182   0.619   1.475   0.931
 6095SOL     OW19183   0.685   3.906   5.145
 6095SOL    HW119184   0.638   3.820   5.161
 6095SOL    HW219185   0.626   3.982   5.172
 6096SOL     OW19186   5.681   2.077   2.688
 6096SOL    HW119187   5.635   2.161   2.660
 6096SOL    HW219188   5.729   2.038   2.609
 6097SOL     OW19189   3.753   1.455   2.477
 6097SOL    HW119190   3.852   1.474   2.482
 6097SOL    HW219191   3.709   1.485   2.561
 6098SOL     OW19192   0.406   0.867   6.825
 6098SOL    HW119193   0.468   0.827   6.892
 6098SOL    HW219194   0.393   0.804   6.749
 6099SOL     OW19195   5.860   4.065   4.784
 6099SOL    HW119196   5.904   4.106   4.705
 6099SOL    HW219197   5.928   4.044   4.854
 6100SOL     OW19198   0.110   2.864   1.497
 6100SOL    HW119199   0.135   2.781   1.447
 6100SOL    HW219200   0.030   2.907   1.454
 6101SOL     OW19201   6.632   6.283   3.567
 6101SOL    HW119202   6.589   6.223   3.500
 6101SOL    HW219203   6.723   6.308   3.535
 6102SOL     OW19204   3.586   5.970   4.679
 6102SOL    HW119205   3.524   6.004   4.750
 6102SOL    HW219206   3.549   5.992   4.589
 6103SOL     OW19207   5.082   1.783   4.759
 6103SOL    HW119208   5.149   1.856   4.770
 6103SOL    HW219209   5.066   1.739   4.848
 6104SOL     OW19210   2.379   2.938   1.415
 6104SOL    HW119211   2.372   2.856   1.472
 6104SOL    HW219212   2.475   2.966   1.409
 6105SOL     OW19213   3.397   5.060   4.662
 6105SOL    HW119214   3.487   5.050   4.705
 6105SOL    HW219215   3.330   5.085   4.732
 6106SOL     OW19216   1.926   5.361   4.034
 6106SOL    HW119217   1.961   5.269   4.052
 6106SOL    HW219218   1.826   5.357   4.025
 6107SOL     OW19219   1.725   4.766   5.952
 6107SOL    HW119220   1.757   4.800   6.041
 6107SOL    HW219221   1.716   4.667   5.955
 6108SOL     OW19222   5.453   1.645   4.822
 6108SOL    HW119223   5.497   1.562   4.786
 6108SOL    HW219224   5.427   1.631   4.917
 6109SOL     OW19225   0.353   4.454   1.821
 6109SOL    HW119226   0.280   4.387   1.833
 6109SOL    HW219227   0.412   4.425   1.746
 6110SOL     OW19228   3.291   2.085   3.856
 6110SOL    HW119229   3.247   2.060   3.771
 6110SOL    HW219230   3.304   2.004   3.913
 6111SOL     OW19231   0.615   4.645   3.783
 6111SOL    HW119232   0.613   4.617   3.687
 6111SOL    HW219233   0.604   4.745   3.788
 6112SOL     OW19234   1.587   0.780   0.992
 6112SOL    HW119235   1.500   0.813   1.029
 6112SOL    HW219236   1.626   0.849   0.931
 6113SOL     OW19237   0.906   4.880   5.876
 6113SOL    HW119238   0.907   4.841   5.784
 6113SOL    HW219239   0.999   4.886   5.911
 6114SOL     OW19240   3.739   4.415   1.377
 6114SOL    HW119241   3.804   4.474   1.329
 6114SOL    HW219242   3.704   4.346   1.313
 6115SOL     OW19243   0.098   4.191   2.563
 6115SOL    HW119244   0.039   4.266   2.532
 6115SOL    HW219245   0.066   4.105   2.524
 6116SOL     OW19246   4.277   2.366   1.113
 6116SOL    HW119247   4.284   2.455   1.067
 6116SOL    HW219248   4.359   2.351   1.169
 6117SOL     OW19249   5.302   6.332   4.361
 6117SOL    HW119250   5.345   6.285   4.438
 6117SOL    HW219251   5.236   6.270   4.317
 6118SOL     OW19252   6.538   0.071   3.409
 6118SOL    HW119253   6.623   0.021   3.395
 6118SOL    HW219254   6.489   0.031   3.487
 6119SOL     OW19255   5.875   5.288   5.018
 6119SOL    HW119256   5.785   5.275   4.978
 6119SOL    HW219257   5.890   5.384   5.039
 6120SOL     OW19258   2.543   2.033   2.434
 6120SOL    HW119259   2.520   1.963   2.502
 6120SOL    HW219260   2.556   2.121   2.480
 6121SOL     OW19261   0.176   2.036   3.242
 6121SOL    HW119262   0.165   1.939   3.265
 6121SOL    HW219263   0.222   2.083   3.317
 6122SOL     OW19264   3.869   5.581   3.723
 6122SOL    HW119265   3.858   5.680   3.712
 6122SOL    HW219266   3.962   5.560   3.750
 6123SOL     OW19267   6.856   1.914   2.849
 6123SOL    HW119268   6.846   1.890   2.946
 6123SOL    HW219269   6.891   2.007   2.841
 6124SOL     OW19270   2.832   0.244   4.954
 6124SOL    HW119271   2.927   0.226   4.982
 6124SOL    HW219272   2.793   0.163   4.910
 6125SOL     OW19273   1.330   4.290   2.712
 6125SOL    HW119274   1.285   4.244   2.788
 6125SOL    HW219275   1.264   4.350   2.666
 6126SOL     OW19276   3.481   6.901   3.219
 6126SOL    HW119277   3.432   6.836   3.162
 6126SOL    HW219278   3.426   6.924   3.299
 6127SOL     OW19279   1.817   5.727   0.993
 6127SOL    HW119280   1.823   5.679   1.081
 6127SOL    HW219281   1.908   5.733   0.952
 6128SOL     OW19282   5.430   4.151   1.928
 6128SOL    HW119283   5.456   4.164   1.832
 6128SOL    HW219284   5.399   4.239   1.966
 6129SOL     OW19285   6.682   3.736   3.587
 6129SOL    HW119286   6.662   3.782   3.674
 6129SOL    HW219287   6.702   3.804   3.517
 6130SOL     OW19288   6.013   3.378   2.879
 6130SOL    HW119289   5.996   3.326   2.963
 6130SOL    HW219290   5.987   3.473   2.893
 6131SOL     OW19291   6.990   1.498   5.263
 6131SOL    HW119292   6.944   1.571   5.213
 6131SOL    HW219293   6.924   1.451   5.322
 6132SOL     OW19294   0.072   2.948   0.489
 6132SOL    HW119295   0.100   2.928   0.395
 6132SOL    HW219296   0.153   2.958   0.547
 6133SOL     OW19297   1.241   4.811   0.898
 6133SOL    HW119298   1.218   4.721   0.861
 6133SOL    HW219299   1.185   4.881   0.854
 6134SOL     OW19300   4.744   4.232   6.213
 6134SOL    HW119301   4.683   4.311   6.219
 6134SOL    HW219302   4.707   4.158   6.269
 6135SOL     OW19303   5.911   6.548   1.918
 6135SOL    HW119304   5.993   6.588   1.876
 6135SOL    HW219305   5.885   6.603   1.998
 6136SOL     OW19306   1.392   2.093   2.366
 6136SOL    HW119307   1.475   2.050   2.329
 6136SOL    HW219308   1.402   2.192   2.363
 6137SOL     OW19309   3.012   0.474   6.104
 6137SOL    HW119310   2.986   0.570   6.098
 6137SOL    HW219311   3.036   0.452   6.198
 6138SOL     OW19312   4.933   0.587   3.616
 6138SOL    HW119313   4.921   0.661   3.682
 6138SOL    HW219314   4.933   0.624   3.523
 6139SOL     OW19315   2.475   6.238   3.742
 6139SOL    HW119316   2.417   6.213   3.820
 6139SOL    HW219317   2.433   6.205   3.657
 6140SOL     OW19318   2.174   5.825   1.506
 6140SOL    HW119319   2.171   5.753   1.575
 6140SOL    HW219320   2.103   5.808   1.437
 6141SOL     OW19321   0.878   6.393   4.632
 6141SOL    HW119322   0.878   6.313   4.692
 6141SOL    HW219323   0.796   6.393   4.576
 6142SOL     OW19324   0.157   2.956   4.184
 6142SOL    HW119325   0.188   2.947   4.089
 6142SOL    HW219326   0.087   3.028   4.189
 6143SOL     OW19327   6.548   5.696   6.519
 6143SOL    HW119328   6.589   5.770   6.572
 6143SOL    HW219329   6.451   5.714   6.504
 6144SOL     OW19330   0.319   5.550   4.659
 6144SOL    HW119331   0.278   5.639   4.679
 6144SOL    HW219332   0.409   5.563   4.617
 6145SOL     OW19333   5.791   5.136   3.552
 6145SOL    HW119334   5.755   5.104   3.639
 6145SOL    HW219335   5.886   5.167   3.564
 6146SOL     OW19336   5.861   1.820   3.797
 6146SOL    HW119337   5.876   1.918   3.782
 6146SOL    HW219338   5.768   1.805   3.832
 6147SOL     OW19339   1.396   3.832   3.627
 6147SOL    HW119340   1.352   3.775   3.558
 6147SOL    HW219341   1.442   3.774   3.694
 6148SOL     OW19342   5.861   6.577   3.559
 6148SOL    HW119343   5.927   6.531   3.619
 6148SOL    HW219344   5.910   6.629   3.489
 6149SOL     OW19345   0.854   5.788   4.544
 6149SOL    HW119346   0.912   5.869   4.540
 6149SOL    HW219347   0.805   5.778   4.457
 6150SOL     OW19348   4.409   6.716   6.638
 6150SOL    HW119349   4.506   6.739   6.644
 6150SOL    HW219350   4.369   6.716   6.729
 6151SOL     OW19351   3.662   0.211   4.892
 6151SOL    HW119352   3.586   0.221   4.828
 6151SOL    HW219353   3.733   0.278   4.870
 6152SOL     OW19354   6.498   3.836   5.972
 6152SOL    HW119355   6.479   3.739   5.959
 6152SOL    HW219356   6.564   3.866   5.904
 6153SOL     OW19357   3.886   5.766   5.669
 6153SOL    HW119358   3.956   5.720   5.615
 6153SOL    HW219359   3.818   5.807   5.607
 6154SOL     OW19360   5.250   2.808   3.385
 6154SOL    HW119361   5.187   2.740   3.348
 6154SOL    HW219362   5.202   2.868   3.448
 6155SOL     OW19363   3.027   4.910   4.491
 6155SOL    HW119364   2.960   4.879   4.424
 6155SOL    HW219365   2.994   4.888   4.583
 6156SOL     OW19366   5.609   0.500   4.373
 6156SOL    HW119367   5.706   0.508   4.397
 6156SOL    HW219368   5.590   0.554   4.291
 6157SOL     OW19369   1.354   0.258   4.766
 6157SOL    HW119370   1.267   0.306   4.785
 6157SOL    HW219371   1.334   0.169   4.724
 6158SOL     OW19372   4.936   6.242   0.148
 6158SOL    HW119373   4.846   6.201   0.164
 6158SOL    HW219374   4.985   6.189   0.079
 6159SOL     OW19375   4.488   3.374   6.500
 6159SOL    HW119376   4.420   3.446   6.486
 6159SOL    HW219377   4.505   3.362   6.598
 6160SOL     OW19378   6.185   5.132   0.362
 6160SOL    HW119379   6.174   5.077   0.445
 6160SOL    HW219380   6.261   5.196   0.375
 6161SOL     OW19381   5.374   0.612   6.161
 6161SOL    HW119382   5.444   0.564   6.108
 6161SOL    HW219383   5.294   0.553   6.171
 6162SOL     OW19384   5.534   6.129   3.658
 6162SOL    HW119385   5.483   6.054   3.703
 6162SOL    HW219386   5.477   6.168   3.586
 6163SOL     OW19387   0.141   3.913   2.959
 6163SOL    HW119388   0.165   3.988   2.898
 6163SOL    HW219389   0.057   3.936   3.008
 6164SOL     OW19390   4.734   3.516   1.437
 6164SOL    HW119391   4.675   3.486   1.512
 6164SOL    HW219392   4.718   3.459   1.357
 6165SOL     OW19393   3.419   0.265   1.220
 6165SOL    HW119394   3.325   0.279   1.189
 6165SOL    HW219395   3.477   0.338   1.185
 6166SOL     OW19396   3.394   0.839   0.619
 6166SOL    HW119397   3.426   0.855   0.712
 6166SOL    HW219398   3.410   0.921   0.563
 6167SOL     OW19399   0.174   5.090   3.661
 6167SOL    HW119400   0.247   5.156   3.679
 6167SOL    HW219401   0.103   5.133   3.605
 6168SOL     OW19402   0.151   2.537   1.750
 6168SOL    HW119403   0.238   2.499   1.719
 6168SOL    HW219404   0.168   2.619   1.804
 6169SOL     OW19405   1.675   3.998   1.018
 6169SOL    HW119406   1.728   3.913   1.012
 6169SOL    HW219407   1.644   4.023   0.926
 6170SOL     OW19408   5.525   2.196   3.670
 6170SOL    HW119409   5.434   2.198   3.631
 6170SOL    HW219410   5.522   2.147   3.758
 6171SOL     OW19411   5.626   2.517   6.312
 6171SOL    HW119412   5.669   2.455   6.377
 6171SOL    HW219413   5.649   2.611   6.336
 6172SOL     OW19414   0.254   4.610   3.385
 6172SOL    HW119415   0.261   4.678   3.312
 6172SOL    HW219416   0.170   4.625   3.436
 6173SOL     OW19417   5.456   6.341   2.766
 6173SOL    HW119418   5.553   6.361   2.752
 6173SOL    HW219419   5.446   6.251   2.809
 6174SOL     OW19420   0.518   2.031   3.416
 6174SOL    HW119421   0.565   2.034   3.327
 6174SOL    HW219422   0.492   1.937   3.436
 6175SOL     OW19423   4.720   2.348   6.672
 6175SOL    HW119424   4.711   2.445   6.649
 6175SOL    HW219425   4.650   2.296   6.623
 6176SOL     OW19426   2.429   5.300   5.888
 6176SOL    HW119427   2.440   5.298   5.988
 6176SOL    HW219428   2.406   5.393   5.859
 6177SOL     OW19429   5.957   5.258   1.679
 6177SOL    HW119430   5.978   5.264   1.582
 6177SOL    HW219431   5.957   5.162   1.707
 6178SOL     OW19432   4.338   4.666   1.837
 6178SOL    HW119433   4.387   4.603   1.776
 6178SOL    HW219434   4.271   4.718   1.784
 6179SOL     OW19435   4.995   5.246   4.298
 6179SOL    HW119436   5.047   5.321   4.339
 6179SOL    HW219437   4.897   5.268   4.302
 6180SOL     OW19438   1.571   3.307   6.594
 6180SOL    HW119439   1.512   3.387   6.590
 6180SOL    HW219440   1.516   3.226   6.618
 6181SOL     OW19441   6.810   6.258   0.278
 6181SOL    HW119442   6.907   6.248   0.255
 6181SOL    HW219443   6.801   6.308   0.364
 6182SOL     OW19444   2.473   2.578   6.179
 6182SOL    HW119445   2.492   2.625   6.092
 6182SOL    HW219446   2.556   2.533   6.211
 6183SOL     OW19447   0.245   0.881   0.519
 6183SOL    HW119448   0.237   0.887   0.619
 6183SOL    HW219449   0.269   0.971   0.483
 6184SOL     OW19450   3.652   6.504   5.048
 6184SOL    HW119451   3.620   6.475   5.138
 6184SOL    HW219452   3.601   6.455   4.977
 6185SOL     OW19453   3.345   3.120   3.433
 6185SOL    HW119454   3.374   3.037   3.480
 6185SOL    HW219455   3.419   3.153   3.374
 6186SOL     OW19456   0.868   1.300   1.920
 6186SOL    HW119457   0.872   1.369   1.992
 6186SOL    HW219458   0.784   1.311   1.867
 6187SOL     OW19459   3.696   2.417   5.537
 6187SOL    HW119460   3.614   2.398   5.482
 6187SOL    HW219461   3.670   2.442   5.630
 6188SOL     OW19462   0.721   1.372   5.627
 6188SOL    HW119463   0.784   1.306   5.666
 6188SOL    HW219464   0.707   1.448   5.691
 6189SOL     OW19465   6.871   5.339   1.157
 6189SOL    HW119466   6.786   5.332   1.209
 6189SOL    HW219467   6.850   5.367   1.063
 6190SOL     OW19468   1.171   3.102   3.727
 6190SOL    HW119469   1.081   3.096   3.684
 6190SOL    HW219470   1.232   3.036   3.685
 6191SOL     OW19471   2.589   4.723   6.948
 6191SOL    HW119472   2.584   4.823   6.950
 6191SOL    HW219473   2.603   4.693   6.853
 6192SOL     OW19474   2.482   1.575   1.014
 6192SOL    HW119475   2.444   1.661   0.980
 6192SOL    HW219476   2.463   1.502   0.949
 6193SOL     OW19477   4.614   5.195   6.615
 6193SOL    HW119478   4.689   5.192   6.549
 6193SOL    HW219479   4.572   5.286   6.613
 6194SOL     OW19480   5.295   7.014   6.080
 6194SOL    HW119481   5.258   6.923   6.067
 6194SOL    HW219482   5.276   0.051   5.999
 6195SOL     OW19483   5.230   5.292   5.511
 6195SOL    HW119484   5.144   5.305   5.461
 6195SOL    HW219485   5.291   5.234   5.458
 6196SOL     OW19486   6.710   4.057   3.005
 6196SOL    HW119487   6.666   3.969   2.985
 6196SOL    HW219488   6.645   4.131   2.990
 6197SOL     OW19489   0.329   5.411   0.991
 6197SOL    HW119490   0.422   5.447   0.988
 6197SOL    HW219491   0.326   5.331   1.050
 6198SOL     OW19492   6.208   1.970   5.924
 6198SOL    HW119493   6.240   2.061   5.949
 6198SOL    HW219494   6.199   1.913   6.005
 6199SOL     OW19495   2.273   6.936   6.389
 6199SOL    HW119496   2.196   6.871   6.390
 6199SOL    HW219497   2.249   7.016   6.445
 6200SOL     OW19498   1.930   6.769   6.956
 6200SOL    HW119499   1.936   6.863   6.924
 6200SOL    HW219500   2.009   6.748   7.014
 6201SOL     OW19501   0.892   4.771   3.644
 6201SOL    HW119502   0.895   4.765   3.744
 6201SOL    HW219503   0.797   4.781   3.614
 6202SOL     OW19504   4.914   1.614   1.485
 6202SOL    HW119505   4.998   1.595   1.434
 6202SOL    HW219506   4.934   1.623   1.582
 6203SOL     OW19507   0.442   1.133   2.546
 6203SOL    HW119508   0.428   1.205   2.614
 6203SOL    HW219509   0.510   1.164   2.480
 6204SOL     OW19510   1.013   6.008   4.547
 6204SOL    HW119511   0.964   6.027   4.463
 6204SOL    HW219512   0.960   6.041   4.625
 6205SOL     OW19513   0.355   4.340   3.316
 6205SOL    HW119514   0.321   4.420   3.366
 6205SOL    HW219515   0.358   4.261   3.378
 6206SOL     OW19516   5.592   2.221   4.097
 6206SOL    HW119517   5.584   2.161   4.017
 6206SOL    HW219518   5.649   2.177   4.166
 6207SOL     OW19519   1.732   5.667   3.357
 6207SOL    HW119520   1.812   5.687   3.300
 6207SOL    HW219521   1.722   5.568   3.366
 6208SOL     OW19522   3.862   4.505   6.247
 6208SOL    HW119523   3.786   4.498   6.311
 6208SOL    HW219524   3.827   4.504   6.153
 6209SOL     OW19525   3.325   1.235   2.801
 6209SOL    HW119526   3.241   1.280   2.832
 6209SOL    HW219527   3.356   1.277   2.715
 6210SOL     OW19528   5.370   0.022   4.433
 6210SOL    HW119529   5.273   0.035   4.412
 6210SOL    HW219530   5.407   6.969   4.374
 6211SOL     OW19531   5.097   2.763   5.388
 6211SOL    HW119532   5.114   2.858   5.364
 6211SOL    HW219533   5.108   2.706   5.306
 6212SOL     OW19534   4.903   4.019   4.726
 6212SOL    HW119535   4.968   4.031   4.651
 6212SOL    HW219536   4.887   4.107   4.771
 6213SOL     OW19537   5.238   5.836   0.834
 6213SOL    HW119538   5.198   5.836   0.743
 6213SOL    HW219539   5.209   5.754   0.884
 6214SOL     OW19540   6.809   6.282   6.192
 6214SOL    HW119541   6.816   6.255   6.096
 6214SOL    HW219542   6.713   6.298   6.215
 6215SOL     OW19543   5.353   2.667   5.089
 6215SOL    HW119544   5.422   2.674   5.161
 6215SOL    HW219545   5.274   2.617   5.124
 6216SOL     OW19546   5.306   2.884   6.553
 6216SOL    HW119547   5.374   2.948   6.516
 6216SOL    HW219548   5.353   2.810   6.602
 6217SOL     OW19549   0.375   4.277   2.223
 6217SOL    HW119550   0.343   4.185   2.203
 6217SOL    HW219551   0.357   4.299   2.319
 6218SOL     OW19552   5.007   6.444   1.581
 6218SOL    HW119553   4.916   6.474   1.608
 6218SOL    HW219554   5.010   6.433   1.482
 6219SOL     OW19555   2.600   0.473   0.364
 6219SOL    HW119556   2.642   0.563   0.369
 6219SOL    HW219557   2.543   0.467   0.281
 6220SOL     OW19558   2.587   0.814   2.861
 6220SOL    HW119559   2.600   0.907   2.828
 6220SOL    HW219560   2.669   0.783   2.909
 6221SOL     OW19561   4.497   5.144   5.328
 6221SOL    HW119562   4.412   5.129   5.378
 6221SOL    HW219563   4.480   5.203   5.249
 6222SOL     OW19564   0.300   0.987   1.740
 6222SOL    HW119565   0.286   1.018   1.834
 6222SOL    HW219566   0.222   0.933   1.710
 6223SOL     OW19567   6.496   4.800   3.468
 6223SOL    HW119568   6.498   4.880   3.408
 6223SOL    HW219569   6.581   4.796   3.520
 6224SOL     OW19570   3.966   6.913   0.104
 6224SOL    HW119571   3.993   6.835   0.047
 6224SOL    HW219572   3.873   6.897   0.140
 6225SOL     OW19573   5.792   4.967   6.387
 6225SOL    HW119574   5.798   5.065   6.365
 6225SOL    HW219575   5.818   4.953   6.483
 6226SOL     OW19576   1.423   0.910   3.978
 6226SOL    HW119577   1.510   0.862   3.991
 6226SOL    HW219578   1.440   1.007   3.965
 6227SOL     OW19579   2.252   4.076   5.863
 6227SOL    HW119580   2.220   4.149   5.803
 6227SOL    HW219581   2.254   3.990   5.813
 6228SOL     OW19582   1.411   3.029   3.970
 6228SOL    HW119583   1.504   3.032   4.006
 6228SOL    HW219584   1.353   2.976   4.031
 6229SOL     OW19585   0.485   4.911   4.645
 6229SOL    HW119586   0.494   4.860   4.730
 6229SOL    HW219587   0.539   4.868   4.574
 6230SOL     OW19588   0.776   0.912   1.153
 6230SOL    HW119589   0.809   0.924   1.246
 6230SOL    HW219590   0.853   0.890   1.093
 6231SOL     OW19591   1.451   5.594   5.410
 6231SOL    HW119592   1.469   5.519   5.346
 6231SOL    HW219593   1.372   5.572   5.467
 6232SOL     OW19594   3.751   1.115   6.318
 6232SOL    HW119595   3.790   1.067   6.240
 6232SOL    HW219596   3.772   1.065   6.402
 6233SOL     OW19597   6.874   4.358   1.218
 6233SOL    HW119598   6.926   4.283   1.258
 6233SOL    HW219599   6.928   4.402   1.146
 6234SOL     OW19600   4.686   4.918   2.778
 6234SOL    HW119601   4.623   4.994   2.794
 6234SOL    HW219602   4.641   4.849   2.722
 6235SOL     OW19603   0.832   1.283   1.286
 6235SOL    HW119604   0.822   1.312   1.191
 6235SOL    HW219605   0.756   1.224   1.311
 6236SOL     OW19606   6.092   6.289   1.701
 6236SOL    HW119607   6.173   6.269   1.646
 6236SOL    HW219608   6.118   6.298   1.797
 6237SOL     OW19609   4.412   0.958   2.992
 6237SOL    HW119610   4.426   0.983   3.087
 6237SOL    HW219611   4.359   0.873   2.987
 6238SOL     OW19612   2.199   6.582   3.571
 6238SOL    HW119613   2.297   6.567   3.584
 6238SOL    HW219614   2.159   6.501   3.528
 6239SOL     OW19615   4.341   1.586   4.152
 6239SOL    HW119616   4.345   1.529   4.234
 6239SOL    HW219617   4.368   1.680   4.175
 6240SOL     OW19618   4.048   3.248   3.982
 6240SOL    HW119619   4.090   3.228   3.894
 6240SOL    HW219620   4.026   3.346   3.987
 6241SOL     OW19621   3.889   0.315   3.094
 6241SOL    HW119622   3.931   0.292   3.007
 6241SOL    HW219623   3.957   0.308   3.167
 6242SOL     OW19624   3.218   2.149   4.658
 6242SOL    HW119625   3.229   2.123   4.563
 6242SOL    HW219626   3.300   2.198   4.689
 6243SOL     OW19627   3.314   0.630   0.211
 6243SOL    HW119628   3.408   0.664   0.213
 6243SOL    HW219629   3.276   0.630   0.303
 6244SOL     OW19630   5.435   2.475   1.481
 6244SOL    HW119631   5.524   2.432   1.494
 6244SOL    HW219632   5.370   2.407   1.448
 6245SOL     OW19633   6.907   4.982   1.524
 6245SOL    HW119634   6.863   4.896   1.500
 6245SOL    HW219635   7.000   4.984   1.487
 6246SOL     OW19636   0.865   6.264   5.264
 6246SOL    HW119637   0.959   6.252   5.233
 6246SOL    HW219638   0.803   6.214   5.203
 6247SOL     OW19639   5.868   4.944   2.250
 6247SOL    HW119640   5.876   4.845   2.257
 6247SOL    HW219641   5.775   4.972   2.275
 6248SOL     OW19642   4.661   2.736   5.869
 6248SOL    HW119643   4.622   2.762   5.780
 6248SOL    HW219644   4.709   2.814   5.909
 6249SOL     OW19645   5.552   2.577   3.123
 6249SOL    HW119646   5.582   2.650   3.063
 6249SOL    HW219647   5.604   2.494   3.104
 6250SOL     OW19648   5.034   6.853   4.775
 6250SOL    HW119649   4.968   6.784   4.805
 6250SOL    HW219650   5.048   6.920   4.849
 6251SOL     OW19651   2.851   1.076   4.192
 6251SOL    HW119652   2.884   0.982   4.187
 6251SOL    HW219653   2.895   1.131   4.121
 6252SOL     OW19654   2.455   4.505   0.371
 6252SOL    HW119655   2.451   4.558   0.287
 6252SOL    HW219656   2.393   4.546   0.439
 6253SOL     OW19657   4.634   6.110   4.155
 6253SOL    HW119658   4.623   6.028   4.099
 6253SOL    HW219659   4.559   6.115   4.222
 6254SOL     OW19660   0.003   6.498   1.814
 6254SOL    HW119661   6.968   6.526   1.734
 6254SOL    HW219662   6.977   6.420   1.859
 6255SOL     OW19663   2.906   0.553   1.203
 6255SOL    HW119664   2.844   0.608   1.259
 6255SOL    HW219665   2.859   0.471   1.172
 6256SOL     OW19666   0.178   4.649   1.964
 6256SOL    HW119667   0.208   4.692   2.049
 6256SOL    HW219668   0.258   4.623   1.910
 6257SOL     OW19669   4.067   4.280   0.467
 6257SOL    HW119670   4.114   4.200   0.505
 6257SOL    HW219671   4.119   4.362   0.488
 6258SOL     OW19672   4.436   5.140   3.730
 6258SOL    HW119673   4.529   5.157   3.698
 6258SOL    HW219674   4.382   5.100   3.655
 6259SOL     OW19675   4.807   0.026   4.748
 6259SOL    HW119676   4.880   0.093   4.738
 6259SOL    HW219677   4.839   6.955   4.718
 6260SOL     OW19678   3.489   2.166   6.751
 6260SOL    HW119679   3.440   2.198   6.832
 6260SOL    HW219680   3.585   2.150   6.774
 6261SOL     OW19681   4.627   6.209   1.593
 6261SOL    HW119682   4.687   6.194   1.514
 6261SOL    HW219683   4.546   6.261   1.563
 6262SOL     OW19684   6.027   1.759   3.512
 6262SOL    HW119685   6.115   1.786   3.552
 6262SOL    HW219686   5.953   1.790   3.571
 6263SOL     OW19687   6.444   6.217   5.987
 6263SOL    HW119688   6.427   6.281   5.913
 6263SOL    HW219689   6.513   6.254   6.049
 6264SOL     OW19690   1.176   6.162   0.773
 6264SOL    HW119691   1.156   6.254   0.740
 6264SOL    HW219692   1.112   6.138   0.847
 6265SOL     OW19693   3.838   6.142   6.722
 6265SOL    HW119694   3.934   6.168   6.715
 6265SOL    HW219695   3.816   6.116   6.816
 6266SOL     OW19696   2.747   5.089   3.601
 6266SOL    HW119697   2.683   5.015   3.623
 6266SOL    HW219698   2.801   5.063   3.521
 6267SOL     OW19699   0.422   6.627   4.175
 6267SOL    HW119700   0.409   6.629   4.076
 6267SOL    HW219701   0.506   6.576   4.197
 6268SOL     OW19702   3.105   1.984   1.169
 6268SOL    HW119703   3.095   2.057   1.102
 6268SOL    HW219704   3.147   1.904   1.127
 6269SOL     OW19705   0.277   5.312   0.688
 6269SOL    HW119706   0.275   5.310   0.788
 6269SOL    HW219707   0.287   5.220   0.652
 6270SOL     OW19708   1.270   5.764   0.931
 6270SOL    HW119709   1.365   5.735   0.916
 6270SOL    HW219710   1.268   5.830   1.007
 6271SOL     OW19711   6.643   3.283   5.730
 6271SOL    HW119712   6.730   3.329   5.752
 6271SOL    HW219713   6.592   3.339   5.664
 6272SOL     OW19714   6.913   0.901   0.950
 6272SOL    HW119715   6.857   0.983   0.961
 6272SOL    HW219716   6.890   0.857   0.863
 6273SOL     OW19717   0.673   6.749   2.502
 6273SOL    HW119718   0.730   6.702   2.435
 6273SOL    HW219719   0.667   6.695   2.586
 6274SOL     OW19720   3.389   5.882   4.050
 6274SOL    HW119721   3.427   5.938   4.123
 6274SOL    HW219722   3.455   5.810   4.025
 6275SOL     OW19723   3.471   5.495   1.135
 6275SOL    HW119724   3.478   5.408   1.085
 6275SOL    HW219725   3.444   5.477   1.229
 6276SOL     OW19726   1.889   4.590   2.670
 6276SOL    HW119727   1.839   4.597   2.756
 6276SOL    HW219728   1.859   4.508   2.621
 6277SOL     OW19729   5.383   2.018   1.457
 6277SOL    HW119730   5.422   1.998   1.367
 6277SOL    HW219731   5.333   1.938   1.490
 6278SOL     OW19732   3.816   3.187   0.026
 6278SOL    HW119733   3.872   3.270   0.027
 6278SOL    HW219734   3.754   3.188   0.104
 6279SOL     OW19735   0.850   6.254   1.778
 6279SOL    HW119736   0.918   6.250   1.705
 6279SOL    HW219737   0.895   6.269   1.866
 6280SOL     OW19738   4.986   1.009   6.986
 6280SOL    HW119739   5.069   0.957   6.970
 6280SOL    HW219740   4.993   1.056   0.056
 6281SOL     OW19741   5.909   3.806   6.171
 6281SOL    HW119742   5.909   3.753   6.086
 6281SOL    HW219743   5.890   3.746   6.248
 6282SOL     OW19744   0.118   4.589   5.860
 6282SOL    HW119745   0.031   4.540   5.850
 6282SOL    HW219746   0.173   4.542   5.929
 6283SOL     OW19747   2.924   6.230   4.290
 6283SOL    HW119748   2.965   6.153   4.240
 6283SOL    HW219749   2.927   6.211   4.388
 6284SOL     OW19750   1.850   4.116   6.272
 6284SOL    HW119751   1.908   4.163   6.206
 6284SOL    HW219752   1.906   4.079   6.346
 6285SOL     OW19753   1.601   4.488   4.113
 6285SOL    HW119754   1.579   4.585   4.120
 6285SOL    HW219755   1.695   4.473   4.143
 6286SOL     OW19756   1.055   3.543   6.865
 6286SOL    HW119757   1.075   3.597   6.947
 6286SOL    HW219758   0.956   3.540   6.851
 6287SOL     OW19759   3.792   4.924   4.512
 6287SOL    HW119760   3.742   4.992   4.458
 6287SOL    HW219761   3.732   4.887   4.583
 6288SOL     OW19762   3.386   4.285   5.861
 6288SOL    HW119763   3.440   4.365   5.888
 6288SOL    HW219764   3.303   4.315   5.814
 6289SOL     OW19765   3.069   5.422   5.813
 6289SOL    HW119766   2.983   5.377   5.788
 6289SOL    HW219767   3.071   5.437   5.912
 6290SOL     OW19768   6.538   0.534   3.226
 6290SOL    HW119769   6.602   0.464   3.194
 6290SOL    HW219770   6.585   0.592   3.293
 6291SOL     OW19771   3.305   3.397   1.716
 6291SOL    HW119772   3.260   3.349   1.642
 6291SOL    HW219773   3.259   3.484   1.733
 6292SOL     OW19774   0.869   4.212   4.843
 6292SOL    HW119775   0.919   4.294   4.873
 6292SOL    HW219776   0.923   4.131   4.863
 6293SOL     OW19777   3.097   1.672   0.488
 6293SOL    HW119778   3.036   1.721   0.426
 6293SOL    HW219779   3.167   1.734   0.522
 6294SOL     OW19780   1.489   0.063   1.923
 6294SOL    HW119781   1.475   0.081   1.825
 6294SOL    HW219782   1.416   0.107   1.975
 6295SOL     OW19783   4.649   3.007   5.609
 6295SOL    HW119784   4.747   3.029   5.603
 6295SOL    HW219785   4.604   3.074   5.669
 6296SOL     OW19786   6.761   2.381   0.291
 6296SOL    HW119787   6.686   2.444   0.273
 6296SOL    HW219788   6.724   2.295   0.326
 6297SOL     OW19789   0.536   1.642   4.639
 6297SOL    HW119790   0.538   1.713   4.569
 6297SOL    HW219791   0.538   1.684   4.729
 6298SOL     OW19792   6.945   0.733   6.605
 6298SOL    HW119793   6.920   0.660   6.541
 6298SOL    HW219794   0.025   0.730   6.622
 6299SOL     OW19795   3.263   1.760   3.693
 6299SOL    HW119796   3.363   1.755   3.700
 6299SOL    HW219797   3.222   1.715   3.772
 6300SOL     OW19798   2.786   2.266   0.911
 6300SOL    HW119799   2.785   2.346   0.851
 6300SOL    HW219800   2.717   2.201   0.881
 6301SOL     OW19801   4.246   6.144   0.689
 6301SOL    HW119802   4.200   6.221   0.645
 6301SOL    HW219803   4.250   6.067   0.626
 6302SOL     OW19804   1.494   3.609   0.909
 6302SOL    HW119805   1.459   3.700   0.934
 6302SOL    HW219806   1.586   3.598   0.946
 6303SOL     OW19807   6.749   4.584   5.280
 6303SOL    HW119808   6.663   4.609   5.323
 6303SOL    HW219809   6.807   4.665   5.271
 6304SOL     OW19810   2.009   2.719   5.066
 6304SOL    HW119811   2.000   2.784   4.991
 6304SOL    HW219812   2.105   2.715   5.095
 6305SOL     OW19813   1.027   6.003   5.065
 6305SOL    HW119814   0.961   5.954   5.122
 6305SOL    HW219815   1.039   5.955   4.978
 6306SOL     OW19816   1.451   4.262   4.098
 6306SOL    HW119817   1.528   4.326   4.094
 6306SOL    HW219818   1.400   4.265   4.012
 6307SOL     OW19819   3.694   3.101   2.508
 6307SOL    HW119820   3.718   3.039   2.434
 6307SOL    HW219821   3.614   3.155   2.482
 6308SOL     OW19822   1.344   0.841   1.108
 6308SOL    HW119823   1.316   0.936   1.096
 6308SOL    HW219824   1.307   0.806   1.194
 6309SOL     OW19825   1.900   5.956   5.252
 6309SOL    HW119826   1.856   6.013   5.321
 6309SOL    HW219827   1.861   5.864   5.254
 6310SOL     OW19828   0.997   6.856   2.151
 6310SOL    HW119829   0.969   6.812   2.066
 6310SOL    HW219830   1.013   6.787   2.221
 6311SOL     OW19831   5.633   1.343   5.992
 6311SOL    HW119832   5.588   1.260   6.025
 6311SOL    HW219833   5.697   1.319   5.919
 6312SOL     OW19834   4.299   4.742   1.566
 6312SOL    HW119835   4.289   4.644   1.583
 6312SOL    HW219836   4.380   4.757   1.508
 6313SOL     OW19837   5.135   5.306   3.465
 6313SOL    HW119838   5.200   5.230   3.454
 6313SOL    HW219839   5.184   5.393   3.458
 6314SOL     OW19840   1.718   5.713   2.952
 6314SOL    HW119841   1.779   5.655   2.899
 6314SOL    HW219842   1.700   5.798   2.902
 6315SOL     OW19843   2.068   2.593   3.200
 6315SOL    HW119844   2.142   2.658   3.183
 6315SOL    HW219845   2.068   2.523   3.128
 6316SOL     OW19846   5.038   0.635   5.509
 6316SOL    HW119847   4.956   0.674   5.552
 6316SOL    HW219848   5.012   0.553   5.458
 6317SOL     OW19849   4.941   3.919   3.263
 6317SOL    HW119850   4.858   3.975   3.263
 6317SOL    HW219851   4.934   3.849   3.334
 6318SOL     OW19852   5.540   6.466   0.218
 6318SOL    HW119853   5.516   6.371   0.198
 6318SOL    HW219854   5.467   6.526   0.185
 6319SOL     OW19855   4.971   2.403   3.872
 6319SOL    HW119856   4.991   2.403   3.774
 6319SOL    HW219857   4.917   2.321   3.895
 6320SOL     OW19858   5.787   2.323   6.409
 6320SOL    HW119859   5.869   2.267   6.399
 6320SOL    HW219860   5.706   2.264   6.409
 6321SOL     OW19861   0.633   3.359   0.019
 6321SOL    HW119862   0.729   3.333   0.026
 6321SOL    HW219863   0.591   3.356   0.109
 6322SOL     OW19864   1.930   0.886   2.560
 6322SOL    HW119865   1.951   0.977   2.595
 6322SOL    HW219866   1.834   0.884   2.530
 6323SOL     OW19867   1.769   5.989   0.898
 6323SOL    HW119868   1.687   6.043   0.916
 6323SOL    HW219869   1.752   5.893   0.919
 6324SOL     OW19870   5.146   4.330   2.002
 6324SOL    HW119871   5.144   4.231   2.019
 6324SOL    HW219872   5.054   4.363   1.986
 6325SOL     OW19873   0.948   3.069   3.577
 6325SOL    HW119874   0.900   3.127   3.511
 6325SOL    HW219875   0.960   2.978   3.538
 6326SOL     OW19876   5.513   5.700   4.721
 6326SOL    HW119877   5.609   5.698   4.695
 6326SOL    HW219878   5.461   5.636   4.664
 6327SOL     OW19879   0.827   0.877   2.700
 6327SOL    HW119880   0.872   0.806   2.755
 6327SOL    HW219881   0.733   0.889   2.733
 6328SOL     OW19882   4.047   3.565   4.491
 6328SOL    HW119883   4.035   3.515   4.406
 6328SOL    HW219884   4.053   3.663   4.472
 6329SOL     OW19885   0.186   3.236   4.564
 6329SOL    HW119886   0.101   3.261   4.609
 6329SOL    HW219887   0.222   3.314   4.514
 6330SOL     OW19888   4.392   1.700   3.336
 6330SOL    HW119889   4.475   1.644   3.335
 6330SOL    HW219890   4.340   1.682   3.419
 6331SOL     OW19891   1.582   2.924   3.461
 6331SOL    HW119892   1.505   2.988   3.462
 6331SOL    HW219893   1.551   2.834   3.431
 6332SOL     OW19894   4.428   1.945   0.254
 6332SOL    HW119895   4.411   1.994   0.169
 6332SOL    HW219896   4.455   1.851   0.233
 6333SOL     OW19897   5.844   1.643   0.266
 6333SOL    HW119898   5.904   1.721   0.285
 6333SOL    HW219899   5.898   1.566   0.233
 6334SOL     OW19900   2.896   1.115   1.863
 6334SOL    HW119901   2.908   1.209   1.832
 6334SOL    HW219902   2.893   1.054   1.783
 6335SOL     OW19903   5.979   2.322   5.745
 6335SOL    HW119904   6.012   2.228   5.741
 6335SOL    HW219905   6.042   2.381   5.694
 6336SOL     OW19906   1.115   5.776   5.883
 6336SOL    HW119907   1.117   5.762   5.982
 6336SOL    HW219908   1.097   5.872   5.863
 6337SOL     OW19909   6.328   0.519   6.068
 6337SOL    HW119910   6.414   0.472   6.087
 6337SOL    HW219911   6.346   0.613   6.041
 6338SOL     OW19912   1.293   1.009   2.127
 6338SOL    HW119913   1.213   1.015   2.187
 6338SOL    HW219914   1.304   0.914   2.096
 6339SOL     OW19915   0.649   3.996   3.625
 6339SOL    HW119916   0.639   3.984   3.724
 6339SOL    HW219917   0.593   4.073   3.595
 6340SOL     OW19918   2.625   5.603   6.917
 6340SOL    HW119919   2.649   5.692   6.955
 6340SOL    HW219920   2.685   5.585   6.838
 6341SOL     OW19921   1.071   4.534   3.002
 6341SOL    HW119922   1.064   4.515   3.100
 6341SOL    HW219923   1.032   4.459   2.950
 6342SOL     OW19924   2.634   6.790   1.328
 6342SOL    HW119925   2.575   6.742   1.392
 6342SOL    HW219926   2.643   6.886   1.355
 6343SOL     OW19927   1.835   3.921   6.941
 6343SOL    HW119928   1.756   3.876   6.900
 6343SOL    HW219929   1.807   4.005   6.986
 6344SOL     OW19930   1.941   1.006   4.012
 6344SOL    HW119931   1.942   1.078   3.943
 6344SOL    HW219932   1.934   1.047   4.103
 6345SOL     OW19933   0.089   3.578   3.703
 6345SOL    HW119934   0.121   3.582   3.797
 6345SOL    HW219935   0.152   3.523   3.648
 6346SOL     OW19936   0.561   4.474   3.973
 6346SOL    HW119937   0.575   4.548   3.907
 6346SOL    HW219938   0.593   4.503   4.063
 6347SOL     OW19939   1.917   1.689   2.371
 6347SOL    HW119940   1.926   1.689   2.271
 6347SOL    HW219941   1.862   1.610   2.399
 6348SOL     OW19942   0.717   2.406   0.131
 6348SOL    HW119943   0.713   2.506   0.131
 6348SOL    HW219944   0.804   2.376   0.090
 6349SOL     OW19945   6.196   1.100   0.969
 6349SOL    HW119946   6.282   1.087   0.921
 6349SOL    HW219947   6.213   1.111   1.067
 6350SOL     OW19948   0.433   0.068   1.439
 6350SOL    HW119949   0.345   0.081   1.394
 6350SOL    HW219950   0.506   0.108   1.383
 6351SOL     OW19951   6.194   2.346   2.502
 6351SOL    HW119952   6.275   2.364   2.556
 6351SOL    HW219953   6.145   2.267   2.539
 6352SOL     OW19954   3.661   0.676   5.118
 6352SOL    HW119955   3.679   0.680   5.020
 6352SOL    HW219956   3.569   0.639   5.134
 6353SOL     OW19957   4.013   6.027   5.745
 6353SOL    HW119958   3.969   5.950   5.700
 6353SOL    HW219959   4.022   6.103   5.681
 6354SOL     OW19960   6.219   4.750   3.415
 6354SOL    HW119961   6.311   4.771   3.447
 6354SOL    HW219962   6.152   4.792   3.476
 6355SOL     OW19963   4.654   6.404   6.940
 6355SOL    HW119964   4.603   6.365   6.863
 6355SOL    HW219965   4.676   6.332   7.006
 6356SOL     OW19966   0.052   6.703   6.739
 6356SOL    HW119967   0.073   6.800   6.744
 6356SOL    HW219968   6.977   6.691   6.704
 6357SOL     OW19969   4.992   2.128   2.974
 6357SOL    HW119970   5.039   2.086   3.051
 6357SOL    HW219971   4.971   2.058   2.905
 6358SOL     OW19972   1.318   0.674   5.068
 6358SOL    HW119973   1.377   0.665   4.987
 6358SOL    HW219974   1.290   0.770   5.078
 6359SOL     OW19975   6.827   4.438   1.474
 6359SOL    HW119976   6.844   4.425   1.376
 6359SOL    HW219977   6.883   4.513   1.508
 6360SOL     OW19978   3.044   2.539   0.543
 6360SOL    HW119979   3.072   2.448   0.513
 6360SOL    HW219980   3.035   2.600   0.464
 6361SOL     OW19981   0.154   1.777   3.280
 6361SOL    HW119982   0.185   1.771   3.375
 6361SOL    HW219983   0.152   1.686   3.240
 6362SOL     OW19984   1.846   5.310   0.566
 6362SOL    HW119985   1.815   5.370   0.492
 6362SOL    HW219986   1.773   5.244   0.587
 6363SOL     OW19987   0.584   1.919   1.301
 6363SOL    HW119988   0.512   1.919   1.231
 6363SOL    HW219989   0.661   1.863   1.270
 6364SOL     OW19990   2.878   2.232   3.417
 6364SOL    HW119991   2.824   2.290   3.356
 6364SOL    HW219992   2.960   2.200   3.369
 6365SOL     OW19993   6.003   6.756   2.177
 6365SOL    HW119994   6.024   6.783   2.271
 6365SOL    HW219995   5.932   6.815   2.140
 6366SOL     OW19996   6.591   1.860   5.129
 6366SOL    HW119997   6.627   1.815   5.211
 6366SOL    HW219998   6.603   1.959   5.138
 6367SOL     OW19999   1.831   3.667   4.596
 6367SOL    HW120000   1.912   3.711   4.634
 6367SOL    HW220001   1.797   3.597   4.659
 6368SOL     OW20002   5.219   3.562   4.976
 6368SOL    HW120003   5.198   3.556   4.878
 6368SOL    HW220004   5.190   3.478   5.021
 6369SOL     OW20005   3.081   4.168   0.762
 6369SOL    HW120006   3.173   4.181   0.724
 6369SOL    HW220007   3.014   4.217   0.705
 6370SOL     OW20008   6.319   3.348   4.608
 6370SOL    HW120009   6.264   3.429   4.588
 6370SOL    HW220010   6.319   3.331   4.707
 6371SOL     OW20011   5.870   4.354   1.045
 6371SOL    HW120012   5.865   4.431   0.981
 6371SOL    HW220013   5.829   4.381   1.132
 6372SOL     OW20014   5.773   1.363   2.063
 6372SOL    HW120015   5.814   1.434   2.006
 6372SOL    HW220016   5.694   1.400   2.111
 6373SOL     OW20017   5.667   1.805   1.502
 6373SOL    HW120018   5.726   1.732   1.535
 6373SOL    HW220019   5.575   1.769   1.486
 6374SOL     OW20020   3.764   3.403   6.229
 6374SOL    HW120021   3.834   3.451   6.282
 6374SOL    HW220022   3.680   3.457   6.228
 6375SOL     OW20023   5.126   1.421   1.797
 6375SOL    HW120024   5.049   1.369   1.759
 6375SOL    HW220025   5.108   1.519   1.787
 6376SOL     OW20026   3.414   6.464   6.655
 6376SOL    HW120027   3.404   6.535   6.585
 6376SOL    HW220028   3.324   6.437   6.687
 6377SOL     OW20029   0.324   1.653   0.458
 6377SOL    HW120030   0.401   1.712   0.431
 6377SOL    HW220031   0.315   1.579   0.392
 6378SOL     OW20032   6.251   3.695   2.933
 6378SOL    HW120033   6.289   3.776   2.979
 6378SOL    HW220034   6.169   3.666   2.980
 6379SOL     OW20035   2.226   4.212   6.885
 6379SOL    HW120036   2.309   4.234   6.834
 6379SOL    HW220037   2.249   4.162   6.968
 6380SOL     OW20038   1.939   2.676   4.693
 6380SOL    HW120039   2.013   2.666   4.760
 6380SOL    HW220040   1.915   2.586   4.657
 6381SOL     OW20041   3.921   4.833   0.773
 6381SOL    HW120042   3.968   4.863   0.690
 6381SOL    HW220043   3.887   4.913   0.823
 6382SOL     OW20044   1.845   1.321   1.051
 6382SOL    HW120045   1.895   1.340   1.136
 6382SOL    HW220046   1.902   1.346   0.973
 6383SOL     OW20047   3.011   2.159   1.784
 6383SOL    HW120048   3.063   2.183   1.702
 6383SOL    HW220049   2.975   2.242   1.826
 6384SOL     OW20050   0.652   1.463   2.128
 6384SOL    HW120051   0.599   1.481   2.210
 6384SOL    HW220052   0.749   1.480   2.147
 6385SOL     OW20053   0.430   3.658   1.926
 6385SOL    HW120054   0.417   3.558   1.929
 6385SOL    HW220055   0.522   3.681   1.957
 6386SOL     OW20056   3.208   4.735   1.071
 6386SOL    HW120057   3.305   4.726   1.049
 6386SOL    HW220058   3.160   4.652   1.043
 6387SOL     OW20059   6.218   1.771   5.689
 6387SOL    HW120060   6.213   1.826   5.772
 6387SOL    HW220061   6.265   1.823   5.617
 6388SOL     OW20062   6.810   5.167   2.363
 6388SOL    HW120063   6.755   5.128   2.438
 6388SOL    HW220064   6.779   5.260   2.344
 6389SOL     OW20065   6.562   0.548   0.430
 6389SOL    HW120066   6.595   0.629   0.381
 6389SOL    HW220067   6.633   0.479   0.432
 6390SOL     OW20068   4.237   6.251   0.419
 6390SOL    HW120069   4.335   6.267   0.432
 6390SOL    HW220070   4.219   6.153   0.414
 6391SOL     OW20071   0.961   1.751   4.952
 6391SOL    HW120072   0.958   1.652   4.944
 6391SOL    HW220073   0.886   1.791   4.900
 6392SOL     OW20074   4.402   6.325   2.928
 6392SOL    HW120075   4.411   6.331   3.028
 6392SOL    HW220076   4.306   6.305   2.905
 6393SOL     OW20077   2.050   4.001   0.536
 6393SOL    HW120078   2.122   3.934   0.524
 6393SOL    HW220079   2.005   3.987   0.625
 6394SOL     OW20080   1.507   5.168   1.810
 6394SOL    HW120081   1.438   5.240   1.815
 6394SOL    HW220082   1.461   5.079   1.803
 6395SOL     OW20083   1.167   3.671   4.860
 6395SOL    HW120084   1.105   3.657   4.783
 6395SOL    HW220085   1.136   3.749   4.915
 6396SOL     OW20086   1.147   3.741   4.003
 6396SOL    HW120087   1.094   3.658   3.989
 6396SOL    HW220088   1.245   3.719   4.005
 6397SOL     OW20089   1.019   3.384   4.326
 6397SOL    HW120090   1.025   3.398   4.227
 6397SOL    HW220091   0.923   3.369   4.351
 6398SOL     OW20092   0.319   0.182   2.286
 6398SOL    HW120093   0.384   0.137   2.347
 6398SOL    HW220094   0.369   0.229   2.214
 6399SOL     OW20095   2.563   6.801   6.488
 6399SOL    HW120096   2.492   6.735   6.514
 6399SOL    HW220097   2.537   6.844   6.401
 6400SOL     OW20098   1.360   6.328   2.920
 6400SOL    HW120099   1.412   6.369   2.846
 6400SOL    HW220100   1.317   6.400   2.975
 6401SOL     OW20101   4.050   4.832   1.049
 6401SOL    HW120102   3.981   4.900   1.025
 6401SOL    HW220103   4.004   4.750   1.083
 6402SOL     OW20104   3.130   3.295   6.244
 6402SOL    HW120105   3.103   3.344   6.161
 6402SOL    HW220106   3.198   3.349   6.294
 6403SOL     OW20107   3.963   5.189   5.981
 6403SOL    HW120108   3.916   5.118   6.034
 6403SOL    HW220109   3.930   5.279   6.011
 6404SOL     OW20110   4.933   6.361   6.607
 6404SOL    HW120111   5.019   6.367   6.556
 6404SOL    HW220112   4.917   6.267   6.635
 6405SOL     OW20113   4.593   1.129   3.434
 6405SOL    HW120114   4.691   1.123   3.419
 6405SOL    HW220115   4.573   1.118   3.532
 6406SOL     OW20116   0.172   3.167   2.494
 6406SOL    HW120117   0.171   3.205   2.586
 6406SOL    HW220118   0.231   3.223   2.436
 6407SOL     OW20119   0.659   6.993   2.719
 6407SOL    HW120120   0.571   6.955   2.749
 6407SOL    HW220121   0.732   6.956   2.776
 6408SOL     OW20122   0.222   0.879   2.285
 6408SOL    HW120123   0.245   0.918   2.374
 6408SOL    HW220124   0.254   0.784   2.282
 6409SOL     OW20125   6.484   4.366   4.173
 6409SOL    HW120126   6.453   4.453   4.210
 6409SOL    HW220127   6.575   4.344   4.209
 6410SOL     OW20128   2.248   0.751   6.979
 6410SOL    HW120129   2.253   0.755   6.879
 6410SOL    HW220130   2.153   0.765   7.008
 6411SOL     OW20131   1.392   2.273   4.259
 6411SOL    HW120132   1.327   2.348   4.242
 6411SOL    HW220133   1.342   2.192   4.290
 6412SOL     OW20134   4.844   0.211   0.078
 6412SOL    HW120135   4.820   0.204   0.175
 6412SOL    HW220136   4.908   0.138   0.055
 6413SOL     OW20137   4.674   5.959   3.333
 6413SOL    HW120138   4.702   5.970   3.237
 6413SOL    HW220139   4.720   6.027   3.390
 6414SOL     OW20140   3.697   0.328   6.882
 6414SOL    HW120141   3.788   0.294   6.859
 6414SOL    HW220142   3.669   0.291   6.971
 6415SOL     OW20143   0.105   1.639   3.645
 6415SOL    HW120144   0.169   1.664   3.573
 6415SOL    HW220145   0.072   1.546   3.630
 6416SOL     OW20146   2.803   4.077   0.853
 6416SOL    HW120147   2.784   4.175   0.861
 6416SOL    HW220148   2.891   4.064   0.809
 6417SOL     OW20149   4.921   3.047   5.556
 6417SOL    HW120150   4.921   3.062   5.457
 6417SOL    HW220151   5.001   3.092   5.596
 6418SOL     OW20152   4.705   5.820   0.026
 6418SOL    HW120153   4.801   5.803   0.004
 6418SOL    HW220154   4.653   5.736   0.014
 6419SOL     OW20155   1.523   6.847   6.642
 6419SOL    HW120156   1.483   6.927   6.687
 6419SOL    HW220157   1.459   6.812   6.574
 6420SOL     OW20158   2.311   4.638   3.418
 6420SOL    HW120159   2.376   4.564   3.437
 6420SOL    HW220160   2.309   4.657   3.320
 6421SOL     OW20161   4.754   6.527   1.656
 6421SOL    HW120162   4.683   6.517   1.587
 6421SOL    HW220163   4.712   6.545   1.745
 6422SOL     OW20164   0.941   0.928   5.554
 6422SOL    HW120165   1.013   0.985   5.515
 6422SOL    HW220166   0.879   0.985   5.607
 6423SOL     OW20167   1.340   3.494   4.239
 6423SOL    HW120168   1.276   3.518   4.312
 6423SOL    HW220169   1.330   3.396   4.218
 6424SOL     OW20170   5.861   4.041   5.648
 6424SOL    HW120171   5.800   4.083   5.715
 6424SOL    HW220172   5.956   4.057   5.675
 6425SOL     OW20173   0.884   0.337   4.049
 6425SOL    HW120174   0.906   0.420   4.101
 6425SOL    HW220175   0.827   0.361   3.971
 6426SOL     OW20176   2.914   5.344   4.044
 6426SOL    HW120177   2.864   5.290   4.111
 6426SOL    HW220178   2.972   5.283   3.989
 6427SOL     OW20179   3.604   3.272   2.809
 6427SOL    HW120180   3.658   3.204   2.760
 6427SOL    HW220181   3.664   3.347   2.838
 6428SOL     OW20182   6.642   3.417   6.779
 6428SOL    HW120183   6.720   3.476   6.799
 6428SOL    HW220184   6.590   3.455   6.701
 6429SOL     OW20185   3.078   1.517   4.555
 6429SOL    HW120186   3.028   1.452   4.497
 6429SOL    HW220187   3.130   1.580   4.498
 6430SOL     OW20188   6.569   1.192   3.736
 6430SOL    HW120189   6.493   1.200   3.672
 6430SOL    HW220190   6.535   1.199   3.830
 6431SOL     OW20191   3.514   5.412   3.203
 6431SOL    HW120192   3.463   5.487   3.159
 6431SOL    HW220193   3.599   5.448   3.242
 6432SOL     OW20194   3.766   3.477   0.308
 6432SOL    HW120195   3.729   3.514   0.393
 6432SOL    HW220196   3.856   3.436   0.326
 6433SOL     OW20197   4.195   5.528   6.015
 6433SOL    HW120198   4.100   5.518   5.985
 6433SOL    HW220199   4.255   5.520   5.935
 6434SOL     OW20200   6.247   4.580   6.804
 6434SOL    HW120201   6.163   4.615   6.846
 6434SOL    HW220202   6.248   4.603   6.707
 6435SOL     OW20203   4.440   0.527   0.565
 6435SOL    HW120204   4.408   0.600   0.505
 6435SOL    HW220205   4.510   0.473   0.518
 6436SOL     OW20206   1.024   1.507   3.627
 6436SOL    HW120207   1.013   1.576   3.555
 6436SOL    HW220208   1.101   1.447   3.604
 6437SOL     OW20209   0.895   2.754   6.333
 6437SOL    HW120210   0.810   2.708   6.306
 6437SOL    HW220211   0.918   2.823   6.266
 6438SOL     OW20212   1.047   5.705   1.676
 6438SOL    HW120213   0.979   5.637   1.705
 6438SOL    HW220214   1.085   5.679   1.588
 6439SOL     OW20215   4.239   5.829   3.138
 6439SOL    HW120216   4.297   5.837   3.057
 6439SOL    HW220217   4.180   5.910   3.145
 6440SOL     OW20218   2.374   2.366   5.248
 6440SOL    HW120219   2.381   2.386   5.150
 6440SOL    HW220220   2.415   2.441   5.301
 6441SOL     OW20221   1.510   1.455   1.930
 6441SOL    HW120222   1.496   1.378   1.993
 6441SOL    HW220223   1.608   1.471   1.918
 6442SOL     OW20224   3.134   2.114   4.087
 6442SOL    HW120225   3.158   2.148   3.997
 6442SOL    HW220226   3.163   2.019   4.096
 6443SOL     OW20227   2.519   1.644   5.919
 6443SOL    HW120228   2.507   1.669   5.823
 6443SOL    HW220229   2.601   1.689   5.956
 6444SOL     OW20230   6.601   4.312   5.426
 6444SOL    HW120231   6.663   4.335   5.500
 6444SOL    HW220232   6.515   4.277   5.463
 6445SOL     OW20233   3.073   3.082   3.345
 6445SOL    HW120234   3.010   3.038   3.408
 6445SOL    HW220235   3.167   3.071   3.378
 6446SOL     OW20236   0.663   6.694   1.819
 6446SOL    HW120237   0.707   6.641   1.746
 6446SOL    HW220238   0.570   6.717   1.792
 6447SOL     OW20239   0.531   4.036   2.016
 6447SOL    HW120240   0.568   4.079   1.933
 6447SOL    HW220241   0.431   4.044   2.014
 6448SOL     OW20242   4.025   4.393   1.423
 6448SOL    HW120243   3.990   4.483   1.397
 6448SOL    HW220244   3.989   4.367   1.512
 6449SOL     OW20245   4.512   6.313   6.726
 6449SOL    HW120246   4.519   6.354   6.635
 6449SOL    HW220247   4.486   6.217   6.717
 6450SOL     OW20248   4.539   3.728   0.774
 6450SOL    HW120249   4.480   3.679   0.838
 6450SOL    HW220250   4.597   3.792   0.825
 6451SOL     OW20251   4.354   3.561   1.697
 6451SOL    HW120252   4.268   3.511   1.708
 6451SOL    HW220253   4.340   3.656   1.724
 6452SOL     OW20254   4.656   1.640   4.272
 6452SOL    HW120255   4.720   1.566   4.292
 6452SOL    HW220256   4.656   1.659   4.174
 6453SOL     OW20257   3.269   0.661   3.235
 6453SOL    HW120258   3.285   0.751   3.277
 6453SOL    HW220259   3.231   0.674   3.144
 6454SOL     OW20260   4.986   3.451   5.656
 6454SOL    HW120261   5.007   3.548   5.669
 6454SOL    HW220262   4.983   3.430   5.558
 6455SOL     OW20263   0.128   3.435   5.368
 6455SOL    HW120264   0.050   3.383   5.333
 6455SOL    HW220265   0.123   3.438   5.468
 6456SOL     OW20266   6.051   2.142   3.026
 6456SOL    HW120267   6.143   2.106   3.009
 6456SOL    HW220268   6.042   2.168   3.122
 6457SOL     OW20269   1.601   6.110   3.548
 6457SOL    HW120270   1.686   6.162   3.537
 6457SOL    HW220271   1.523   6.171   3.534
 6458SOL     OW20272   1.199   6.743   4.585
 6458SOL    HW120273   1.273   6.682   4.612
 6458SOL    HW220274   1.119   6.725   4.642
 6459SOL     OW20275   0.071   2.935   3.512
 6459SOL    HW120276   0.033   2.897   3.428
 6459SOL    HW220277   0.170   2.918   3.514
 6460SOL     OW20278   1.414   5.132   5.595
 6460SOL    HW120279   1.321   5.156   5.623
 6460SOL    HW220280   1.480   5.189   5.644
 6461SOL     OW20281   6.526   0.315   2.178
 6461SOL    HW120282   6.452   0.351   2.122
 6461SOL    HW220283   6.528   0.216   2.172
 6462SOL     OW20284   2.732   4.270   5.668
 6462SOL    HW120285   2.670   4.213   5.614
 6462SOL    HW220286   2.825   4.260   5.633
 6463SOL     OW20287   4.836   3.442   1.847
 6463SOL    HW120288   4.873   3.350   1.860
 6463SOL    HW220289   4.744   3.436   1.807
 6464SOL     OW20290   0.928   3.577   3.261
 6464SOL    HW120291   1.017   3.531   3.263
 6464SOL    HW220292   0.875   3.543   3.184
 6465SOL     OW20293   2.635   1.094   2.553
 6465SOL    HW120294   2.662   0.999   2.537
 6465SOL    HW220295   2.662   1.150   2.475
 6466SOL     OW20296   6.235   5.185   0.048
 6466SOL    HW120297   6.176   5.212   0.125
 6466SOL    HW220298   6.330   5.212   0.068
 6467SOL     OW20299   2.839   3.720   6.175
 6467SOL    HW120300   2.754   3.718   6.123
 6467SOL    HW220301   2.913   3.683   6.119
 6468SOL     OW20302   0.965   0.916   6.610
 6468SOL    HW120303   0.867   0.917   6.593
 6468SOL    HW220304   1.004   0.830   6.575
 6469SOL     OW20305   3.011   0.947   1.069
 6469SOL    HW120306   3.031   0.870   1.008
 6469SOL    HW220307   2.947   1.009   1.023
 6470SOL     OW20308   6.331   0.840   6.459
 6470SOL    HW120309   6.322   0.923   6.404
 6470SOL    HW220310   6.372   0.767   6.404
 6471SOL     OW20311   0.443   6.584   5.356
 6471SOL    HW120312   0.434   6.567   5.454
 6471SOL    HW220313   0.359   6.559   5.309
 6472SOL     OW20314   1.103   5.984   0.597
 6472SOL    HW120315   1.138   5.892   0.615
 6472SOL    HW220316   1.128   6.044   0.673
 6473SOL     OW20317   3.142   1.242   3.375
 6473SOL    HW120318   3.148   1.208   3.282
 6473SOL    HW220319   3.231   1.282   3.402
 6474SOL     OW20320   4.199   0.396   4.821
 6474SOL    HW120321   4.154   0.342   4.892
 6474SOL    HW220322   4.297   0.397   4.836
 6475SOL     OW20323   5.755   5.882   4.227
 6475SOL    HW120324   5.835   5.931   4.262
 6475SOL    HW220325   5.672   5.930   4.256
 6476SOL     OW20326   5.270   4.204   4.305
 6476SOL    HW120327   5.362   4.224   4.271
 6476SOL    HW220328   5.260   4.242   4.397
 6477SOL     OW20329   1.084   6.969   1.154
 6477SOL    HW120330   1.060   6.911   1.232
 6477SOL    HW220331   1.001   7.010   1.116
 6478SOL     OW20332   2.021   6.572   0.185
 6478SOL    HW120333   2.063   6.545   0.272
 6478SOL    HW220334   1.932   6.615   0.203
 6479SOL     OW20335   4.668   5.317   4.317
 6479SOL    HW120336   4.594   5.262   4.276
 6479SOL    HW220337   4.633   5.408   4.339
 6480SOL     OW20338   2.622   0.401   4.891
 6480SOL    HW120339   2.688   0.342   4.937
 6480SOL    HW220340   2.552   0.431   4.956
 6481SOL     OW20341   4.117   3.849   1.369
 6481SOL    HW120342   4.138   3.781   1.439
 6481SOL    HW220343   4.084   3.932   1.412
 6482SOL     OW20344   5.287   3.258   3.885
 6482SOL    HW120345   5.251   3.331   3.826
 6482SOL    HW220346   5.225   3.179   3.882
 6483SOL     OW20347   2.046   6.677   5.792
 6483SOL    HW120348   2.113   6.603   5.790
 6483SOL    HW220349   2.092   6.764   5.804
 6484SOL     OW20350   3.594   0.751   3.336
 6484SOL    HW120351   3.582   0.652   3.331
 6484SOL    HW220352   3.510   0.793   3.369
 6485SOL     OW20353   2.336   4.730   5.479
 6485SOL    HW120354   2.310   4.826   5.496
 6485SOL    HW220355   2.357   4.719   5.382
 6486SOL     OW20356   6.613   3.869   2.400
 6486SOL    HW120357   6.619   3.838   2.494
 6486SOL    HW220358   6.517   3.872   2.372
 6487SOL     OW20359   6.317   5.371   4.758
 6487SOL    HW120360   6.273   5.354   4.670
 6487SOL    HW220361   6.352   5.465   4.760
 6488SOL     OW20362   3.603   5.150   3.312
 6488SOL    HW120363   3.558   5.231   3.275
 6488SOL    HW220364   3.702   5.157   3.298
 6489SOL     OW20365   6.862   3.856   5.141
 6489SOL    HW120366   6.838   3.773   5.191
 6489SOL    HW220367   6.880   3.833   5.045
 6490SOL     OW20368   1.569   3.144   6.257
 6490SOL    HW120369   1.516   3.085   6.319
 6490SOL    HW220370   1.616   3.087   6.189
 6491SOL     OW20371   0.940   0.138   2.212
 6491SOL    HW120372   0.948   0.050   2.164
 6491SOL    HW220373   0.901   0.123   2.303
 6492SOL     OW20374   4.094   3.700   3.173
 6492SOL    HW120375   4.070   3.625   3.233
 6492SOL    HW220376   4.094   3.786   3.225
 6493SOL     OW20377   2.132   4.889   3.732
 6493SOL    HW120378   2.148   4.791   3.722
 6493SOL    HW220379   2.161   4.937   3.649
 6494SOL     OW20380   0.037   0.902   1.745
 6494SOL    HW120381   0.023   1.001   1.749
 6494SOL    HW220382   7.014   0.859   1.825
 6495SOL     OW20383   6.107   5.984   2.844
 6495SOL    HW120384   6.102   5.997   2.943
 6495SOL    HW220385   6.067   5.896   2.820
 6496SOL     OW20386   2.862   2.670   0.976
 6496SOL    HW120387   2.960   2.686   0.989
 6496SOL    HW220388   2.830   2.605   1.045
 6497SOL     OW20389   0.025   2.974   0.942
 6497SOL    HW120390   6.959   3.027   0.952
 6497SOL    HW220391   0.023   2.925   0.855
 6498SOL     OW20392   2.684   5.001   4.807
 6498SOL    HW120393   2.726   4.916   4.774
 6498SOL    HW220394   2.586   5.000   4.788
 6499SOL     OW20395   5.412   2.225   2.920
 6499SOL    HW120396   5.324   2.263   2.891
 6499SOL    HW220397   5.486   2.281   2.884
 6500SOL     OW20398   1.798   3.734   2.988
 6500SOL    HW120399   1.864   3.709   2.917
 6500SOL    HW220400   1.813   3.678   3.069
 6501SOL     OW20401   6.520   1.372   2.712
 6501SOL    HW120402   6.427   1.409   2.705
 6501SOL    HW220403   6.586   1.446   2.709
 6502SOL     OW20404   0.798   3.150   2.645
 6502SOL    HW120405   0.799   3.179   2.549
 6502SOL    HW220406   0.891   3.154   2.681
 6503SOL     OW20407   0.833   3.069   5.742
 6503SOL    HW120408   0.792   3.152   5.705
 6503SOL    HW220409   0.764   3.017   5.792
 6504SOL     OW20410   4.246   6.374   5.470
 6504SOL    HW120411   4.204   6.292   5.511
 6504SOL    HW220412   4.214   6.383   5.376
 6505SOL     OW20413   0.704   0.038   6.612
 6505SOL    HW120414   0.791   7.008   6.612
 6505SOL    HW220415   0.701   0.101   6.535
 6506SOL     OW20416   1.074   4.947   1.998
 6506SOL    HW120417   1.024   4.884   2.058
 6506SOL    HW220418   1.168   4.958   2.031
 6507SOL     OW20419   5.274   5.219   0.326
 6507SOL    HW120420   5.228   5.248   0.410
 6507SOL    HW220421   5.281   5.120   0.323
 6508SOL     OW20422   0.025   1.178   4.555
 6508SOL    HW120423   0.024   1.110   4.481
 6508SOL    HW220424   0.033   1.131   4.643
 6509SOL     OW20425   2.697   1.779   6.510
 6509SOL    HW120426   2.645   1.704   6.469
 6509SOL    HW220427   2.766   1.811   6.446
 6510SOL     OW20428   4.170   5.243   4.088
 6510SOL    HW120429   4.082   5.195   4.084
 6510SOL    HW220430   4.211   5.246   3.997
 6511SOL     OW20431   3.615   3.210   0.270
 6511SOL    HW120432   3.629   3.300   0.311
 6511SOL    HW220433   3.561   3.219   0.186
 6512SOL     OW20434   5.350   1.565   2.282
 6512SOL    HW120435   5.261   1.605   2.258
 6512SOL    HW220436   5.337   1.491   2.347
 6513SOL     OW20437   3.466   4.737   1.566
 6513SOL    HW120438   3.370   4.756   1.583
 6513SOL    HW220439   3.504   4.684   1.642
 6514SOL     OW20440   5.534   5.570   5.495
 6514SOL    HW120441   5.463   5.553   5.426
 6514SOL    HW220442   5.526   5.664   5.529
 6515SOL     OW20443   0.694   5.074   2.064
 6515SOL    HW120444   0.722   4.985   2.099
 6515SOL    HW220445   0.691   5.140   2.139
 6516SOL     OW20446   5.666   1.485   3.814
 6516SOL    HW120447   5.766   1.486   3.815
 6516SOL    HW220448   5.632   1.572   3.778
 6517SOL     OW20449   6.907   4.065   1.236
 6517SOL    HW120450   6.849   3.986   1.215
 6517SOL    HW220451   6.992   4.033   1.277
 6518SOL     OW20452   1.188   1.709   2.230
 6518SOL    HW120453   1.223   1.747   2.145
 6518SOL    HW220454   1.089   1.725   2.235
 6519SOL     OW20455   1.866   2.182   3.071
 6519SOL    HW120456   1.893   2.117   3.141
 6519SOL    HW220457   1.835   2.133   2.989
 6520SOL     OW20458   6.048   6.698   6.854
 6520SOL    HW120459   6.020   6.640   6.778
 6520SOL    HW220460   6.058   6.793   6.822
 6521SOL     OW20461   1.587   4.564   4.654
 6521SOL    HW120462   1.550   4.624   4.583
 6521SOL    HW220463   1.686   4.556   4.643
 6522SOL     OW20464   2.338   3.314   5.285
 6522SOL    HW120465   2.279   3.325   5.204
 6522SOL    HW220466   2.406   3.244   5.268
 6523SOL     OW20467   4.621   6.231   0.775
 6523SOL    HW120468   4.578   6.314   0.739
 6523SOL    HW220469   4.719   6.247   0.786
 6524SOL     OW20470   3.890   2.162   1.317
 6524SOL    HW120471   3.816   2.102   1.287
 6524SOL    HW220472   3.865   2.257   1.299
 6525SOL     OW20473   2.858   4.786   3.860
 6525SOL    HW120474   2.764   4.758   3.879
 6525SOL    HW220475   2.869   4.800   3.762
 6526SOL     OW20476   6.260   6.488   0.726
 6526SOL    HW120477   6.296   6.400   0.695
 6526SOL    HW220478   6.317   6.523   0.800
 6527SOL     OW20479   5.665   1.994   0.907
 6527SOL    HW120480   5.635   2.071   0.964
 6527SOL    HW220481   5.750   1.957   0.944
 6528SOL     OW20482   4.651   6.925   0.766
 6528SOL    HW120483   4.604   7.013   0.774
 6528SOL    HW220484   4.619   6.864   0.838
 6529SOL     OW20485   3.583   6.271   1.295
 6529SOL    HW120486   3.637   6.355   1.300
 6529SOL    HW220487   3.599   6.227   1.207
 6530SOL     OW20488   0.615   2.849   4.321
 6530SOL    HW120489   0.604   2.923   4.388
 6530SOL    HW220490   0.679   2.878   4.250
 6531SOL     OW20491   3.101   3.427   4.458
 6531SOL    HW120492   3.098   3.391   4.551
 6531SOL    HW220493   3.174   3.495   4.451
 6532SOL     OW20494   0.456   6.237   6.641
 6532SOL    HW120495   0.513   6.274   6.714
 6532SOL    HW220496   0.507   6.166   6.592
 6533SOL     OW20497   5.637   5.096   0.998
 6533SOL    HW120498   5.706   5.119   0.930
 6533SOL    HW220499   5.680   5.089   1.088
 6534SOL     OW20500   6.092   3.331   4.273
 6534SOL    HW120501   6.032   3.270   4.221
 6534SOL    HW220502   6.097   3.300   4.368
 6535SOL     OW20503   5.714   3.294   6.710
 6535SOL    HW120504   5.663   3.215   6.673
 6535SOL    HW220505   5.747   3.272   6.801
 6536SOL     OW20506   6.864   5.999   5.455
 6536SOL    HW120507   6.765   5.989   5.442
 6536SOL    HW220508   6.906   5.908   5.455
 6537SOL     OW20509   6.389   5.449   4.005
 6537SOL    HW120510   6.400   5.349   4.001
 6537SOL    HW220511   6.479   5.492   3.997
 6538SOL     OW20512   1.445   3.902   3.299
 6538SOL    HW120513   1.528   3.873   3.347
 6538SOL    HW220514   1.374   3.833   3.310
 6539SOL     OW20515   5.844   6.608   5.658
 6539SOL    HW120516   5.913   6.675   5.684
 6539SOL    HW220517   5.754   6.652   5.656
 6540SOL     OW20518   0.783   2.616   5.310
 6540SOL    HW120519   0.813   2.598   5.216
 6540SOL    HW220520   0.789   2.714   5.329
 6541SOL     OW20521   3.339   1.791   5.716
 6541SOL    HW120522   3.354   1.743   5.630
 6541SOL    HW220523   3.258   1.755   5.761
 6542SOL     OW20524   1.809   4.943   1.531
 6542SOL    HW120525   1.818   4.855   1.579
 6542SOL    HW220526   1.899   4.984   1.519
 6543SOL     OW20527   4.008   1.884   3.766
 6543SOL    HW120528   3.936   1.817   3.783
 6543SOL    HW220529   3.979   1.974   3.800
 6544SOL     OW20530   1.431   1.045   1.413
 6544SOL    HW120531   1.479   1.079   1.332
 6544SOL    HW220532   1.361   0.980   1.384
 6545SOL     OW20533   6.292   4.165   0.662
 6545SOL    HW120534   6.254   4.205   0.745
 6545SOL    HW220535   6.330   4.237   0.604
 6546SOL     OW20536   4.467   5.484   4.077
 6546SOL    HW120537   4.465   5.395   4.122
 6546SOL    HW220538   4.383   5.534   4.100
 6547SOL     OW20539   0.405   6.667   4.989
 6547SOL    HW120540   0.330   6.729   5.013
 6547SOL    HW220541   0.446   6.697   4.902
 6548SOL     OW20542   1.683   1.004   5.134
 6548SOL    HW120543   1.642   1.040   5.050
 6548SOL    HW220544   1.699   0.906   5.124
 6549SOL     OW20545   2.181   1.769   2.324
 6549SOL    HW120546   2.234   1.846   2.359
 6549SOL    HW220547   2.083   1.787   2.338
 6550SOL     OW20548   5.298   0.591   1.898
 6550SOL    HW120549   5.308   0.494   1.875
 6550SOL    HW220550   5.203   0.618   1.884
 6551SOL     OW20551   2.145   5.883   1.128
 6551SOL    HW120552   2.120   5.825   1.051
 6551SOL    HW220553   2.086   5.863   1.206
 6552SOL     OW20554   2.420   3.587   6.822
 6552SOL    HW120555   2.367   3.545   6.896
 6552SOL    HW220556   2.365   3.656   6.775
 6553SOL     OW20557   0.267   1.525   3.253
 6553SOL    HW120558   0.231   1.471   3.177
 6553SOL    HW220559   0.337   1.587   3.218
 6554SOL     OW20560   2.183   1.843   3.996
 6554SOL    HW120561   2.186   1.883   3.904
 6554SOL    HW220562   2.164   1.915   4.063
 6555SOL     OW20563   2.048   3.533   1.797
 6555SOL    HW120564   2.121   3.487   1.746
 6555SOL    HW220565   2.077   3.547   1.891
 6556SOL     OW20566   4.814   3.006   3.510
 6556SOL    HW120567   4.819   3.048   3.420
 6556SOL    HW220568   4.798   3.076   3.579
 6557SOL     OW20569   1.824   6.615   2.192
 6557SOL    HW120570   1.838   6.673   2.112
 6557SOL    HW220571   1.728   6.618   2.220
 6558SOL     OW20572   4.766   5.886   0.263
 6558SOL    HW120573   4.725   5.871   0.173
 6558SOL    HW220574   4.857   5.926   0.252
 6559SOL     OW20575   6.847   1.981   5.772
 6559SOL    HW120576   6.931   2.032   5.787
 6559SOL    HW220577   6.785   1.995   5.849
 6560SOL     OW20578   6.453   4.160   6.111
 6560SOL    HW120579   6.379   4.197   6.167
 6560SOL    HW220580   6.495   4.233   6.058
 6561SOL     OW20581   2.252   4.942   6.925
 6561SOL    HW120582   2.167   4.904   6.960
 6561SOL    HW220583   2.304   4.983   7.000
 6562SOL     OW20584   4.447   2.716   1.113
 6562SOL    HW120585   4.403   2.683   1.196
 6562SOL    HW220586   4.465   2.814   1.122
 6563SOL     OW20587   5.927   4.153   6.063
 6563SOL    HW120588   5.961   4.060   6.077
 6563SOL    HW220589   6.002   4.212   6.036
 6564SOL     OW20590   5.875   3.851   2.220
 6564SOL    HW120591   5.958   3.840   2.166
 6564SOL    HW220592   5.796   3.859   2.159
 6565SOL     OW20593   5.591   5.186   1.483
 6565SOL    HW120594   5.640   5.241   1.551
 6565SOL    HW220595   5.557   5.246   1.410
 6566SOL     OW20596   5.431   6.145   4.531
 6566SOL    HW120597   5.452   6.070   4.468
 6566SOL    HW220598   5.454   6.117   4.625
 6567SOL     OW20599   2.702   0.624   2.555
 6567SOL    HW120600   2.732   0.600   2.647
 6567SOL    HW220601   2.650   0.547   2.517
 6568SOL     OW20602   5.412   1.571   0.769
 6568SOL    HW120603   5.459   1.625   0.699
 6568SOL    HW220604   5.473   1.557   0.847
 6569SOL     OW20605   1.314   3.697   3.418
 6569SOL    HW120606   1.322   3.648   3.331
 6569SOL    HW220607   1.218   3.701   3.445
 6570SOL     OW20608   4.262   0.180   2.523
 6570SOL    HW120609   4.213   0.209   2.441
 6570SOL    HW220610   4.337   0.119   2.498
 6571SOL     OW20611   2.355   7.008   3.032
 6571SOL    HW120612   2.434   6.963   3.073
 6571SOL    HW220613   2.290   6.939   3.000
 6572SOL     OW20614   0.900   6.763   3.893
 6572SOL    HW120615   0.803   6.789   3.890
 6572SOL    HW220616   0.954   6.832   3.843
 6573SOL     OW20617   1.366   2.631   3.889
 6573SOL    HW120618   1.454   2.666   3.855
 6573SOL    HW220619   1.324   2.574   3.819
 6574SOL     OW20620   1.544   4.975   1.480
 6574SOL    HW120621   1.492   4.891   1.500
 6574SOL    HW220622   1.640   4.959   1.501
 6575SOL     OW20623   0.131   0.989   3.826
 6575SOL    HW120624   0.130   0.891   3.843
 6575SOL    HW220625   0.156   1.037   3.910
 6576SOL     OW20626   4.304   0.735   2.842
 6576SOL    HW120627   4.258   0.683   2.771
 6576SOL    HW220628   4.378   0.789   2.801
 6577SOL     OW20629   2.612   0.656   5.453
 6577SOL    HW120630   2.633   0.593   5.379
 6577SOL    HW220631   2.532   0.711   5.427
 6578SOL     OW20632   0.746   6.186   0.032
 6578SOL    HW120633   0.706   6.109   7.002
 6578SOL    HW220634   0.826   6.154   0.084
 6579SOL     OW20635   2.251   2.048   2.848
 6579SOL    HW120636   2.309   2.128   2.860
 6579SOL    HW220637   2.193   2.060   2.767
 6580SOL     OW20638   3.203   2.469   0.102
 6580SOL    HW120639   3.164   2.541   0.160
 6580SOL    HW220640   3.162   2.381   0.126
 6581SOL     OW20641   1.041   2.397   1.976
 6581SOL    HW120642   1.041   2.337   1.896
 6581SOL    HW220643   1.113   2.367   2.040
 6582SOL     OW20644   3.576   6.239   3.137
 6582SOL    HW120645   3.499   6.248   3.200
 6582SOL    HW220646   3.571   6.311   3.068
 6583SOL     OW20647   2.395   4.858   0.655
 6583SOL    HW120648   2.308   4.892   0.689
 6583SOL    HW220649   2.406   4.762   0.681
 6584SOL     OW20650   4.640   3.862   5.342
 6584SOL    HW120651   4.613   3.789   5.405
 6584SOL    HW220652   4.717   3.830   5.286
 6585SOL     OW20653   5.325   6.845   1.882
 6585SOL    HW120654   5.422   6.821   1.881
 6585SOL    HW220655   5.289   6.838   1.975
 6586SOL     OW20656   6.671   1.828   6.670
 6586SOL    HW120657   6.720   1.873   6.745
 6586SOL    HW220658   6.586   1.877   6.652
 6587SOL     OW20659   2.943   4.853   5.399
 6587SOL    HW120660   2.848   4.825   5.381
 6587SOL    HW220661   2.974   4.811   5.484
 6588SOL     OW20662   1.653   2.491   0.321
 6588SOL    HW120663   1.613   2.496   0.229
 6588SOL    HW220664   1.737   2.546   0.324
 6589SOL     OW20665   5.981   0.652   0.633
 6589SOL    HW120666   6.068   0.609   0.656
 6589SOL    HW220667   5.907   0.607   0.684
 6590SOL     OW20668   0.828   6.051   4.325
 6590SOL    HW120669   0.837   6.037   4.226
 6590SOL    HW220670   0.746   6.106   4.343
 6591SOL     OW20671   6.430   3.541   3.468
 6591SOL    HW120672   6.455   3.571   3.375
 6591SOL    HW220673   6.335   3.567   3.487
 6592SOL     OW20674   0.445   0.337   4.622
 6592SOL    HW120675   0.500   0.254   4.633
 6592SOL    HW220676   0.460   0.374   4.530
 6593SOL     OW20677   0.869   6.805   3.549
 6593SOL    HW120678   0.876   6.708   3.525
 6593SOL    HW220679   0.949   6.832   3.603
 6594SOL     OW20680   5.202   0.024   6.647
 6594SOL    HW120681   5.234   0.118   6.644
 6594SOL    HW220682   5.212   7.001   6.557
 6595SOL     OW20683   0.753   6.800   4.616
 6595SOL    HW120684   0.822   6.834   4.680
 6595SOL    HW220685   0.790   6.803   4.523
 6596SOL     OW20686   4.978   0.672   3.353
 6596SOL    HW120687   5.017   0.764   3.347
 6596SOL    HW220688   5.043   0.605   3.317
 6597SOL     OW20689   0.800   5.591   1.614
 6597SOL    HW120690   0.836   5.522   1.550
 6597SOL    HW220691   0.711   5.623   1.581
 6598SOL     OW20692   1.412   5.199   1.365
 6598SOL    HW120693   1.444   5.290   1.390
 6598SOL    HW220694   1.480   5.131   1.392
 6599SOL     OW20695   0.136   5.918   0.578
 6599SOL    HW120696   0.101   5.858   0.505
 6599SOL    HW220697   0.234   5.933   0.565
 6600SOL     OW20698   5.293   0.272   4.792
 6600SOL    HW120699   5.295   0.358   4.742
 6600SOL    HW220700   5.344   0.282   4.878
 6601SOL     OW20701   1.097   2.246   3.826
 6601SOL    HW120702   1.117   2.332   3.779
 6601SOL    HW220703   1.010   2.254   3.876
 6602SOL     OW20704   6.290   6.142   0.752
 6602SOL    HW120705   6.357   6.177   0.817
 6602SOL    HW220706   6.337   6.100   0.674
 6603SOL     OW20707   6.997   5.092   2.556
 6603SOL    HW120708   6.986   5.131   2.648
 6603SOL    HW220709   6.926   5.128   2.496
 6604SOL     OW20710   2.509   4.739   2.328
 6604SOL    HW120711   2.464   4.650   2.332
 6604SOL    HW220712   2.608   4.726   2.317
 6605SOL     OW20713   0.100   5.532   1.104
 6605SOL    HW120714   0.044   5.449   1.112
 6605SOL    HW220715   0.186   5.509   1.059
 6606SOL     OW20716   0.969   5.134   3.370
 6606SOL    HW120717   1.022   5.058   3.408
 6606SOL    HW220718   1.022   5.179   3.298
 6607SOL     OW20719   0.525   2.613   4.219
 6607SOL    HW120720   0.533   2.710   4.243
 6607SOL    HW220721   0.560   2.599   4.126
 6608SOL     OW20722   1.711   0.100   5.526
 6608SOL    HW120723   1.657   0.062   5.452
 6608SOL    HW220724   1.743   0.191   5.502
 6609SOL     OW20725   2.644   1.828   6.991
 6609SOL    HW120726   2.676   1.922   6.993
 6609SOL    HW220727   2.688   1.779   6.915
 6610SOL     OW20728   3.309   5.473   0.596
 6610SOL    HW120729   3.219   5.514   0.585
 6610SOL    HW220730   3.305   5.376   0.573
 6611SOL     OW20731   2.667   1.100   5.209
 6611SOL    HW120732   2.619   1.142   5.132
 6611SOL    HW220733   2.756   1.144   5.221
 6612SOL     OW20734   6.038   6.941   6.750
 6612SOL    HW120735   6.048   6.980   6.658
 6612SOL    HW220736   6.060   7.011   6.818
 6613SOL     OW20737   5.035   6.633   1.080
 6613SOL    HW120738   5.107   6.575   1.041
 6613SOL    HW220739   5.055   6.728   1.058
 6614SOL     OW20740   4.436   5.796   0.395
 6614SOL    HW120741   4.407   5.713   0.347
 6614SOL    HW220742   4.525   5.781   0.437
 6615SOL     OW20743   3.862   5.700   5.927
 6615SOL    HW120744   3.869   5.715   5.829
 6615SOL    HW220745   3.939   5.744   5.974
 6616SOL     OW20746   4.391   1.779   6.684
 6616SOL    HW120747   4.466   1.789   6.619
 6616SOL    HW220748   4.315   1.839   6.657
 6617SOL     OW20749   3.750   1.701   4.355
 6617SOL    HW120750   3.677   1.723   4.289
 6617SOL    HW220751   3.752   1.773   4.425
 6618SOL     OW20752   6.351   2.617   3.556
 6618SOL    HW120753   6.284   2.545   3.541
 6618SOL    HW220754   6.342   2.687   3.486
 6619SOL     OW20755   4.420   4.808   3.394
 6619SOL    HW120756   4.430   4.903   3.365
 6619SOL    HW220757   4.493   4.785   3.458
 6620SOL     OW20758   1.432   2.970   3.711
 6620SOL    HW120759   1.422   2.982   3.809
 6620SOL    HW220760   1.511   2.912   3.692
 6621SOL     OW20761   3.454   3.480   3.180
 6621SOL    HW120762   3.367   3.442   3.210
 6621SOL    HW220763   3.524   3.409   3.182
 6622SOL     OW20764   6.725   5.194   1.482
 6622SOL    HW120765   6.673   5.197   1.568
 6622SOL    HW220766   6.802   5.131   1.492
 6623SOL     OW20767   3.406   3.409   4.680
 6623SOL    HW120768   3.469   3.453   4.745
 6623SOL    HW220769   3.416   3.452   4.590
 6624SOL     OW20770   2.219   2.526   2.560
 6624SOL    HW120771   2.259   2.445   2.518
 6624SOL    HW220772   2.275   2.606   2.539
 6625SOL     OW20773   0.933   5.390   6.440
 6625SOL    HW120774   0.975   5.339   6.515
 6625SOL    HW220775   1.005   5.432   6.385
 6626SOL     OW20776   3.715   5.916   5.513
 6626SOL    HW120777   3.661   5.962   5.583
 6626SOL    HW220778   3.752   5.985   5.449
 6627SOL     OW20779   2.406   0.159   4.382
 6627SOL    HW120780   2.487   0.214   4.404
 6627SOL    HW220781   2.434   0.077   4.333
 6628SOL     OW20782   3.548   6.143   4.001
 6628SOL    HW120783   3.551   6.081   3.923
 6628SOL    HW220784   3.567   6.236   3.971
 6629SOL     OW20785   5.329   5.597   5.270
 6629SOL    HW120786   5.244   5.544   5.264
 6629SOL    HW220787   5.308   5.691   5.295
 6630SOL     OW20788   1.601   6.778   0.687
 6630SOL    HW120789   1.680   6.746   0.635
 6630SOL    HW220790   1.543   6.835   0.628
 6631SOL     OW20791   1.483   1.477   5.658
 6631SOL    HW120792   1.538   1.409   5.610
 6631SOL    HW220793   1.448   1.543   5.592
 6632SOL     OW20794   1.033   0.605   5.909
 6632SOL    HW120795   1.083   0.641   5.830
 6632SOL    HW220796   1.079   0.634   5.993
 6633SOL     OW20797   5.088   0.332   5.533
 6633SOL    HW120798   5.184   0.358   5.520
 6633SOL    HW220799   5.033   0.367   5.457
 6634SOL     OW20800   2.761   2.135   3.928
 6634SOL    HW120801   2.765   2.220   3.981
 6634SOL    HW220802   2.833   2.136   3.859
 6635SOL     OW20803   4.629   5.696   6.246
 6635SOL    HW120804   4.679   5.621   6.205
 6635SOL    HW220805   4.531   5.679   6.239
 6636SOL     OW20806   4.845   1.463   1.241
 6636SOL    HW120807   4.880   1.504   1.325
 6636SOL    HW220808   4.806   1.535   1.183
 6637SOL     OW20809   0.426   3.992   6.962
 6637SOL    HW120810   0.485   3.956   0.016
 6637SOL    HW220811   0.331   3.989   6.991
 6638SOL     OW20812   3.420   3.527   4.382
 6638SOL    HW120813   3.373   3.461   4.323
 6638SOL    HW220814   3.482   3.583   4.327
 6639SOL     OW20815   5.959   2.524   2.539
 6639SOL    HW120816   6.056   2.499   2.538
 6639SOL    HW220817   5.918   2.500   2.450
 6640SOL     OW20818   0.312   3.329   4.167
 6640SOL    HW120819   0.230   3.330   4.110
 6640SOL    HW220820   0.370   3.406   4.144
 6641SOL     OW20821   5.110   2.310   0.488
 6641SOL    HW120822   5.204   2.347   0.487
 6641SOL    HW220823   5.113   2.211   0.502
 6642SOL     OW20824   0.549   4.535   6.420
 6642SOL    HW120825   0.466   4.505   6.466
 6642SOL    HW220826   0.619   4.463   6.426
 6643SOL     OW20827   5.959   5.573   5.791
 6643SOL    HW120828   6.030   5.625   5.840
 6643SOL    HW220829   5.893   5.537   5.857
 6644SOL     OW20830   2.031   6.354   3.521
 6644SOL    HW120831   2.038   6.368   3.423
 6644SOL    HW220832   1.976   6.272   3.539
 6645SOL     OW20833   4.641   2.603   5.409
 6645SOL    HW120834   4.612   2.637   5.320
 6645SOL    HW220835   4.591   2.652   5.481
 6646SOL     OW20836   4.386   7.004   6.005
 6646SOL    HW120837   4.485   6.995   5.994
 6646SOL    HW220838   4.355   6.949   6.082
 6647SOL     OW20839   3.136   4.747   0.588
 6647SOL    HW120840   3.199   4.822   0.569
 6647SOL    HW220841   3.079   4.731   0.508
 6648SOL     OW20842   3.238   5.878   5.020
 6648SOL    HW120843   3.212   5.787   5.054
 6648SOL    HW220844   3.188   5.948   5.071
 6649SOL     OW20845   5.525   2.512   5.407
 6649SOL    HW120846   5.561   2.578   5.342
 6649SOL    HW220847   5.446   2.551   5.455
 6650SOL     OW20848   2.550   0.330   4.634
 6650SOL    HW120849   2.585   0.238   4.617
 6650SOL    HW220850   2.568   0.356   4.729
 6651SOL     OW20851   6.159   1.258   3.426
 6651SOL    HW120852   6.212   1.318   3.366
 6651SOL    HW220853   6.212   1.236   3.507
 6652SOL     OW20854   6.743   5.060   6.931
 6652SOL    HW120855   6.750   5.127   7.005
 6652SOL    HW220856   6.707   4.974   6.967
 6653SOL     OW20857   5.687   3.550   6.619
 6653SOL    HW120858   5.719   3.628   6.673
 6653SOL    HW220859   5.710   3.465   6.666
 6654SOL     OW20860   6.770   1.778   3.106
 6654SOL    HW120861   6.688   1.726   3.128
 6654SOL    HW220862   6.829   1.783   3.187
 6655SOL     OW20863   6.600   5.407   1.768
 6655SOL    HW120864   6.689   5.444   1.742
 6655SOL    HW220865   6.571   5.445   1.855
 6656SOL     OW20866   5.516   1.724   2.441
 6656SOL    HW120867   5.453   1.755   2.513
 6656SOL    HW220868   5.471   1.654   2.386
 6657SOL     OW20869   4.813   2.145   3.922
 6657SOL    HW120870   4.806   2.154   4.022
 6657SOL    HW220871   4.723   2.154   3.881
 6658SOL     OW20872   6.330   5.188   4.002
 6658SOL    HW120873   6.337   5.088   4.001
 6658SOL    HW220874   6.277   5.217   4.081
 6659SOL     OW20875   1.038   6.419   0.755
 6659SOL    HW120876   0.946   6.381   0.768
 6659SOL    HW220877   1.039   6.515   0.786
 6660SOL     OW20878   1.646   1.053   3.365
 6660SOL    HW120879   1.683   1.049   3.458
 6660SOL    HW220880   1.641   0.961   3.326
 6661SOL     OW20881   3.941   6.370   3.675
 6661SOL    HW120882   4.021   6.416   3.637
 6661SOL    HW220883   3.949   6.365   3.774
 6662SOL     OW20884   4.058   6.002   1.280
 6662SOL    HW120885   4.126   5.961   1.220
 6662SOL    HW220886   3.990   6.051   1.226
 6663SOL     OW20887   1.618   4.045   5.454
 6663SOL    HW120888   1.526   4.015   5.482
 6663SOL    HW220889   1.686   4.000   5.512
 6664SOL     OW20890   3.308   0.115   1.639
 6664SOL    HW120891   3.273   0.034   1.686
 6664SOL    HW220892   3.369   0.166   1.700
 6665SOL     OW20893   2.960   0.213   6.656
 6665SOL    HW120894   2.875   0.185   6.612
 6665SOL    HW220895   3.034   0.213   6.589
 6666SOL     OW20896   2.988   0.077   6.319
 6666SOL    HW120897   2.924   0.075   6.243
 6666SOL    HW220898   2.937   0.083   6.405
 6667SOL     OW20899   1.347   5.692   6.775
 6667SOL    HW120900   1.386   5.607   6.810
 6667SOL    HW220901   1.327   5.754   6.852
 6668SOL     OW20902   6.887   3.358   5.787
 6668SOL    HW120903   6.931   3.303   5.858
 6668SOL    HW220904   6.919   3.453   5.794
 6669SOL     OW20905   0.726   3.572   3.461
 6669SOL    HW120906   0.762   3.559   3.553
 6669SOL    HW220907   0.802   3.565   3.395
 6670SOL     OW20908   2.409   3.763   0.743
 6670SOL    HW120909   2.488   3.816   0.712
 6670SOL    HW220910   2.441   3.680   0.789
 6671SOL     OW20911   5.569   5.377   0.281
 6671SOL    HW120912   5.503   5.328   0.337
 6671SOL    HW220913   5.539   5.376   0.185
 6672SOL     OW20914   1.682   2.504   0.899
 6672SOL    HW120915   1.713   2.409   0.901
 6672SOL    HW220916   1.743   2.558   0.840
 6673SOL     OW20917   5.720   4.138   4.395
 6673SOL    HW120918   5.789   4.207   4.417
 6673SOL    HW220919   5.760   4.067   4.338
 6674SOL     OW20920   6.631   1.737   0.063
 6674SOL    HW120921   6.590   1.747   6.991
 6674SOL    HW220922   6.574   1.783   0.130
 6675SOL     OW20923   5.501   1.228   0.964
 6675SOL    HW120924   5.464   1.204   1.053
 6675SOL    HW220925   5.452   1.178   0.892
 6676SOL     OW20926   0.863   3.469   5.276
 6676SOL    HW120927   0.865   3.525   5.193
 6676SOL    HW220928   0.902   3.520   5.352
 6677SOL     OW20929   0.539   2.178   6.956
 6677SOL    HW120930   0.528   2.210   0.031
 6677SOL    HW220931   0.632   2.144   6.942
 6678SOL     OW20932   3.013   4.235   0.015
 6678SOL    HW120933   3.083   4.302   0.040
 6678SOL    HW220934   2.938   4.281   6.985
 6679SOL     OW20935   1.481   0.307   3.516
 6679SOL    HW120936   1.548   0.310   3.442
 6679SOL    HW220937   1.492   0.388   3.574
 6680SOL     OW20938   6.171   5.400   1.782
 6680SOL    HW120939   6.093   5.371   1.727
 6680SOL    HW220940   6.138   5.436   1.870
 6681SOL     OW20941   3.054   6.416   1.002
 6681SOL    HW120942   3.128   6.476   0.974
 6681SOL    HW220943   3.091   6.327   1.030
 6682SOL     OW20944   2.038   5.131   6.591
 6682SOL    HW120945   2.107   5.061   6.607
 6682SOL    HW220946   2.078   5.207   6.540
 6683SOL     OW20947   6.649   6.627   5.998
 6683SOL    HW120948   6.668   6.529   6.003
 6683SOL    HW220949   6.550   6.642   5.997
 6684SOL     OW20950   2.943   0.007   5.870
 6684SOL    HW120951   2.881   0.002   5.949
 6684SOL    HW220952   2.918   0.086   5.814
 6685SOL     OW20953   3.846   3.090   0.558
 6685SOL    HW120954   3.764   3.051   0.516
 6685SOL    HW220955   3.896   3.018   0.605
 6686SOL     OW20956   4.300   4.809   5.699
 6686SOL    HW120957   4.232   4.880   5.679
 6686SOL    HW220958   4.296   4.739   5.628
 6687SOL     OW20959   0.189   2.751   1.098
 6687SOL    HW120960   0.133   2.673   1.123
 6687SOL    HW220961   0.132   2.832   1.087
 6688SOL     OW20962   5.809   5.938   0.109
 6688SOL    HW120963   5.716   5.907   0.126
 6688SOL    HW220964   5.812   6.038   0.109
 6689SOL     OW20965   4.012   4.637   5.652
 6689SOL    HW120966   3.949   4.704   5.693
 6689SOL    HW220967   4.048   4.577   5.723
 6690SOL     OW20968   0.998   0.570   0.166
 6690SOL    HW120969   1.097   0.574   0.153
 6690SOL    HW220970   0.967   0.475   0.160
 6691SOL     OW20971   1.695   2.149   2.364
 6691SOL    HW120972   1.700   2.125   2.267
 6691SOL    HW220973   1.627   2.220   2.378
 6692SOL     OW20974   4.079   6.079   2.292
 6692SOL    HW120975   4.117   6.049   2.204
 6692SOL    HW220976   4.088   6.178   2.299
 6693SOL     OW20977   3.069   1.095   6.019
 6693SOL    HW120978   3.000   1.076   5.949
 6693SOL    HW220979   3.070   1.193   6.040
 6694SOL     OW20980   4.578   4.134   1.634
 6694SOL    HW120981   4.503   4.149   1.699
 6694SOL    HW220982   4.663   4.168   1.673
 6695SOL     OW20983   3.173   1.961   6.940
 6695SOL    HW120984   3.193   2.000   6.850
 6695SOL    HW220985   3.253   1.970   6.999
 6696SOL     OW20986   3.498   3.185   5.281
 6696SOL    HW120987   3.412   3.220   5.317
 6696SOL    HW220988   3.490   3.086   5.266
 6697SOL     OW20989   4.681   1.050   2.756
 6697SOL    HW120990   4.682   1.128   2.818
 6697SOL    HW220991   4.768   1.044   2.708
 6698SOL     OW20992   2.610   3.538   1.285
 6698SOL    HW120993   2.606   3.454   1.339
 6698SOL    HW220994   2.692   3.538   1.228
 6699SOL     OW20995   1.465   3.462   5.853
 6699SOL    HW120996   1.495   3.418   5.938
 6699SOL    HW220997   1.430   3.394   5.790
 6700SOL     OW20998   4.989   6.959   1.561
 6700SOL    HW120999   4.978   6.943   1.463
 6700SOL    HW221000   4.920   6.906   1.611
 6701SOL     OW21001   6.650   6.927   1.277
 6701SOL    HW121002   6.726   6.925   1.212
 6701SOL    HW221003   6.664   6.856   1.346
 6702SOL     OW21004   5.052   2.777   1.426
 6702SOL    HW121005   4.961   2.760   1.389
 6702SOL    HW221006   5.102   2.839   1.365
 6703SOL     OW21007   0.294   0.914   0.784
 6703SOL    HW121008   0.276   0.837   0.845
 6703SOL    HW221009   0.214   0.974   0.782
 6704SOL     OW21010   2.224   5.714   6.599
 6704SOL    HW121011   2.270   5.663   6.671
 6704SOL    HW221012   2.185   5.651   6.532
 6705SOL     OW21013   1.579   4.353   3.051
 6705SOL    HW121014   1.520   4.429   3.077
 6705SOL    HW221015   1.525   4.270   3.041
 6706SOL     OW21016   0.361   5.788   1.768
 6706SOL    HW121017   0.383   5.690   1.776
 6706SOL    HW221018   0.437   5.842   1.804
 6707SOL     OW21019   5.740   0.928   2.708
 6707SOL    HW121020   5.770   1.001   2.769
 6707SOL    HW221021   5.661   0.881   2.747
 6708SOL     OW21022   6.916   3.182   1.185
 6708SOL    HW121023   6.878   3.158   1.096
 6708SOL    HW221024   6.910   3.104   1.247
 6709SOL     OW21025   2.236   4.171   2.156
 6709SOL    HW121026   2.191   4.163   2.067
 6709SOL    HW221027   2.328   4.209   2.144
 6710SOL     OW21028   4.970   2.385   1.792
 6710SOL    HW121029   5.015   2.383   1.703
 6710SOL    HW221030   4.881   2.429   1.783
 6711SOL     OW21031   4.178   5.409   6.269
 6711SOL    HW121032   4.126   5.479   6.317
 6711SOL    HW221033   4.191   5.435   6.173
 6712SOL     OW21034   5.721   3.452   1.069
 6712SOL    HW121035   5.670   3.416   0.991
 6712SOL    HW221036   5.719   3.385   1.143
 6713SOL     OW21037   2.119   4.742   4.330
 6713SOL    HW121038   2.162   4.765   4.417
 6713SOL    HW221039   2.095   4.645   4.328
 6714SOL     OW21040   6.189   0.776   2.865
 6714SOL    HW121041   6.226   0.683   2.875
 6714SOL    HW221042   6.161   0.810   2.954
 6715SOL     OW21043   0.820   6.910   5.203
 6715SOL    HW121044   0.793   7.006   5.216
 6715SOL    HW221045   0.740   6.851   5.215
 6716SOL     OW21046   1.548   4.616   1.736
 6716SOL    HW121047   1.512   4.669   1.659
 6716SOL    HW221048   1.539   4.519   1.716
 6717SOL     OW21049   6.389   2.715   5.265
 6717SOL    HW121050   6.348   2.695   5.354
 6717SOL    HW221051   6.361   2.806   5.235
 6718SOL     OW21052   4.667   2.086   0.950
 6718SOL    HW121053   4.658   2.159   0.882
 6718SOL    HW221054   4.688   2.000   0.904
 6719SOL     OW21055   1.457   0.156   0.365
 6719SOL    HW121056   1.403   0.119   0.290
 6719SOL    HW221057   1.530   0.213   0.327
 6720SOL     OW21058   1.568   1.938   4.605
 6720SOL    HW121059   1.630   1.930   4.683
 6720SOL    HW221060   1.516   2.023   4.611
 6721SOL     OW21061   6.436   6.357   0.526
 6721SOL    HW121062   6.442   6.257   0.522
 6721SOL    HW221063   6.436   6.394   0.433
 6722SOL     OW21064   0.040   3.627   1.769
 6722SOL    HW121065   0.098   3.708   1.775
 6722SOL    HW221066   0.018   3.609   1.673
 6723SOL     OW21067   2.086   3.658   3.836
 6723SOL    HW121068   2.011   3.707   3.791
 6723SOL    HW221069   2.093   3.566   3.797
 6724SOL     OW21070   2.109   3.345   5.052
 6724SOL    HW121071   2.096   3.430   5.104
 6724SOL    HW221072   2.093   3.362   4.955
 6725SOL     OW21073   4.547   2.584   3.374
 6725SOL    HW121074   4.531   2.487   3.353
 6725SOL    HW221075   4.520   2.640   3.295
 6726SOL     OW21076   0.288   1.437   0.277
 6726SOL    HW121077   0.376   1.395   0.256
 6726SOL    HW221078   0.215   1.369   0.265
 6727SOL     OW21079   0.716   5.608   5.598
 6727SOL    HW121080   0.619   5.585   5.598
 6727SOL    HW221081   0.729   5.694   5.548
 6728SOL     OW21082   3.444   1.665   5.416
 6728SOL    HW121083   3.366   1.703   5.366
 6728SOL    HW221084   3.523   1.662   5.355
 6729SOL     OW21085   4.377   1.243   2.432
 6729SOL    HW121086   4.446   1.241   2.360
 6729SOL    HW221087   4.334   1.153   2.439
 6730SOL     OW21088   0.135   2.148   1.396
 6730SOL    HW121089   0.106   2.129   1.489
 6730SOL    HW221090   0.127   2.066   1.340
 6731SOL     OW21091   3.714   0.694   5.661
 6731SOL    HW121092   3.716   0.793   5.650
 6731SOL    HW221093   3.706   0.671   5.758
 6732SOL     OW21094   6.375   4.608   6.039
 6732SOL    HW121095   6.375   4.680   6.109
 6732SOL    HW221096   6.282   4.576   6.024
 6733SOL     OW21097   5.688   4.587   5.713
 6733SOL    HW121098   5.670   4.644   5.633
 6733SOL    HW221099   5.674   4.491   5.689
 6734SOL     OW21100   5.635   2.002   5.171
 6734SOL    HW121101   5.629   1.923   5.110
 6734SOL    HW221102   5.617   2.085   5.119
 6735SOL     OW21103   5.746   2.560   4.562
 6735SOL    HW121104   5.708   2.487   4.505
 6735SOL    HW221105   5.673   2.602   4.615
 6736SOL     OW21106   4.062   3.379   0.646
 6736SOL    HW121107   4.023   3.331   0.725
 6736SOL    HW221108   4.099   3.467   0.675
 6737SOL     OW21109   5.949   2.600   1.397
 6737SOL    HW121110   5.898   2.625   1.315
 6737SOL    HW221111   6.042   2.573   1.372
 6738SOL     OW21112   1.741   6.823   3.440
 6738SOL    HW121113   1.814   6.755   3.446
 6738SOL    HW221114   1.711   6.848   3.532
 6739SOL     OW21115   0.194   0.483   5.761
 6739SOL    HW121116   0.171   0.386   5.758
 6739SOL    HW221117   0.179   0.518   5.854
 6740SOL     OW21118   0.774   6.747   1.400
 6740SOL    HW121119   0.687   6.760   1.447
 6740SOL    HW221120   0.760   6.693   1.317
 6741SOL     OW21121   3.013   1.906   0.284
 6741SOL    HW121122   3.012   1.978   0.214
 6741SOL    HW221123   2.971   1.823   0.247
 6742SOL     OW21124   6.995   5.269   2.771
 6742SOL    HW121125   6.997   5.271   2.871
 6742SOL    HW221126   0.031   5.345   2.735
 6743SOL     OW21127   3.975   4.691   0.074
 6743SOL    HW121128   3.940   4.642   0.154
 6743SOL    HW221129   4.048   4.638   0.032
 6744SOL     OW21130   6.468   6.913   5.669
 6744SOL    HW121131   6.515   6.969   5.737
 6744SOL    HW221132   6.425   6.972   5.601
 6745SOL     OW21133   5.662   3.303   4.817
 6745SOL    HW121134   5.708   3.383   4.855
 6745SOL    HW221135   5.573   3.291   4.861
 6746SOL     OW21136   1.762   2.386   2.810
 6746SOL    HW121137   1.758   2.449   2.887
 6746SOL    HW221138   1.833   2.414   2.747
 6747SOL     OW21139   0.791   6.506   4.934
 6747SOL    HW121140   0.864   6.444   4.905
 6747SOL    HW221141   0.704   6.457   4.936
 6748SOL     OW21142   1.481   2.096   3.891
 6748SOL    HW121143   1.395   2.128   3.931
 6748SOL    HW221144   1.516   2.164   3.826
 6749SOL     OW21145   3.227   5.128   2.050
 6749SOL    HW121146   3.290   5.051   2.063
 6749SOL    HW221147   3.279   5.213   2.039
 6750SOL     OW21148   3.384   0.436   5.337
 6750SOL    HW121149   3.286   0.450   5.350
 6750SOL    HW221150   3.403   0.426   5.239
 6751SOL     OW21151   4.382   1.317   4.430
 6751SOL    HW121152   4.444   1.385   4.470
 6751SOL    HW221153   4.287   1.347   4.443
 6752SOL     OW21154   2.305   5.003   2.760
 6752SOL    HW121155   2.358   4.974   2.681
 6752SOL    HW221156   2.289   5.102   2.755
 6753SOL     OW21157   3.452   4.200   6.836
 6753SOL    HW121158   3.407   4.278   6.879
 6753SOL    HW221159   3.435   4.118   6.890
 6754SOL     OW21160   5.709   0.393   0.446
 6754SOL    HW121161   5.610   0.400   0.433
 6754SOL    HW221162   5.755   0.463   0.391
 6755SOL     OW21163   3.721   5.681   5.364
 6755SOL    HW121164   3.629   5.643   5.363
 6755SOL    HW221165   3.722   5.764   5.420
 6756SOL     OW21166   4.311   3.262   5.250
 6756SOL    HW121167   4.359   3.350   5.248
 6756SOL    HW221168   4.371   3.193   5.291
 6757SOL     OW21169   3.927   6.896   1.908
 6757SOL    HW121170   3.959   6.991   1.900
 6757SOL    HW221171   3.990   6.835   1.861
 6758SOL     OW21172   5.040   2.677   3.305
 6758SOL    HW121173   5.021   2.649   3.210
 6758SOL    HW221174   4.954   2.701   3.350
 6759SOL     OW21175   1.512   2.326   1.723
 6759SOL    HW121176   1.442   2.359   1.785
 6759SOL    HW221177   1.488   2.234   1.691
 6760SOL     OW21178   5.303   1.666   5.747
 6760SOL    HW121179   5.269   1.686   5.838
 6760SOL    HW221180   5.393   1.623   5.754
 6761SOL     OW21181   2.750   0.012   4.845
 6761SOL    HW121182   2.673   7.018   4.907
 6761SOL    HW221183   2.813   6.953   4.853
 6762SOL     OW21184   5.505   4.451   4.526
 6762SOL    HW121185   5.488   4.548   4.542
 6762SOL    HW221186   5.424   4.398   4.553
 6763SOL     OW21187   5.404   5.956   3.805
 6763SOL    HW121188   5.433   5.925   3.896
 6763SOL    HW221189   5.358   5.880   3.758
 6764SOL     OW21190   1.187   4.722   2.224
 6764SOL    HW121191   1.151   4.642   2.176
 6764SOL    HW221192   1.235   4.781   2.158
 6765SOL     OW21193   0.240   4.624   2.554
 6765SOL    HW121194   0.257   4.527   2.534
 6765SOL    HW221195   0.268   4.679   2.476
 6766SOL     OW21196   5.896   0.246   1.465
 6766SOL    HW121197   5.983   0.207   1.495
 6766SOL    HW221198   5.837   0.173   1.430
 6767SOL     OW21199   2.760   0.311   1.465
 6767SOL    HW121200   2.799   0.292   1.555
 6767SOL    HW221201   2.705   0.394   1.468
 6768SOL     OW21202   2.180   0.204   6.303
 6768SOL    HW121203   2.246   0.268   6.265
 6768SOL    HW221204   2.189   0.201   6.402
 6769SOL     OW21205   5.444   2.695   1.329
 6769SOL    HW121206   5.413   2.773   1.383
 6769SOL    HW221207   5.469   2.619   1.389
 6770SOL     OW21208   0.062   1.684   1.515
 6770SOL    HW121209   0.106   1.643   1.595
 6770SOL    HW221210   7.000   1.736   1.544
 6771SOL     OW21211   4.757   1.140   3.767
 6771SOL    HW121212   4.729   1.231   3.736
 6771SOL    HW221213   4.677   1.080   3.769
 6772SOL     OW21214   3.365   1.201   5.112
 6772SOL    HW121215   3.295   1.227   5.180
 6772SOL    HW221216   3.429   1.277   5.100
 6773SOL     OW21217   6.852   3.376   2.329
 6773SOL    HW121218   6.815   3.290   2.293
 6773SOL    HW221219   6.952   3.370   2.334
 6774SOL     OW21220   1.057   1.507   5.772
 6774SOL    HW121221   0.973   1.465   5.806
 6774SOL    HW221222   1.040   1.605   5.755
 6775SOL     OW21223   0.252   3.386   0.417
 6775SOL    HW121224   0.274   3.395   0.320
 6775SOL    HW221225   0.318   3.325   0.460
 6776SOL     OW21226   6.007   6.493   6.409
 6776SOL    HW121227   5.982   6.412   6.356
 6776SOL    HW221228   5.952   6.571   6.378
 6777SOL     OW21229   4.451   4.625   0.049
 6777SOL    HW121230   4.543   4.590   0.032
 6777SOL    HW221231   4.449   4.671   0.138
 6778SOL     OW21232   6.607   5.303   3.238
 6778SOL    HW121233   6.551   5.366   3.185
 6778SOL    HW221234   6.702   5.334   3.239
 6779SOL     OW21235   5.475   3.436   6.469
 6779SOL    HW121236   5.553   3.482   6.511
 6779SOL    HW221237   5.501   3.342   6.446
 6780SOL     OW21238   1.231   2.400   1.561
 6780SOL    HW121239   1.302   2.393   1.632
 6780SOL    HW221240   1.273   2.401   1.471
 6781SOL     OW21241   5.651   4.571   5.298
 6781SOL    HW121242   5.680   4.637   5.367
 6781SOL    HW221243   5.591   4.503   5.341
 6782SOL     OW21244   6.290   1.838   3.565
 6782SOL    HW121245   6.340   1.815   3.648
 6782SOL    HW221246   6.336   1.914   3.518
 6783SOL     OW21247   1.031   5.474   6.868
 6783SOL    HW121248   1.021   5.573   6.878
 6783SOL    HW221249   1.038   5.452   6.771
 6784SOL     OW21250   4.124   3.547   0.266
 6784SOL    HW121251   4.109   3.461   0.314
 6784SOL    HW221252   4.037   3.593   0.252
 6785SOL     OW21253   5.317   6.276   1.720
 6785SOL    HW121254   5.247   6.337   1.759
 6785SOL    HW221255   5.273   6.198   1.676
 6786SOL     OW21256   1.696   3.317   5.176
 6786SOL    HW121257   1.729   3.225   5.156
 6786SOL    HW221258   1.769   3.371   5.217
 6787SOL     OW21259   0.787   4.252   2.477
 6787SOL    HW121260   0.763   4.206   2.392
 6787SOL    HW221261   0.770   4.190   2.554
 6788SOL     OW21262   2.906   3.881   1.121
 6788SOL    HW121263   2.902   3.795   1.171
 6788SOL    HW221264   2.814   3.916   1.107
 6789SOL     OW21265   2.002   4.777   3.195
 6789SOL    HW121266   2.025   4.859   3.142
 6789SOL    HW221267   1.999   4.800   3.293
 6790SOL     OW21268   1.182   3.303   0.925
 6790SOL    HW121269   1.120   3.228   0.901
 6790SOL    HW221270   1.179   3.319   1.023
 6791SOL     OW21271   3.606   3.817   5.818
 6791SOL    HW121272   3.514   3.857   5.809
 6791SOL    HW221273   3.621   3.789   5.912
 6792SOL     OW21274   0.625   5.204   0.556
 6792SOL    HW121275   0.535   5.242   0.533
 6792SOL    HW221276   0.625   5.106   0.537
 6793SOL     OW21277   6.210   1.083   0.634
 6793SOL    HW121278   6.250   1.025   0.563
 6793SOL    HW221279   6.132   1.036   0.676
 6794SOL     OW21280   3.075   1.656   5.075
 6794SOL    HW121281   2.994   1.679   5.128
 6794SOL    HW221282   3.069   1.698   4.985
 6795SOL     OW21283   4.018   5.805   0.024
 6795SOL    HW121284   4.082   5.881   0.013
 6795SOL    HW221285   4.003   5.761   6.954
 6796SOL     OW21286   4.033   2.016   2.209
 6796SOL    HW121287   4.044   2.086   2.279
 6796SOL    HW221288   4.043   2.056   2.118
 6797SOL     OW21289   6.627   2.508   2.843
 6797SOL    HW121290   6.651   2.595   2.887
 6797SOL    HW221291   6.704   2.478   2.786
 6798SOL     OW21292   6.610   0.012   2.216
 6798SOL    HW121293   6.682   6.998   2.155
 6798SOL    HW221294   6.520   7.013   2.174
 6799SOL     OW21295   4.944   5.658   2.227
 6799SOL    HW121296   4.918   5.591   2.297
 6799SOL    HW221297   4.962   5.746   2.272
 6800SOL     OW21298   3.692   3.676   6.433
 6800SOL    HW121299   3.642   3.634   6.357
 6800SOL    HW221300   3.648   3.762   6.459
 6801SOL     OW21301   0.246   2.785   3.126
 6801SOL    HW121302   0.176   2.788   3.198
 6801SOL    HW221303   0.303   2.867   3.131
 6802SOL     OW21304   3.248   4.917   2.494
 6802SOL    HW121305   3.155   4.886   2.516
 6802SOL    HW221306   3.243   5.005   2.447
 6803SOL     OW21307   4.324   2.434   0.183
 6803SOL    HW121308   4.295   2.524   0.216
 6803SOL    HW221309   4.259   2.365   0.214
 6804SOL     OW21310   1.502   5.851   3.459
 6804SOL    HW121311   1.540   5.930   3.507
 6804SOL    HW221312   1.577   5.792   3.428
 6805SOL     OW21313   6.320   1.887   5.479
 6805SOL    HW121314   6.291   1.902   5.385
 6805SOL    HW221315   6.371   1.967   5.512
 6806SOL     OW21316   5.090   5.446   5.246
 6806SOL    HW121317   5.038   5.396   5.177
 6806SOL    HW221318   5.046   5.436   5.335
 6807SOL     OW21319   4.245   3.475   6.948
 6807SOL    HW121320   4.149   3.474   6.974
 6807SOL    HW221321   4.290   3.554   6.991
 6808SOL     OW21322   2.611   4.650   3.938
 6808SOL    HW121323   2.534   4.692   3.890
 6808SOL    HW221324   2.597   4.660   4.037
 6809SOL     OW21325   1.310   3.628   6.801
 6809SOL    HW121326   1.319   3.727   6.790
 6809SOL    HW221327   1.221   3.607   6.841
 6810SOL     OW21328   5.893   1.611   3.321
 6810SOL    HW121329   5.862   1.677   3.253
 6810SOL    HW221330   5.971   1.650   3.372
 6811SOL     OW21331   5.251   6.247   2.578
 6811SOL    HW121332   5.294   6.159   2.596
 6811SOL    HW221333   5.300   6.319   2.628
 6812SOL     OW21334   3.845   3.009   2.867
 6812SOL    HW121335   3.897   2.992   2.783
 6812SOL    HW221336   3.900   2.981   2.946
 6813SOL     OW21337   5.503   3.662   1.008
 6813SOL    HW121338   5.487   3.621   0.918
 6813SOL    HW221339   5.434   3.628   1.072
 6814SOL     OW21340   2.476   2.590   0.577
 6814SOL    HW121341   2.397   2.645   0.605
 6814SOL    HW221342   2.454   2.540   0.494
 6815SOL     OW21343   1.454   6.717   0.330
 6815SOL    HW121344   1.360   6.706   0.296
 6815SOL    HW221345   1.455   6.785   0.403
 6816SOL     OW21346   5.125   4.424   1.168
 6816SOL    HW121347   5.214   4.400   1.130
 6816SOL    HW221348   5.074   4.341   1.189
 6817SOL     OW21349   1.816   1.980   5.951
 6817SOL    HW121350   1.846   2.075   5.958
 6817SOL    HW221351   1.892   1.919   5.973
 6818SOL     OW21352   4.406   5.252   0.974
 6818SOL    HW121353   4.359   5.290   1.054
 6818SOL    HW221354   4.385   5.155   0.967
 6819SOL     OW21355   2.889   1.406   4.156
 6819SOL    HW121356   2.807   1.401   4.213
 6819SOL    HW221357   2.893   1.324   4.097
 6820SOL     OW21358   1.689   5.055   4.584
 6820SOL    HW121359   1.664   4.971   4.537
 6820SOL    HW221360   1.648   5.055   4.676
 6821SOL     OW21361   2.241   2.292   4.348
 6821SOL    HW121362   2.243   2.365   4.416
 6821SOL    HW221363   2.327   2.240   4.353
 6822SOL     OW21364   5.681   1.178   5.562
 6822SOL    HW121365   5.653   1.252   5.502
 6822SOL    HW221366   5.617   1.171   5.639
 6823SOL     OW21367   4.126   3.161   2.080
 6823SOL    HW121368   4.082   3.168   2.170
 6823SOL    HW221369   4.225   3.165   2.092
 6824SOL     OW21370   0.709   5.374   4.815
 6824SOL    HW121371   0.634   5.309   4.807
 6824SOL    HW221372   0.709   5.414   4.906
 6825SOL     OW21373   5.891   0.549   4.462
 6825SOL    HW121374   5.910   0.533   4.559
 6825SOL    HW221375   5.962   0.607   4.423
 6826SOL     OW21376   1.091   2.792   3.542
 6826SOL    HW121377   1.025   2.725   3.576
 6826SOL    HW221378   1.184   2.755   3.553
 6827SOL     OW21379   4.197   5.518   5.067
 6827SOL    HW121380   4.155   5.569   5.142
 6827SOL    HW221381   4.126   5.489   5.003
 6828SOL     OW21382   2.273   2.343   0.777
 6828SOL    HW121383   2.210   2.419   0.757
 6828SOL    HW221384   2.358   2.379   0.816
 6829SOL     OW21385   5.846   4.879   3.878
 6829SOL    HW121386   5.763   4.883   3.823
 6829SOL    HW221387   5.834   4.815   3.953
 6830SOL     OW21388   4.955   1.507   3.515
 6830SOL    HW121389   5.055   1.499   3.520
 6830SOL    HW221390   4.917   1.506   3.607
 6831SOL     OW21391   0.495   1.938   6.266
 6831SOL    HW121392   0.584   1.964   6.302
 6831SOL    HW221393   0.443   1.888   6.336
 6832SOL     OW21394   2.352   4.964   1.753
 6832SOL    HW121395   2.445   4.941   1.723
 6832SOL    HW221396   2.335   4.921   1.842
 6833SOL     OW21397   4.413   6.063   6.626
 6833SOL    HW121398   4.469   6.055   6.544
 6833SOL    HW221399   4.319   6.035   6.606
 6834SOL     OW21400   2.741   4.699   2.602
 6834SOL    HW121401   2.685   4.781   2.592
 6834SOL    HW221402   2.751   4.654   2.513
 6835SOL     OW21403   3.566   6.499   4.194
 6835SOL    HW121404   3.565   6.517   4.095
 6835SOL    HW221405   3.631   6.560   4.238
 6836SOL     OW21406   3.812   5.671   0.189
 6836SOL    HW121407   3.894   5.724   0.166
 6836SOL    HW221408   3.795   5.680   0.287
 6837SOL     OW21409   0.443   3.391   2.876
 6837SOL    HW121410   0.440   3.292   2.892
 6837SOL    HW221411   0.500   3.410   2.796
 6838SOL     OW21412   2.790   2.284   0.417
 6838SOL    HW121413   2.770   2.315   0.324
 6838SOL    HW221414   2.740   2.341   0.483
 6839SOL     OW21415   3.600   1.124   1.989
 6839SOL    HW121416   3.641   1.113   1.898
 6839SOL    HW221417   3.635   1.208   2.031
 6840SOL     OW21418   0.595   0.673   5.744
 6840SOL    HW121419   0.676   0.718   5.781
 6840SOL    HW221420   0.572   0.594   5.802
 6841SOL     OW21421   0.078   3.098   5.791
 6841SOL    HW121422   7.006   3.059   5.807
 6841SOL    HW221423   0.115   3.133   5.877
 6842SOL     OW21424   2.545   4.761   2.860
 6842SOL    HW121425   2.508   4.732   2.772
 6842SOL    HW221426   2.519   4.696   2.931
 6843SOL     OW21427   4.353   6.679   1.440
 6843SOL    HW121428   4.265   6.635   1.424
 6843SOL    HW221429   4.400   6.691   1.353
 6844SOL     OW21430   5.634   0.356   5.515
 6844SOL    HW121431   5.682   0.296   5.451
 6844SOL    HW221432   5.696   0.383   5.589
 6845SOL     OW21433   5.657   2.362   2.786
 6845SOL    HW121434   5.596   2.441   2.788
 6845SOL    HW221435   5.695   2.352   2.694
 6846SOL     OW21436   1.701   3.171   0.194
 6846SOL    HW121437   1.778   3.190   0.255
 6846SOL    HW221438   1.718   3.212   0.105
 6847SOL     OW21439   6.860   2.260   3.855
 6847SOL    HW121440   6.807   2.194   3.802
 6847SOL    HW221441   6.895   2.330   3.794
 6848SOL     OW21442   6.540   4.746   4.125
 6848SOL    HW121443   6.510   4.805   4.201
 6848SOL    HW221444   6.461   4.721   4.070
 6849SOL     OW21445   2.993   4.224   5.540
 6849SOL    HW121446   2.987   4.124   5.532
 6849SOL    HW221447   2.933   4.267   5.472
 6850SOL     OW21448   5.384   0.783   4.444
 6850SOL    HW121449   5.339   0.768   4.533
 6850SOL    HW221450   5.452   0.711   4.430
 6851SOL     OW21451   1.969   4.193   3.611
 6851SOL    HW121452   1.902   4.124   3.586
 6851SOL    HW221453   2.015   4.166   3.696
 6852SOL     OW21454   4.574   2.997   0.699
 6852SOL    HW121455   4.594   2.901   0.678
 6852SOL    HW221456   4.658   3.051   0.695
 6853SOL     OW21457   4.420   5.520   5.629
 6853SOL    HW121458   4.346   5.582   5.652
 6853SOL    HW221459   4.409   5.435   5.681
 6854SOL     OW21460   5.255   6.101   5.480
 6854SOL    HW121461   5.300   6.131   5.564
 6854SOL    HW221462   5.158   6.082   5.499
 6855SOL     OW21463   3.800   5.553   2.576
 6855SOL    HW121464   3.796   5.507   2.487
 6855SOL    HW221465   3.772   5.649   2.565
 6856SOL     OW21466   6.527   2.716   0.999
 6856SOL    HW121467   6.553   2.620   1.008
 6856SOL    HW221468   6.561   2.767   1.079
 6857SOL     OW21469   1.607   4.709   6.232
 6857SOL    HW121470   1.628   4.618   6.196
 6857SOL    HW221471   1.626   4.711   6.330
 6858SOL     OW21472   1.225   3.454   1.901
 6858SOL    HW121473   1.126   3.468   1.907
 6858SOL    HW221474   1.249   3.367   1.943
 6859SOL     OW21475   2.887   2.507   0.768
 6859SOL    HW121476   2.964   2.511   0.704
 6859SOL    HW221477   2.905   2.567   0.846
 6860SOL     OW21478   0.772   0.291   6.798
 6860SOL    HW121479   0.759   0.239   6.882
 6860SOL    HW221480   0.711   0.256   6.727
 6861SOL     OW21481   5.921   3.456   6.905
 6861SOL    HW121482   5.854   3.510   6.956
 6861SOL    HW221483   6.012   3.496   6.918
 6862SOL     OW21484   0.783   5.204   3.168
 6862SOL    HW121485   0.833   5.177   3.250
 6862SOL    HW221486   0.759   5.123   3.115
 6863SOL     OW21487   5.040   1.045   5.584
 6863SOL    HW121488   5.020   1.141   5.599
 6863SOL    HW221489   5.049   1.028   5.485
 6864SOL     OW21490   2.132   3.250   6.423
 6864SOL    HW121491   2.072   3.176   6.451
 6864SOL    HW221492   2.099   3.336   6.461
 6865SOL     OW21493   1.625   0.807   2.914
 6865SOL    HW121494   1.678   0.722   2.907
 6865SOL    HW221495   1.547   0.792   2.975
 6866SOL     OW21496   2.003   4.734   6.554
 6866SOL    HW121497   2.021   4.637   6.571
 6866SOL    HW221498   2.077   4.789   6.594
 6867SOL     OW21499   1.680   2.144   6.487
 6867SOL    HW121500   1.592   2.182   6.457
 6867SOL    HW221501   1.708   2.189   6.572
 6868SOL     OW21502   3.853   5.314   3.632
 6868SOL    HW121503   3.760   5.280   3.619
 6868SOL    HW221504   3.851   5.413   3.640
 6869SOL     OW21505   1.518   0.096   5.720
 6869SOL    HW121506   1.596   0.104   5.658
 6869SOL    HW221507   1.492   0.187   5.753
 6870SOL     OW21508   6.202   2.952   6.708
 6870SOL    HW121509   6.276   3.018   6.699
 6870SOL    HW221510   6.236   2.869   6.752
 6871SOL     OW21511   6.118   2.351   3.256
 6871SOL    HW121512   6.042   2.298   3.294
 6871SOL    HW221513   6.084   2.413   3.185
 6872SOL     OW21514   1.772   5.295   1.054
 6872SOL    HW121515   1.784   5.221   0.988
 6872SOL    HW221516   1.861   5.333   1.077
 6873SOL     OW21517   0.536   3.871   2.466
 6873SOL    HW121518   0.510   3.848   2.372
 6873SOL    HW221519   0.631   3.902   2.467
 6874SOL     OW21520   4.099   6.321   1.701
 6874SOL    HW121521   4.142   6.261   1.633
 6874SOL    HW221522   4.022   6.369   1.659
 6875SOL     OW21523   2.712   0.562   6.197
 6875SOL    HW121524   2.659   0.639   6.233
 6875SOL    HW221525   2.760   0.517   6.273
 6876SOL     OW21526   5.646   5.746   3.224
 6876SOL    HW121527   5.722   5.802   3.259
 6876SOL    HW221528   5.666   5.718   3.130
 6877SOL     OW21529   1.426   4.474   1.081
 6877SOL    HW121530   1.334   4.466   1.120
 6877SOL    HW221531   1.482   4.397   1.111
 6878SOL     OW21532   1.756   0.466   3.773
 6878SOL    HW121533   1.790   0.560   3.772
 6878SOL    HW221534   1.832   0.403   3.756
 6879SOL     OW21535   1.400   1.338   1.298
 6879SOL    HW121536   1.464   1.379   1.363
 6879SOL    HW221537   1.441   1.337   1.207
 6880SOL     OW21538   1.938   6.902   0.254
 6880SOL    HW121539   1.986   6.829   0.303
 6880SOL    HW221540   2.005   6.968   0.220
 6881SOL     OW21541   6.778   3.433   1.333
 6881SOL    HW121542   6.705   3.499   1.350
 6881SOL    HW221543   6.819   3.450   1.244
 6882SOL     OW21544   2.510   6.590   0.085
 6882SOL    HW121545   2.578   6.638   0.029
 6882SOL    HW221546   2.452   6.534   0.027
 6883SOL     OW21547   4.396   6.986   1.054
 6883SOL    HW121548   4.416   0.024   0.974
 6883SOL    HW221549   4.482   6.963   1.100
 6884SOL     OW21550   1.312   5.243   3.460
 6884SOL    HW121551   1.369   5.180   3.407
 6884SOL    HW221552   1.295   5.204   3.550
 6885SOL     OW21553   5.591   5.019   4.506
 6885SOL    HW121554   5.576   5.085   4.433
 6885SOL    HW221555   5.681   4.976   4.495
 6886SOL     OW21556   5.660   3.701   0.596
 6886SOL    HW121557   5.668   3.680   0.499
 6886SOL    HW221558   5.728   3.769   0.622
 6887SOL     OW21559   5.246   6.716   5.330
 6887SOL    HW121560   5.233   6.750   5.423
 6887SOL    HW221561   5.245   6.616   5.331
 6888SOL     OW21562   0.055   4.239   1.446
 6888SOL    HW121563   0.113   4.305   1.493
 6888SOL    HW221564   6.978   4.263   1.460
 6889SOL     OW21565   0.568   2.771   5.584
 6889SOL    HW121566   0.602   2.801   5.673
 6889SOL    HW221567   0.634   2.709   5.542
 6890SOL     OW21568   4.639   4.451   3.924
 6890SOL    HW121569   4.715   4.515   3.915
 6890SOL    HW221570   4.664   4.378   3.988
 6891SOL     OW21571   1.389   1.193   0.778
 6891SOL    HW121572   1.331   1.222   0.702
 6891SOL    HW221573   1.485   1.203   0.753
 6892SOL     OW21574   1.367   0.808   5.719
 6892SOL    HW121575   1.433   0.733   5.711
 6892SOL    HW221576   1.276   0.775   5.698
 6893SOL     OW21577   5.686   3.011   1.104
 6893SOL    HW121578   5.695   3.037   1.007
 6893SOL    HW221579   5.706   3.090   1.161
 6894SOL     OW21580   5.416   5.326   6.735
 6894SOL    HW121581   5.451   5.398   6.796
 6894SOL    HW221582   5.360   5.263   6.787
 6895SOL     OW21583   1.573   5.429   2.934
 6895SOL    HW121584   1.649   5.366   2.920
 6895SOL    HW221585   1.549   5.431   3.031
 6896SOL     OW21586   5.142   0.952   6.006
 6896SOL    HW121587   5.142   1.047   5.974
 6896SOL    HW221588   5.051   0.929   6.040
 6897SOL     OW21589   4.289   2.278   4.818
 6897SOL    HW121590   4.226   2.322   4.881
 6897SOL    HW221591   4.245   2.199   4.776
 6898SOL     OW21592   2.135   6.786   1.379
 6898SOL    HW121593   2.036   6.778   1.374
 6898SOL    HW221594   2.177   6.702   1.343
 6899SOL     OW21595   5.369   5.012   3.144
 6899SOL    HW121596   5.315   5.006   3.060
 6899SOL    HW221597   5.449   5.070   3.128
 6900SOL     OW21598   0.243   4.183   4.648
 6900SOL    HW121599   0.236   4.269   4.699
 6900SOL    HW221600   0.288   4.199   4.560
 6901SOL     OW21601   5.150   3.942   6.708
 6901SOL    HW121602   5.230   3.911   6.757
 6901SOL    HW221603   5.177   3.982   6.620
 6902SOL     OW21604   0.282   5.927   5.591
 6902SOL    HW121605   0.374   5.963   5.606
 6902SOL    HW221606   0.265   5.852   5.655
 6903SOL     OW21607   1.097   6.672   5.241
 6903SOL    HW121608   1.052   6.596   5.288
 6903SOL    HW221609   1.056   6.683   5.150
 6904SOL     OW21610   0.600   0.195   6.177
 6904SOL    HW121611   0.659   0.271   6.205
 6904SOL    HW221612   0.626   0.164   6.086
 6905SOL     OW21613   4.850   6.159   4.971
 6905SOL    HW121614   4.760   6.116   4.982
 6905SOL    HW221615   4.921   6.088   4.972
 6906SOL     OW21616   2.748   1.979   3.299
 6906SOL    HW121617   2.771   2.068   3.339
 6906SOL    HW221618   2.715   1.918   3.370
 6907SOL     OW21619   5.541   3.064   0.539
 6907SOL    HW121620   5.442   3.075   0.527
 6907SOL    HW221621   5.560   3.035   0.633
 6908SOL     OW21622   3.478   5.353   0.838
 6908SOL    HW121623   3.558   5.407   0.865
 6908SOL    HW221624   3.408   5.413   0.799
 6909SOL     OW21625   5.365   4.864   2.789
 6909SOL    HW121626   5.304   4.927   2.837
 6909SOL    HW221627   5.444   4.844   2.847
 6910SOL     OW21628   1.616   2.406   2.092
 6910SOL    HW121629   1.691   2.374   2.034
 6910SOL    HW221630   1.646   2.483   2.148
 6911SOL     OW21631   2.378   6.673   5.292
 6911SOL    HW121632   2.425   6.620   5.222
 6911SOL    HW221633   2.293   6.627   5.317
 6912SOL     OW21634   2.183   4.293   6.400
 6912SOL    HW121635   2.198   4.388   6.375
 6912SOL    HW221636   2.263   4.239   6.374
 6913SOL     OW21637   4.753   5.811   6.027
 6913SOL    HW121638   4.745   5.908   6.003
 6913SOL    HW221639   4.693   5.791   6.105
 6914SOL     OW21640   1.042   2.063   2.105
 6914SOL    HW121641   1.053   2.071   2.204
 6914SOL    HW221642   0.993   2.143   2.070
 6915SOL     OW21643   6.308   3.433   4.165
 6915SOL    HW121644   6.221   3.390   4.189
 6915SOL    HW221645   6.292   3.501   4.093
 6916SOL     OW21646   4.517   5.859   5.458
 6916SOL    HW121647   4.532   5.861   5.557
 6916SOL    HW221648   4.574   5.928   5.414
 6917SOL     OW21649   3.760   5.743   1.811
 6917SOL    HW121650   3.750   5.715   1.907
 6917SOL    HW221651   3.732   5.838   1.801
 6918SOL     OW21652   1.745   3.618   6.997
 6918SOL    HW121653   1.715   3.666   6.914
 6918SOL    HW221654   1.844   3.604   6.993
 6919SOL     OW21655   6.385   5.949   3.576
 6919SOL    HW121656   6.403   5.987   3.666
 6919SOL    HW221657   6.424   6.010   3.506
 6920SOL     OW21658   0.584   3.115   5.465
 6920SOL    HW121659   0.610   3.211   5.475
 6920SOL    HW221660   0.484   3.107   5.460
 6921SOL     OW21661   3.437   0.698   5.560
 6921SOL    HW121662   3.405   0.605   5.580
 6921SOL    HW221663   3.532   0.707   5.591
 6922SOL     OW21664   3.035   4.364   6.636
 6922SOL    HW121665   2.974   4.432   6.677
 6922SOL    HW221666   3.053   4.388   6.541
 6923SOL     OW21667   5.121   6.895   3.096
 6923SOL    HW121668   5.127   6.919   2.999
 6923SOL    HW221669   5.063   6.814   3.107
 6924SOL     OW21670   2.638   5.330   1.477
 6924SOL    HW121671   2.718   5.277   1.505
 6924SOL    HW221672   2.668   5.418   1.441
 6925SOL     OW21673   6.441   6.935   4.632
 6925SOL    HW121674   6.518   6.964   4.690
 6925SOL    HW221675   6.375   7.010   4.625
 6926SOL     OW21676   2.770   2.631   0.250
 6926SOL    HW121677   2.817   2.547   0.223
 6926SOL    HW221678   2.740   2.681   0.169
 6927SOL     OW21679   3.125   6.502   5.671
 6927SOL    HW121680   3.225   6.499   5.670
 6927SOL    HW221681   3.094   6.563   5.744
 6928SOL     OW21682   4.118   5.528   0.814
 6928SOL    HW121683   4.214   5.555   0.815
 6928SOL    HW221684   4.076   5.553   0.901
 6929SOL     OW21685   4.794   6.139   3.473
 6929SOL    HW121686   4.757   6.219   3.521
 6929SOL    HW221687   4.870   6.168   3.415
 6930SOL     OW21688   0.505   6.505   2.357
 6930SOL    HW121689   0.574   6.569   2.323
 6930SOL    HW221690   0.545   6.447   2.428
 6931SOL     OW21691   4.200   2.778   0.085
 6931SOL    HW121692   4.144   2.858   0.106
 6931SOL    HW221693   4.231   2.736   0.170
 6932SOL     OW21694   3.746   0.907   0.035
 6932SOL    HW121695   3.800   0.885   0.117
 6932SOL    HW221696   3.706   0.824   7.016
 6933SOL     OW21697   3.857   6.189   6.051
 6933SOL    HW121698   3.807   6.143   5.978
 6933SOL    HW221699   3.814   6.277   6.070
 6934SOL     OW21700   4.601   5.580   7.002
 6934SOL    HW121701   4.526   5.568   6.936
 6934SOL    HW221702   4.664   5.503   6.996
 6935SOL     OW21703   4.318   5.273   2.363
 6935SOL    HW121704   4.374   5.355   2.354
 6935SOL    HW221705   4.264   5.279   2.447
 6936SOL     OW21706   1.006   1.519   0.071
 6936SOL    HW121707   1.045   1.538   6.999
 6936SOL    HW221708   0.911   1.549   0.073
 6937SOL     OW21709   6.555   4.167   6.899
 6937SOL    HW121710   6.539   4.068   6.899
 6937SOL    HW221711   6.467   4.214   6.893
 6938SOL     OW21712   2.787   6.871   5.414
 6938SOL    HW121713   2.759   6.844   5.321
 6938SOL    HW221714   2.711   6.916   5.460
 6939SOL     OW21715   6.246   2.993   2.964
 6939SOL    HW121716   6.282   2.908   2.923
 6939SOL    HW221717   6.240   2.982   3.063
 6940SOL     OW21718   0.919   6.314   1.304
 6940SOL    HW121719   0.960   6.385   1.361
 6940SOL    HW221720   0.975   6.301   1.222
 6941SOL     OW21721   4.034   3.190   2.338
 6941SOL    HW121722   4.063   3.212   2.431
 6941SOL    HW221723   3.975   3.109   2.339
 6942SOL     OW21724   0.236   5.451   2.718
 6942SOL    HW121725   0.236   5.395   2.801
 6942SOL    HW221726   0.301   5.526   2.729
 6943SOL     OW21727   3.149   5.347   5.241
 6943SOL    HW121728   3.225   5.293   5.207
 6943SOL    HW221729   3.154   5.351   5.341
 6944SOL     OW21730   0.718   5.273   5.677
 6944SOL    HW121731   0.664   5.357   5.673
 6944SOL    HW221732   0.815   5.295   5.666
 6945SOL     OW21733   3.935   1.713   0.923
 6945SOL    HW121734   3.961   1.618   0.941
 6945SOL    HW221735   4.006   1.774   0.957
 6946SOL     OW21736   5.927   5.147   3.880
 6946SOL    HW121737   5.902   5.051   3.881
 6946SOL    HW221738   5.863   5.198   3.824
 6947SOL     OW21739   6.489   3.622   5.432
 6947SOL    HW121740   6.572   3.646   5.382
 6947SOL    HW221741   6.489   3.524   5.453
 6948SOL     OW21742   0.281   5.326   6.390
 6948SOL    HW121743   0.261   5.423   6.405
 6948SOL    HW221744   0.355   5.316   6.323
 6949SOL     OW21745   1.904   1.652   3.293
 6949SOL    HW121746   1.963   1.613   3.363
 6949SOL    HW221747   1.915   1.601   3.208
 6950SOL     OW21748   1.562   1.168   4.444
 6950SOL    HW121749   1.508   1.185   4.361
 6950SOL    HW221750   1.588   1.071   4.448
 6951SOL     OW21751   1.227   3.312   0.084
 6951SOL    HW121752   1.164   3.337   0.158
 6951SOL    HW221753   1.226   3.212   0.073
 6952SOL     OW21754   4.202   5.052   3.602
 6952SOL    HW121755   4.149   4.988   3.659
 6952SOL    HW221756   4.140   5.112   3.553
 6953SOL     OW21757   0.810   0.595   1.782
 6953SOL    HW121758   0.900   0.552   1.775
 6953SOL    HW221759   0.801   0.641   1.870
 6954SOL     OW21760   6.396   5.242   6.057
 6954SOL    HW121761   6.446   5.282   5.980
 6954SOL    HW221762   6.326   5.180   6.022
 6955SOL     OW21763   3.550   5.360   2.877
 6955SOL    HW121764   3.585   5.394   2.964
 6955SOL    HW221765   3.627   5.343   2.815
 6956SOL     OW21766   6.448   4.532   2.835
 6956SOL    HW121767   6.525   4.525   2.899
 6956SOL    HW221768   6.376   4.468   2.862
 6957SOL     OW21769   5.522   3.925   5.403
 6957SOL    HW121770   5.599   3.958   5.348
 6957SOL    HW221771   5.520   3.974   5.490
 6958SOL     OW21772   3.457   3.833   1.529
 6958SOL    HW121773   3.420   3.747   1.495
 6958SOL    HW221774   3.528   3.814   1.597
 6959SOL     OW21775   0.452   3.030   3.182
 6959SOL    HW121776   0.435   3.117   3.227
 6959SOL    HW221777   0.546   3.029   3.147
 6960SOL     OW21778   5.127   4.663   1.007
 6960SOL    HW121779   5.105   4.583   1.063
 6960SOL    HW221780   5.216   4.649   0.963
 6961SOL     OW21781   4.776   2.756   4.207
 6961SOL    HW121782   4.851   2.727   4.266
 6961SOL    HW221783   4.690   2.717   4.241
 6962SOL     OW21784   2.505   6.852   0.728
 6962SOL    HW121785   2.427   6.846   0.666
 6962SOL    HW221786   2.497   6.782   0.799
 6963SOL     OW21787   1.137   6.952   6.968
 6963SOL    HW121788   1.178   6.994   0.031
 6963SOL    HW221789   1.111   0.006   6.904
 6964SOL     OW21790   2.144   1.425   5.873
 6964SOL    HW121791   2.081   1.354   5.842
 6964SOL    HW221792   2.237   1.387   5.877
 6965SOL     OW21793   1.346   1.205   0.087
 6965SOL    HW121794   1.271   1.255   0.131
 6965SOL    HW221795   1.433   1.232   0.130
 6966SOL     OW21796   1.322   6.398   0.945
 6966SOL    HW121797   1.300   6.382   0.849
 6966SOL    HW221798   1.383   6.477   0.952
 6967SOL     OW21799   3.759   0.039   6.570
 6967SOL    HW121800   3.822   0.096   6.517
 6967SOL    HW221801   3.676   0.091   6.591
 6968SOL     OW21802   4.581   0.490   2.527
 6968SOL    HW121803   4.665   0.435   2.526
 6968SOL    HW221804   4.534   0.477   2.614
 6969SOL     OW21805   1.473   3.167   2.671
 6969SOL    HW121806   1.439   3.076   2.646
 6969SOL    HW221807   1.517   3.163   2.761
 6970SOL     OW21808   3.612   5.625   5.973
 6970SOL    HW121809   3.709   5.638   5.952
 6970SOL    HW221810   3.566   5.586   5.893
 6971SOL     OW21811   0.257   3.996   0.313
 6971SOL    HW121812   0.350   3.984   0.277
 6971SOL    HW221813   0.233   3.919   0.371
 6972SOL     OW21814   5.951   3.693   1.096
 6972SOL    HW121815   5.973   3.707   0.999
 6972SOL    HW221816   5.983   3.771   1.149
 6973SOL     OW21817   1.103   0.858   3.012
 6973SOL    HW121818   1.122   0.889   2.919
 6973SOL    HW221819   1.006   0.833   3.019
 6974SOL     OW21820   3.751   4.068   3.236
 6974SOL    HW121821   3.794   4.037   3.321
 6974SOL    HW221822   3.797   4.024   3.158
 6975SOL     OW21823   3.403   5.180   5.191
 6975SOL    HW121824   3.433   5.137   5.106
 6975SOL    HW221825   3.355   5.112   5.248
 6976SOL     OW21826   5.143   4.917   5.939
 6976SOL    HW121827   5.214   4.876   5.996
 6976SOL    HW221828   5.064   4.856   5.935
 6977SOL     OW21829   4.053   4.855   2.463
 6977SOL    HW121830   4.126   4.922   2.448
 6977SOL    HW221831   4.011   4.831   2.375
 6978SOL     OW21832   0.322   3.461   1.573
 6978SOL    HW121833   0.346   3.426   1.482
 6978SOL    HW221834   0.251   3.404   1.614
 6979SOL     OW21835   0.794   3.977   2.665
 6979SOL    HW121836   0.864   3.948   2.600
 6979SOL    HW221837   0.827   3.962   2.759
 6980SOL     OW21838   2.693   4.690   3.137
 6980SOL    HW121839   2.757   4.731   3.072
 6980SOL    HW221840   2.638   4.622   3.089
 6981SOL     OW21841   4.222   2.567   6.853
 6981SOL    HW121842   4.205   2.599   6.946
 6981SOL    HW221843   4.260   2.474   6.856
 6982SOL     OW21844   6.865   6.347   1.980
 6982SOL    HW121845   6.864   6.411   2.057
 6982SOL    HW221846   6.773   6.310   1.965
 6983SOL     OW21847   6.812   0.858   4.046
 6983SOL    HW121848   6.741   0.908   4.094
 6983SOL    HW221849   6.868   0.807   4.112
 6984SOL     OW21850   1.435   4.359   3.539
 6984SOL    HW121851   1.524   4.380   3.499
 6984SOL    HW221852   1.434   4.263   3.570
 6985SOL     OW21853   5.074   3.210   0.955
 6985SOL    HW121854   5.037   3.202   1.048
 6985SOL    HW221855   5.032   3.141   0.897
 6986SOL     OW21856   4.631   6.010   4.959
 6986SOL    HW121857   4.532   6.004   4.963
 6986SOL    HW221858   4.662   5.978   4.869
 6987SOL     OW21859   0.162   1.556   6.832
 6987SOL    HW121860   0.154   1.594   6.924
 6987SOL    HW221861   0.088   1.592   6.775
 6988SOL     OW21862   1.440   0.542   6.223
 6988SOL    HW121863   1.507   0.614   6.210
 6988SOL    HW221864   1.455   0.469   6.156
 6989SOL     OW21865   0.525   3.215   2.431
 6989SOL    HW121866   0.601   3.211   2.366
 6989SOL    HW221867   0.490   3.123   2.447
 6990SOL     OW21868   3.519   5.298   6.929
 6990SOL    HW121869   3.556   5.299   0.003
 6990SOL    HW221870   3.448   5.228   6.923
 6991SOL     OW21871   5.134   3.960   3.645
 6991SOL    HW121872   5.121   4.059   3.636
 6991SOL    HW221873   5.046   3.914   3.641
 6992SOL     OW21874   1.483   5.166   6.031
 6992SOL    HW121875   1.541   5.175   5.950
 6992SOL    HW221876   1.531   5.111   6.100
 6993SOL     OW21877   4.053   2.087   1.945
 6993SOL    HW121878   4.091   2.000   1.912
 6993SOL    HW221879   4.123   2.158   1.941
 6994SOL     OW21880   2.831   0.871   3.198
 6994SOL    HW121881   2.831   0.958   3.150
 6994SOL    HW221882   2.744   0.859   3.246
 6995SOL     OW21883   6.878   5.230   0.709
 6995SOL    HW121884   6.907   5.175   0.787
 6995SOL    HW221885   6.875   5.174   0.627
 6996SOL     OW21886   1.240   1.315   6.483
 6996SOL    HW121887   1.295   1.309   6.399
 6996SOL    HW221888   1.174   1.240   6.485
 6997SOL     OW21889   6.237   6.168   6.207
 6997SOL    HW121890   6.306   6.180   6.278
 6997SOL    HW221891   6.274   6.198   6.119
 6998SOL     OW21892   0.317   1.224   6.580
 6998SOL    HW121893   0.244   1.237   6.647
 6998SOL    HW221894   0.328   1.127   6.561
 6999SOL     OW21895   0.530   2.700   0.023
 6999SOL    HW121896   0.507   2.715   6.945
 6999SOL    HW221897   0.630   2.702   0.034
 7000SOL     OW21898   0.591   5.125   2.830
 7000SOL    HW121899   0.690   5.133   2.848
 7000SOL    HW221900   0.575   5.130   2.731
 7001SOL     OW21901   1.102   1.089   4.053
 7001SOL    HW121902   1.160   1.051   4.125
 7001SOL    HW221903   1.153   1.160   4.003
 7002SOL     OW21904   1.544   4.867   3.107
 7002SOL    HW121905   1.534   4.929   3.029
 7002SOL    HW221906   1.640   4.838   3.114
 7003SOL     OW21907   0.461   5.344   6.158
 7003SOL    HW121908   0.434   5.346   6.062
 7003SOL    HW221909   0.478   5.437   6.190
 7004SOL     OW21910   1.107   0.708   6.742
 7004SOL    HW121911   1.012   0.679   6.757
 7004SOL    HW221912   1.162   0.684   6.822
 7005SOL     OW21913   1.418   5.076   0.261
 7005SOL    HW121914   1.502   5.056   0.212
 7005SOL    HW221915   1.348   5.009   0.238
 7006SOL     OW21916   1.140   0.385   3.712
 7006SOL    HW121917   1.043   0.403   3.692
 7006SOL    HW221918   1.178   0.329   3.638
 7007SOL     OW21919   1.858   6.346   6.408
 7007SOL    HW121920   1.955   6.338   6.385
 7007SOL    HW221921   1.824   6.257   6.439
 7008SOL     OW21922   6.208   2.901   2.589
 7008SOL    HW121923   6.299   2.908   2.630
 7008SOL    HW221924   6.153   2.980   2.616
 7009SOL     OW21925   5.456   5.126   2.186
 7009SOL    HW121926   5.408   5.074   2.116
 7009SOL    HW221927   5.523   5.068   2.231
 7010SOL     OW21928   5.251   2.481   3.021
 7010SOL    HW121929   5.330   2.501   3.078
 7010SOL    HW221930   5.239   2.553   2.953
 7011SOL     OW21931   1.785   5.416   6.593
 7011SOL    HW121932   1.803   5.346   6.524
 7011SOL    HW221933   1.764   5.503   6.548
 7012SOL     OW21934   0.555   3.875   0.192
 7012SOL    HW121935   0.584   3.781   0.177
 7012SOL    HW221936   0.547   3.893   0.290
 7013SOL     OW21937   2.673   2.818   0.038
 7013SOL    HW121938   2.574   2.825   0.048
 7013SOL    HW221939   2.703   2.879   6.983
 7014SOL     OW21940   6.996   3.814   0.959
 7014SOL    HW121941   6.966   3.748   1.028
 7014SOL    HW221942   6.916   3.850   0.911
 7015SOL     OW21943   5.946   6.369   1.464
 7015SOL    HW121944   5.994   6.330   1.543
 7015SOL    HW221945   5.909   6.459   1.489
 7016SOL     OW21946   2.641   5.119   0.885
 7016SOL    HW121947   2.641   5.093   0.788
 7016SOL    HW221948   2.699   5.056   0.936
 7017SOL     OW21949   5.929   3.973   6.652
 7017SOL    HW121950   5.960   3.970   6.747
 7017SOL    HW221951   5.922   4.068   6.622
 7018SOL     OW21952   6.036   2.728   3.998
 7018SOL    HW121953   6.073   2.651   4.049
 7018SOL    HW221954   6.105   2.799   3.989
 7019SOL     OW21955   3.224   6.529   2.538
 7019SOL    HW121956   3.287   6.459   2.572
 7019SOL    HW221957   3.275   6.598   2.487
 7020SOL     OW21958   6.689   1.714   0.940
 7020SOL    HW121959   6.729   1.770   1.013
 7020SOL    HW221960   6.590   1.731   0.936
 7021SOL     OW21961   0.632   2.137   4.724
 7021SOL    HW121962   0.562   2.126   4.653
 7021SOL    HW221963   0.652   2.234   4.737
 7022SOL     OW21964   2.131   4.043   1.405
 7022SOL    HW121965   2.060   4.110   1.384
 7022SOL    HW221966   2.220   4.078   1.374
 7023SOL     OW21967   6.952   1.986   1.005
 7023SOL    HW121968   6.880   2.027   0.948
 7023SOL    HW221969   6.982   2.052   1.074
 7024SOL     OW21970   3.443   4.227   5.266
 7024SOL    HW121971   3.433   4.203   5.169
 7024SOL    HW221972   3.538   4.214   5.294
 7025SOL     OW21973   3.376   0.932   1.135
 7025SOL    HW121974   3.428   0.934   1.220
 7025SOL    HW221975   3.306   0.861   1.140
 7026SOL     OW21976   2.951   2.462   1.326
 7026SOL    HW121977   2.975   2.382   1.381
 7026SOL    HW221978   2.878   2.513   1.372
 7027SOL     OW21979   2.706   4.194   0.441
 7027SOL    HW121980   2.626   4.150   0.480
 7027SOL    HW221981   2.715   4.168   0.345
 7028SOL     OW21982   3.199   0.655   2.078
 7028SOL    HW121983   3.199   0.600   2.162
 7028SOL    HW221984   3.107   0.688   2.060
 7029SOL     OW21985   3.265   3.885   3.115
 7029SOL    HW121986   3.245   3.810   3.177
 7029SOL    HW221987   3.340   3.940   3.152
 7030SOL     OW21988   5.716   0.212   4.625
 7030SOL    HW121989   5.676   0.203   4.534
 7030SOL    HW221990   5.764   0.128   4.649
 7031SOL     OW21991   5.647   4.835   0.455
 7031SOL    HW121992   5.581   4.760   0.459
 7031SOL    HW221993   5.725   4.807   0.399
 7032SOL     OW21994   3.849   4.844   3.969
 7032SOL    HW121995   3.840   4.838   3.869
 7032SOL    HW221996   3.758   4.848   4.010
 7033SOL     OW21997   2.180   1.823   5.286
 7033SOL    HW121998   2.127   1.819   5.371
 7033SOL    HW221999   2.137   1.765   5.217
 7034SOL     OW22000   6.293   2.630   2.433
 7034SOL    HW122001   6.249   2.644   2.345
 7034SOL    HW222002   6.242   2.562   2.486
 7035SOL     OW22003   4.012   2.663   1.162
 7035SOL    HW122004   4.028   2.760   1.181
 7035SOL    HW222005   4.058   2.608   1.232
 7036SOL     OW22006   6.777   1.734   1.816
 7036SOL    HW122007   6.859   1.766   1.863
 7036SOL    HW222008   6.696   1.765   1.865
 7037SOL     OW22009   0.614   1.520   5.386
 7037SOL    HW122010   0.632   1.473   5.473
 7037SOL    HW222011   0.683   1.494   5.319
 7038SOL     OW22012   1.171   4.158   0.157
 7038SOL    HW122013   1.121   4.077   0.188
 7038SOL    HW222014   1.110   4.236   0.152
 7039SOL     OW22015   6.481   0.264   1.752
 7039SOL    HW122016   6.568   0.214   1.750
 7039SOL    HW222017   6.461   0.292   1.846
 7040SOL     OW22018   4.911   3.154   4.879
 7040SOL    HW122019   4.866   3.077   4.835
 7040SOL    HW222020   5.008   3.135   4.890
 7041SOL     OW22021   1.068   0.066   2.654
 7041SOL    HW122022   0.986   0.035   2.606
 7041SOL    HW222023   1.043   0.104   2.743
 7042SOL     OW22024   4.910   5.113   5.159
 7042SOL    HW122025   4.871   5.059   5.084
 7042SOL    HW222026   4.923   5.054   5.239
 7043SOL     OW22027   2.337   5.915   0.276
 7043SOL    HW122028   2.368   6.001   0.316
 7043SOL    HW222029   2.384   5.838   0.320
 7044SOL     OW22030   4.597   6.576   5.289
 7044SOL    HW122031   4.695   6.581   5.273
 7044SOL    HW222032   4.564   6.664   5.325
 7045SOL     OW22033   5.371   0.568   1.603
 7045SOL    HW122034   5.301   0.627   1.563
 7045SOL    HW222035   5.375   0.584   1.702
 7046SOL     OW22036   3.053   1.123   2.541
 7046SOL    HW122037   3.001   1.134   2.625
 7046SOL    HW222038   3.001   1.067   2.477
 7047SOL     OW22039   1.360   6.936   1.202
 7047SOL    HW122040   1.393   6.842   1.213
 7047SOL    HW222041   1.268   6.935   1.163
 7048SOL     OW22042   0.555   5.640   4.547
 7048SOL    HW122043   0.573   5.738   4.541
 7048SOL    HW222044   0.617   5.591   4.486
 7049SOL     OW22045   2.195   1.422   5.181
 7049SOL    HW122046   2.214   1.382   5.271
 7049SOL    HW222047   2.131   1.499   5.191
 7050SOL     OW22048   4.253   4.832   0.247
 7050SOL    HW122049   4.153   4.830   0.248
 7050SOL    HW222050   4.287   4.825   0.341
 7051SOL     OW22051   2.171   0.819   2.040
 7051SOL    HW122052   2.077   0.831   2.010
 7051SOL    HW222053   2.198   0.723   2.027
 7052SOL     OW22054   5.397   2.073   2.486
 7052SOL    HW122055   5.496   2.068   2.488
 7052SOL    HW222056   5.364   2.050   2.394
 7053SOL     OW22057   0.594   4.560   3.524
 7053SOL    HW122058   0.647   4.555   3.439
 7053SOL    HW222059   0.500   4.585   3.503
 7054SOL     OW22060   5.577   6.660   1.072
 7054SOL    HW122061   5.555   6.580   1.128
 7054SOL    HW222062   5.514   6.664   0.994
 7055SOL     OW22063   2.247   0.193   6.827
 7055SOL    HW122064   2.190   0.245   6.891
 7055SOL    HW222065   2.337   0.178   6.868
 7056SOL     OW22066   0.487   5.431   1.248
 7056SOL    HW122067   0.495   5.529   1.230
 7056SOL    HW222068   0.400   5.413   1.293
 7057SOL     OW22069   3.108   5.628   5.115
 7057SOL    HW122070   3.015   5.663   5.109
 7057SOL    HW222071   3.114   5.559   5.187
 7058SOL     OW22072   5.948   2.763   5.397
 7058SOL    HW122073   6.041   2.774   5.432
 7058SOL    HW222074   5.938   2.672   5.357
 7059SOL     OW22075   1.649   0.915   4.438
 7059SOL    HW122076   1.592   0.901   4.356
 7059SOL    HW222077   1.703   0.833   4.455
 7060SOL     OW22078   2.776   2.446   1.108
 7060SOL    HW122079   2.819   2.430   1.197
 7060SOL    HW222080   2.814   2.383   1.040
 7061SOL     OW22081   1.489   6.675   1.282
 7061SOL    HW122082   1.535   6.601   1.234
 7061SOL    HW222083   1.556   6.726   1.337
 7062SOL     OW22084   3.493   0.902   5.291
 7062SOL    HW122085   3.469   0.908   5.194
 7062SOL    HW222086   3.465   0.813   5.327
 7063SOL     OW22087   0.163   1.187   1.315
 7063SOL    HW122088   0.158   1.287   1.310
 7063SOL    HW222089   0.183   1.150   1.224
 7064SOL     OW22090   2.516   1.512   5.251
 7064SOL    HW122091   2.439   1.455   5.221
 7064SOL    HW222092   2.489   1.608   5.249
 7065SOL     OW22093   3.106   0.227   3.238
 7065SOL    HW122094   3.059   0.268   3.160
 7065SOL    HW222095   3.061   0.141   3.263
 7066SOL     OW22096   4.120   0.795   1.832
 7066SOL    HW122097   4.199   0.772   1.775
 7066SOL    HW222098   4.109   0.895   1.834
 7067SOL     OW22099   2.549   4.655   6.266
 7067SOL    HW122100   2.496   4.739   6.255
 7067SOL    HW222101   2.533   4.595   6.187
 7068SOL     OW22102   4.314   4.691   2.429
 7068SOL    HW122103   4.239   4.725   2.486
 7068SOL    HW222104   4.395   4.748   2.442
 7069SOL     OW22105   3.376   1.392   5.410
 7069SOL    HW122106   3.412   1.485   5.417
 7069SOL    HW222107   3.450   1.330   5.382
 7070SOL     OW22108   0.434   1.741   5.305
 7070SOL    HW122109   0.489   1.686   5.368
 7070SOL    HW222110   0.343   1.755   5.343
 7071SOL     OW22111   4.728   5.311   0.069
 7071SOL    HW122112   4.671   5.234   0.040
 7071SOL    HW222113   4.802   5.325   0.003
 7072SOL     OW22114   1.509   3.786   5.579
 7072SOL    HW122115   1.443   3.837   5.522
 7072SOL    HW222116   1.493   3.688   5.567
 7073SOL     OW22117   4.107   0.983   4.525
 7073SOL    HW122118   4.167   0.985   4.605
 7073SOL    HW222119   4.128   0.902   4.470
 7074SOL     OW22120   5.525   2.981   1.973
 7074SOL    HW122121   5.536   3.016   1.880
 7074SOL    HW222122   5.540   3.056   2.038
 7075SOL     OW22123   1.749   4.967   2.510
 7075SOL    HW122124   1.836   4.919   2.498
 7075SOL    HW222125   1.688   4.944   2.434
 7076SOL     OW22126   6.135   2.660   0.737
 7076SOL    HW122127   6.126   2.634   0.641
 7076SOL    HW222128   6.092   2.749   0.752
 7077SOL     OW22129   3.449   6.046   2.337
 7077SOL    HW122130   3.349   6.050   2.340
 7077SOL    HW222131   3.480   6.068   2.245
 7078SOL     OW22132   0.139   1.908   0.413
 7078SOL    HW122133   0.147   1.940   0.319
 7078SOL    HW222134   0.177   1.816   0.421
 7079SOL     OW22135   3.133   5.601   5.409
 7079SOL    HW122136   3.093   5.681   5.453
 7079SOL    HW222137   3.112   5.519   5.462
 7080SOL     OW22138   3.768   2.000   6.791
 7080SOL    HW122139   3.832   2.076   6.778
 7080SOL    HW222140   3.795   1.947   6.871
 7081SOL     OW22141   3.004   6.316   6.510
 7081SOL    HW122142   2.946   6.387   6.551
 7081SOL    HW222143   3.043   6.350   6.424
 7082SOL     OW22144   1.508   4.986   2.222
 7082SOL    HW122145   1.455   5.031   2.293
 7082SOL    HW222146   1.550   5.054   2.162
 7083SOL     OW22147   5.809   2.945   2.785
 7083SOL    HW122148   5.745   3.014   2.820
 7083SOL    HW222149   5.902   2.983   2.785
 7084SOL     OW22150   1.004   5.073   0.195
 7084SOL    HW122151   1.035   5.162   0.162
 7084SOL    HW222152   1.081   5.009   0.196
 7085SOL     OW22153   0.202   3.384   2.323
 7085SOL    HW122154   0.295   3.404   2.293
 7085SOL    HW222155   0.161   3.468   2.359
 7086SOL     OW22156   4.289   1.239   3.564
 7086SOL    HW122157   4.372   1.230   3.619
 7086SOL    HW222158   4.310   1.285   3.479
 7087SOL     OW22159   6.158   3.144   3.948
 7087SOL    HW122160   6.090   3.142   4.021
 7087SOL    HW222161   6.215   3.062   3.953
 7088SOL     OW22162   6.290   1.961   5.204
 7088SOL    HW122163   6.237   1.922   5.128
 7088SOL    HW222164   6.328   2.049   5.176
 7089SOL     OW22165   3.682   6.409   1.841
 7089SOL    HW122166   3.593   6.364   1.831
 7089SOL    HW222167   3.733   6.400   1.755
 7090SOL     OW22168   5.656   3.212   1.813
 7090SOL    HW122169   5.657   3.302   1.769
 7090SOL    HW222170   5.725   3.209   1.885
 7091SOL     OW22171   5.772   0.451   6.598
 7091SOL    HW122172   5.757   0.511   6.519
 7091SOL    HW222173   5.775   0.356   6.568
 7092SOL     OW22174   3.959   0.165   6.420
 7092SOL    HW122175   4.024   0.111   6.472
 7092SOL    HW222176   4.007   0.217   6.350
 7093SOL     OW22177   4.053   3.018   0.122
 7093SOL    HW122178   3.998   3.099   0.102
 7093SOL    HW222179   4.089   3.025   0.216
 7094SOL     OW22180   4.162   0.912   4.992
 7094SOL    HW122181   4.178   0.971   4.914
 7094SOL    HW222182   4.250   0.886   5.033
 7095SOL     OW22183   2.462   5.058   3.667
 7095SOL    HW122184   2.427   5.059   3.574
 7095SOL    HW222185   2.435   5.142   3.714
 7096SOL     OW22186   0.206   5.310   0.101
 7096SOL    HW122187   0.220   5.250   0.179
 7096SOL    HW222188   0.199   5.256   0.017
 7097SOL     OW22189   4.826   2.000   2.707
 7097SOL    HW122190   4.745   1.951   2.741
 7097SOL    HW222191   4.806   2.041   2.618
 7098SOL     OW22192   1.138   1.255   2.148
 7098SOL    HW122193   1.115   1.174   2.093
 7098SOL    HW222194   1.082   1.256   2.231
 7099SOL     OW22195   2.838   1.440   4.978
 7099SOL    HW122196   2.934   1.427   5.003
 7099SOL    HW222197   2.805   1.527   5.015
 7100SOL     OW22198   0.521   4.402   1.553
 7100SOL    HW122199   0.583   4.472   1.589
 7100SOL    HW222200   0.564   4.312   1.561
 7101SOL     OW22201   2.932   6.445   4.636
 7101SOL    HW122202   2.967   6.511   4.701
 7101SOL    HW222203   2.959   6.472   4.543
 7102SOL     OW22204   5.315   2.008   2.239
 7102SOL    HW122205   5.221   2.028   2.213
 7102SOL    HW222206   5.327   1.910   2.250
 7103SOL     OW22207   6.603   3.700   4.877
 7103SOL    HW122208   6.522   3.758   4.874
 7103SOL    HW222209   6.669   3.732   4.809
 7104SOL     OW22210   4.461   2.218   4.142
 7104SOL    HW122211   4.506   2.139   4.101
 7104SOL    HW222212   4.408   2.266   4.072
 7105SOL     OW22213   3.076   3.604   1.661
 7105SOL    HW122214   3.003   3.606   1.729
 7105SOL    HW222215   3.117   3.695   1.652
 7106SOL     OW22216   2.372   2.287   2.926
 7106SOL    HW122217   2.330   2.360   2.872
 7106SOL    HW222218   2.373   2.313   3.022
 7107SOL     OW22219   3.728   0.509   0.628
 7107SOL    HW122220   3.746   0.452   0.708
 7107SOL    HW222221   3.630   0.526   0.620
 7108SOL     OW22222   2.966   6.872   1.607
 7108SOL    HW122223   2.871   6.904   1.604
 7108SOL    HW222224   2.968   6.774   1.590
 7109SOL     OW22225   2.226   5.183   6.167
 7109SOL    HW122226   2.323   5.195   6.146
 7109SOL    HW222227   2.204   5.085   6.169
 7110SOL     OW22228   2.807   5.341   5.714
 7110SOL    HW122229   2.758   5.422   5.746
 7110SOL    HW222230   2.836   5.355   5.619
 7111SOL     OW22231   6.282   2.091   4.112
 7111SOL    HW122232   6.302   2.188   4.116
 7111SOL    HW222233   6.306   2.056   4.021
 7112SOL     OW22234   6.642   5.044   4.519
 7112SOL    HW122235   6.735   5.011   4.532
 7112SOL    HW222236   6.589   5.026   4.602
 7113SOL     OW22237   3.203   6.690   5.218
 7113SOL    HW122238   3.130   6.639   5.265
 7113SOL    HW222239   3.221   6.648   5.129
 7114SOL     OW22240   5.917   3.883   0.528
 7114SOL    HW122241   6.005   3.906   0.486
 7114SOL    HW222242   5.843   3.900   0.463
 7115SOL     OW22243   5.091   3.009   6.156
 7115SOL    HW122244   5.040   3.093   6.173
 7115SOL    HW222245   5.107   2.999   6.057
 7116SOL     OW22246   6.188   5.203   4.506
 7116SOL    HW122247   6.242   5.201   4.422
 7116SOL    HW222248   6.116   5.134   4.501
 7117SOL     OW22249   3.059   0.819   2.738
 7117SOL    HW122250   3.046   0.720   2.749
 7117SOL    HW222251   3.095   0.839   2.648
 7118SOL     OW22252   5.139   4.424   5.739
 7118SOL    HW122253   5.228   4.421   5.785
 7118SOL    HW222254   5.096   4.333   5.743
 7119SOL     OW22255   2.489   6.475   4.076
 7119SOL    HW122256   2.567   6.481   4.014
 7119SOL    HW222257   2.408   6.514   4.032
 7120SOL     OW22258   4.575   2.203   2.280
 7120SOL    HW122259   4.648   2.268   2.262
 7120SOL    HW222260   4.486   2.246   2.263
 7121SOL     OW22261   2.076   6.111   1.941
 7121SOL    HW122262   2.118   6.083   1.855
 7121SOL    HW222263   2.146   6.151   2.000
 7122SOL     OW22264   2.895   2.206   6.613
 7122SOL    HW122265   2.829   2.258   6.558
 7122SOL    HW222266   2.916   2.257   6.696
 7123SOL     OW22267   5.215   3.471   6.597
 7123SOL    HW122268   5.133   3.504   6.550
 7123SOL    HW222269   5.289   3.459   6.531
 7124SOL     OW22270   2.934   2.672   6.206
 7124SOL    HW122271   2.924   2.752   6.266
 7124SOL    HW222272   3.017   2.622   6.231
 7125SOL     OW22273   1.161   5.924   1.383
 7125SOL    HW122274   1.218   5.963   1.456
 7125SOL    HW222275   1.066   5.919   1.414
 7126SOL     OW22276   3.848   5.218   0.619
 7126SOL    HW122277   3.872   5.185   0.528
 7126SOL    HW222278   3.921   5.196   0.683
 7127SOL     OW22279   2.559   6.996   5.015
 7127SOL    HW122280   2.539   6.979   5.112
 7127SOL    HW222281   2.474   7.001   4.964
 7128SOL     OW22282   4.341   3.698   0.270
 7128SOL    HW122283   4.248   3.668   0.250
 7128SOL    HW222284   4.376   3.648   0.349
 7129SOL     OW22285   6.961   1.697   0.518
 7129SOL    HW122286   7.015   1.630   0.570
 7129SOL    HW222287   6.957   1.783   0.569
 7130SOL     OW22288   3.430   6.917   3.669
 7130SOL    HW122289   3.427   6.894   3.766
 7130SOL    HW222290   3.340   6.902   3.628
 7131SOL     OW22291   2.438   1.794   2.583
 7131SOL    HW122292   2.430   1.858   2.659
 7131SOL    HW222293   2.434   1.700   2.617
 7132SOL     OW22294   5.089   4.995   2.511
 7132SOL    HW122295   5.141   4.909   2.511
 7132SOL    HW222296   5.044   5.007   2.600
 7133SOL     OW22297   3.472   6.195   2.060
 7133SOL    HW122298   3.381   6.234   2.078
 7133SOL    HW222299   3.487   6.192   1.961
 7134SOL     OW22300   5.804   4.714   6.611
 7134SOL    HW122301   5.727   4.692   6.551
 7134SOL    HW222302   5.797   4.810   6.640
 7135SOL     OW22303   2.423   5.692   0.403
 7135SOL    HW122304   2.519   5.666   0.416
 7135SOL    HW222305   2.366   5.636   0.463
 7136SOL     OW22306   1.446   2.868   2.629
 7136SOL    HW122307   1.486   2.855   2.538
 7136SOL    HW222308   1.483   2.798   2.691
 7137SOL     OW22309   1.380   6.868   1.641
 7137SOL    HW122310   1.426   6.841   1.725
 7137SOL    HW222311   1.383   6.967   1.632
 7138SOL     OW22312   6.572   3.997   0.684
 7138SOL    HW122313   6.532   4.088   0.669
 7138SOL    HW222314   6.517   3.929   0.637
 7139SOL     OW22315   5.764   5.495   0.682
 7139SOL    HW122316   5.803   5.499   0.774
 7139SOL    HW222317   5.666   5.477   0.689
 7140SOL     OW22318   6.469   3.976   0.352
 7140SOL    HW122319   6.520   4.054   0.387
 7140SOL    HW222320   6.385   4.008   0.308
 7141SOL     OW22321   2.540   2.365   0.073
 7141SOL    HW122322   2.443   2.364   0.052
 7141SOL    HW222323   2.589   2.418   0.003
 7142SOL     OW22324   3.963   6.688   5.889
 7142SOL    HW122325   4.062   6.698   5.881
 7142SOL    HW222326   3.918   6.758   5.833
 7143SOL     OW22327   2.757   3.194   5.858
 7143SOL    HW122328   2.805   3.130   5.798
 7143SOL    HW222329   2.660   3.196   5.835
 7144SOL     OW22330   6.281   1.791   6.597
 7144SOL    HW122331   6.191   1.833   6.585
 7144SOL    HW222332   6.352   1.860   6.583
 7145SOL     OW22333   0.395   3.052   0.087
 7145SOL    HW122334   0.296   3.052   0.098
 7145SOL    HW222335   0.436   2.993   0.157
 7146SOL     OW22336   6.762   1.248   4.576
 7146SOL    HW122337   6.723   1.239   4.668
 7146SOL    HW222338   6.860   1.231   4.580
 7147SOL     OW22339   6.577   0.653   0.116
 7147SOL    HW122340   6.658   0.712   0.119
 7147SOL    HW222341   6.495   0.709   0.121
 7148SOL     OW22342   5.726   6.457   0.642
 7148SOL    HW122343   5.731   6.435   0.740
 7148SOL    HW222344   5.746   6.555   0.630
 7149SOL     OW22345   6.848   3.708   0.078
 7149SOL    HW122346   6.799   3.789   0.110
 7149SOL    HW222347   6.807   3.626   0.120
 7150SOL     OW22348   2.392   2.172   6.832
 7150SOL    HW122349   2.483   2.132   6.816
 7150SOL    HW222350   2.339   2.111   6.890
 7151SOL     OW22351   5.608   2.559   6.813
 7151SOL    HW122352   5.512   2.545   6.786
 7151SOL    HW222353   5.633   2.491   6.881
 7152SOL     OW22354   5.914   0.763   4.711
 7152SOL    HW122355   5.973   0.838   4.742
 7152SOL    HW222356   5.852   0.797   4.641
 7153SOL     OW22357   5.246   5.843   0.141
 7153SOL    HW122358   5.297   5.832   0.055
 7153SOL    HW222359   5.202   5.756   0.164
 7154SOL     OW22360   5.304   6.842   2.161
 7154SOL    HW122361   5.340   6.764   2.212
 7154SOL    HW222362   5.305   6.923   2.219
 7155SOL     OW22363   1.527   0.081   1.344
 7155SOL    HW122364   1.563   0.162   1.297
 7155SOL    HW222365   1.459   0.037   1.287
 7156SOL     OW22366   6.832   3.038   5.256
 7156SOL    HW122367   6.766   2.963   5.257
 7156SOL    HW222368   6.924   3.001   5.263
 7157SOL     OW22369   0.054   3.941   5.863
 7157SOL    HW122370   6.977   3.945   5.832
 7157SOL    HW222371   0.066   3.865   5.926
 7158SOL     OW22372   4.887   6.739   3.790
 7158SOL    HW122373   4.986   6.739   3.774
 7158SOL    HW222374   4.865   6.678   3.866
 7159SOL     OW22375   0.824   6.899   3.227
 7159SOL    HW122376   0.770   6.966   3.176
 7159SOL    HW222377   0.779   6.879   3.314
 7160SOL     OW22378   6.022   6.006   2.130
 7160SOL    HW122379   6.084   5.946   2.079
 7160SOL    HW222380   6.071   6.089   2.158
 7161SOL     OW22381   3.812   3.199   1.735
 7161SOL    HW122382   3.891   3.249   1.771
 7161SOL    HW222383   3.840   3.107   1.709
 7162SOL     OW22384   0.891   6.383   0.416
 7162SOL    HW122385   0.962   6.360   0.350
 7162SOL    HW222386   0.875   6.305   0.477
 7163SOL     OW22387   6.749   5.974   0.080
 7163SOL    HW122388   6.816   5.946   0.011
 7163SOL    HW222389   6.794   5.978   0.169
 7164SOL     OW22390   1.067   6.747   6.723
 7164SOL    HW122391   1.062   6.650   6.748
 7164SOL    HW222392   1.044   6.803   6.802
 7165SOL     OW22393   4.210   2.708   5.870
 7165SOL    HW122394   4.281   2.667   5.813
 7165SOL    HW222395   4.221   2.678   5.965
 7166SOL     OW22396   0.021   6.437   5.671
 7166SOL    HW122397   0.064   6.363   5.619
 7166SOL    HW222398   6.951   6.460   5.629
 7167SOL     OW22399   0.709   3.718   5.743
 7167SOL    HW122400   0.720   3.752   5.650
 7167SOL    HW222401   0.784   3.752   5.800
 7168SOL     OW22402   0.098   0.019   2.237
 7168SOL    HW122403   0.175   0.079   2.258
 7168SOL    HW222404   0.107   6.952   2.288
 7169SOL     OW22405   1.606   4.739   5.497
 7169SOL    HW122406   1.666   4.684   5.555
 7169SOL    HW222407   1.604   4.700   5.405
 7170SOL     OW22408   4.248   2.290   1.971
 7170SOL    HW122409   4.308   2.318   1.897
 7170SOL    HW222410   4.273   2.338   2.055
 7171SOL     OW22411   0.108   5.911   1.833
 7171SOL    HW122412   0.120   6.009   1.816
 7171SOL    HW222413   0.192   5.863   1.806
 7172SOL     OW22414   1.457   2.691   3.354
 7172SOL    HW122415   1.471   2.594   3.334
 7172SOL    HW222416   1.428   2.739   3.271
 7173SOL     OW22417   3.481   5.309   4.572
 7173SOL    HW122418   3.433   5.221   4.567
 7173SOL    HW222419   3.528   5.316   4.660
 7174SOL     OW22420   6.700   3.543   2.847
 7174SOL    HW122421   6.758   3.461   2.849
 7174SOL    HW222422   6.605   3.517   2.861
 7175SOL     OW22423   5.860   2.716   5.678
 7175SOL    HW122424   5.792   2.643   5.685
 7175SOL    HW222425   5.896   2.718   5.585
 7176SOL     OW22426   6.474   1.980   6.507
 7176SOL    HW122427   6.517   1.921   6.439
 7176SOL    HW222428   6.459   2.071   6.468
 7177SOL     OW22429   1.339   5.524   3.775
 7177SOL    HW122430   1.338   5.521   3.675
 7177SOL    HW222431   1.264   5.583   3.807
 7178SOL     OW22432   0.617   6.324   5.602
 7178SOL    HW122433   0.693   6.347   5.663
 7178SOL    HW222434   0.641   6.349   5.508
 7179SOL     OW22435   5.151   4.675   5.617
 7179SOL    HW122436   5.135   4.606   5.688
 7179SOL    HW222437   5.124   4.637   5.528
 7180SOL     OW22438   6.741   1.915   2.598
 7180SOL    HW122439   6.814   1.900   2.665
 7180SOL    HW222440   6.710   2.010   2.602
 7181SOL     OW22441   3.645   0.318   0.129
 7181SOL    HW122442   3.620   0.301   0.224
 7181SOL    HW222443   3.741   0.345   0.123
 7182SOL     OW22444   2.022   0.726   2.316
 7182SOL    HW122445   2.079   0.800   2.280
 7182SOL    HW222446   1.983   0.752   2.404
 7183SOL     OW22447   1.772   6.882   1.182
 7183SOL    HW122448   1.826   6.960   1.213
 7183SOL    HW222449   1.724   6.842   1.260
 7184SOL     OW22450   6.960   1.579   3.140
 7184SOL    HW122451   0.002   1.584   3.061
 7184SOL    HW222452   6.879   1.526   3.117
 7185SOL     OW22453   3.524   0.229   3.948
 7185SOL    HW122454   3.492   0.230   3.853
 7185SOL    HW222455   3.461   0.281   4.005
 7186SOL     OW22456   6.522   2.686   0.544
 7186SOL    HW122457   6.576   2.750   0.599
 7186SOL    HW222458   6.538   2.703   0.447
 7187SOL     OW22459   3.058   3.806   3.679
 7187SOL    HW122460   3.091   3.861   3.756
 7187SOL    HW222461   2.991   3.740   3.713
 7188SOL     OW22462   4.876   4.718   6.845
 7188SOL    HW122463   4.850   4.633   6.798
 7188SOL    HW222464   4.851   4.796   6.787
 7189SOL     OW22465   6.668   2.082   5.950
 7189SOL    HW122466   6.596   2.012   5.955
 7189SOL    HW222467   6.686   2.118   6.041
 7190SOL     OW22468   5.499   5.373   0.698
 7190SOL    HW122469   5.446   5.288   0.707
 7190SOL    HW222470   5.465   5.440   0.763
 7191SOL     OW22471   0.235   5.024   2.597
 7191SOL    HW122472   0.142   5.054   2.578
 7191SOL    HW222473   0.239   4.984   2.689
 7192SOL     OW22474   3.338   4.031   5.866
 7192SOL    HW122475   3.316   3.966   5.793
 7192SOL    HW222476   3.375   4.115   5.827
 7193SOL     OW22477   3.681   1.151   4.294
 7193SOL    HW122478   3.654   1.242   4.261
 7193SOL    HW222479   3.781   1.148   4.303
 7194SOL     OW22480   3.804   2.582   5.338
 7194SOL    HW122481   3.794   2.543   5.430
 7194SOL    HW222482   3.714   2.599   5.299
 7195SOL     OW22483   6.695   4.069   5.385
 7195SOL    HW122484   6.658   4.035   5.299
 7195SOL    HW222485   6.666   4.164   5.400
 7196SOL     OW22486   2.913   4.323   1.440
 7196SOL    HW122487   2.988   4.386   1.461
 7196SOL    HW222488   2.940   4.262   1.366
 7197SOL     OW22489   3.370   4.355   6.173
 7197SOL    HW122490   3.355   4.258   6.154
 7197SOL    HW222491   3.441   4.365   6.244
 7198SOL     OW22492   1.633   6.401   1.980
 7198SOL    HW122493   1.628   6.459   2.061
 7198SOL    HW222494   1.598   6.452   1.901
 7199SOL     OW22495   6.318   1.140   3.616
 7199SOL    HW122496   6.304   1.044   3.595
 7199SOL    HW222497   6.267   1.165   3.698
 7200SOL     OW22498   0.485   4.240   6.210
 7200SOL    HW122499   0.449   4.166   6.266
 7200SOL    HW222500   0.410   4.301   6.183
 7201SOL     OW22501   5.761   5.741   4.889
 7201SOL    HW122502   5.685   5.712   4.948
 7201SOL    HW222503   5.748   5.837   4.862
 7202SOL     OW22504   4.460   6.544   5.901
 7202SOL    HW122505   4.522   6.543   5.822
 7202SOL    HW222506   4.381   6.601   5.881
 7203SOL     OW22507   0.931   1.616   0.429
 7203SOL    HW122508   0.849   1.648   0.476
 7203SOL    HW222509   0.992   1.694   0.414
 7204SOL     OW22510   5.162   0.892   2.664
 7204SOL    HW122511   5.150   0.807   2.613
 7204SOL    HW222512   5.156   0.874   2.762
 7205SOL     OW22513   2.953   1.203   3.969
 7205SOL    HW122514   3.021   1.233   3.903
 7205SOL    HW222515   2.870   1.175   3.922
 7206SOL     OW22516   1.650   2.520   6.540
 7206SOL    HW122517   1.565   2.570   6.554
 7206SOL    HW222518   1.726   2.570   6.582
 7207SOL     OW22519   1.829   2.556   3.348
 7207SOL    HW122520   1.831   2.580   3.445
 7207SOL    HW222521   1.922   2.556   3.311
 7208SOL     OW22522   2.559   0.171   3.234
 7208SOL    HW122523   2.469   0.190   3.274
 7208SOL    HW222524   2.625   0.240   3.266
 7209SOL     OW22525   4.046   1.463   2.565
 7209SOL    HW122526   4.050   1.370   2.602
 7209SOL    HW222527   4.020   1.527   2.637
 7210SOL     OW22528   3.311   1.085   4.842
 7210SOL    HW122529   3.323   1.123   4.934
 7210SOL    HW222530   3.394   1.101   4.788
 7211SOL     OW22531   4.963   6.085   6.207
 7211SOL    HW122532   4.944   6.115   6.113
 7211SOL    HW222533   5.028   6.148   6.250
 7212SOL     OW22534   0.344   5.630   4.303
 7212SOL    HW122535   0.423   5.569   4.308
 7212SOL    HW222536   0.285   5.614   4.382
 7213SOL     OW22537   5.103   2.668   0.679
 7213SOL    HW122538   5.200   2.689   0.670
 7213SOL    HW222539   5.090   2.593   0.743
 7214SOL     OW22540   6.328   1.551   5.787
 7214SOL    HW122541   6.297   1.640   5.754
 7214SOL    HW222542   6.260   1.514   5.851
 7215SOL     OW22543   6.012   1.385   2.597
 7215SOL    HW122544   6.041   1.290   2.593
 7215SOL    HW222545   5.988   1.409   2.691
 7216SOL     OW22546   5.511   6.644   3.896
 7216SOL    HW122547   5.412   6.635   3.901
 7216SOL    HW222548   5.543   6.610   3.808
 7217SOL     OW22549   1.100   3.357   3.252
 7217SOL    HW122550   1.140   3.374   3.162
 7217SOL    HW222551   1.164   3.305   3.308
 7218SOL     OW22552   6.784   2.852   5.530
 7218SOL    HW122553   6.800   2.800   5.446
 7218SOL    HW222554   6.866   2.904   5.553
 7219SOL     OW22555   3.591   6.081   1.091
 7219SOL    HW122556   3.565   6.155   1.028
 7219SOL    HW222557   3.517   6.015   1.099
 7220SOL     OW22558   0.406   3.794   3.997
 7220SOL    HW122559   0.435   3.708   3.956
 7220SOL    HW222560   0.332   3.776   4.063
 7221SOL     OW22561   4.765   4.874   3.761
 7221SOL    HW122562   4.832   4.925   3.815
 7221SOL    HW222563   4.674   4.887   3.802
 7222SOL     OW22564   6.232   5.613   3.844
 7222SOL    HW122565   6.282   5.553   3.906
 7222SOL    HW222566   6.174   5.675   3.898
 7223SOL     OW22567   6.387   5.350   1.592
 7223SOL    HW122568   6.308   5.405   1.619
 7223SOL    HW222569   6.462   5.366   1.656
 7224SOL     OW22570   5.732   2.624   2.577
 7224SOL    HW122571   5.746   2.710   2.527
 7224SOL    HW222572   5.820   2.582   2.596
 7225SOL     OW22573   0.823   5.227   0.313
 7225SOL    HW122574   0.822   5.220   0.413
 7225SOL    HW222575   0.896   5.169   0.277
 7226SOL     OW22576   6.361   6.446   0.141
 7226SOL    HW122577   6.308   6.447   0.056
 7226SOL    HW222578   6.418   6.363   0.143
 7227SOL     OW22579   2.212   0.570   1.966
 7227SOL    HW122580   2.164   0.484   1.986
 7227SOL    HW222581   2.301   0.550   1.927
 7228SOL     OW22582   6.834   3.524   3.177
 7228SOL    HW122583   6.807   3.618   3.199
 7228SOL    HW222584   6.933   3.521   3.163
 7229SOL     OW22585   5.575   6.871   5.440
 7229SOL    HW122586   5.586   6.807   5.516
 7229SOL    HW222587   5.662   6.878   5.391
 7230SOL     OW22588   2.835   4.870   6.028
 7230SOL    HW122589   2.911   4.808   6.049
 7230SOL    HW222590   2.808   4.859   5.933
 7231SOL     OW22591   3.620   3.166   6.849
 7231SOL    HW122592   3.598   3.263   6.861
 7231SOL    HW222593   3.680   3.136   6.923
 7232SOL     OW22594   4.200   5.704   3.389
 7232SOL    HW122595   4.205   5.734   3.293
 7232SOL    HW222596   4.286   5.726   3.435
 7233SOL     OW22597   0.626   1.877   6.786
 7233SOL    HW122598   0.548   1.822   6.754
 7233SOL    HW222599   0.704   1.817   6.802
 7234SOL     OW22600   5.479   5.408   3.696
 7234SOL    HW122601   5.462   5.495   3.742
 7234SOL    HW222602   5.470   5.333   3.762
 7235SOL     OW22603   6.949   0.396   1.046
 7235SOL    HW122604   6.947   0.308   1.093
 7235SOL    HW222605   6.913   0.467   1.106
 7236SOL     OW22606   0.571   4.107   2.995
 7236SOL    HW122607   0.606   4.061   3.077
 7236SOL    HW222608   0.526   4.040   2.936
 7237SOL     OW22609   4.912   1.239   6.849
 7237SOL    HW122610   4.913   1.210   6.754
 7237SOL    HW222611   4.919   1.160   6.909
 7238SOL     OW22612   4.420   3.405   0.209
 7238SOL    HW122613   4.342   3.468   0.208
 7238SOL    HW222614   4.491   3.438   0.148
 7239SOL     OW22615   6.207   2.983   2.331
 7239SOL    HW122616   6.200   2.932   2.417
 7239SOL    HW222617   6.301   2.981   2.298
 7240SOL     OW22618   0.456   2.232   1.031
 7240SOL    HW122619   0.466   2.320   0.984
 7240SOL    HW222620   0.464   2.245   1.130
 7241SOL     OW22621   2.177   0.188   3.095
 7241SOL    HW122622   2.219   0.274   3.067
 7241SOL    HW222623   2.224   0.112   3.048
 7242SOL     OW22624   6.725   3.528   5.987
 7242SOL    HW122625   6.786   3.449   5.989
 7242SOL    HW222626   6.745   3.587   6.065
 7243SOL     OW22627   6.454   4.583   6.311
 7243SOL    HW122628   6.552   4.595   6.322
 7243SOL    HW222629   6.434   4.487   6.289
 7244SOL     OW22630   6.665   5.908   0.521
 7244SOL    HW122631   6.651   5.832   0.584
 7244SOL    HW222632   6.715   5.875   0.440
 7245SOL     OW22633   1.637   2.194   6.951
 7245SOL    HW122634   1.553   2.141   6.957
 7245SOL    HW222635   1.709   2.151   7.006
 7246SOL     OW22636   4.503   0.104   4.752
 7246SOL    HW122637   4.596   0.130   4.779
 7246SOL    HW222638   4.508   0.035   4.680
 7247SOL     OW22639   3.585   4.103   4.462
 7247SOL    HW122640   3.511   4.119   4.396
 7247SOL    HW222641   3.549   4.111   4.555
 7248SOL     OW22642   2.703   2.482   5.205
 7248SOL    HW122643   2.651   2.436   5.134
 7248SOL    HW222644   2.640   2.528   5.268
 7249SOL     OW22645   3.593   5.970   3.057
 7249SOL    HW122646   3.610   5.921   3.142
 7249SOL    HW222647   3.582   6.068   3.077
 7250SOL     OW22648   4.973   4.909   5.383
 7250SOL    HW122649   4.935   4.819   5.363
 7250SOL    HW222650   4.936   4.942   5.471
 7251SOL     OW22651   0.314   5.915   4.326
 7251SOL    HW122652   0.394   5.909   4.385
 7251SOL    HW222653   0.275   5.823   4.314
 7252SOL     OW22654   3.921   4.363   1.667
 7252SOL    HW122655   3.860   4.443   1.670
 7252SOL    HW222656   3.872   4.283   1.702
 7253SOL     OW22657   1.385   5.552   5.804
 7253SOL    HW122658   1.349   5.528   5.894
 7253SOL    HW222659   1.318   5.607   5.754
 7254SOL     OW22660   0.268   3.920   3.753
 7254SOL    HW122661   0.287   3.860   3.675
 7254SOL    HW222662   0.312   3.883   3.835
 7255SOL     OW22663   4.809   4.030   0.630
 7255SOL    HW122664   4.835   4.009   0.535
 7255SOL    HW222665   4.720   4.075   0.631
 7256SOL     OW22666   3.256   6.950   4.153
 7256SOL    HW122667   3.334   6.997   4.195
 7256SOL    HW222668   3.172   6.978   4.200
 7257SOL     OW22669   0.950   1.033   4.937
 7257SOL    HW122670   0.980   1.078   5.021
 7257SOL    HW222671   1.029   1.018   4.878
 7258SOL     OW22672   0.006   1.653   2.866
 7258SOL    HW122673   6.957   1.721   2.892
 7258SOL    HW222674   0.081   1.697   2.817
 7259SOL     OW22675   1.269   3.977   2.331
 7259SOL    HW122676   1.300   4.063   2.372
 7259SOL    HW222677   1.270   3.905   2.399
 7260SOL     OW22678   5.723   2.676   0.901
 7260SOL    HW122679   5.808   2.698   0.949
 7260SOL    HW222680   5.648   2.668   0.967
 7261SOL     OW22681   0.030   4.383   6.808
 7261SOL    HW122682   0.129   4.368   6.813
 7261SOL    HW222683   7.007   4.362   6.897
 7262SOL     OW22684   3.045   0.230   5.223
 7262SOL    HW122685   2.998   0.174   5.292
 7262SOL    HW222686   3.064   0.320   5.261
 7263SOL     OW22687   6.192   5.071   6.011
 7263SOL    HW122688   6.143   5.009   6.073
 7263SOL    HW222689   6.129   5.142   5.980
 7264SOL     OW22690   4.976   1.898   1.538
 7264SOL    HW122691   4.935   1.933   1.454
 7264SOL    HW222692   4.915   1.830   1.579
 7265SOL     OW22693   3.297   6.940   5.297
 7265SOL    HW122694   3.260   6.850   5.270
 7265SOL    HW222695   3.253   6.970   5.381
 7266SOL     OW22696   6.817   0.802   3.151
 7266SOL    HW122697   6.865   0.882   3.188
 7266SOL    HW222698   6.784   0.745   3.226
 7267SOL     OW22699   6.964   4.077   5.555
 7267SOL    HW122700   6.871   4.084   5.519
 7267SOL    HW222701   7.010   3.998   5.514
 7268SOL     OW22702   5.517   6.280   4.189
 7268SOL    HW122703   5.458   6.221   4.134
 7268SOL    HW222704   5.462   6.334   4.252
 7269SOL     OW22705   2.737   5.785   4.491
 7269SOL    HW122706   2.663   5.759   4.554
 7269SOL    HW222707   2.813   5.823   4.543
 7270SOL     OW22708   0.253   1.472   4.346
 7270SOL    HW122709   0.299   1.561   4.354
 7270SOL    HW222710   0.294   1.420   4.271
 7271SOL     OW22711   0.777   5.350   2.895
 7271SOL    HW122712   0.812   5.257   2.894
 7271SOL    HW222713   0.743   5.373   2.986
 7272SOL     OW22714   6.607   4.009   1.917
 7272SOL    HW122715   6.627   4.095   1.870
 7272SOL    HW222716   6.547   3.953   1.860
 7273SOL     OW22717   0.328   1.293   4.615
 7273SOL    HW122718   0.236   1.331   4.627
 7273SOL    HW222719   0.357   1.250   4.700
 7274SOL     OW22720   0.163   5.764   6.525
 7274SOL    HW122721   0.127   5.854   6.549
 7274SOL    HW222722   0.171   5.709   6.608
 7275SOL     OW22723   0.469   5.406   3.291
 7275SOL    HW122724   0.447   5.321   3.339
 7275SOL    HW222725   0.402   5.420   3.218
 7276SOL     OW22726   5.301   6.456   3.719
 7276SOL    HW122727   5.204   6.437   3.700
 7276SOL    HW222728   5.355   6.440   3.637
 7277SOL     OW22729   5.121   1.402   6.999
 7277SOL    HW122730   5.110   1.331   0.051
 7277SOL    HW222731   5.068   1.376   6.918
 7278SOL     OW22732   3.863   2.983   2.292
 7278SOL    HW122733   3.929   2.945   2.227
 7278SOL    HW222734   3.773   2.988   2.248
 7279SOL     OW22735   3.413   6.404   6.317
 7279SOL    HW122736   3.425   6.405   6.218
 7279SOL    HW222737   3.496   6.438   6.361
 7280SOL     OW22738   4.140   6.841   5.567
 7280SOL    HW122739   4.197   6.910   5.523
 7280SOL    HW222740   4.192   6.756   5.577
 7281SOL     OW22741   5.745   0.649   6.413
 7281SOL    HW122742   5.842   0.655   6.388
 7281SOL    HW222743   5.689   0.692   6.342
 7282SOL     OW22744   6.061   5.712   3.391
 7282SOL    HW122745   6.130   5.709   3.463
 7282SOL    HW222746   6.081   5.641   3.323
 7283SOL     OW22747   2.233   1.426   2.862
 7283SOL    HW122748   2.289   1.357   2.815
 7283SOL    HW222749   2.293   1.495   2.903
 7284SOL     OW22750   1.272   1.213   4.860
 7284SOL    HW122751   1.315   1.234   4.772
 7284SOL    HW222752   1.215   1.131   4.851
 7285SOL     OW22753   6.149   5.225   2.346
 7285SOL    HW122754   6.228   5.264   2.392
 7285SOL    HW222755   6.167   5.130   2.322
 7286SOL     OW22756   1.406   4.172   0.338
 7286SOL    HW122757   1.325   4.156   0.281
 7286SOL    HW222758   1.477   4.105   0.315
 7287SOL     OW22759   6.290   1.807   6.141
 7287SOL    HW122760   6.232   1.734   6.105
 7287SOL    HW222761   6.290   1.804   6.241
 7288SOL     OW22762   2.814   0.226   7.014
 7288SOL    HW122763   2.867   0.146   6.984
 7288SOL    HW222764   2.819   0.234   0.095
 7289SOL     OW22765   4.338   1.511   3.103
 7289SOL    HW122766   4.259   1.565   3.072
 7289SOL    HW222767   4.417   1.533   3.046
 7290SOL     OW22768   2.452   5.970   4.366
 7290SOL    HW122769   2.515   6.035   4.409
 7290SOL    HW222770   2.359   6.005   4.374
 7291SOL     OW22771   3.801   5.044   1.421
 7291SOL    HW122772   3.781   5.135   1.387
 7291SOL    HW222773   3.887   5.012   1.381
 7292SOL     OW22774   3.596   0.042   4.626
 7292SOL    HW122775   3.610   0.038   4.527
 7292SOL    HW222776   3.530   0.114   4.647
 7293SOL     OW22777   2.429   1.177   6.203
 7293SOL    HW122778   2.343   1.227   6.211
 7293SOL    HW222779   2.448   1.129   6.288
 7294SOL     OW22780   5.776   5.540   6.380
 7294SOL    HW122781   5.770   5.568   6.475
 7294SOL    HW222782   5.834   5.604   6.330
 7295SOL     OW22783   4.589   6.905   1.850
 7295SOL    HW122784   4.625   6.998   1.850
 7295SOL    HW222785   4.508   6.900   1.910
 7296SOL     OW22786   4.523   5.005   0.303
 7296SOL    HW122787   4.446   4.967   0.355
 7296SOL    HW222788   4.503   5.000   0.206
 7297SOL     OW22789   4.967   6.168   2.589
 7297SOL    HW122790   4.913   6.177   2.505
 7297SOL    HW222791   5.062   6.191   2.570
 7298SOL     OW22792   5.929   2.744   4.370
 7298SOL    HW122793   5.860   2.758   4.299
 7298SOL    HW222794   5.987   2.666   4.345
 7299SOL     OW22795   5.376   3.312   0.188
 7299SOL    HW122796   5.472   3.322   0.161
 7299SOL    HW222797   5.339   3.228   0.148
 7300SOL     OW22798   4.664   5.171   0.979
 7300SOL    HW122799   4.572   5.209   0.987
 7300SOL    HW222800   4.689   5.163   0.883
 7301SOL     OW22801   6.726   1.663   6.470
 7301SOL    HW122802   6.688   1.572   6.453
 7301SOL    HW222803   6.692   1.698   6.557
 7302SOL     OW22804   6.906   1.146   6.733
 7302SOL    HW122805   6.875   1.115   6.824
 7302SOL    HW222806   6.863   1.089   6.663
 7303SOL     OW22807   4.695   0.490   1.226
 7303SOL    HW122808   4.720   0.559   1.294
 7303SOL    HW222809   4.605   0.452   1.249
 7304SOL     OW22810   4.010   3.155   4.310
 7304SOL    HW122811   4.104   3.171   4.278
 7304SOL    HW222812   3.949   3.149   4.231
 7305SOL     OW22813   5.746   2.342   0.251
 7305SOL    HW122814   5.708   2.373   0.337
 7305SOL    HW222815   5.698   2.260   0.220
 7306SOL     OW22816   4.586   4.807   1.770
 7306SOL    HW122817   4.487   4.802   1.786
 7306SOL    HW222818   4.631   4.729   1.814
 7307SOL     OW22819   4.248   6.599   2.285
 7307SOL    HW122820   4.205   6.630   2.201
 7307SOL    HW222821   4.228   6.664   2.359
 7308SOL     OW22822   5.329   0.509   4.026
 7308SOL    HW122823   5.249   0.547   4.073
 7308SOL    HW222824   5.299   0.453   3.949
 7309SOL     OW22825   4.547   4.642   0.358
 7309SOL    HW122826   4.505   4.710   0.418
 7309SOL    HW222827   4.628   4.682   0.315
 7310SOL     OW22828   1.987   5.716   1.946
 7310SOL    HW122829   2.055   5.765   2.001
 7310SOL    HW222830   1.960   5.633   1.994
 7311SOL     OW22831   3.135   2.078   2.135
 7311SOL    HW122832   3.165   1.985   2.157
 7311SOL    HW222833   3.114   2.084   2.038
 7312SOL     OW22834   0.142   2.761   6.666
 7312SOL    HW122835   0.207   2.832   6.696
 7312SOL    HW222836   0.190   2.674   6.658
 7313SOL     OW22837   3.947   2.598   6.398
 7313SOL    HW122838   3.968   2.605   6.495
 7313SOL    HW222839   3.987   2.676   6.349
 7314SOL     OW22840   1.011   1.873   4.588
 7314SOL    HW122841   1.088   1.809   4.592
 7314SOL    HW222842   0.960   1.870   4.673
 7315SOL     OW22843   6.786   1.434   5.453
 7315SOL    HW122844   6.717   1.458   5.521
 7315SOL    HW222845   6.748   1.370   5.387
 7316SOL     OW22846   4.074   3.713   3.760
 7316SOL    HW122847   4.118   3.685   3.675
 7316SOL    HW222848   3.993   3.769   3.740
 7317SOL     OW22849   2.877   0.509   4.313
 7317SOL    HW122850   2.938   0.466   4.380
 7317SOL    HW222851   2.830   0.586   4.355
 7318SOL     OW22852   1.861   0.749   1.042
 7318SOL    HW122853   1.764   0.749   1.019
 7318SOL    HW222854   1.896   0.843   1.042
 7319SOL     OW22855   6.861   4.221   6.523
 7319SOL    HW122856   6.844   4.193   6.618
 7319SOL    HW222857   6.847   4.143   6.462
 7320SOL     OW22858   0.405   1.704   2.592
 7320SOL    HW122859   0.474   1.635   2.613
 7320SOL    HW222860   0.340   1.667   2.526
 7321SOL     OW22861   4.244   1.739   3.830
 7321SOL    HW122862   4.222   1.649   3.867
 7321SOL    HW222863   4.160   1.783   3.799
 7322SOL     OW22864   1.147   2.900   1.548
 7322SOL    HW122865   1.231   2.848   1.559
 7322SOL    HW222866   1.164   2.979   1.489
 7323SOL     OW22867   2.368   4.367   3.216
 7323SOL    HW122868   2.326   4.309   3.286
 7323SOL    HW222869   2.298   4.424   3.173
 7324SOL     OW22870   4.823   5.619   3.360
 7324SOL    HW122871   4.769   5.681   3.303
 7324SOL    HW222872   4.772   5.533   3.372
 7325SOL     OW22873   2.882   6.099   0.671
 7325SOL    HW122874   2.892   6.198   0.663
 7325SOL    HW222875   2.843   6.076   0.760
 7326SOL     OW22876   2.472   0.752   4.035
 7326SOL    HW122877   2.462   0.660   4.073
 7326SOL    HW222878   2.511   0.812   4.105
 7327SOL     OW22879   1.743   2.956   6.129
 7327SOL    HW122880   1.736   2.916   6.037
 7327SOL    HW222881   1.697   2.895   6.195
 7328SOL     OW22882   2.192   6.465   0.410
 7328SOL    HW122883   2.208   6.377   0.364
 7328SOL    HW222884   2.130   6.451   0.487
 7329SOL     OW22885   4.556   3.879   1.708
 7329SOL    HW122886   4.559   3.958   1.647
 7329SOL    HW222887   4.502   3.806   1.665
 7330SOL     OW22888   4.097   2.190   0.955
 7330SOL    HW122889   4.112   2.098   0.991
 7330SOL    HW222890   4.168   2.251   0.990
 7331SOL     OW22891   6.734   1.241   1.177
 7331SOL    HW122892   6.684   1.309   1.232
 7331SOL    HW222893   6.793   1.188   1.237
 7332SOL     OW22894   3.472   6.652   0.398
 7332SOL    HW122895   3.469   6.684   0.493
 7332SOL    HW222896   3.538   6.577   0.390
 7333SOL     OW22897   0.239   4.821   2.181
 7333SOL    HW122898   0.163   4.846   2.241
 7333SOL    HW222899   0.282   4.737   2.214
 7334SOL     OW22900   3.202   0.164   3.954
 7334SOL    HW122901   3.260   0.229   4.003
 7334SOL    HW222902   3.193   0.081   4.008
 7335SOL     OW22903   1.996   2.895   3.357
 7335SOL    HW122904   1.930   2.916   3.429
 7335SOL    HW222905   2.089   2.917   3.389
 7336SOL     OW22906   1.443   6.072   4.554
 7336SOL    HW122907   1.493   5.993   4.590
 7336SOL    HW222908   1.490   6.156   4.581
 7337SOL     OW22909   4.964   2.462   1.281
 7337SOL    HW122910   4.893   2.415   1.228
 7337SOL    HW222911   5.050   2.461   1.229
 7338SOL     OW22912   0.554   3.926   0.468
 7338SOL    HW122913   0.647   3.935   0.504
 7338SOL    HW222914   0.512   3.843   0.505
 7339SOL     OW22915   1.774   5.542   5.055
 7339SOL    HW122916   1.714   5.479   5.006
 7339SOL    HW222917   1.725   5.582   5.133
 7340SOL     OW22918   3.160   6.702   6.384
 7340SOL    HW122919   3.132   6.611   6.355
 7340SOL    HW222920   3.248   6.697   6.431
 7341SOL     OW22921   5.905   2.105   0.439
 7341SOL    HW122922   5.946   2.112   0.348
 7341SOL    HW222923   5.893   2.196   0.477
 7342SOL     OW22924   0.339   6.183   1.671
 7342SOL    HW122925   0.434   6.180   1.704
 7342SOL    HW222926   0.339   6.178   1.571
 7343SOL     OW22927   6.671   3.078   0.607
 7343SOL    HW122928   6.742   3.054   0.541
 7343SOL    HW222929   6.631   3.166   0.582
 7344SOL     OW22930   2.620   0.283   5.868
 7344SOL    HW122931   2.572   0.319   5.948
 7344SOL    HW222932   2.645   0.187   5.885
 7345SOL     OW22933   3.977   5.798   6.321
 7345SOL    HW122934   3.950   5.893   6.338
 7345SOL    HW222935   3.940   5.769   6.233
 7346SOL     OW22936   4.181   5.066   2.082
 7346SOL    HW122937   4.207   5.089   2.176
 7346SOL    HW222938   4.141   5.147   2.038
 7347SOL     OW22939   4.910   0.603   6.273
 7347SOL    HW122940   4.839   0.555   6.222
 7347SOL    HW222941   4.995   0.551   6.270
 7348SOL     OW22942   0.424   6.042   0.322
 7348SOL    HW122943   0.371   5.995   0.251
 7348SOL    HW222944   0.415   5.994   0.409
 7349SOL     OW22945   4.567   1.346   1.334
 7349SOL    HW122946   4.595   1.324   1.428
 7349SOL    HW222947   4.645   1.334   1.273
 7350SOL     OW22948   3.595   1.303   5.263
 7350SOL    HW122949   3.649   1.222   5.238
 7350SOL    HW222950   3.604   1.372   5.191
 7351SOL     OW22951   2.146   4.879   4.808
 7351SOL    HW122952   2.180   4.916   4.894
 7351SOL    HW222953   2.088   4.947   4.763
 7352SOL     OW22954   5.993   3.088   4.156
 7352SOL    HW122955   5.902   3.048   4.153
 7352SOL    HW222956   6.042   3.053   4.236
 7353SOL     OW22957   6.735   2.303   5.584
 7353SOL    HW122958   6.831   2.313   5.610
 7353SOL    HW222959   6.727   2.308   5.485
 7354SOL     OW22960   0.881   2.036   2.854
 7354SOL    HW122961   0.869   2.041   2.755
 7354SOL    HW222962   0.860   2.124   2.895
 7355SOL     OW22963   3.304   1.841   0.525
 7355SOL    HW122964   3.274   1.936   0.535
 7355SOL    HW222965   3.336   1.827   0.431
 7356SOL     OW22966   3.875   4.930   6.138
 7356SOL    HW122967   3.876   4.837   6.102
 7356SOL    HW222968   3.963   4.949   6.183
 7357SOL     OW22969   4.537   6.682   2.331
 7357SOL    HW122970   4.543   6.620   2.253
 7357SOL    HW222971   4.477   6.643   2.401
 7358SOL     OW22972   4.492   0.315   2.966
 7358SOL    HW122973   4.567   0.265   2.924
 7358SOL    HW222974   4.469   0.274   3.054
 7359SOL     OW22975   3.626   6.910   2.466
 7359SOL    HW122976   3.537   6.953   2.451
 7359SOL    HW222977   3.615   6.811   2.468
 7360SOL     OW22978   2.553   3.903   6.510
 7360SOL    HW122979   2.538   4.000   6.527
 7360SOL    HW222980   2.637   3.891   6.456
 7361SOL     OW22981   6.039   0.587   3.832
 7361SOL    HW122982   5.954   0.540   3.858
 7361SOL    HW222983   6.051   0.668   3.890
 7362SOL     OW22984   3.646   5.936   0.735
 7362SOL    HW122985   3.709   6.006   0.767
 7362SOL    HW222986   3.580   5.914   0.807
 7363SOL     OW22987   4.534   0.520   0.827
 7363SOL    HW122988   4.503   0.541   0.735
 7363SOL    HW222989   4.603   0.448   0.823
 7364SOL     OW22990   5.549   5.928   1.976
 7364SOL    HW122991   5.640   5.955   1.944
 7364SOL    HW222992   5.485   6.004   1.964
 7365SOL     OW22993   4.936   3.656   1.985
 7365SOL    HW122994   4.876   3.719   1.936
 7365SOL    HW222995   4.914   3.562   1.959
 7366SOL     OW22996   2.131   6.459   3.240
 7366SOL    HW122997   2.125   6.541   3.296
 7366SOL    HW222998   2.110   6.482   3.145
 7367SOL     OW22999   4.426   1.211   0.190
 7367SOL    HW123000   4.394   1.124   0.150
 7367SOL    HW223001   4.522   1.202   0.217
 7368SOL     OW23002   3.103   4.014   2.930
 7368SOL    HW123003   3.153   3.999   3.015
 7368SOL    HW223004   3.034   3.943   2.919
 7369SOL     OW23005   5.522   3.490   6.977
 7369SOL    HW123006   5.586   3.414   6.990
 7369SOL    HW223007   5.454   3.464   6.908
 7370SOL     OW23008   2.283   0.978   4.254
 7370SOL    HW123009   2.340   0.896   4.246
 7370SOL    HW223010   2.189   0.952   4.273
 7371SOL     OW23011   4.002   0.196   3.859
 7371SOL    HW123012   4.096   0.214   3.888
 7371SOL    HW223013   4.003   0.145   3.773
 7372SOL     OW23014   3.740   1.535   5.474
 7372SOL    HW123015   3.667   1.472   5.501
 7372SOL    HW223016   3.729   1.621   5.525
 7373SOL     OW23017   6.621   3.021   4.274
 7373SOL    HW123018   6.617   2.948   4.343
 7373SOL    HW223019   6.578   3.104   4.311
 7374SOL     OW23020   6.859   3.309   6.413
 7374SOL    HW123021   6.905   3.235   6.461
 7374SOL    HW223022   6.848   3.286   6.317
 7375SOL     OW23023   1.869   2.668   1.457
 7375SOL    HW123024   1.857   2.592   1.393
 7375SOL    HW223025   1.914   2.745   1.410
 7376SOL     OW23026   6.537   5.160   0.512
 7376SOL    HW123027   6.551   5.118   0.422
 7376SOL    HW223028   6.443   5.195   0.518
 7377SOL     OW23029   2.893   5.959   1.014
 7377SOL    HW123030   2.879   5.916   1.103
 7377SOL    HW223031   2.811   6.009   0.988
 7378SOL     OW23032   2.403   5.087   5.726
 7378SOL    HW123033   2.366   5.163   5.779
 7378SOL    HW223034   2.503   5.091   5.728
 7379SOL     OW23035   5.341   2.416   2.531
 7379SOL    HW123036   5.286   2.361   2.593
 7379SOL    HW223037   5.291   2.433   2.446
 7380SOL     OW23038   5.182   3.462   1.394
 7380SOL    HW123039   5.277   3.432   1.400
 7380SOL    HW223040   5.134   3.439   1.479
 7381SOL     OW23041   3.750   0.170   1.650
 7381SOL    HW123042   3.681   0.115   1.604
 7381SOL    HW223043   3.841   0.142   1.620
 7382SOL     OW23044   0.327   2.482   0.063
 7382SOL    HW123045   0.360   2.409   0.123
 7382SOL    HW223046   0.400   2.508   7.018
 7383SOL     OW23047   2.538   6.688   0.947
 7383SOL    HW123048   2.468   6.751   0.981
 7383SOL    HW223049   2.622   6.700   0.999
 7384SOL     OW23050   0.106   0.602   6.896
 7384SOL    HW123051   0.192   0.638   6.931
 7384SOL    HW223052   0.031   0.663   6.921
 7385SOL     OW23053   6.716   4.731   2.971
 7385SOL    HW123054   6.724   4.631   2.971
 7385SOL    HW223055   6.653   4.759   3.044
 7386SOL     OW23056   6.162   3.998   0.422
 7386SOL    HW123057   6.088   4.060   0.393
 7386SOL    HW223058   6.207   4.036   0.503
 7387SOL     OW23059   6.911   5.370   3.913
 7387SOL    HW123060   6.995   5.336   3.956
 7387SOL    HW223061   6.851   5.408   3.983
 7388SOL     OW23062   2.298   4.299   2.837
 7388SOL    HW123063   2.227   4.358   2.875
 7388SOL    HW223064   2.380   4.353   2.818
 7389SOL     OW23065   0.438   2.888   1.036
 7389SOL    HW123066   0.480   2.857   0.951
 7389SOL    HW223067   0.354   2.837   1.053
 7390SOL     OW23068   4.119   2.244   4.122
 7390SOL    HW123069   4.024   2.266   4.099
 7390SOL    HW223070   4.138   2.149   4.094
 7391SOL     OW23071   3.277   3.625   2.563
 7391SOL    HW123072   3.328   3.691   2.618
 7391SOL    HW223073   3.231   3.560   2.624
 7392SOL     OW23074   3.346   6.717   0.674
 7392SOL    HW123075   3.360   6.770   0.757
 7392SOL    HW223076   3.248   6.706   0.657
 7393SOL     OW23077   4.819   5.749   2.988
 7393SOL    HW123078   4.777   5.837   3.007
 7393SOL    HW223079   4.770   5.677   3.036
 7394SOL     OW23080   1.828   1.691   6.264
 7394SOL    HW123081   1.787   1.601   6.252
 7394SOL    HW223082   1.768   1.748   6.320
 7395SOL     OW23083   2.735   5.697   1.174
 7395SOL    HW123084   2.713   5.600   1.178
 7395SOL    HW223085   2.781   5.724   1.258
 7396SOL     OW23086   1.147   5.280   2.352
 7396SOL    HW123087   1.178   5.341   2.425
 7396SOL    HW223088   1.104   5.334   2.280
 7397SOL     OW23089   5.879   4.867   4.318
 7397SOL    HW123090   5.926   4.920   4.247
 7397SOL    HW223091   5.796   4.826   4.280
 7398SOL     OW23092   2.946   5.384   1.989
 7398SOL    HW123093   3.023   5.436   1.952
 7398SOL    HW223094   2.861   5.434   1.972
 7399SOL     OW23095   6.220   2.556   5.114
 7399SOL    HW123096   6.272   2.634   5.150
 7399SOL    HW223097   6.283   2.491   5.071
 7400SOL     OW23098   4.106   3.511   5.302
 7400SOL    HW123099   4.059   3.456   5.370
 7400SOL    HW223100   4.195   3.469   5.281
 7401SOL     OW23101   2.448   2.135   4.376
 7401SOL    HW123102   2.500   2.156   4.459
 7401SOL    HW223103   2.512   2.107   4.303
 7402SOL     OW23104   3.140   5.184   4.014
 7402SOL    HW123105   3.153   5.197   4.112
 7402SOL    HW223106   3.142   5.086   3.994
 7403SOL     OW23107   1.856   5.072   4.057
 7403SOL    HW123108   1.785   5.142   4.049
 7403SOL    HW223109   1.858   5.017   3.973
 7404SOL     OW23110   1.926   2.912   1.286
 7404SOL    HW123111   1.863   2.969   1.234
 7404SOL    HW223112   1.914   2.930   1.384
 7405SOL     OW23113   3.302   6.554   6.057
 7405SOL    HW123114   3.365   6.487   6.019
 7405SOL    HW223115   3.310   6.640   6.006
 7406SOL     OW23116   0.723   2.526   4.587
 7406SOL    HW123117   0.674   2.581   4.655
 7406SOL    HW223118   0.658   2.473   4.533
 7407SOL     OW23119   1.204   6.083   4.312
 7407SOL    HW123120   1.239   6.008   4.368
 7407SOL    HW223121   1.253   6.168   4.335
 7408SOL     OW23122   4.276   5.144   5.488
 7408SOL    HW123123   4.218   5.211   5.535
 7408SOL    HW223124   4.224   5.059   5.476
 7409SOL     OW23125   6.193   5.017   1.428
 7409SOL    HW123126   6.214   5.000   1.525
 7409SOL    HW223127   6.221   5.110   1.404
 7410SOL     OW23128   6.413   1.244   0.363
 7410SOL    HW123129   6.395   1.169   0.299
 7410SOL    HW223130   6.384   1.218   0.455
 7411SOL     OW23131   3.633   1.694   5.701
 7411SOL    HW123132   3.533   1.703   5.697
 7411SOL    HW223133   3.658   1.639   5.781
 7412SOL     OW23134   4.409   7.005   6.534
 7412SOL    HW123135   4.419   7.004   6.633
 7412SOL    HW223136   4.422   6.913   6.498
 7413SOL     OW23137   4.848   1.067   4.017
 7413SOL    HW123138   4.828   1.086   3.921
 7413SOL    HW223139   4.780   1.112   4.075
 7414SOL     OW23140   2.891   0.903   4.413
 7414SOL    HW123141   2.870   0.998   4.434
 7414SOL    HW223142   2.930   0.897   4.321
 7415SOL     OW23143   4.270   0.612   6.014
 7415SOL    HW123144   4.206   0.578   5.946
 7415SOL    HW223145   4.220   0.641   6.096
 7416SOL     OW23146   0.301   0.474   1.661
 7416SOL    HW123147   0.396   0.443   1.665
 7416SOL    HW223148   0.281   0.530   1.741
 7417SOL     OW23149   0.155   0.226   1.756
 7417SOL    HW123150   0.199   0.139   1.735
 7417SOL    HW223151   0.212   0.302   1.726
 7418SOL     OW23152   2.060   3.502   6.495
 7418SOL    HW123153   2.135   3.531   6.556
 7418SOL    HW223154   1.973   3.526   6.537
 7419SOL     OW23155   6.460   3.126   4.548
 7419SOL    HW123156   6.548   3.118   4.595
 7419SOL    HW223157   6.425   3.219   4.560
 7420SOL     OW23158   6.964   0.103   0.306
 7420SOL    HW123159   6.974   0.013   0.263
 7420SOL    HW223160   6.907   0.161   0.249
 7421SOL     OW23161   6.753   3.932   0.884
 7421SOL    HW123162   6.673   3.937   0.825
 7421SOL    HW223163   6.781   4.024   0.911
 7422SOL     OW23164   6.435   3.363   1.885
 7422SOL    HW123165   6.508   3.383   1.950
 7422SOL    HW223166   6.366   3.306   1.930
 7423SOL     OW23167   4.071   2.431   5.661
 7423SOL    HW123168   4.166   2.460   5.655
 7423SOL    HW223169   4.066   2.333   5.681
 7424SOL     OW23170   0.426   1.679   4.239
 7424SOL    HW123171   0.477   1.719   4.315
 7424SOL    HW223172   0.488   1.627   4.180
 7425SOL     OW23173   5.469   0.398   0.952
 7425SOL    HW123174   5.553   0.349   0.933
 7425SOL    HW223175   5.393   0.356   0.902
 7426SOL     OW23176   3.783   3.477   5.369
 7426SOL    HW123177   3.821   3.391   5.403
 7426SOL    HW223178   3.846   3.552   5.391
 7427SOL     OW23179   2.668   0.834   1.526
 7427SOL    HW123180   2.632   0.877   1.609
 7427SOL    HW223181   2.592   0.811   1.465
 7428SOL     OW23182   1.386   6.835   5.542
 7428SOL    HW123183   1.484   6.849   5.555
 7428SOL    HW223184   1.336   6.879   5.616
 7429SOL     OW23185   1.327   0.466   2.413
 7429SOL    HW123186   1.318   0.561   2.442
 7429SOL    HW223187   1.298   0.405   2.487
 7430SOL     OW23188   6.346   3.921   2.263
 7430SOL    HW123189   6.387   3.993   2.207
 7430SOL    HW223190   6.276   3.873   2.210
 7431SOL     OW23191   1.399   2.726   4.555
 7431SOL    HW123192   1.495   2.699   4.562
 7431SOL    HW223193   1.353   2.709   4.643
 7432SOL     OW23194   1.331   0.983   2.564
 7432SOL    HW123195   1.354   1.054   2.497
 7432SOL    HW223196   1.409   0.967   2.624
 7433SOL     OW23197   3.623   0.225   6.279
 7433SOL    HW123198   3.602   0.258   6.371
 7433SOL    HW223199   3.556   0.156   6.252
 7434SOL     OW23200   4.023   6.798   3.966
 7434SOL    HW123201   3.972   6.829   3.886
 7434SOL    HW223202   3.962   6.793   4.045
 7435SOL     OW23203   5.325   4.737   3.171
 7435SOL    HW123204   5.227   4.718   3.176
 7435SOL    HW223205   5.340   4.834   3.153
 7436SOL     OW23206   4.518   2.798   6.211
 7436SOL    HW123207   4.451   2.788   6.285
 7436SOL    HW223208   4.510   2.889   6.171
 7437SOL     OW23209   3.805   0.387   1.816
 7437SOL    HW123210   3.756   0.309   1.777
 7437SOL    HW223211   3.741   0.459   1.839
 7438SOL     OW23212   2.019   0.966   6.798
 7438SOL    HW123213   2.111   1.005   6.801
 7438SOL    HW223214   1.963   1.019   6.735
 7439SOL     OW23215   1.459   4.155   6.231
 7439SOL    HW123216   1.377   4.213   6.231
 7439SOL    HW223217   1.463   4.103   6.146
 7440SOL     OW23218   5.998   2.416   4.697
 7440SOL    HW123219   6.064   2.483   4.731
 7440SOL    HW223220   5.919   2.464   4.659
 7441SOL     OW23221   4.393   6.543   0.380
 7441SOL    HW123222   4.471   6.500   0.426
 7441SOL    HW223223   4.378   6.498   0.292
 7442SOL     OW23224   6.593   1.401   6.449
 7442SOL    HW123225   6.519   1.349   6.492
 7442SOL    HW223226   6.675   1.344   6.444
 7443SOL     OW23227   0.067   6.744   0.567
 7443SOL    HW123228   0.009   6.707   0.640
 7443SOL    HW223229   0.131   6.673   0.538
 7444SOL     OW23230   1.438   5.714   6.420
 7444SOL    HW123231   1.413   5.800   6.465
 7444SOL    HW223232   1.378   5.699   6.342
 7445SOL     OW23233   3.819   6.092   2.437
 7445SOL    HW123234   3.918   6.092   2.425
 7445SOL    HW223235   3.774   6.087   2.348
 7446SOL     OW23236   6.512   4.988   0.299
 7446SOL    HW123237   6.564   4.914   0.342
 7446SOL    HW223238   6.421   4.954   0.274
 7447SOL     OW23239   0.599   5.498   0.906
 7447SOL    HW123240   0.661   5.437   0.857
 7447SOL    HW223241   0.534   5.539   0.841
 7448SOL     OW23242   4.992   4.900   0.028
 7448SOL    HW123243   5.062   4.954   7.001
 7448SOL    HW223244   4.940   4.849   6.978
 7449SOL     OW23245   6.378   3.449   6.511
 7449SOL    HW123246   6.322   3.418   6.587
 7449SOL    HW223247   6.360   3.392   6.431
 7450SOL     OW23248   5.305   3.298   0.659
 7450SOL    HW123249   5.355   3.368   0.607
 7450SOL    HW223250   5.228   3.341   0.706
 7451SOL     OW23251   4.450   5.123   3.093
 7451SOL    HW123252   4.397   5.126   3.008
 7451SOL    HW223253   4.388   5.107   3.170
 7452SOL     OW23254   6.622   5.903   6.721
 7452SOL    HW123255   6.684   5.899   6.800
 7452SOL    HW223256   6.673   5.934   6.641
 7453SOL     OW23257   4.517   5.038   6.227
 7453SOL    HW123258   4.442   5.007   6.168
 7453SOL    HW223259   4.490   5.026   6.323
 7454SOL     OW23260   4.088   1.866   1.440
 7454SOL    HW123261   4.100   1.963   1.458
 7454SOL    HW223262   4.169   1.816   1.470
 7455SOL     OW23263   6.693   0.489   2.773
 7455SOL    HW123264   6.650   0.579   2.771
 7455SOL    HW223265   6.767   0.486   2.706
 7456SOL     OW23266   2.889   0.940   5.325
 7456SOL    HW123267   2.914   1.036   5.336
 7456SOL    HW223268   2.807   0.933   5.268
 7457SOL     OW23269   1.267   1.649   2.496
 7457SOL    HW123270   1.354   1.695   2.516
 7457SOL    HW223271   1.224   1.692   2.416
 7458SOL     OW23272   0.305   6.052   5.117
 7458SOL    HW123273   0.209   6.038   5.137
 7458SOL    HW223274   0.326   6.149   5.118
 7459SOL     OW23275   5.880   6.742   3.073
 7459SOL    HW123276   5.797   6.789   3.103
 7459SOL    HW223277   5.905   6.773   2.981
 7460SOL     OW23278   0.708   0.538   1.148
 7460SOL    HW123279   0.764   0.570   1.225
 7460SOL    HW223280   0.767   0.499   1.078
 7461SOL     OW23281   1.859   4.546   5.477
 7461SOL    HW123282   1.807   4.461   5.476
 7461SOL    HW223283   1.957   4.525   5.470
 7462SOL     OW23284   1.947   4.556   0.135
 7462SOL    HW123285   1.895   4.473   0.158
 7462SOL    HW223286   2.043   4.532   0.122
 7463SOL     OW23287   4.979   4.942   0.813
 7463SOL    HW123288   4.934   4.906   0.895
 7463SOL    HW223289   4.922   4.923   0.733
 7464SOL     OW23290   5.380   5.119   5.362
 7464SOL    HW123291   5.460   5.146   5.309
 7464SOL    HW223292   5.402   5.038   5.416
 7465SOL     OW23293   1.408   3.508   6.581
 7465SOL    HW123294   1.369   3.553   6.661
 7465SOL    HW223295   1.451   3.576   6.521
 7466SOL     OW23296   0.309   0.033   5.625
 7466SOL    HW123297   0.236   6.989   5.651
 7466SOL    HW223298   0.377   0.037   5.698
 7467SOL     OW23299   1.065   3.371   4.041
 7467SOL    HW123300   1.156   3.332   4.026
 7467SOL    HW223301   1.007   3.352   3.961
 7468SOL     OW23302   6.191   2.691   4.686
 7468SOL    HW123303   6.146   2.692   4.775
 7468SOL    HW223304   6.265   2.760   4.686
 7469SOL     OW23305   0.181   1.997   0.149
 7469SOL    HW123306   0.111   2.068   0.136
 7469SOL    HW223307   0.240   1.993   0.069
 7470SOL     OW23308   5.074   3.040   3.924
 7470SOL    HW123309   4.976   3.047   3.939
 7470SOL    HW223310   5.099   2.945   3.904
 7471SOL     OW23311   3.424   0.033   6.149
 7471SOL    HW123312   3.344   6.999   6.175
 7471SOL    HW223313   3.398   0.104   6.084
 7472SOL     OW23314   6.714   0.024   5.477
 7472SOL    HW123315   6.633   0.078   5.453
 7472SOL    HW223316   6.796   0.075   5.450
 7473SOL     OW23317   4.357   6.858   3.212
 7473SOL    HW123318   4.407   6.892   3.291
 7473SOL    HW223319   4.327   6.935   3.155
 7474SOL     OW23320   6.195   2.155   1.442
 7474SOL    HW123321   6.209   2.157   1.343
 7474SOL    HW223322   6.111   2.205   1.464
 7475SOL     OW23323   5.180   2.993   1.263
 7475SOL    HW123324   5.209   2.941   1.182
 7475SOL    HW223325   5.094   3.040   1.242
 7476SOL     OW23326   2.364   1.525   2.624
 7476SOL    HW123327   2.425   1.451   2.651
 7476SOL    HW223328   2.272   1.489   2.610
 7477SOL     OW23329   2.547   3.720   6.038
 7477SOL    HW123330   2.465   3.678   5.999
 7477SOL    HW223331   2.602   3.762   5.964
 7478SOL     OW23332   0.641   2.730   6.541
 7478SOL    HW123333   0.620   2.815   6.492
 7478SOL    HW223334   0.570   2.662   6.521
 7479SOL     OW23335   5.790   2.538   1.935
 7479SOL    HW123336   5.779   2.467   2.004
 7479SOL    HW223337   5.785   2.498   1.844
 7480SOL     OW23338   4.116   6.037   2.031
 7480SOL    HW123339   4.115   5.983   1.947
 7480SOL    HW223340   4.073   6.125   2.014
 7481SOL     OW23341   0.302   4.393   6.792
 7481SOL    HW123342   0.290   4.490   6.771
 7481SOL    HW223343   0.385   4.359   6.748
 7482SOL     OW23344   4.094   1.711   4.918
 7482SOL    HW123345   4.131   1.672   5.002
 7482SOL    HW223346   4.009   1.665   4.894
 7483SOL     OW23347   5.817   1.218   5.814
 7483SOL    HW123348   5.879   1.140   5.821
 7483SOL    HW223349   5.781   1.224   5.721
 7484SOL     OW23350   2.428   6.705   4.819
 7484SOL    HW123351   2.333   6.673   4.812
 7484SOL    HW223352   2.430   6.805   4.813
 7485SOL     OW23353   4.005   0.198   6.846
 7485SOL    HW123354   4.001   0.100   6.825
 7485SOL    HW223355   4.100   0.225   6.858
 7486SOL     OW23356   4.491   5.997   0.766
 7486SOL    HW123357   4.536   6.086   0.760
 7486SOL    HW223358   4.392   6.010   0.775
 7487SOL     OW23359   3.251   6.384   4.417
 7487SOL    HW123360   3.202   6.470   4.403
 7487SOL    HW223361   3.298   6.358   4.333
 7488SOL     OW23362   1.827   5.840   3.583
 7488SOL    HW123363   1.773   5.795   3.654
 7488SOL    HW223364   1.808   5.797   3.495
 7489SOL     OW23365   4.747   3.591   6.118
 7489SOL    HW123366   4.737   3.493   6.135
 7489SOL    HW223367   4.704   3.642   6.192
 7490SOL     OW23368   2.044   2.246   1.285
 7490SOL    HW123369   2.106   2.255   1.207
 7490SOL    HW223370   2.028   2.149   1.304
 7491SOL     OW23371   4.495   4.145   6.547
 7491SOL    HW123372   4.463   4.232   6.509
 7491SOL    HW223373   4.437   4.120   6.625
 7492SOL     OW23374   1.497   1.131   3.071
 7492SOL    HW123375   1.416   1.075   3.089
 7492SOL    HW223376   1.475   1.227   3.083
 7493SOL     OW23377   6.084   4.696   4.503
 7493SOL    HW123378   6.056   4.743   4.419
 7493SOL    HW223379   6.033   4.611   4.512
 7494SOL     OW23380   6.046   1.314   2.128
 7494SOL    HW123381   5.954   1.349   2.107
 7494SOL    HW223382   6.049   1.216   2.109
 7495SOL     OW23383   1.632   3.339   4.188
 7495SOL    HW123384   1.726   3.304   4.182
 7495SOL    HW223385   1.590   3.306   4.272
 7496SOL     OW23386   5.770   2.870   3.179
 7496SOL    HW123387   5.773   2.787   3.235
 7496SOL    HW223388   5.682   2.874   3.130
 7497SOL     OW23389   6.041   0.560   1.122
 7497SOL    HW123390   6.110   0.606   1.066
 7497SOL    HW223391   5.979   0.509   1.064
 7498SOL     OW23392   2.218   6.204   3.266
 7498SOL    HW123393   2.311   6.182   3.236
 7498SOL    HW223394   2.206   6.303   3.265
 7499SOL     OW23395   2.739   1.438   3.400
 7499SOL    HW123396   2.790   1.513   3.443
 7499SOL    HW223397   2.753   1.441   3.301
 7500SOL     OW23398   3.641   1.259   4.838
 7500SOL    HW123399   3.638   1.273   4.739
 7500SOL    HW223400   3.623   1.162   4.858
 7501SOL     OW23401   5.943   2.080   3.795
 7501SOL    HW123402   6.032   2.115   3.767
 7501SOL    HW223403   5.908   2.134   3.871
 7502SOL     OW23404   3.751   1.283   3.615
 7502SOL    HW123405   3.833   1.278   3.672
 7502SOL    HW223406   3.771   1.245   3.525
 7503SOL     OW23407   1.021   5.634   0.899
 7503SOL    HW123408   0.981   5.676   0.981
 7503SOL    HW223409   1.114   5.666   0.887
 7504SOL     OW23410   5.515   6.359   5.183
 7504SOL    HW123411   5.559   6.351   5.273
 7504SOL    HW223412   5.477   6.450   5.172
 7505SOL     OW23413   0.416   6.649   6.833
 7505SOL    HW123414   0.398   6.743   6.861
 7505SOL    HW223415   0.488   6.610   6.890
 7506SOL     OW23416   3.836   2.167   4.367
 7506SOL    HW123417   3.791   2.253   4.390
 7506SOL    HW223418   3.804   2.096   4.430
 7507SOL     OW23419   6.749   3.588   6.425
 7507SOL    HW123420   6.746   3.488   6.437
 7507SOL    HW223421   6.695   3.632   6.497
 7508SOL     OW23422   3.464   6.554   0.146
 7508SOL    HW123423   3.467   6.614   0.226
 7508SOL    HW223424   3.525   6.591   0.075
 7509SOL     OW23425   5.669   4.477   3.183
 7509SOL    HW123426   5.747   4.536   3.206
 7509SOL    HW223427   5.680   4.443   3.090
 7510SOL     OW23428   3.645   4.817   1.379
 7510SOL    HW123429   3.596   4.778   1.457
 7510SOL    HW223430   3.685   4.904   1.406
 7511SOL     OW23431   4.914   6.129   3.812
 7511SOL    HW123432   4.948   6.057   3.752
 7511SOL    HW223433   4.815   6.139   3.799
 7512SOL     OW23434   3.793   6.126   0.842
 7512SOL    HW123435   3.893   6.119   0.850
 7512SOL    HW223436   3.769   6.212   0.796
 7513SOL     OW23437   0.375   0.598   2.567
 7513SOL    HW123438   0.374   0.498   2.560
 7513SOL    HW223439   0.324   0.637   2.491
 7514SOL     OW23440   0.108   0.398   0.277
 7514SOL    HW123441   0.057   0.367   0.357
 7514SOL    HW223442   0.056   0.469   0.230
 7515SOL     OW23443   0.330   4.836   5.121
 7515SOL    HW123444   0.388   4.820   5.200
 7515SOL    HW223445   0.315   4.934   5.109
 7516SOL     OW23446   2.160   5.848   4.977
 7516SOL    HW123447   2.240   5.824   4.921
 7516SOL    HW223448   2.109   5.765   4.998
 7517SOL     OW23449   0.347   2.641   0.359
 7517SOL    HW123450   0.350   2.575   0.284
 7517SOL    HW223451   0.437   2.646   0.403
 7518SOL     OW23452   3.969   2.033   4.823
 7518SOL    HW123453   3.971   2.118   4.875
 7518SOL    HW223454   4.035   2.037   4.748
 7519SOL     OW23455   3.074   6.310   4.873
 7519SOL    HW123456   3.022   6.395   4.873
 7519SOL    HW223457   3.098   6.286   4.779
 7520SOL     OW23458   1.964   0.674   0.758
 7520SOL    HW123459   1.932   0.688   0.852
 7520SOL    HW223460   2.061   0.697   0.753
 7521SOL     OW23461   4.531   1.500   5.738
 7521SOL    HW123462   4.466   1.545   5.677
 7521SOL    HW223463   4.481   1.457   5.814
 7522SOL     OW23464   1.642   6.536   4.184
 7522SOL    HW123465   1.685   6.540   4.094
 7522SOL    HW223466   1.546   6.564   4.176
 7523SOL     OW23467   5.841   1.768   6.846
 7523SOL    HW123468   5.775   1.791   6.917
 7523SOL    HW223469   5.912   1.838   6.841
 7524SOL     OW23470   0.053   3.985   4.916
 7524SOL    HW123471   0.152   4.000   4.926
 7524SOL    HW223472   0.005   4.031   4.990
 7525SOL     OW23473   2.732   4.833   5.760
 7525SOL    HW123474   2.663   4.760   5.758
 7525SOL    HW223475   2.687   4.922   5.750
 7526SOL     OW23476   1.042   4.010   0.774
 7526SOL    HW123477   1.004   3.984   0.863
 7526SOL    HW223478   1.087   3.931   0.733
 7527SOL     OW23479   3.193   5.618   2.665
 7527SOL    HW123480   3.256   5.541   2.662
 7527SOL    HW223481   3.100   5.584   2.681
 7528SOL     OW23482   6.691   2.796   0.303
 7528SOL    HW123483   6.767   2.748   0.260
 7528SOL    HW223484   6.726   2.873   0.356
 7529SOL     OW23485   5.907   2.892   4.744
 7529SOL    HW123486   5.937   2.797   4.735
 7529SOL    HW223487   5.920   2.940   4.658
 7530SOL     OW23488   1.719   2.384   3.124
 7530SOL    HW123489   1.661   2.379   3.206
 7530SOL    HW223490   1.775   2.302   3.119
 7531SOL     OW23491   4.575   1.789   3.888
 7531SOL    HW123492   4.642   1.746   3.828
 7531SOL    HW223493   4.484   1.783   3.847
 7532SOL     OW23494   4.400   4.932   6.438
 7532SOL    HW123495   4.316   4.919   6.387
 7532SOL    HW223496   4.389   4.896   6.531
 7533SOL     OW23497   4.426   4.665   1.137
 7533SOL    HW123498   4.392   4.581   1.180
 7533SOL    HW223499   4.420   4.655   1.037
 7534SOL     OW23500   4.444   6.300   4.703
 7534SOL    HW123501   4.406   6.349   4.625
 7534SOL    HW223502   4.405   6.208   4.706
 7535SOL     OW23503   0.348   7.004   4.657
 7535SOL    HW123504   0.280   6.971   4.591
 7535SOL    HW223505   0.300   0.019   4.739
 7536SOL     OW23506   6.006   0.086   2.768
 7536SOL    HW123507   6.011   0.145   2.688
 7536SOL    HW223508   6.072   0.116   2.836
 7537SOL     OW23509   2.406   0.635   2.193
 7537SOL    HW123510   2.331   0.587   2.239
 7537SOL    HW223511   2.370   0.716   2.147
 7538SOL     OW23512   6.976   4.599   0.075
 7538SOL    HW123513   6.989   4.503   0.099
 7538SOL    HW223514   0.021   4.656   0.128
 7539SOL     OW23515   6.485   0.297   4.958
 7539SOL    HW123516   6.585   0.293   4.957
 7539SOL    HW223517   6.449   0.251   4.877
 7540SOL     OW23518   5.584   3.606   3.458
 7540SOL    HW123519   5.583   3.512   3.425
 7540SOL    HW223520   5.569   3.669   3.381
 7541SOL     OW23521   2.296   3.808   0.011
 7541SOL    HW123522   2.273   3.712   0.000
 7541SOL    HW223523   2.312   3.849   6.939
 7542SOL     OW23524   6.360   5.635   4.766
 7542SOL    HW123525   6.286   5.660   4.829
 7542SOL    HW223526   6.332   5.657   4.673
 7543SOL     OW23527   2.265   0.437   0.782
 7543SOL    HW123528   2.215   0.519   0.754
 7543SOL    HW223529   2.358   0.440   0.747
 7544SOL     OW23530   6.127   1.536   5.116
 7544SOL    HW123531   6.086   1.496   5.034
 7544SOL    HW223532   6.211   1.487   5.138
 7545SOL     OW23533   1.032   5.401   4.872
 7545SOL    HW123534   0.950   5.355   4.837
 7545SOL    HW223535   1.011   5.496   4.891
 7546SOL     OW23536   2.292   3.014   1.735
 7546SOL    HW123537   2.220   3.060   1.683
 7546SOL    HW223538   2.277   2.916   1.733
 7547SOL     OW23539   3.992   0.137   1.942
 7547SOL    HW123540   4.053   0.216   1.946
 7547SOL    HW223541   3.914   0.158   1.883
 7548SOL     OW23542   2.341   2.115   6.197
 7548SOL    HW123543   2.276   2.041   6.211
 7548SOL    HW223544   2.415   2.084   6.137
 7549SOL     OW23545   4.912   0.386   4.989
 7549SOL    HW123546   4.896   0.483   5.008
 7549SOL    HW223547   4.846   0.330   5.039
 7550SOL     OW23548   2.610   5.797   4.940
 7550SOL    HW123549   2.668   5.716   4.953
 7550SOL    HW223550   2.537   5.796   5.008
 7551SOL     OW23551   6.238   3.344   6.257
 7551SOL    HW123552   6.254   3.293   6.173
 7551SOL    HW223553   6.225   3.441   6.236
 7552SOL     OW23554   2.788   6.448   4.219
 7552SOL    HW123555   2.857   6.383   4.251
 7552SOL    HW223556   2.795   6.458   4.120
 7553SOL     OW23557   6.379   0.031   5.416
 7553SOL    HW123558   6.312   0.104   5.431
 7553SOL    HW223559   6.415   0.038   5.323
 7554SOL     OW23560   4.964   1.650   1.746
 7554SOL    HW123561   4.884   1.608   1.790
 7554SOL    HW223562   4.994   1.728   1.800
 7555SOL     OW23563   4.868   5.760   4.112
 7555SOL    HW123564   4.957   5.800   4.092
 7555SOL    HW223565   4.829   5.721   4.029
 7556SOL     OW23566   0.640   6.108   0.601
 7556SOL    HW123567   0.717   6.086   0.541
 7556SOL    HW223568   0.662   6.190   0.655
 7557SOL     OW23569   4.166   6.049   0.185
 7557SOL    HW123570   4.170   6.106   0.103
 7557SOL    HW223571   4.251   5.998   0.195
 7558SOL     OW23572   1.062   1.509   3.935
 7558SOL    HW123573   0.975   1.464   3.955
 7558SOL    HW223574   1.050   1.572   3.859
 7559SOL     OW23575   1.367   6.674   5.320
 7559SOL    HW123576   1.274   6.671   5.284
 7559SOL    HW223577   1.365   6.702   5.416
 7560SOL     OW23578   1.115   0.697   5.660
 7560SOL    HW123579   1.139   0.646   5.577
 7560SOL    HW223580   1.092   0.792   5.636
 7561SOL     OW23581   5.320   1.255   5.370
 7561SOL    HW123582   5.334   1.169   5.419
 7561SOL    HW223583   5.283   1.236   5.279
 7562SOL     OW23584   1.694   5.481   3.629
 7562SOL    HW123585   1.600   5.461   3.601
 7562SOL    HW223586   1.698   5.573   3.668
 7563SOL     OW23587   2.641   6.643   3.307
 7563SOL    HW123588   2.577   6.569   3.287
 7563SOL    HW223589   2.597   6.731   3.287
 7564SOL     OW23590   5.376   3.220   6.082
 7564SOL    HW123591   5.378   3.176   5.992
 7564SOL    HW223592   5.287   3.264   6.095
 7565SOL     OW23593   6.735   3.607   5.703
 7565SOL    HW123594   6.654   3.663   5.684
 7565SOL    HW223595   6.733   3.577   5.798
 7566SOL     OW23596   4.864   4.245   1.587
 7566SOL    HW123597   4.931   4.177   1.558
 7566SOL    HW223598   4.859   4.246   1.687
 7567SOL     OW23599   1.552   0.318   2.991
 7567SOL    HW123600   1.466   0.296   3.037
 7567SOL    HW223601   1.621   0.251   3.015
 7568SOL     OW23602   0.148   4.183   1.022
 7568SOL    HW123603   0.173   4.134   1.106
 7568SOL    HW223604   0.053   4.163   0.998
 7569SOL     OW23605   4.487   3.873   1.384
 7569SOL    HW123606   4.452   3.949   1.440
 7569SOL    HW223607   4.467   3.891   1.288
 7570SOL     OW23608   0.945   2.594   1.805
 7570SOL    HW123609   0.981   2.525   1.868
 7570SOL    HW223610   0.918   2.550   1.720
 7571SOL     OW23611   4.941   1.837   3.687
 7571SOL    HW123612   5.008   1.823   3.614
 7571SOL    HW223613   4.869   1.898   3.655
 7572SOL     OW23614   4.763   6.815   2.823
 7572SOL    HW123615   4.799   6.907   2.837
 7572SOL    HW223616   4.837   6.748   2.832
 7573SOL     OW23617   3.480   0.082   5.758
 7573SOL    HW123618   3.493   0.055   5.663
 7573SOL    HW223619   3.544   0.155   5.781
 7574SOL     OW23620   0.961   3.063   3.112
 7574SOL    HW123621   1.027   3.135   3.133
 7574SOL    HW223622   0.996   3.006   3.038
 7575SOL     OW23623   0.005   6.807   0.121
 7575SOL    HW123624   0.083   6.762   0.164
 7575SOL    HW223625   6.959   6.738   0.088
 7576SOL     OW23626   4.578   3.015   0.238
 7576SOL    HW123627   4.628   2.959   0.304
 7576SOL    HW223628   4.536   3.093   0.286
 7577SOL     OW23629   6.961   0.276   6.141
 7577SOL    HW123630   6.989   0.294   6.235
 7577SOL    HW223631   6.984   0.181   6.117
 7578SOL     OW23632   6.334   5.417   2.743
 7578SOL    HW123633   6.401   5.353   2.707
 7578SOL    HW223634   6.285   5.375   2.819
 7579SOL     OW23635   1.126   1.554   6.829
 7579SOL    HW123636   1.197   1.491   6.799
 7579SOL    HW223637   1.151   1.648   6.804
 7580SOL     OW23638   2.406   4.955   2.493
 7580SOL    HW123639   2.325   5.010   2.472
 7580SOL    HW223640   2.435   4.906   2.410
 7581SOL     OW23641   0.585   0.316   0.814
 7581SOL    HW123642   0.532   0.268   0.884
 7581SOL    HW223643   0.563   0.414   0.816
 7582SOL     OW23644   1.852   0.259   5.924
 7582SOL    HW123645   1.758   0.232   5.947
 7582SOL    HW223646   1.900   0.286   6.008
 7583SOL     OW23647   5.570   4.087   2.207
 7583SOL    HW123648   5.473   4.103   2.224
 7583SOL    HW223649   5.610   4.167   2.162
 7584SOL     OW23650   6.976   0.744   3.503
 7584SOL    HW123651   7.000   0.653   3.538
 7584SOL    HW223652   6.880   0.744   3.474
 7585SOL     OW23653   0.627   1.203   5.421
 7585SOL    HW123654   0.593   1.132   5.482
 7585SOL    HW223655   0.679   1.270   5.474
 7586SOL     OW23656   1.815   6.536   3.962
 7586SOL    HW123657   1.817   6.536   3.862
 7586SOL    HW223658   1.871   6.610   3.997
 7587SOL     OW23659   5.533   0.720   1.880
 7587SOL    HW123660   5.444   0.702   1.920
 7587SOL    HW223661   5.577   0.633   1.856
 7588SOL     OW23662   2.139   3.397   4.311
 7588SOL    HW123663   2.151   3.478   4.368
 7588SOL    HW223664   2.117   3.425   4.217
 7589SOL     OW23665   6.789   6.856   2.474
 7589SOL    HW123666   6.859   6.844   2.404
 7589SOL    HW223667   6.700   6.827   2.438
 7590SOL     OW23668   6.000   1.026   6.878
 7590SOL    HW123669   5.963   1.118   6.862
 7590SOL    HW223670   5.959   0.963   6.812
 7591SOL     OW23671   3.523   3.977   5.061
 7591SOL    HW123672   3.578   3.896   5.040
 7591SOL    HW223673   3.434   3.970   5.017
 7592SOL     OW23674   0.116   6.605   3.015
 7592SOL    HW123675   0.038   6.646   3.062
 7592SOL    HW223676   0.161   6.539   3.074
 7593SOL     OW23677   6.561   1.553   5.968
 7593SOL    HW123678   6.467   1.536   5.938
 7593SOL    HW223679   6.597   1.471   6.014
 7594SOL     OW23680   6.598   3.941   6.235
 7594SOL    HW123681   6.561   3.930   6.327
 7594SOL    HW223682   6.525   3.970   6.172
 7595SOL     OW23683   0.334   3.443   0.143
 7595SOL    HW123684   0.334   3.401   0.052
 7595SOL    HW223685   0.422   3.488   0.159
 7596SOL     OW23686   3.503   1.796   6.473
 7596SOL    HW123687   3.538   1.705   6.453
 7596SOL    HW223688   3.422   1.814   6.416
 7597SOL     OW23689   2.892   4.618   0.679
 7597SOL    HW123690   2.851   4.597   0.768
 7597SOL    HW223691   2.966   4.684   0.690
 7598SOL     OW23692   4.928   0.510   2.126
 7598SOL    HW123693   5.016   0.463   2.118
 7598SOL    HW223694   4.856   0.452   2.086
 7599SOL     OW23695   2.974   2.994   0.223
 7599SOL    HW123696   2.943   2.996   0.318
 7599SOL    HW223697   2.899   3.021   0.163
 7600SOL     OW23698   0.621   6.654   3.622
 7600SOL    HW123699   0.669   6.688   3.542
 7600SOL    HW223700   0.614   6.727   3.690
 7601SOL     OW23701   3.092   6.132   1.065
 7601SOL    HW123702   3.136   6.103   1.150
 7601SOL    HW223703   3.025   6.064   1.037
 7602SOL     OW23704   0.381   1.025   1.468
 7602SOL    HW123705   0.354   0.969   1.546
 7602SOL    HW223706   0.319   1.007   1.391
 7603SOL     OW23707   4.406   1.153   6.598
 7603SOL    HW123708   4.442   1.074   6.548
 7603SOL    HW223709   4.351   1.209   6.537
 7604SOL     OW23710   2.314   2.008   5.657
 7604SOL    HW123711   2.319   2.038   5.562
 7604SOL    HW223712   2.224   2.033   5.695
 7605SOL     OW23713   2.985   5.787   6.989
 7605SOL    HW123714   3.002   5.800   0.068
 7605SOL    HW223715   3.043   5.849   6.937
 7606SOL     OW23716   6.375   0.846   3.445
 7606SOL    HW123717   6.315   0.900   3.386
 7606SOL    HW223718   6.451   0.903   3.477
 7607SOL     OW23719   1.903   5.402   5.535
 7607SOL    HW123720   1.839   5.474   5.559
 7607SOL    HW223721   1.907   5.394   5.435
 7608SOL     OW23722   0.674   3.013   6.375
 7608SOL    HW123723   0.632   3.102   6.359
 7608SOL    HW223724   0.772   3.019   6.356
 7609SOL     OW23725   2.904   6.821   4.973
 7609SOL    HW123726   2.998   6.853   4.980
 7609SOL    HW223727   2.864   6.813   5.064
 7610SOL     OW23728   4.073   5.515   4.351
 7610SOL    HW123729   4.006   5.456   4.396
 7610SOL    HW223730   4.133   5.460   4.293
 7611SOL     OW23731   4.179   2.204   0.239
 7611SOL    HW123732   4.175   2.122   0.295
 7611SOL    HW223733   4.130   2.189   0.153
 7612SOL     OW23734   4.884   3.141   2.245
 7612SOL    HW123735   4.843   3.124   2.155
 7612SOL    HW223736   4.843   3.079   2.312
 7613SOL     OW23737   0.352   0.450   6.627
 7613SOL    HW123738   0.253   0.442   6.615
 7613SOL    HW223739   0.399   0.386   6.566
 7614SOL     OW23740   6.086   5.121   6.642
 7614SOL    HW123741   6.088   5.208   6.693
 7614SOL    HW223742   6.169   5.069   6.663
 7615SOL     OW23743   4.923   3.203   6.804
 7615SOL    HW123744   4.975   3.145   6.741
 7615SOL    HW223745   4.933   3.170   6.897
 7616SOL     OW23746   6.699   6.698   1.975
 7616SOL    HW123747   6.764   6.657   2.040
 7616SOL    HW223748   6.635   6.629   1.943
 7617SOL     OW23749   5.933   4.534   2.990
 7617SOL    HW123750   5.914   4.446   2.947
 7617SOL    HW223751   5.907   4.608   2.929
 7618SOL     OW23752   2.928   2.088   0.051
 7618SOL    HW123753   2.990   2.034   7.012
 7618SOL    HW223754   2.844   2.107   0.002
 7619SOL     OW23755   0.606   0.421   4.862
 7619SOL    HW123756   0.584   0.498   4.923
 7619SOL    HW223757   0.560   0.433   4.775
 7620SOL     OW23758   3.385   4.066   0.274
 7620SOL    HW123759   3.434   3.990   0.317
 7620SOL    HW223760   3.341   4.033   0.190
 7621SOL     OW23761   6.085   4.867   0.534
 7621SOL    HW123762   6.160   4.886   0.598
 7621SOL    HW223763   6.010   4.932   0.550
 7622SOL     OW23764   2.393   4.088   0.628
 7622SOL    HW123765   2.457   4.017   0.659
 7622SOL    HW223766   2.344   4.055   0.547
 7623SOL     OW23767   4.931   4.946   3.410
 7623SOL    HW123768   4.931   4.892   3.327
 7623SOL    HW223769   4.935   5.043   3.387
 7624SOL     OW23770   6.716   2.713   2.992
 7624SOL    HW123771   6.775   2.636   3.017
 7624SOL    HW223772   6.662   2.740   3.071
 7625SOL     OW23773   5.340   0.613   2.369
 7625SOL    HW123774   5.336   0.542   2.298
 7625SOL    HW223775   5.251   0.658   2.376
 7626SOL     OW23776   4.523   6.279   0.469
 7626SOL    HW123777   4.577   6.345   0.522
 7626SOL    HW223778   4.561   6.187   0.484
 7627SOL     OW23779   4.524   2.782   5.645
 7627SOL    HW123780   4.438   2.783   5.593
 7627SOL    HW223781   4.568   2.871   5.638
 7628SOL     OW23782   3.767   2.689   1.036
 7628SOL    HW123783   3.851   2.689   1.091
 7628SOL    HW223784   3.734   2.784   1.026
 7629SOL     OW23785   5.659   2.959   3.780
 7629SOL    HW123786   5.734   2.909   3.737
 7629SOL    HW223787   5.632   3.035   3.721
 7630SOL     OW23788   1.214   5.964   3.602
 7630SOL    HW123789   1.277   5.914   3.543
 7630SOL    HW223790   1.128   5.914   3.610
 7631SOL     OW23791   1.017   1.149   6.479
 7631SOL    HW123792   1.001   1.075   6.544
 7631SOL    HW223793   1.006   1.115   6.386
 7632SOL     OW23794   4.250   5.804   1.386
 7632SOL    HW123795   4.155   5.820   1.414
 7632SOL    HW223796   4.283   5.718   1.426
 7633SOL     OW23797   4.671   0.479   1.948
 7633SOL    HW123798   4.664   0.427   1.863
 7633SOL    HW223799   4.668   0.415   2.025
 7634SOL     OW23800   0.328   1.962   6.929
 7634SOL    HW123801   0.416   2.009   6.922
 7634SOL    HW223802   0.332   1.875   6.881
 7635SOL     OW23803   1.655   2.858   5.831
 7635SOL    HW123804   1.745   2.854   5.787
 7635SOL    HW223805   1.614   2.948   5.815
 7636SOL     OW23806   6.909   2.933   3.711
 7636SOL    HW123807   6.987   2.918   3.651
 7636SOL    HW223808   6.827   2.895   3.669
 7637SOL     OW23809   1.534   4.130   4.793
 7637SOL    HW123810   1.549   4.031   4.794
 7637SOL    HW223811   1.528   4.162   4.699
 7638SOL     OW23812   0.433   6.694   0.716
 7638SOL    HW123813   0.348   6.696   0.769
 7638SOL    HW223814   0.447   6.783   0.672
 7639SOL     OW23815   2.340   6.280   0.633
 7639SOL    HW123816   2.324   6.214   0.559
 7639SOL    HW223817   2.334   6.233   0.721
 7640SOL     OW23818   3.415   0.500   0.968
 7640SOL    HW123819   3.354   0.424   0.992
 7640SOL    HW223820   3.497   0.495   1.025
 7641SOL     OW23821   6.524   4.645   5.425
 7641SOL    HW123822   6.527   4.546   5.439
 7641SOL    HW223823   6.431   4.673   5.403
 7642SOL     OW23824   6.082   1.218   3.975
 7642SOL    HW123825   6.007   1.266   4.019
 7642SOL    HW223826   6.157   1.282   3.957
 7643SOL     OW23827   5.282   2.058   4.036
 7643SOL    HW123828   5.211   2.028   3.973
 7643SOL    HW223829   5.272   2.156   4.053
 7644SOL     OW23830   5.322   3.870   0.707
 7644SOL    HW123831   5.345   3.928   0.629
 7644SOL    HW223832   5.270   3.791   0.676
 7645SOL     OW23833   5.220   4.595   6.289
 7645SOL    HW123834   5.275   4.650   6.227
 7645SOL    HW223835   5.279   4.543   6.350
 7646SOL     OW23836   6.490   1.607   2.116
 7646SOL    HW123837   6.523   1.633   2.207
 7646SOL    HW223838   6.401   1.563   2.124
 7647SOL     OW23839   6.723   1.851   4.124
 7647SOL    HW123840   6.719   1.824   4.028
 7647SOL    HW223841   6.778   1.934   4.133
 7648SOL     OW23842   1.825   2.616   0.644
 7648SOL    HW123843   1.797   2.523   0.620
 7648SOL    HW223844   1.766   2.682   0.597
 7649SOL     OW23845   4.143   0.278   0.363
 7649SOL    HW123846   4.168   0.216   0.438
 7649SOL    HW223847   4.096   0.226   0.292
 7650SOL     OW23848   3.530   2.745   0.396
 7650SOL    HW123849   3.481   2.720   0.479
 7650SOL    HW223850   3.607   2.684   0.382
 7651SOL     OW23851   3.876   5.423   6.047
 7651SOL    HW123852   3.806   5.386   6.108
 7651SOL    HW223853   3.854   5.518   6.024
 7652SOL     OW23854   0.428   1.142   4.867
 7652SOL    HW123855   0.497   1.165   4.936
 7652SOL    HW223856   0.412   1.043   4.868
 7653SOL     OW23857   2.097   6.666   6.613
 7653SOL    HW123858   2.027   6.701   6.675
 7653SOL    HW223859   2.073   6.691   6.519
 7654SOL     OW23860   6.593   2.799   5.743
 7654SOL    HW123861   6.637   2.713   5.766
 7654SOL    HW223862   6.639   2.841   5.665
 7655SOL     OW23863   2.572   2.043   5.227
 7655SOL    HW123864   2.642   2.103   5.265
 7655SOL    HW223865   2.561   2.062   5.129
 7656SOL     OW23866   6.249   3.540   0.347
 7656SOL    HW123867   6.159   3.584   0.342
 7656SOL    HW223868   6.242   3.459   0.406
 7657SOL     OW23869   0.976   3.913   4.772
 7657SOL    HW123870   1.018   3.964   4.697
 7657SOL    HW223871   1.033   3.922   4.854
 7658SOL     OW23872   3.012   0.683   0.952
 7658SOL    HW123873   3.059   0.620   0.890
 7658SOL    HW223874   2.988   0.634   1.036
 7659SOL     OW23875   5.289   4.051   5.297
 7659SOL    HW123876   5.324   4.021   5.209
 7659SOL    HW223877   5.348   4.017   5.370
 7660SOL     OW23878   0.334   6.248   4.805
 7660SOL    HW123879   0.309   6.290   4.892
 7660SOL    HW223880   0.359   6.153   4.819
 7661SOL     OW23881   2.076   0.575   4.905
 7661SOL    HW123882   2.117   0.596   4.817
 7661SOL    HW223883   2.016   0.496   4.896
 7662SOL     OW23884   6.985   6.350   1.366
 7662SOL    HW123885   6.945   6.360   1.275
 7662SOL    HW223886   0.065   6.366   1.361
 7663SOL     OW23887   1.135   5.676   3.832
 7663SOL    HW123888   1.156   5.768   3.865
 7663SOL    HW223889   1.077   5.629   3.899
 7664SOL     OW23890   5.700   2.331   3.073
 7664SOL    HW123891   5.688   2.257   3.006
 7664SOL    HW223892   5.666   2.301   3.162
 7665SOL     OW23893   1.757   0.029   5.180
 7665SOL    HW123894   1.822   0.086   5.230
 7665SOL    HW223895   1.680   0.006   5.239
 7666SOL     OW23896   6.290   5.567   4.239
 7666SOL    HW123897   6.372   5.612   4.272
 7666SOL    HW223898   6.313   5.506   4.163
 7667SOL     OW23899   4.264   5.285   1.205
 7667SOL    HW123900   4.200   5.353   1.241
 7667SOL    HW223901   4.278   5.212   1.272
 7668SOL     OW23902   1.634   5.516   0.433
 7668SOL    HW123903   1.626   5.564   0.346
 7668SOL    HW223904   1.714   5.548   0.483
 7669SOL     OW23905   4.017   2.797   6.196
 7669SOL    HW123906   3.959   2.822   6.119
 7669SOL    HW223907   4.096   2.746   6.164
 7670SOL     OW23908   1.142   0.131   0.752
 7670SOL    HW123909   1.133   0.219   0.704
 7670SOL    HW223910   1.154   0.148   0.850
 7671SOL     OW23911   3.646   1.007   1.739
 7671SOL    HW123912   3.691   0.929   1.783
 7671SOL    HW223913   3.715   1.065   1.695
 7672SOL     OW23914   5.777   2.855   2.441
 7672SOL    HW123915   5.716   2.915   2.493
 7672SOL    HW223916   5.836   2.911   2.383
 7673SOL     OW23917   1.871   6.712   5.188
 7673SOL    HW123918   1.771   6.716   5.181
 7673SOL    HW223919   1.897   6.657   5.267
 7674SOL     OW23920   3.114   5.332   3.802
 7674SOL    HW123921   3.131   5.277   3.884
 7674SOL    HW223922   3.194   5.389   3.782
 7675SOL     OW23923   3.725   6.848   3.495
 7675SOL    HW123924   3.719   6.945   3.474
 7675SOL    HW223925   3.789   6.804   3.432
 7676SOL     OW23926   3.135   3.051   4.514
 7676SOL    HW123927   3.219   3.066   4.567
 7676SOL    HW223928   3.158   3.043   4.417
 7677SOL     OW23929   0.570   6.264   0.259
 7677SOL    HW123930   0.506   6.187   0.265
 7677SOL    HW223931   0.644   6.240   0.196
 7678SOL     OW23932   3.222   1.112   5.396
 7678SOL    HW123933   3.268   1.044   5.340
 7678SOL    HW223934   3.201   1.074   5.486
 7679SOL     OW23935   2.979   5.698   3.790
 7679SOL    HW123936   3.072   5.726   3.816
 7679SOL    HW223937   2.926   5.677   3.872
 7680SOL     OW23938   1.243   6.493   4.067
 7680SOL    HW123939   1.284   6.568   4.120
 7680SOL    HW223940   1.299   6.411   4.076
 7681SOL     OW23941   2.007   1.795   5.522
 7681SOL    HW123942   2.028   1.869   5.586
 7681SOL    HW223943   1.913   1.807   5.488
 7682SOL     OW23944   3.481   0.221   1.845
 7682SOL    HW123945   3.546   0.180   1.910
 7682SOL    HW223946   3.412   0.274   1.895
 7683SOL     OW23947   1.357   4.212   4.346
 7683SOL    HW123948   1.373   4.232   4.249
 7683SOL    HW223949   1.262   4.183   4.359
 7684SOL     OW23950   4.949   3.793   1.573
 7684SOL    HW123951   4.881   3.821   1.505
 7684SOL    HW223952   4.945   3.693   1.584
 7685SOL     OW23953   2.386   0.251   0.168
 7685SOL    HW123954   2.353   0.343   0.191
 7685SOL    HW223955   2.427   0.252   0.077
 7686SOL     OW23956   6.286   0.487   4.259
 7686SOL    HW123957   6.230   0.467   4.178
 7686SOL    HW223958   6.373   0.439   4.252
 7687SOL     OW23959   5.754   3.615   5.407
 7687SOL    HW123960   5.672   3.628   5.352
 7687SOL    HW223961   5.824   3.681   5.379
 7688SOL     OW23962   6.810   3.566   0.775
 7688SOL    HW123963   6.732   3.569   0.838
 7688SOL    HW223964   6.861   3.481   0.789
 7689SOL     OW23965   5.492   0.079   2.504
 7689SOL    HW123966   5.555   0.155   2.522
 7689SOL    HW223967   5.500   0.012   2.578
 7690SOL     OW23968   6.431   4.564   2.310
 7690SOL    HW123969   6.519   4.591   2.351
 7690SOL    HW223970   6.357   4.610   2.357
 7691SOL     OW23971   5.172   2.966   4.241
 7691SOL    HW123972   5.262   2.982   4.201
 7691SOL    HW223973   5.153   2.868   4.242
 7692SOL     OW23974   2.227   6.505   2.409
 7692SOL    HW123975   2.192   6.468   2.494
 7692SOL    HW223976   2.326   6.491   2.405
 7693SOL     OW23977   2.509   2.402   0.902
 7693SOL    HW123978   2.488   2.496   0.930
 7693SOL    HW223979   2.592   2.371   0.948
 7694SOL     OW23980   4.098   2.460   1.355
 7694SOL    HW123981   4.113   2.369   1.316
 7694SOL    HW223982   4.042   2.452   1.437
 7695SOL     OW23983   5.055   6.549   4.343
 7695SOL    HW123984   5.054   6.589   4.434
 7695SOL    HW223985   5.126   6.479   4.338
 7696SOL     OW23986   2.391   1.283   5.555
 7696SOL    HW123987   2.420   1.254   5.464
 7696SOL    HW223988   2.348   1.207   5.603
 7697SOL     OW23989   5.742   0.064   2.891
 7697SOL    HW123990   5.730   7.006   2.953
 7697SOL    HW223991   5.838   0.071   2.865
 7698SOL     OW23992   5.674   2.342   1.469
 7698SOL    HW123993   5.739   2.404   1.424
 7698SOL    HW223994   5.698   2.247   1.447
 7699SOL     OW23995   3.930   6.066   6.297
 7699SOL    HW123996   3.941   6.094   6.201
 7699SOL    HW223997   3.850   6.111   6.335
 7700SOL     OW23998   6.275   4.982   1.686
 7700SOL    HW123999   6.258   5.046   1.761
 7700SOL    HW224000   6.373   4.964   1.679
 7701SOL     OW24001   3.234   1.781   6.331
 7701SOL    HW124002   3.199   1.740   6.247
 7701SOL    HW224003   3.173   1.760   6.407
 7702SOL     OW24004   6.160   6.009   5.795
 7702SOL    HW124005   6.106   5.976   5.717
 7702SOL    HW224006   6.109   6.081   5.842
 7703SOL     OW24007   0.017   6.263   6.899
 7703SOL    HW124008   6.971   6.312   6.957
 7703SOL    HW224009   0.038   6.318   6.818
 7704SOL     OW24010   1.391   2.524   5.023
 7704SOL    HW124011   1.323   2.474   5.075
 7704SOL    HW224012   1.384   2.622   5.043
 7705SOL     OW24013   0.801   4.470   0.250
 7705SOL    HW124014   0.742   4.427   0.319
 7705SOL    HW224015   0.802   4.569   0.264
 7706SOL     OW24016   2.965   3.835   2.219
 7706SOL    HW124017   2.956   3.865   2.314
 7706SOL    HW224018   2.911   3.751   2.206
 7707SOL     OW24019   6.644   5.559   5.724
 7707SOL    HW124020   6.666   5.599   5.812
 7707SOL    HW224021   6.587   5.622   5.672
 7708SOL     OW24022   0.705   0.086   3.815
 7708SOL    HW124023   0.767   0.163   3.806
 7708SOL    HW224024   0.632   0.109   3.880
 7709SOL     OW24025   6.364   4.511   1.314
 7709SOL    HW124026   6.409   4.534   1.228
 7709SOL    HW224027   6.433   4.497   1.386
 7710SOL     OW24028   5.978   3.654   2.802
 7710SOL    HW124029   5.915   3.627   2.729
 7710SOL    HW224030   6.068   3.675   2.763
 7711SOL     OW24031   1.198   4.604   3.288
 7711SOL    HW124032   1.142   4.682   3.262
 7711SOL    HW224033   1.175   4.577   3.382
 7712SOL     OW24034   1.057   4.509   4.406
 7712SOL    HW124035   1.059   4.588   4.344
 7712SOL    HW224036   1.127   4.520   4.476
 7713SOL     OW24037   0.926   5.798   6.987
 7713SOL    HW124038   0.830   5.768   6.984
 7713SOL    HW224039   0.970   5.759   0.050
 7714SOL     OW24040   5.856   1.638   4.962
 7714SOL    HW124041   5.909   1.625   4.879
 7714SOL    HW224042   5.855   1.553   5.015
 7715SOL     OW24043   3.914   3.514   6.417
 7715SOL    HW124044   3.935   3.471   6.505
 7715SOL    HW224045   3.841   3.581   6.430
 7716SOL     OW24046   1.848   1.230   0.175
 7716SOL    HW124047   1.933   1.253   0.127
 7716SOL    HW224048   1.858   1.251   0.272
 7717SOL     OW24049   0.544   1.937   5.993
 7717SOL    HW124050   0.508   1.855   5.950
 7717SOL    HW224051   0.514   1.941   6.089
 7718SOL     OW24052   0.357   3.778   3.547
 7718SOL    HW124053   0.455   3.765   3.528
 7718SOL    HW224054   0.307   3.697   3.519
 7719SOL     OW24055   2.144   6.559   5.317
 7719SOL    HW124056   2.098   6.501   5.384
 7719SOL    HW224057   2.145   6.513   5.228
 7720SOL     OW24058   4.535   1.335   6.348
 7720SOL    HW124059   4.614   1.274   6.348
 7720SOL    HW224060   4.452   1.283   6.333
 7721SOL     OW24061   5.737   5.386   2.606
 7721SOL    HW124062   5.819   5.364   2.658
 7721SOL    HW224063   5.759   5.385   2.508
 7722SOL     OW24064   0.085   6.102   4.684
 7722SOL    HW124065   0.007   6.164   4.689
 7722SOL    HW224066   0.168   6.150   4.714
 7723SOL     OW24067   3.828   4.668   6.541
 7723SOL    HW124068   3.795   4.746   6.594
 7723SOL    HW224069   3.851   4.593   6.603
 7724SOL     OW24070   1.156   4.506   0.264
 7724SOL    HW124071   1.234   4.471   0.212
 7724SOL    HW224072   1.116   4.432   0.318
 7725SOL     OW24073   5.425   3.326   5.002
 7725SOL    HW124074   5.370   3.243   5.008
 7725SOL    HW224075   5.384   3.389   4.936
 7726SOL     OW24076   1.995   3.006   0.885
 7726SOL    HW124077   1.953   2.919   0.908
 7726SOL    HW224078   2.094   2.996   0.885
 7727SOL     OW24079   5.440   0.374   3.290
 7727SOL    HW124080   5.486   0.392   3.376
 7727SOL    HW224081   5.409   0.461   3.250
 7728SOL     OW24082   2.054   3.240   5.727
 7728SOL    HW124083   2.109   3.239   5.643
 7728SOL    HW224084   1.959   3.262   5.704
 7729SOL     OW24085   0.424   0.826   2.970
 7729SOL    HW124086   0.344   0.886   2.971
 7729SOL    HW224087   0.394   0.731   2.960
 7730SOL     OW24088   5.950   3.397   6.566
 7730SOL    HW124089   5.860   3.363   6.594
 7730SOL    HW224090   5.974   3.359   6.477
 7731SOL     OW24091   6.935   0.533   6.045
 7731SOL    HW124092   0.004   0.574   6.019
 7731SOL    HW224093   6.949   0.437   6.068
 7732SOL     OW24094   4.057   1.164   0.200
 7732SOL    HW124095   4.043   1.260   0.177
 7732SOL    HW224096   4.028   1.107   0.123
 7733SOL     OW24097   5.592   6.238   1.662
 7733SOL    HW124098   5.657   6.272   1.730
 7733SOL    HW224099   5.500   6.268   1.685
 7734SOL     OW24100   3.772   4.044   3.529
 7734SOL    HW124101   3.674   4.059   3.524
 7734SOL    HW224102   3.810   4.097   3.605
 7735SOL     OW24103   0.774   5.712   0.773
 7735SOL    HW124104   0.811   5.651   0.843
 7735SOL    HW224105   0.715   5.781   0.815
 7736SOL     OW24106   1.985   1.951   0.789
 7736SOL    HW124107   2.052   1.891   0.745
 7736SOL    HW224108   1.926   1.897   0.848
 7737SOL     OW24109   4.694   4.515   6.687
 7737SOL    HW124110   4.635   4.554   6.616
 7737SOL    HW224111   4.722   4.423   6.660
 7738SOL     OW24112   1.618   1.130   5.733
 7738SOL    HW124113   1.531   1.160   5.773
 7738SOL    HW224114   1.683   1.111   5.807
 7739SOL     OW24115   0.963   2.945   6.132
 7739SOL    HW124116   0.918   3.028   6.098
 7739SOL    HW224117   1.048   2.930   6.082
 7740SOL     OW24118   2.327   1.001   3.931
 7740SOL    HW124119   2.244   0.980   3.983
 7740SOL    HW224120   2.392   0.925   3.939
 7741SOL     OW24121   6.156   4.343   6.025
 7741SOL    HW124122   6.221   4.292   5.969
 7741SOL    HW224123   6.136   4.431   5.982
 7742SOL     OW24124   4.738   2.861   3.793
 7742SOL    HW124125   4.753   2.766   3.822
 7742SOL    HW224126   4.764   2.870   3.697
 7743SOL     OW24127   3.335   1.039   5.981
 7743SOL    HW124128   3.334   0.950   6.026
 7743SOL    HW224129   3.242   1.077   5.981
 7744SOL     OW24130   6.903   6.297   4.645
 7744SOL    HW124131   6.824   6.291   4.584
 7744SOL    HW224132   6.872   6.324   4.736
 7745SOL     OW24133   2.899   0.009   0.450
 7745SOL    HW124134   2.869   0.045   0.538
 7745SOL    HW224135   2.842   6.949   0.426
 7746SOL     OW24136   6.948   6.276   1.092
 7746SOL    HW124137   0.003   6.217   1.125
 7746SOL    HW224138   6.873   6.219   1.057
 7747SOL     OW24139   6.810   5.910   1.041
 7747SOL    HW124140   6.763   5.864   1.116
 7747SOL    HW224141   6.758   5.991   1.014
 7748SOL     OW24142   4.610   1.139   5.483
 7748SOL    HW124143   4.554   1.153   5.565
 7748SOL    HW224144   4.607   1.042   5.458
 7749SOL     OW24145   3.340   3.468   2.841
 7749SOL    HW124146   3.361   3.533   2.914
 7749SOL    HW224147   3.424   3.428   2.806
 7750SOL     OW24148   5.234   4.002   5.971
 7750SOL    HW124149   5.179   4.053   6.037
 7750SOL    HW224150   5.193   3.911   5.957
 7751SOL     OW24151   0.570   1.383   4.543
 7751SOL    HW124152   0.472   1.365   4.545
 7751SOL    HW224153   0.587   1.477   4.574
 7752SOL     OW24154   5.508   4.078   6.028
 7752SOL    HW124155   5.417   4.045   6.002
 7752SOL    HW224156   5.548   4.015   6.094
 7753SOL     OW24157   2.370   1.087   4.904
 7753SOL    HW124158   2.302   1.159   4.913
 7753SOL    HW224159   2.411   1.091   4.812
 7754SOL     OW24160   6.686   1.337   0.737
 7754SOL    HW124161   6.738   1.388   0.806
 7754SOL    HW224162   6.746   1.316   0.660
 7755SOL     OW24163   1.473   6.313   5.356
 7755SOL    HW124164   1.494   6.221   5.389
 7755SOL    HW224165   1.446   6.371   5.433
 7756SOL     OW24166   3.662   6.410   2.941
 7756SOL    HW124167   3.735   6.473   2.967
 7756SOL    HW224168   3.583   6.462   2.907
 7757SOL     OW24169   3.361   1.208   5.642
 7757SOL    HW124170   3.297   1.131   5.654
 7757SOL    HW224171   3.340   1.256   5.557
 7758SOL     OW24172   2.613   1.287   6.033
 7758SOL    HW124173   2.624   1.243   5.944
 7758SOL    HW224174   2.562   1.227   6.094
 7759SOL     OW24175   2.609   6.790   4.588
 7759SOL    HW124176   2.594   6.770   4.491
 7759SOL    HW224177   2.578   6.712   4.643
 7760SOL     OW24178   5.302   1.781   2.632
 7760SOL    HW124179   5.227   1.844   2.614
 7760SOL    HW224180   5.265   1.690   2.651
 7761SOL     OW24181   4.687   0.723   6.950
 7761SOL    HW124182   4.724   0.630   6.940
 7761SOL    HW224183   4.750   0.788   6.908
 7762SOL     OW24184   2.140   1.978   0.326
 7762SOL    HW124185   2.101   1.900   0.277
 7762SOL    HW224186   2.197   1.945   0.401
 7763SOL     OW24187   2.208   2.875   0.561
 7763SOL    HW124188   2.268   2.955   0.565
 7763SOL    HW224189   2.224   2.818   0.641
 7764SOL     OW24190   3.414   3.346   1.965
 7764SOL    HW124191   3.374   3.365   1.876
 7764SOL    HW224192   3.471   3.264   1.960
 7765SOL     OW24193   0.366   1.575   2.060
 7765SOL    HW124194   0.346   1.502   1.994
 7765SOL    HW224195   0.431   1.639   2.019
 7766SOL     OW24196   6.783   3.427   0.386
 7766SOL    HW124197   6.790   3.515   0.432
 7766SOL    HW224198   6.874   3.395   0.361
 7767SOL     OW24199   6.216   3.819   5.025
 7767SOL    HW124200   6.277   3.818   5.104
 7767SOL    HW224201   6.147   3.747   5.035
 7768SOL     OW24202   4.070   5.045   1.313
 7768SOL    HW124203   4.163   5.062   1.346
 7768SOL    HW224204   4.066   5.063   1.214
 7769SOL     OW24205   4.891   1.713   3.272
 7769SOL    HW124206   4.858   1.805   3.293
 7769SOL    HW224207   4.982   1.701   3.310
 7770SOL     OW24208   3.024   6.584   1.600
 7770SOL    HW124209   2.998   6.539   1.685
 7770SOL    HW224210   3.031   6.516   1.527
 7771SOL     OW24211   2.143   0.467   4.482
 7771SOL    HW124212   2.182   0.558   4.498
 7771SOL    HW224213   2.049   0.466   4.516
 7772SOL     OW24214   5.511   0.833   5.756
 7772SOL    HW124215   5.564   0.863   5.677
 7772SOL    HW224216   5.415   0.857   5.743
 7773SOL     OW24217   4.336   4.479   6.071
 7773SOL    HW124218   4.296   4.552   6.016
 7773SOL    HW224219   4.269   4.406   6.085
 7774SOL     OW24220   4.184   1.644   0.280
 7774SOL    HW124221   4.135   1.731   0.279
 7774SOL    HW224222   4.273   1.655   0.237
 7775SOL     OW24223   1.410   6.240   1.813
 7775SOL    HW124224   1.487   6.263   1.873
 7775SOL    HW224225   1.402   6.141   1.805
 7776SOL     OW24226   3.095   4.464   0.995
 7776SOL    HW124227   3.109   4.368   1.019
 7776SOL    HW224228   3.161   4.490   0.924
 7777SOL     OW24229   0.549   0.514   6.814
 7777SOL    HW124230   0.489   0.492   6.737
 7777SOL    HW224231   0.628   0.453   6.813
 7778SOL     OW24232   5.240   2.449   1.911
 7778SOL    HW124233   5.151   2.429   1.870
 7778SOL    HW224234   5.254   2.548   1.912
 7779SOL     OW24235   4.281   3.222   0.577
 7779SOL    HW124236   4.220   3.301   0.583
 7779SOL    HW224237   4.227   3.138   0.587
 7780SOL     OW24238   2.040   0.539   4.057
 7780SOL    HW124239   1.949   0.496   4.061
 7780SOL    HW224240   2.102   0.491   4.120
 7781SOL     OW24241   2.383   4.109   5.496
 7781SOL    HW124242   2.377   4.152   5.406
 7781SOL    HW224243   2.315   4.149   5.557
 7782SOL     OW24244   4.899   4.377   0.029
 7782SOL    HW124245   4.973   4.431   0.069
 7782SOL    HW224246   4.811   4.422   0.046
 7783SOL     OW24247   3.474   5.926   6.630
 7783SOL    HW124248   3.564   5.886   6.616
 7783SOL    HW224249   3.483   6.025   6.642
 7784SOL     OW24250   6.214   3.275   0.408
 7784SOL    HW124251   6.270   3.273   0.325
 7784SOL    HW224252   6.265   3.237   0.484
 7785SOL     OW24253   1.470   6.362   6.145
 7785SOL    HW124254   1.491   6.280   6.197
 7785SOL    HW224255   1.461   6.440   6.207
 7786SOL     OW24256   3.829   4.297   5.269
 7786SOL    HW124257   3.795   4.227   5.332
 7786SOL    HW224258   3.787   4.285   5.179
 7787SOL     OW24259   3.162   1.896   5.475
 7787SOL    HW124260   3.217   1.979   5.472
 7787SOL    HW224261   3.195   1.831   5.407
 7788SOL     OW24262   6.914   2.685   1.120
 7788SOL    HW124263   6.896   2.759   1.184
 7788SOL    HW224264   6.936   2.601   1.170
 7789SOL     OW24265   1.167   0.208   1.842
 7789SOL    HW124266   1.165   0.108   1.847
 7789SOL    HW224267   1.133   0.246   1.928
 7790SOL     OW24268   6.590   3.557   2.504
 7790SOL    HW124269   6.611   3.640   2.555
 7790SOL    HW224270   6.668   3.531   2.448
 7791SOL     OW24271   6.698   5.742   5.950
 7791SOL    HW124272   6.702   5.651   5.992
 7791SOL    HW224273   6.633   5.799   6.000
 7792SOL     OW24274   1.708   5.677   6.459
 7792SOL    HW124275   1.750   5.697   6.371
 7792SOL    HW224276   1.609   5.693   6.454
 7793SOL     OW24277   2.833   0.425   6.408
 7793SOL    HW124278   2.813   0.327   6.397
 7793SOL    HW224279   2.931   0.437   6.428
 7794SOL     OW24280   5.025   4.884   2.755
 7794SOL    HW124281   4.977   4.862   2.840
 7794SOL    HW224282   5.007   4.813   2.687
 7795SOL     OW24283   1.653   3.692   6.209
 7795SOL    HW124284   1.698   3.774   6.175
 7795SOL    HW224285   1.579   3.667   6.148
 7796SOL     OW24286   3.958   3.538   3.947
 7796SOL    HW124287   3.863   3.510   3.940
 7796SOL    HW224288   3.981   3.599   3.871
 7797SOL     OW24289   1.210   5.943   3.887
 7797SOL    HW124290   1.250   5.975   3.801
 7797SOL    HW224291   1.178   6.022   3.940
 7798SOL     OW24292   4.960   5.282   6.171
 7798SOL    HW124293   4.886   5.216   6.171
 7798SOL    HW224294   5.041   5.242   6.127
 7799SOL     OW24295   5.745   5.744   1.344
 7799SOL    HW124296   5.745   5.836   1.382
 7799SOL    HW224297   5.682   5.686   1.395
 7800SOL     OW24298   0.494   6.256   2.641
 7800SOL    HW124299   0.506   6.164   2.604
 7800SOL    HW224300   0.572   6.312   2.615
 7801SOL     OW24301   4.430   2.406   5.403
 7801SOL    HW124302   4.390   2.397   5.495
 7801SOL    HW224303   4.495   2.481   5.402
 7802SOL     OW24304   5.683   2.181   6.680
 7802SOL    HW124305   5.732   2.247   6.738
 7802SOL    HW224306   5.608   2.141   6.731
 7803SOL     OW24307   3.038   3.515   6.091
 7803SOL    HW124308   3.053   3.562   6.004
 7803SOL    HW224309   2.960   3.453   6.082
 7804SOL     OW24310   4.784   0.945   5.709
 7804SOL    HW124311   4.850   0.958   5.636
 7804SOL    HW224312   4.692   0.934   5.670
 7805SOL     OW24313   5.776   3.267   2.056
 7805SOL    HW124314   5.713   3.208   2.107
 7805SOL    HW224315   5.730   3.351   2.030
 7806SOL     OW24316   5.164   2.429   0.790
 7806SOL    HW124317   5.089   2.376   0.831
 7806SOL    HW224318   5.208   2.374   0.719
 7807SOL     OW24319   0.758   3.861   6.845
 7807SOL    HW124320   0.708   3.901   6.768
 7807SOL    HW224321   0.704   3.870   6.928
 7808SOL     OW24322   0.563   1.760   4.901
 7808SOL    HW124323   0.554   1.666   4.936
 7808SOL    HW224324   0.528   1.824   4.969
 7809SOL     OW24325   0.927   5.598   5.813
 7809SOL    HW124326   0.962   5.691   5.816
 7809SOL    HW224327   0.852   5.592   5.747
 7810SOL     OW24328   3.119   1.204   0.030
 7810SOL    HW124329   3.142   1.156   0.115
 7810SOL    HW224330   3.202   1.220   6.996
 7811SOL     OW24331   6.397   4.521   4.856
 7811SOL    HW124332   6.325   4.515   4.925
 7811SOL    HW224333   6.478   4.565   4.895
 7812SOL     OW24334   0.609   2.039   3.889
 7812SOL    HW124335   0.650   1.972   3.827
 7812SOL    HW224336   0.580   1.995   3.973
 7813SOL     OW24337   5.937   1.192   1.156
 7813SOL    HW124338   5.905   1.186   1.062
 7813SOL    HW224339   6.026   1.239   1.158
 7814SOL     OW24340   1.840   2.916   3.592
 7814SOL    HW124341   1.771   2.905   3.520
 7814SOL    HW224342   1.807   2.981   3.660
 7815SOL     OW24343   6.680   2.087   5.267
 7815SOL    HW124344   6.721   2.178   5.265
 7815SOL    HW224345   6.699   2.043   5.355
 7816SOL     OW24346   0.229   4.377   4.859
 7816SOL    HW124347   0.139   4.341   4.881
 7816SOL    HW224348   0.254   4.447   4.925
 7817SOL     OW24349   5.700   3.188   5.420
 7817SOL    HW124350   5.609   3.209   5.384
 7817SOL    HW224351   5.718   3.246   5.500
 7818SOL     OW24352   5.736   2.698   3.406
 7818SOL    HW124353   5.759   2.617   3.460
 7818SOL    HW224354   5.650   2.683   3.359
 7819SOL     OW24355   1.054   1.183   0.987
 7819SOL    HW124356   1.128   1.172   1.054
 7819SOL    HW224357   1.077   1.132   0.904
 7820SOL     OW24358   2.981   6.465   5.951
 7820SOL    HW124359   2.934   6.435   6.034
 7820SOL    HW224360   3.060   6.521   5.975
 7821SOL     OW24361   3.233   6.002   0.863
 7821SOL    HW124362   3.157   5.945   0.829
 7821SOL    HW224363   3.197   6.068   0.929
 7822SOL     OW24364   0.940   6.711   5.036
 7822SOL    HW124365   0.879   6.778   5.077
 7822SOL    HW224366   0.887   6.635   4.998
 7823SOL     OW24367   2.145   3.281   5.466
 7823SOL    HW124368   2.228   3.266   5.412
 7823SOL    HW224369   2.065   3.278   5.407
 7824SOL     OW24370   1.055   3.372   5.696
 7824SOL    HW124371   1.106   3.458   5.695
 7824SOL    HW224372   0.963   3.387   5.660
 7825SOL     OW24373   2.323   0.896   0.425
 7825SOL    HW124374   2.336   0.994   0.438
 7825SOL    HW224375   2.312   0.876   0.327
 7826SOL     OW24376   0.612   3.934   6.022
 7826SOL    HW124377   0.700   3.893   6.001
 7826SOL    HW224378   0.584   3.995   5.947
 7827SOL     OW24379   5.874   5.057   3.255
 7827SOL    HW124380   5.818   4.994   3.201
 7827SOL    HW224381   5.857   5.041   3.353
 7828SOL     OW24382   1.141   6.053   5.880
 7828SOL    HW124383   1.151   6.150   5.903
 7828SOL    HW224384   1.055   6.039   5.830
 7829SOL     OW24385   4.709   4.698   0.769
 7829SOL    HW124386   4.797   4.653   0.784
 7829SOL    HW224387   4.645   4.672   0.842
 7830SOL     OW24388   2.058   5.310   4.498
 7830SOL    HW124389   1.984   5.374   4.476
 7830SOL    HW224390   2.033   5.218   4.467
 7831SOL     OW24391   1.528   0.305   6.708
 7831SOL    HW124392   1.509   0.339   6.615
 7831SOL    HW224393   1.491   0.369   6.775
 7832SOL     OW24394   0.071   1.066   5.162
 7832SOL    HW124395   0.167   1.045   5.177
 7832SOL    HW224396   0.062   1.149   5.107
 7833SOL     OW24397   0.941   0.619   2.691
 7833SOL    HW124398   0.933   0.674   2.608
 7833SOL    HW224399   1.034   0.582   2.698
 7834SOL     OW24400   0.625   3.106   5.045
 7834SOL    HW124401   0.583   3.197   5.038
 7834SOL    HW224402   0.720   3.116   5.074
 7835SOL     OW24403   3.158   2.950   5.659
 7835SOL    HW124404   3.155   2.905   5.570
 7835SOL    HW224405   3.234   3.015   5.661
 7836SOL     OW24406   2.984   3.729   5.104
 7836SOL    HW124407   3.074   3.743   5.146
 7836SOL    HW224408   2.959   3.632   5.112
 7837SOL     OW24409   0.488   5.568   0.060
 7837SOL    HW124410   0.500   5.478   0.101
 7837SOL    HW224411   0.529   5.638   0.118
 7838SOL     OW24412   4.211   4.858   0.757
 7838SOL    HW124413   4.158   4.856   0.842
 7838SOL    HW224414   4.285   4.925   0.766
 7839SOL     OW24415   6.055   3.859   4.375
 7839SOL    HW124416   6.006   3.834   4.459
 7839SOL    HW224417   5.996   3.916   4.318
 7840SOL     OW24418   2.093   2.293   3.344
 7840SOL    HW124419   2.042   2.373   3.376
 7840SOL    HW224420   2.168   2.323   3.285
 7841SOL     OW24421   4.361   2.278   6.066
 7841SOL    HW124422   4.336   2.338   6.142
 7841SOL    HW224423   4.284   2.219   6.043
 7842SOL     OW24424   0.881   0.250   1.166
 7842SOL    HW124425   0.971   0.270   1.205
 7842SOL    HW224426   0.871   0.298   1.079
 7843SOL     OW24427   6.585   6.281   1.994
 7843SOL    HW124428   6.580   6.215   2.069
 7843SOL    HW224429   6.529   6.361   2.015
 7844SOL     OW24430   3.393   6.745   2.440
 7844SOL    HW124431   3.329   6.819   2.418
 7844SOL    HW224432   3.395   6.679   2.366
 7845SOL     OW24433   0.113   3.467   1.981
 7845SOL    HW124434   0.093   3.522   1.899
 7845SOL    HW224435   0.208   3.436   1.978
 7846SOL     OW24436   0.632   2.151   0.379
 7846SOL    HW124437   0.598   2.143   0.472
 7846SOL    HW224438   0.730   2.169   0.380
 7847SOL     OW24439   5.391   3.760   5.837
 7847SOL    HW124440   5.354   3.790   5.749
 7847SOL    HW224441   5.491   3.759   5.833
 7848SOL     OW24442   5.033   4.786   0.259
 7848SOL    HW124443   5.030   4.825   0.167
 7848SOL    HW224444   5.085   4.848   0.319
 7849SOL     OW24445   4.849   5.184   6.475
 7849SOL    HW124446   4.832   5.261   6.414
 7849SOL    HW224447   4.846   5.098   6.423
 7850SOL     OW24448   6.651   0.573   3.628
 7850SOL    HW124449   6.726   0.568   3.695
 7850SOL    HW224450   6.642   0.484   3.583
 7851SOL     OW24451   0.982   4.070   0.472
 7851SOL    HW124452   1.078   4.074   0.444
 7851SOL    HW224453   0.965   4.138   0.544
 7852SOL     OW24454   1.575   3.518   5.573
 7852SOL    HW124455   1.646   3.516   5.643
 7852SOL    HW224456   1.512   3.442   5.587
 7853SOL     OW24457   4.463   3.166   1.680
 7853SOL    HW124458   4.542   3.133   1.732
 7853SOL    HW224459   4.379   3.144   1.729
 7854SOL     OW24460   4.168   1.073   1.290
 7854SOL    HW124461   4.096   1.137   1.265
 7854SOL    HW224462   4.133   1.010   1.360
 7855SOL     OW24463   5.052   6.250   3.308
 7855SOL    HW124464   5.053   6.347   3.332
 7855SOL    HW224465   5.145   6.215   3.305
 7856SOL     OW24466   2.058   6.332   6.922
 7856SOL    HW124467   2.109   6.247   6.904
 7856SOL    HW224468   1.966   6.310   6.953
 7857SOL     OW24469   6.888   5.063   0.490
 7857SOL    HW124470   6.814   5.001   0.466
 7857SOL    HW224471   6.976   5.021   0.466
 7858SOL     OW24472   0.153   4.236   6.485
 7858SOL    HW124473   0.186   4.208   6.395
 7858SOL    HW224474   0.053   4.243   6.484
 7859SOL     OW24475   4.747   2.473   1.608
 7859SOL    HW124476   4.827   2.495   1.553
 7859SOL    HW224477   4.705   2.389   1.574
 7860SOL     OW24478   2.653   1.746   2.954
 7860SOL    HW124479   2.748   1.714   2.955
 7860SOL    HW224480   2.643   1.819   2.887
 7861SOL     OW24481   1.819   5.728   0.471
 7861SOL    HW124482   1.876   5.782   0.409
 7861SOL    HW224483   1.780   5.787   0.542
 7862SOL     OW24484   1.036   0.152   6.839
 7862SOL    HW124485   0.953   0.183   6.792
 7862SOL    HW224486   1.090   0.231   6.868
 7863SOL     OW24487   0.707   4.273   3.861
 7863SOL    HW124488   0.634   4.231   3.806
 7863SOL    HW224489   0.679   4.364   3.889
 7864SOL     OW24490   3.147   5.443   4.774
 7864SOL    HW124491   3.175   5.485   4.687
 7864SOL    HW224492   3.047   5.434   4.776
 7865SOL     OW24493   6.350   5.513   3.410
 7865SOL    HW124494   6.290   5.434   3.414
 7865SOL    HW224495   6.325   5.578   3.482
 7866SOL     OW24496   0.838   1.153   5.256
 7866SOL    HW124497   0.771   1.208   5.306
 7866SOL    HW224498   0.803   1.059   5.246
 7867SOL     OW24499   4.584   6.172   2.580
 7867SOL    HW124500   4.621   6.264   2.594
 7867SOL    HW224501   4.636   6.127   2.508
 7868SOL     OW24502   4.420   6.341   1.483
 7868SOL    HW124503   4.352   6.336   1.557
 7868SOL    HW224504   4.379   6.307   1.398
 7869SOL     OW24505   5.761   5.136   0.343
 7869SOL    HW124506   5.725   5.193   0.268
 7869SOL    HW224507   5.694   5.131   0.416
 7870SOL     OW24508   6.598   0.325   3.498
 7870SOL    HW124509   6.508   0.281   3.505
 7870SOL    HW224510   6.637   0.306   3.408
 7871SOL     OW24511   4.706   0.284   0.660
 7871SOL    HW124512   4.691   0.315   0.566
 7871SOL    HW224513   4.744   0.191   0.658
 7872SOL     OW24514   6.610   5.210   4.122
 7872SOL    HW124515   6.675   5.285   4.129
 7872SOL    HW224516   6.659   5.123   4.119
 7873SOL     OW24517   4.956   2.274   6.459
 7873SOL    HW124518   5.037   2.225   6.491
 7873SOL    HW224519   4.941   2.355   6.517
 7874SOL     OW24520   6.057   2.615   0.443
 7874SOL    HW124521   6.021   2.530   0.482
 7874SOL    HW224522   5.993   2.690   0.462
 7875SOL     OW24523   6.302   4.900   0.011
 7875SOL    HW124524   6.274   4.856   0.097
 7875SOL    HW224525   6.280   4.997   0.016
 7876SOL     OW24526   1.106   6.587   2.462
 7876SOL    HW124527   1.148   6.655   2.522
 7876SOL    HW224528   1.153   6.500   2.471
 7877SOL     OW24529   0.803   3.146   2.356
 7877SOL    HW124530   0.780   3.068   2.298
 7877SOL    HW224531   0.822   3.226   2.299
 7878SOL     OW24532   3.837   0.056   2.446
 7878SOL    HW124533   3.894   0.035   2.525
 7878SOL    HW224534   3.761   7.010   2.441
 7879SOL     OW24535   2.509   5.848   1.852
 7879SOL    HW124536   2.442   5.918   1.824
 7879SOL    HW224537   2.464   5.781   1.911
 7880SOL     OW24538   1.329   5.149   2.630
 7880SOL    HW124539   1.425   5.119   2.627
 7880SOL    HW224540   1.325   5.244   2.661
 7881SOL     OW24541   4.798   3.010   3.059
 7881SOL    HW124542   4.737   2.932   3.073
 7881SOL    HW224543   4.885   2.978   3.023
 7882SOL     OW24544   0.123   2.659   7.012
 7882SOL    HW124545   0.072   2.630   6.930
 7882SOL    HW224546   0.199   2.596   0.008
 7883SOL     OW24547   0.190   0.025   4.876
 7883SOL    HW124548   0.244   6.993   4.943
 7883SOL    HW224549   0.120   6.984   4.837
 7884SOL     OW24550   1.644   2.744   3.773
 7884SOL    HW124551   1.678   2.838   3.774
 7884SOL    HW224552   1.707   2.685   3.822
 7885SOL     OW24553   6.332   6.164   6.861
 7885SOL    HW124554   6.405   6.190   6.797
 7885SOL    HW224555   6.373   6.125   6.944
 7886SOL     OW24556   4.986   3.777   0.386
 7886SOL    HW124557   5.045   3.720   0.328
 7886SOL    HW224558   4.895   3.736   0.391
 7887SOL     OW24559   4.636   1.903   6.559
 7887SOL    HW124560   4.651   1.888   6.657
 7887SOL    HW224561   4.724   1.915   6.513
 7888SOL     OW24562   4.165   5.878   4.202
 7888SOL    HW124563   4.206   5.927   4.125
 7888SOL    HW224564   4.148   5.941   4.277
 7889SOL     OW24565   6.261   4.480   3.491
 7889SOL    HW124566   6.357   4.455   3.506
 7889SOL    HW224567   6.253   4.579   3.485
 7890SOL     OW24568   2.205   4.048   2.893
 7890SOL    HW124569   2.110   4.045   2.860
 7890SOL    HW224570   2.240   4.142   2.884
 7891SOL     OW24571   0.213   4.110   2.806
 7891SOL    HW124572   0.260   4.168   2.873
 7891SOL    HW224573   0.173   4.168   2.734
 7892SOL     OW24574   2.285   2.500   4.569
 7892SOL    HW124575   2.230   2.578   4.600
 7892SOL    HW224576   2.267   2.421   4.627
 7893SOL     OW24577   5.279   6.079   1.542
 7893SOL    HW124578   5.359   6.025   1.518
 7893SOL    HW224579   5.232   6.037   1.620
 7894SOL     OW24580   2.946   0.239   0.952
 7894SOL    HW124581   2.963   0.166   1.018
 7894SOL    HW224582   2.905   0.200   0.869
 7895SOL     OW24583   0.933   1.884   4.315
 7895SOL    HW124584   0.953   1.875   4.413
 7895SOL    HW224585   0.965   1.801   4.267
 7896SOL     OW24586   3.960   2.182   6.744
 7896SOL    HW124587   3.917   2.157   6.658
 7896SOL    HW224588   3.979   2.280   6.745
 7897SOL     OW24589   3.403   3.750   0.612
 7897SOL    HW124590   3.368   3.657   0.599
 7897SOL    HW224591   3.365   3.788   0.696
 7898SOL     OW24592   4.980   1.060   4.487
 7898SOL    HW124593   5.019   0.970   4.504
 7898SOL    HW224594   5.052   1.129   4.493
 7899SOL     OW24595   4.462   0.662   1.445
 7899SOL    HW124596   4.375   0.694   1.481
 7899SOL    HW224597   4.525   0.644   1.521
 7900SOL     OW24598   0.305   5.678   1.505
 7900SOL    HW124599   0.232   5.722   1.453
 7900SOL    HW224600   0.311   5.720   1.596
 7901SOL     OW24601   5.659   4.715   1.064
 7901SOL    HW124602   5.746   4.676   1.094
 7901SOL    HW224603   5.611   4.754   1.142
 7902SOL     OW24604   4.907   4.959   6.311
 7902SOL    HW124605   4.871   4.866   6.302
 7902SOL    HW224606   4.881   5.014   6.232
 7903SOL     OW24607   0.765   2.508   2.264
 7903SOL    HW124608   0.827   2.585   2.279
 7903SOL    HW224609   0.672   2.534   2.292
 7904SOL     OW24610   5.163   1.673   3.295
 7904SOL    HW124611   5.236   1.720   3.246
 7904SOL    HW224612   5.147   1.584   3.252
 7905SOL     OW24613   2.362   2.246   1.636
 7905SOL    HW124614   2.410   2.259   1.550
 7905SOL    HW224615   2.413   2.183   1.694
 7906SOL     OW24616   1.738   4.364   6.829
 7906SOL    HW124617   1.731   4.393   6.734
 7906SOL    HW224618   1.816   4.409   6.872
 7907SOL     OW24619   0.457   2.740   2.659
 7907SOL    HW124620   0.372   2.756   2.608
 7907SOL    HW224621   0.506   2.826   2.670
 7908SOL     OW24622   0.700   1.107   3.335
 7908SOL    HW124623   0.726   1.013   3.356
 7908SOL    HW224624   0.645   1.145   3.410
 7909SOL     OW24625   4.158   6.003   5.215
 7909SOL    HW124626   4.098   5.950   5.275
 7909SOL    HW224627   4.117   6.009   5.124
 7910SOL     OW24628   5.867   3.030   6.367
 7910SOL    HW124629   5.921   2.968   6.424
 7910SOL    HW224630   5.914   3.118   6.359
 7911SOL     OW24631   6.890   5.992   6.393
 7911SOL    HW124632   6.792   6.005   6.376
 7911SOL    HW224633   6.902   5.941   6.478
 7912SOL     OW24634   6.934   5.591   4.944
 7912SOL    HW124635   6.854   5.582   4.886
 7912SOL    HW224636   6.996   5.514   4.928
 7913SOL     OW24637   1.772   6.298   6.933
 7913SOL    HW124638   1.763   6.302   0.014
 7913SOL    HW224639   1.781   6.391   6.897
 7914SOL     OW24640   5.944   4.495   0.797
 7914SOL    HW124641   5.923   4.576   0.743
 7914SOL    HW224642   6.021   4.514   0.857
 7915SOL     OW24643   2.828   1.463   2.898
 7915SOL    HW124644   2.772   1.462   2.815
 7915SOL    HW224645   2.768   1.458   2.978
 7916SOL     OW24646   3.786   3.548   4.632
 7916SOL    HW124647   3.802   3.450   4.644
 7916SOL    HW224648   3.868   3.591   4.594
 7917SOL     OW24649   3.508   4.161   3.517
 7917SOL    HW124650   3.442   4.156   3.592
 7917SOL    HW224651   3.532   4.257   3.500
 7918SOL     OW24652   6.362   1.578   1.775
 7918SOL    HW124653   6.452   1.578   1.819
 7918SOL    HW224654   6.327   1.672   1.772
 7919SOL     OW24655   5.530   3.799   2.589
 7919SOL    HW124656   5.474   3.764   2.664
 7919SOL    HW224657   5.592   3.869   2.623
 7920SOL     OW24658   6.886   6.551   0.710
 7920SOL    HW124659   6.861   6.513   0.620
 7920SOL    HW224660   6.947   6.488   0.757
 7921SOL     OW24661   3.380   4.894   2.054
 7921SOL    HW124662   3.433   4.837   1.991
 7921SOL    HW224663   3.389   4.857   2.147
 7922SOL     OW24664   1.246   3.746   4.369
 7922SOL    HW124665   1.324   3.759   4.308
 7922SOL    HW224666   1.236   3.826   4.428
 7923SOL     OW24667   1.810   2.954   2.333
 7923SOL    HW124668   1.879   2.881   2.334
 7923SOL    HW224669   1.834   3.023   2.400
 7924SOL     OW24670   2.417   1.960   3.455
 7924SOL    HW124671   2.321   1.930   3.449
 7924SOL    HW224672   2.475   1.880   3.469
 7925SOL     OW24673   1.223   1.740   0.109
 7925SOL    HW124674   1.180   1.655   0.078
 7925SOL    HW224675   1.295   1.767   0.045
 7926SOL     OW24676   3.246   0.654   1.764
 7926SOL    HW124677   3.312   0.723   1.735
 7926SOL    HW224678   3.154   0.682   1.739
 7927SOL     OW24679   4.683   5.220   4.595
 7927SOL    HW124680   4.629   5.135   4.598
 7927SOL    HW224681   4.704   5.242   4.500
 7928SOL     OW24682   0.629   3.623   1.124
 7928SOL    HW124683   0.678   3.696   1.171
 7928SOL    HW224684   0.533   3.649   1.112
 7929SOL     OW24685   3.676   4.239   5.042
 7929SOL    HW124686   3.698   4.270   4.950
 7929SOL    HW224687   3.631   4.150   5.038
 7930SOL     OW24688   3.714   6.888   2.049
 7930SOL    HW124689   3.654   6.949   1.997
 7930SOL    HW224690   3.801   6.878   2.001
 7931SOL     OW24691   2.416   3.132   5.892
 7931SOL    HW124692   2.434   3.079   5.975
 7931SOL    HW224693   2.367   3.075   5.826
 7932SOL     OW24694   3.081   1.493   0.704
 7932SOL    HW124695   3.066   1.542   0.617
 7932SOL    HW224696   3.022   1.533   0.774
 7933SOL     OW24697   1.828   1.242   6.085
 7933SOL    HW124698   1.877   1.248   5.998
 7933SOL    HW224699   1.759   1.170   6.080
 7934SOL     OW24700   4.515   2.475   5.901
 7934SOL    HW124701   4.493   2.444   5.993
 7934SOL    HW224702   4.588   2.543   5.906
 7935SOL     OW24703   4.883   5.243   2.649
 7935SOL    HW124704   4.952   5.267   2.717
 7935SOL    HW224705   4.928   5.220   2.563
 7936SOL     OW24706   4.487   5.774   2.033
 7936SOL    HW124707   4.434   5.714   2.092
 7936SOL    HW224708   4.525   5.849   2.087
 7937SOL     OW24709   5.646   1.771   6.146
 7937SOL    HW124710   5.584   1.698   6.176
 7937SOL    HW224711   5.724   1.731   6.098
 7938SOL     OW24712   6.152   4.723   4.216
 7938SOL    HW124713   6.147   4.822   4.205
 7938SOL    HW224714   6.083   4.680   4.157
 7939SOL     OW24715   6.476   6.104   3.792
 7939SOL    HW124716   6.545   6.076   3.857
 7939SOL    HW224717   6.389   6.118   3.839
 7940SOL     OW24718   1.936   5.999   0.392
 7940SOL    HW124719   2.029   6.031   0.408
 7940SOL    HW224720   1.880   6.018   0.473
 7941SOL     OW24721   1.134   0.390   1.078
 7941SOL    HW124722   1.178   0.466   1.031
 7941SOL    HW224723   1.182   0.305   1.057
 7942SOL     OW24724   0.799   6.380   1.009
 7942SOL    HW124725   0.779   6.449   1.079
 7942SOL    HW224726   0.895   6.354   1.016
 7943SOL     OW24727   6.253   2.227   6.230
 7943SOL    HW124728   6.163   2.271   6.229
 7943SOL    HW224729   6.287   2.218   6.136
 7944SOL     OW24730   6.213   4.149   2.036
 7944SOL    HW124731   6.309   4.125   2.053
 7944SOL    HW224732   6.167   4.165   2.123
 7945SOL     OW24733   5.821   6.235   0.419
 7945SOL    HW124734   5.764   6.295   0.475
 7945SOL    HW224735   5.916   6.267   0.424
 7946SOL     OW24736   2.042   1.638   5.142
 7946SOL    HW124737   2.086   1.627   5.053
 7946SOL    HW224738   1.948   1.604   5.136
 7947SOL     OW24739   3.952   5.531   6.424
 7947SOL    HW124740   3.954   5.631   6.420
 7947SOL    HW224741   4.000   5.501   6.506
 7948SOL     OW24742   1.531   5.054   4.818
 7948SOL    HW124743   1.496   4.961   4.805
 7948SOL    HW224744   1.463   5.108   4.868
 7949SOL     OW24745   6.824   3.380   4.084
 7949SOL    HW124746   6.823   3.477   4.106
 7949SOL    HW224747   6.733   3.341   4.100
 7950SOL     OW24748   2.818   5.715   3.570
 7950SOL    HW124749   2.877   5.711   3.651
 7950SOL    HW224750   2.860   5.772   3.500
 7951SOL     OW24751   2.252   3.332   0.710
 7951SOL    HW124752   2.162   3.342   0.753
 7951SOL    HW224753   2.305   3.262   0.757
 7952SOL     OW24754   6.295   3.419   0.800
 7952SOL    HW124755   6.199   3.437   0.775
 7952SOL    HW224756   6.351   3.497   0.773
 7953SOL     OW24757   2.061   4.415   1.392
 7953SOL    HW124758   1.987   4.482   1.383
 7953SOL    HW224759   2.041   4.335   1.335
 7954SOL     OW24760   6.011   5.506   4.190
 7954SOL    HW124761   5.948   5.570   4.145
 7954SOL    HW224762   6.069   5.555   4.254
 7955SOL     OW24763   1.616   6.410   6.540
 7955SOL    HW124764   1.700   6.397   6.487
 7955SOL    HW224765   1.606   6.335   6.605
 7956SOL     OW24766   5.353   6.147   3.422
 7956SOL    HW124767   5.422   6.122   3.354
 7956SOL    HW224768   5.290   6.070   3.435
 7957SOL     OW24769   1.493   3.194   1.209
 7957SOL    HW124770   1.457   3.174   1.117
 7957SOL    HW224771   1.417   3.220   1.269
 7958SOL     OW24772   1.965   5.466   3.131
 7958SOL    HW124773   1.911   5.413   3.196
 7958SOL    HW224774   1.987   5.555   3.171
 7959SOL     OW24775   4.272   4.907   1.142
 7959SOL    HW124776   4.319   4.825   1.175
 7959SOL    HW224777   4.191   4.881   1.091
 7960SOL     OW24778   1.805   2.354   1.194
 7960SOL    HW124779   1.782   2.295   1.117
 7960SOL    HW224780   1.885   2.317   1.242
 7961SOL     OW24781   1.501   6.355   0.171
 7961SOL    HW124782   1.566   6.309   0.232
 7961SOL    HW224783   1.420   6.383   0.223
 7962SOL     OW24784   1.824   6.713   2.444
 7962SOL    HW124785   1.857   6.695   2.352
 7962SOL    HW224786   1.896   6.693   2.511
 7963SOL     OW24787   0.055   6.102   6.229
 7963SOL    HW124788   6.997   6.063   6.281
 7963SOL    HW224789   0.086   6.186   6.274
 7964SOL     OW24790   6.176   5.336   3.798
 7964SOL    HW124791   6.208   5.292   3.882
 7964SOL    HW224792   6.169   5.435   3.813
 7965SOL     OW24793   4.235   1.722   0.963
 7965SOL    HW124794   4.303   1.650   0.979
 7965SOL    HW224795   4.237   1.748   0.867
 7966SOL     OW24796   0.150   1.841   4.460
 7966SOL    HW124797   0.246   1.815   4.471
 7966SOL    HW224798   0.119   1.815   4.369
 7967SOL     OW24799   2.169   0.572   3.726
 7967SOL    HW124800   2.173   0.629   3.808
 7967SOL    HW224801   2.090   0.512   3.731
 7968SOL     OW24802   2.052   1.032   0.385
 7968SOL    HW124803   2.138   1.072   0.415
 7968SOL    HW224804   2.068   0.977   0.303
 7969SOL     OW24805   4.133   2.240   3.411
 7969SOL    HW124806   4.078   2.215   3.330
 7969SOL    HW224807   4.209   2.297   3.383
 7970SOL     OW24808   0.467   4.636   3.097
 7970SOL    HW124809   0.518   4.571   3.154
 7970SOL    HW224810   0.478   4.610   3.001
 7971SOL     OW24811   3.561   2.127   2.714
 7971SOL    HW124812   3.518   2.210   2.677
 7971SOL    HW224813   3.496   2.079   2.773
 7972SOL     OW24814   5.166   5.677   1.261
 7972SOL    HW124815   5.259   5.680   1.297
 7972SOL    HW224816   5.169   5.660   1.162
 7973SOL     OW24817   5.472   1.911   2.806
 7973SOL    HW124818   5.537   1.964   2.751
 7973SOL    HW224819   5.402   1.872   2.746
 7974SOL     OW24820   4.534   6.001   4.588
 7974SOL    HW124821   4.600   5.942   4.635
 7974SOL    HW224822   4.559   6.096   4.603
 7975SOL     OW24823   1.924   1.725   2.105
 7975SOL    HW124824   1.947   1.794   2.037
 7975SOL    HW224825   1.945   1.634   2.069
 7976SOL     OW24826   0.390   6.467   6.281
 7976SOL    HW124827   0.385   6.525   6.200
 7976SOL    HW224828   0.363   6.521   6.362
 7977SOL     OW24829   5.461   5.966   1.136
 7977SOL    HW124830   5.418   5.878   1.154
 7977SOL    HW224831   5.391   6.036   1.126
 7978SOL     OW24832   3.076   1.774   5.851
 7978SOL    HW124833   3.006   1.735   5.791
 7978SOL    HW224834   3.052   1.869   5.873
 7979SOL     OW24835   4.746   5.670   3.880
 7979SOL    HW124836   4.803   5.686   3.800
 7979SOL    HW224837   4.673   5.606   3.857
 7980SOL     OW24838   2.798   1.107   1.410
 7980SOL    HW124839   2.750   1.098   1.323
 7980SOL    HW224840   2.897   1.111   1.394
 7981SOL     OW24841   0.231   6.119   2.411
 7981SOL    HW124842   0.192   6.105   2.502
 7981SOL    HW224843   0.202   6.045   2.351
 7982SOL     OW24844   0.306   3.123   1.341
 7982SOL    HW124845   0.326   3.181   1.262
 7982SOL    HW224846   0.336   3.030   1.323
 7983SOL     OW24847   5.406   1.887   0.954
 7983SOL    HW124848   5.474   1.919   0.889
 7983SOL    HW224849   5.440   1.902   1.047
 7984SOL     OW24850   6.085   0.730   0.306
 7984SOL    HW124851   6.129   0.672   0.374
 7984SOL    HW224852   6.146   0.806   0.283
 7985SOL     OW24853   0.815   1.293   1.000
 7985SOL    HW124854   0.907   1.255   0.990
 7985SOL    HW224855   0.772   1.300   0.910
 7986SOL     OW24856   5.053   3.619   0.930
 7986SOL    HW124857   5.070   3.714   0.904
 7986SOL    HW224858   5.053   3.561   0.849
 7987SOL     OW24859   1.384   3.740   5.116
 7987SOL    HW124860   1.435   3.680   5.177
 7987SOL    HW224861   1.443   3.766   5.039
 7988SOL     OW24862   2.402   1.201   5.264
 7988SOL    HW124863   2.413   1.246   5.175
 7988SOL    HW224864   2.446   1.111   5.263
 7989SOL     OW24865   3.168   3.608   0.198
 7989SOL    HW124866   3.146   3.641   0.106
 7989SOL    HW224867   3.119   3.522   0.215
 7990SOL     OW24868   2.331   2.836   4.653
 7990SOL    HW124869   2.315   2.906   4.722
 7990SOL    HW224870   2.420   2.794   4.668
 7991SOL     OW24871   2.353   3.416   6.317
 7991SOL    HW124872   2.311   3.489   6.262
 7991SOL    HW224873   2.283   3.370   6.371
 7992SOL     OW24874   2.904   1.232   6.909
 7992SOL    HW124875   2.901   1.313   6.850
 7992SOL    HW224876   2.995   1.225   6.950
 7993SOL     OW24877   3.316   6.049   6.462
 7993SOL    HW124878   3.349   6.040   6.368
 7993SOL    HW224879   3.360   5.980   6.519
 7994SOL     OW24880   5.668   0.271   4.923
 7994SOL    HW124881   5.669   0.237   4.829
 7994SOL    HW224882   5.573   0.289   4.951
 7995SOL     OW24883   4.291   4.998   2.387
 7995SOL    HW124884   4.311   5.096   2.387
 7995SOL    HW224885   4.376   4.947   2.374
 7996SOL     OW24886   4.344   1.501   5.543
 7996SOL    HW124887   4.382   1.503   5.451
 7996SOL    HW224888   4.255   1.547   5.545
 7997SOL     OW24889   5.334   3.287   1.005
 7997SOL    HW124890   5.242   3.266   0.973
 7997SOL    HW224891   5.332   3.371   1.059
 7998SOL     OW24892   0.018   5.510   6.267
 7998SOL    HW124893   6.989   5.422   6.266
 7998SOL    HW224894   0.041   5.534   6.362
 7999SOL     OW24895   2.913   2.445   5.957
 7999SOL    HW124896   2.960   2.453   5.869
 7999SOL    HW224897   2.828   2.395   5.946
 8000SOL     OW24898   5.306   0.735   5.534
 8000SOL    HW124899   5.225   0.680   5.516
 8000SOL    HW224900   5.291   0.792   5.614
 8001SOL     OW24901   2.468   5.089   1.251
 8001SOL    HW124902   2.447   5.174   1.299
 8001SOL    HW224903   2.470   5.014   1.317
 8002SOL     OW24904   4.342   2.080   5.658
 8002SOL    HW124905   4.251   2.089   5.698
 8002SOL    HW224906   4.395   2.163   5.677
 8003SOL     OW24907   5.178   5.381   3.068
 8003SOL    HW124908   5.112   5.322   3.116
 8003SOL    HW224909   5.173   5.473   3.106
 8004SOL     OW24910   1.355   4.894   3.573
 8004SOL    HW124911   1.388   4.799   3.569
 8004SOL    HW224912   1.376   4.940   3.487
 8005SOL     OW24913   2.231   1.200   2.312
 8005SOL    HW124914   2.250   1.297   2.297
 8005SOL    HW224915   2.292   1.164   2.383
 8006SOL     OW24916   4.702   5.711   2.662
 8006SOL    HW124917   4.782   5.654   2.680
 8006SOL    HW224918   4.720   5.804   2.692
 8007SOL     OW24919   0.855   0.918   3.779
 8007SOL    HW124920   0.783   0.849   3.786
 8007SOL    HW224921   0.831   0.996   3.837
 8008SOL     OW24922   6.123   4.603   1.408
 8008SOL    HW124923   6.201   4.566   1.357
 8008SOL    HW224924   6.096   4.690   1.368
 8009SOL     OW24925   6.699   6.288   3.225
 8009SOL    HW124926   6.610   6.317   3.189
 8009SOL    HW224927   6.758   6.368   3.234
 8010SOL     OW24928   2.170   1.954   6.837
 8010SOL    HW124929   2.256   1.946   6.887
 8010SOL    HW224930   2.093   1.943   6.901
 8011SOL     OW24931   1.914   3.221   0.360
 8011SOL    HW124932   1.960   3.243   0.274
 8011SOL    HW224933   1.971   3.160   0.415
 8012SOL     OW24934   2.016   5.706   3.273
 8012SOL    HW124935   2.033   5.804   3.283
 8012SOL    HW224936   2.070   5.656   3.341
 8013SOL     OW24937   6.693   5.837   4.126
 8013SOL    HW124938   6.792   5.825   4.137
 8013SOL    HW224939   6.675   5.924   4.079
 8014SOL     OW24940   2.525   0.372   6.133
 8014SOL    HW124941   2.445   0.431   6.147
 8014SOL    HW224942   2.608   0.424   6.150
 8015SOL     OW24943   1.946   1.369   0.701
 8015SOL    HW124944   2.024   1.344   0.758
 8015SOL    HW224945   1.935   1.468   0.700
 8016SOL     OW24946   4.667   5.266   1.968
 8016SOL    HW124947   4.659   5.203   1.891
 8016SOL    HW224948   4.726   5.343   1.942
 8017SOL     OW24949   6.444   3.918   4.903
 8017SOL    HW124950   6.352   3.907   4.939
 8017SOL    HW224951   6.443   3.987   4.829
 8018SOL     OW24952   4.805   3.043   3.961
 8018SOL    HW124953   4.777   2.969   3.899
 8018SOL    HW224954   4.739   3.050   4.036
 8019SOL     OW24955   3.440   5.207   1.190
 8019SOL    HW124956   3.431   5.114   1.226
 8019SOL    HW224957   3.364   5.226   1.127
 8020SOL     OW24958   4.923   6.714   0.042
 8020SOL    HW124959   4.964   6.798   0.078
 8020SOL    HW224960   4.941   6.707   6.963
 8021SOL     OW24961   6.896   1.138   1.879
 8021SOL    HW124962   6.938   1.199   1.812
 8021SOL    HW224963   6.822   1.087   1.834
 8022SOL     OW24964   5.599   4.785   4.247
 8022SOL    HW124965   5.556   4.874   4.232
 8022SOL    HW224966   5.532   4.720   4.283
 8023SOL     OW24967   0.048   5.474   3.697
 8023SOL    HW124968   7.008   5.429   3.764
 8023SOL    HW224969   0.144   5.469   3.726
 8024SOL     OW24970   4.547   5.982   3.902
 8024SOL    HW124971   4.604   6.039   3.843
 8024SOL    HW224972   4.534   5.892   3.860
 8025SOL     OW24973   2.376   5.978   0.013
 8025SOL    HW124974   2.375   5.969   0.113
 8025SOL    HW224975   2.333   5.898   6.990
 8026SOL     OW24976   3.016   1.771   6.750
 8026SOL    HW124977   3.037   1.853   6.696
 8026SOL    HW224978   3.085   1.760   6.821
 8027SOL     OW24979   4.243   3.333   5.698
 8027SOL    HW124980   4.187   3.284   5.631
 8027SOL    HW224981   4.213   3.309   5.790
 8028SOL     OW24982   5.935   4.639   1.115
 8028SOL    HW124983   6.012   4.674   1.169
 8028SOL    HW224984   5.952   4.656   1.018
 8029SOL     OW24985   3.306   4.701   5.824
 8029SOL    HW124986   3.337   4.626   5.882
 8029SOL    HW224987   3.277   4.665   5.735
 8030SOL     OW24988   0.142   3.824   2.336
 8030SOL    HW124989   0.237   3.795   2.343
 8030SOL    HW224990   0.092   3.759   2.278
 8031SOL     OW24991   3.981   6.598   0.356
 8031SOL    HW124992   4.025   6.571   0.442
 8031SOL    HW224993   3.972   6.517   0.297
 8032SOL     OW24994   4.689   3.332   5.345
 8032SOL    HW124995   4.787   3.318   5.363
 8032SOL    HW224996   4.678   3.379   5.258
 8033SOL     OW24997   6.312   0.780   2.325
 8033SOL    HW124998   6.269   0.770   2.414
 8033SOL    HW224999   6.340   0.876   2.312
 8034SOL     OW25000   6.377   2.703   5.631
 8034SOL    HW125001   6.303   2.770   5.630
 8034SOL    HW225002   6.451   2.736   5.691
 8035SOL     OW25003   5.718   6.079   6.045
 8035SOL    HW125004   5.633   6.037   6.011
 8035SOL    HW225005   5.695   6.161   6.098
 8036SOL     OW25006   1.213   3.870   1.671
 8036SOL    HW125007   1.268   3.835   1.595
 8036SOL    HW225008   1.264   3.940   1.721
 8037SOL     OW25009   2.159   3.056   1.991
 8037SOL    HW125010   2.207   3.091   1.911
 8037SOL    HW225011   2.148   3.129   2.058
 8038SOL     OW25012   5.816   1.087   3.803
 8038SOL    HW125013   5.851   0.994   3.792
 8038SOL    HW225014   5.778   1.097   3.895
 8039SOL     OW25015   2.290   5.293   3.292
 8039SOL    HW125016   2.283   5.359   3.367
 8039SOL    HW225017   2.225   5.219   3.306
 8040SOL     OW25018   5.938   6.529   6.667
 8040SOL    HW125019   5.919   6.435   6.696
 8040SOL    HW225020   5.965   6.529   6.571
 8041SOL     OW25021   3.366   2.519   0.803
 8041SOL    HW125022   3.300   2.446   0.820
 8041SOL    HW225023   3.391   2.562   0.890
 8042SOL     OW25024   1.535   4.635   6.871
 8042SOL    HW125025   1.534   4.538   6.848
 8042SOL    HW225026   1.444   4.674   6.853
 8043SOL     OW25027   3.250   0.671   1.133
 8043SOL    HW125028   3.174   0.690   1.071
 8043SOL    HW225029   3.322   0.620   1.085
 8044SOL     OW25030   3.053   2.720   1.712
 8044SOL    HW125031   3.100   2.741   1.798
 8044SOL    HW225032   2.969   2.774   1.705
 8045SOL     OW25033   5.850   2.869   3.612
 8045SOL    HW125034   5.914   2.793   3.626
 8045SOL    HW225035   5.778   2.841   3.549
 8046SOL     OW25036   6.777   5.498   5.189
 8046SOL    HW125037   6.809   5.403   5.191
 8046SOL    HW225038   6.752   5.523   5.096
 8047SOL     OW25039   2.834   6.902   4.326
 8047SOL    HW125040   2.797   6.829   4.270
 8047SOL    HW225041   2.868   6.864   4.413
 8048SOL     OW25042   5.370   0.352   5.523
 8048SOL    HW125043   5.334   0.260   5.540
 8048SOL    HW225044   5.469   0.346   5.510
 8049SOL     OW25045   2.527   6.282   6.221
 8049SOL    HW125046   2.574   6.220   6.284
 8049SOL    HW225047   2.448   6.236   6.181
 8050SOL     OW25048   0.490   3.807   2.203
 8050SOL    HW125049   0.445   3.739   2.146
 8050SOL    HW225050   0.498   3.893   2.153
 8051SOL     OW25051   2.751   2.352   4.093
 8051SOL    HW125052   2.682   2.393   4.033
 8051SOL    HW225053   2.832   2.410   4.095
 8052SOL     OW25054   4.044   1.369   2.852
 8052SOL    HW125055   4.085   1.331   2.935
 8052SOL    HW225056   4.063   1.308   2.775
 8053SOL     OW25057   4.751   3.782   1.379
 8053SOL    HW125058   4.756   3.690   1.416
 8053SOL    HW225059   4.656   3.815   1.384
 8054SOL     OW25060   4.866   6.340   4.431
 8054SOL    HW125061   4.927   6.405   4.386
 8054SOL    HW225062   4.887   6.247   4.401
 8055SOL     OW25063   1.465   7.005   4.957
 8055SOL    HW125064   1.559   6.971   4.958
 8055SOL    HW225065   1.417   6.973   5.039
 8056SOL     OW25066   4.529   1.214   2.955
 8056SOL    HW125067   4.471   1.133   2.947
 8056SOL    HW225068   4.507   1.263   3.039
 8057SOL     OW25069   3.514   0.151   3.672
 8057SOL    HW125070   3.507   0.051   3.678
 8057SOL    HW225071   3.607   0.176   3.643
 8058SOL     OW25072   1.760   0.133   3.079
 8058SOL    HW125073   1.803   0.073   3.146
 8058SOL    HW225074   1.825   0.155   3.006
 8059SOL     OW25075   1.630   1.470   4.227
 8059SOL    HW125076   1.534   1.486   4.250
 8059SOL    HW225077   1.680   1.441   4.310
 8060SOL     OW25078   0.806   2.881   5.352
 8060SOL    HW125079   0.747   2.888   5.271
 8060SOL    HW225080   0.773   2.943   5.423
 8061SOL     OW25081   5.489   6.738   3.271
 8061SOL    HW125082   5.504   6.678   3.349
 8061SOL    HW225083   5.393   6.765   3.267
 8062SOL     OW25084   1.697   1.883   1.260
 8062SOL    HW125085   1.709   1.980   1.281
 8062SOL    HW225086   1.641   1.841   1.332
 8063SOL     OW25087   2.684   2.321   5.848
 8063SOL    HW125088   2.666   2.343   5.752
 8063SOL    HW225089   2.604   2.346   5.903
 8064SOL     OW25090   5.469   2.299   5.868
 8064SOL    HW125091   5.420   2.213   5.855
 8064SOL    HW225092   5.427   2.370   5.811
 8065SOL     OW25093   4.485   0.691   6.522
 8065SOL    HW125094   4.551   0.635   6.472
 8065SOL    HW225095   4.409   0.633   6.552
 8066SOL     OW25096   1.032   0.380   1.681
 8066SOL    HW125097   0.944   0.349   1.644
 8066SOL    HW225098   1.049   0.335   1.768
 8067SOL     OW25099   4.598   1.841   2.737
 8067SOL    HW125100   4.613   1.802   2.646
 8067SOL    HW225101   4.514   1.896   2.736
 8068SOL     OW25102   6.938   4.225   3.460
 8068SOL    HW125103   7.002   4.156   3.425
 8068SOL    HW225104   6.930   4.299   3.393
 8069SOL     OW25105   6.869   5.923   2.519
 8069SOL    HW125106   6.851   6.014   2.482
 8069SOL    HW225107   6.843   5.854   2.452
 8070SOL     OW25108   3.809   0.433   2.672
 8070SOL    HW125109   3.789   0.354   2.614
 8070SOL    HW225110   3.875   0.493   2.627
 8071SOL     OW25111   5.344   4.772   6.917
 8071SOL    HW125112   5.368   4.709   6.990
 8071SOL    HW225113   5.423   4.786   6.857
 8072SOL     OW25114   3.776   0.223   3.636
 8072SOL    HW125115   3.853   0.193   3.692
 8072SOL    HW225116   3.804   0.225   3.540
 8073SOL     OW25117   5.279   0.277   6.587
 8073SOL    HW125118   5.348   0.348   6.574
 8073SOL    HW225119   5.259   0.234   6.499
 8074SOL     OW25120   2.832   4.516   0.232
 8074SOL    HW125121   2.797   4.515   0.326
 8074SOL    HW225122   2.764   4.557   0.172
 8075SOL     OW25123   6.656   1.633   3.898
 8075SOL    HW125124   6.619   1.545   3.869
 8075SOL    HW225125   6.752   1.640   3.869
 8076SOL     OW25126   4.918   2.766   0.044
 8076SOL    HW125127   4.852   2.840   0.047
 8076SOL    HW225128   4.888   2.696   6.998
 8077SOL     OW25129   0.845   0.618   6.739
 8077SOL    HW125130   0.760   0.630   6.688
 8077SOL    HW225131   0.876   0.523   6.730
 8078SOL     OW25132   6.463   4.235   1.322
 8078SOL    HW125133   6.467   4.158   1.386
 8078SOL    HW225134   6.486   4.319   1.371
 8079SOL     OW25135   1.526   3.004   0.362
 8079SOL    HW125136   1.577   3.044   0.285
 8079SOL    HW225137   1.584   3.005   0.444
 8080SOL     OW25138   3.560   4.647   0.243
 8080SOL    HW125139   3.509   4.686   0.166
 8080SOL    HW225140   3.541   4.549   0.249
 8081SOL     OW25141   5.495   2.452   4.371
 8081SOL    HW125142   5.539   2.465   4.282
 8081SOL    HW225143   5.417   2.390   4.361
 8082SOL     OW25144   6.882   3.503   5.030
 8082SOL    HW125145   6.800   3.458   4.994
 8082SOL    HW225146   6.926   3.556   4.958
 8083SOL     OW25147   6.205   1.674   4.639
 8083SOL    HW125148   6.209   1.681   4.539
 8083SOL    HW225149   6.190   1.765   4.678
 8084SOL     OW25150   5.750   7.013   6.850
 8084SOL    HW125151   5.749   0.094   6.848
 8084SOL    HW225152   5.841   6.979   6.826
 8085SOL     OW25153   5.270   2.672   1.598
 8085SOL    HW125154   5.199   2.698   1.533
 8085SOL    HW225155   5.322   2.594   1.561
 8086SOL     OW25156   3.146   5.138   6.370
 8086SOL    HW125157   3.106   5.054   6.335
 8086SOL    HW225158   3.197   5.118   6.454
 8087SOL     OW25159   1.781   3.759   0.670
 8087SOL    HW125160   1.805   3.714   0.584
 8087SOL    HW225161   1.864   3.770   0.725
 8088SOL     OW25162   4.801   0.480   3.047
 8088SOL    HW125163   4.777   0.566   3.092
 8088SOL    HW225164   4.802   0.493   2.948
 8089SOL     OW25165   6.935   2.688   0.210
 8089SOL    HW125166   6.935   2.619   0.282
 8089SOL    HW225167   6.990   2.657   0.133
 8090SOL     OW25168   5.430   1.488   5.046
 8090SOL    HW125169   5.340   1.456   5.073
 8090SOL    HW225170   5.467   1.547   5.118
 8091SOL     OW25171   1.875   3.465   5.297
 8091SOL    HW125172   1.814   3.542   5.317
 8091SOL    HW225173   1.969   3.498   5.288
 8092SOL     OW25174   6.218   2.472   3.809
 8092SOL    HW125175   6.214   2.375   3.784
 8092SOL    HW225176   6.152   2.491   3.882
 8093SOL     OW25177   5.911   4.781   0.792
 8093SOL    HW125178   5.928   4.835   0.875
 8093SOL    HW225179   5.988   4.793   0.729
 8094SOL     OW25180   0.761   3.473   4.075
 8094SOL    HW125181   0.748   3.567   4.043
 8094SOL    HW225182   0.859   3.451   4.076
 8095SOL     OW25183   6.342   3.421   5.182
 8095SOL    HW125184   6.425   3.476   5.180
 8095SOL    HW225185   6.284   3.450   5.257
 8096SOL     OW25186   3.776   0.202   0.719
 8096SOL    HW125187   3.866   0.160   0.710
 8096SOL    HW225188   3.710   0.132   0.749
 8097SOL     OW25189   5.224   2.235   3.783
 8097SOL    HW125190   5.213   2.242   3.683
 8097SOL    HW225191   5.149   2.179   3.820
 8098SOL     OW25192   2.035   2.411   4.173
 8098SOL    HW125193   2.077   2.500   4.157
 8098SOL    HW225194   2.103   2.350   4.215
 8099SOL     OW25195   3.985   0.201   4.383
 8099SOL    HW125196   4.060   0.258   4.418
 8099SOL    HW225197   4.021   0.113   4.354
 8100SOL     OW25198   6.231   6.550   1.652
 8100SOL    HW125199   6.167   6.625   1.664
 8100SOL    HW225200   6.191   6.465   1.687
 8101SOL     OW25201   1.208   4.883   2.716
 8101SOL    HW125202   1.290   4.858   2.663
 8101SOL    HW225203   1.195   4.982   2.712
 8102SOL     OW25204   6.700   0.468   5.379
 8102SOL    HW125205   6.663   0.512   5.460
 8102SOL    HW225206   6.776   0.408   5.406
 8103SOL     OW25207   2.641   2.438   2.298
 8103SOL    HW125208   2.735   2.413   2.272
 8103SOL    HW225209   2.591   2.468   2.217
 8104SOL     OW25210   2.796   6.982   6.119
 8104SOL    HW125211   2.703   7.001   6.091
 8104SOL    HW225212   2.804   6.886   6.147
 8105SOL     OW25213   2.425   2.341   2.462
 8105SOL    HW125214   2.496   2.397   2.420
 8105SOL    HW225215   2.464   2.287   2.536
 8106SOL     OW25216   0.163   4.372   6.212
 8106SOL    HW125217   0.113   4.450   6.250
 8106SOL    HW225218   0.104   4.323   6.148
 8107SOL     OW25219   0.749   5.072   6.680
 8107SOL    HW125220   0.656   5.108   6.684
 8107SOL    HW225221   0.768   5.017   6.762
 8108SOL     OW25222   1.921   2.218   6.371
 8108SOL    HW125223   1.842   2.181   6.418
 8108SOL    HW225224   1.990   2.146   6.359
 8109SOL     OW25225   0.302   5.838   5.319
 8109SOL    HW125226   0.289   5.908   5.249
 8109SOL    HW225227   0.320   5.882   5.407
 8110SOL     OW25228   0.812   4.780   0.122
 8110SOL    HW125229   0.896   4.756   0.075
 8110SOL    HW225230   0.812   4.739   0.214
 8111SOL     OW25231   3.219   6.445   4.057
 8111SOL    HW125232   3.293   6.388   4.092
 8111SOL    HW225233   3.258   6.523   4.007
 8112SOL     OW25234   4.131   1.289   4.480
 8112SOL    HW125235   4.041   1.331   4.470
 8112SOL    HW225236   4.120   1.190   4.490
 8113SOL     OW25237   3.042   2.027   6.213
 8113SOL    HW125238   3.128   1.979   6.231
 8113SOL    HW225239   3.057   2.126   6.219
 8114SOL     OW25240   2.907   3.541   1.255
 8114SOL    HW125241   3.000   3.570   1.233
 8114SOL    HW225242   2.906   3.499   1.346
 8115SOL     OW25243   4.053   2.926   1.214
 8115SOL    HW125244   3.984   2.998   1.226
 8115SOL    HW225245   4.120   2.932   1.288
 8116SOL     OW25246   5.740   1.816   5.777
 8116SOL    HW125247   5.666   1.762   5.819
 8116SOL    HW225248   5.709   1.910   5.765
 8117SOL     OW25249   3.121   2.888   5.357
 8117SOL    HW125250   3.146   2.791   5.355
 8117SOL    HW225251   3.093   2.917   5.265
 8118SOL     OW25252   0.960   2.149   4.215
 8118SOL    HW125253   0.937   2.219   4.284
 8118SOL    HW225254   0.942   2.058   4.252
 8119SOL     OW25255   1.630   0.029   2.280
 8119SOL    HW125256   1.627   0.120   2.239
 8119SOL    HW225257   1.537   7.015   2.295
 8120SOL     OW25258   4.901   3.939   2.112
 8120SOL    HW125259   4.838   3.962   2.186
 8120SOL    HW225260   4.849   3.903   2.034
 8121SOL     OW25261   6.901   6.235   3.858
 8121SOL    HW125262   6.901   6.332   3.834
 8121SOL    HW225263   6.975   6.216   3.922
 8122SOL     OW25264   0.606   5.019   1.543
 8122SOL    HW125265   0.587   4.967   1.626
 8122SOL    HW225266   0.670   5.093   1.565
 8123SOL     OW25267   1.172   4.868   6.015
 8123SOL    HW125268   1.168   4.965   6.038
 8123SOL    HW225269   1.268   4.842   5.998
 8124SOL     OW25270   1.752   5.818   2.192
 8124SOL    HW125271   1.706   5.730   2.180
 8124SOL    HW225272   1.814   5.833   2.115
 8125SOL     OW25273   5.083   5.469   3.717
 8125SOL    HW125274   5.028   5.394   3.755
 8125SOL    HW225275   5.102   5.451   3.621
 8126SOL     OW25276   0.334   4.562   2.207
 8126SOL    HW125277   0.417   4.542   2.259
 8126SOL    HW225278   0.283   4.478   2.192
 8127SOL     OW25279   4.503   5.281   0.350
 8127SOL    HW125280   4.423   5.290   0.291
 8127SOL    HW225281   4.534   5.185   0.350
 8128SOL     OW25282   3.914   2.322   5.273
 8128SOL    HW125283   3.905   2.416   5.242
 8128SOL    HW225284   3.825   2.288   5.304
 8129SOL     OW25285   5.038   5.278   6.643
 8129SOL    HW125286   5.116   5.216   6.643
 8129SOL    HW225287   4.975   5.251   6.570
 8130SOL     OW25288   0.399   0.861   6.080
 8130SOL    HW125289   0.465   0.816   6.019
 8130SOL    HW225290   0.420   0.959   6.085
 8131SOL     OW25291   2.248   1.815   1.316
 8131SOL    HW125292   2.266   1.913   1.312
 8131SOL    HW225293   2.193   1.794   1.397
 8132SOL     OW25294   5.904   4.528   3.512
 8132SOL    HW125295   5.826   4.575   3.554
 8132SOL    HW225296   5.933   4.452   3.570
 8133SOL     OW25297   0.018   5.503   2.552
 8133SOL    HW125298   6.963   5.545   2.606
 8133SOL    HW225299   0.091   5.472   2.613
 8134SOL     OW25300   3.702   3.603   1.429
 8134SOL    HW125301   3.636   3.592   1.355
 8134SOL    HW225302   3.659   3.579   1.516
 8135SOL     OW25303   4.040   5.854   2.416
 8135SOL    HW125304   4.059   5.946   2.380
 8135SOL    HW225305   4.034   5.789   2.341
 8136SOL     OW25306   2.440   5.657   1.211
 8136SOL    HW125307   2.453   5.720   1.287
 8136SOL    HW225308   2.395   5.574   1.243
 8137SOL     OW25309   3.657   4.450   5.733
 8137SOL    HW125310   3.682   4.530   5.679
 8137SOL    HW225311   3.589   4.396   5.682
 8138SOL     OW25312   4.116   0.987   3.704
 8138SOL    HW125313   4.165   1.020   3.623
 8138SOL    HW225314   4.064   1.062   3.743
 8139SOL     OW25315   1.785   3.281   5.606
 8139SOL    HW125316   1.797   3.354   5.673
 8139SOL    HW225317   1.774   3.320   5.515
 8140SOL     OW25318   5.102   1.716   1.148
 8140SOL    HW125319   5.082   1.628   1.192
 8140SOL    HW225320   5.201   1.728   1.143
 8141SOL     OW25321   6.133   1.854   5.013
 8141SOL    HW125322   6.110   1.776   5.072
 8141SOL    HW225323   6.050   1.890   4.971
 8142SOL     OW25324   3.968   5.907   0.390
 8142SOL    HW125325   3.979   5.922   0.292
 8142SOL    HW225326   3.902   5.833   0.406
 8143SOL     OW25327   5.913   5.062   0.563
 8143SOL    HW125328   5.888   5.108   0.648
 8143SOL    HW225329   5.857   5.099   0.488
 8144SOL     OW25330   1.932   5.440   6.244
 8144SOL    HW125331   1.952   5.389   6.160
 8144SOL    HW225332   1.842   5.412   6.279
 8145SOL     OW25333   4.931   5.380   5.467
 8145SOL    HW125334   4.848   5.415   5.425
 8145SOL    HW225335   4.930   5.399   5.565
 8146SOL     OW25336   6.784   6.259   5.500
 8146SOL    HW125337   6.719   6.267   5.576
 8146SOL    HW225338   6.812   6.163   5.491
 8147SOL     OW25339   2.105   6.344   4.725
 8147SOL    HW125340   2.176   6.277   4.743
 8147SOL    HW225341   2.058   6.320   4.640
 8148SOL     OW25342   5.205   5.063   0.960
 8148SOL    HW125343   5.130   5.027   0.905
 8148SOL    HW225344   5.280   4.997   0.962
 8149SOL     OW25345   1.550   6.318   4.641
 8149SOL    HW125346   1.604   6.385   4.590
 8149SOL    HW225347   1.549   6.342   4.738
 8150SOL     OW25348   0.718   4.301   0.433
 8150SOL    HW125349   0.669   4.214   0.426
 8150SOL    HW225350   0.784   4.296   0.508
 8151SOL     OW25351   6.039   4.397   2.528
 8151SOL    HW125352   5.975   4.403   2.605
 8151SOL    HW225353   6.102   4.321   2.543
 8152SOL     OW25354   5.161   1.668   4.428
 8152SOL    HW125355   5.251   1.670   4.471
 8152SOL    HW225356   5.172   1.672   4.328
 8153SOL     OW25357   0.501   1.790   0.954
 8153SOL    HW125358   0.425   1.812   1.015
 8153SOL    HW225359   0.520   1.869   0.896
 8154SOL     OW25360   6.892   0.347   4.633
 8154SOL    HW125361   6.876   0.442   4.661
 8154SOL    HW225362   6.991   0.331   4.628
 8155SOL     OW25363   1.271   4.329   4.663
 8155SOL    HW125364   1.249   4.427   4.661
 8155SOL    HW225365   1.347   4.314   4.726
 8156SOL     OW25366   1.137   3.761   0.655
 8156SOL    HW125367   1.170   3.749   0.562
 8156SOL    HW225368   1.093   3.677   0.686
 8157SOL     OW25369   6.485   4.711   5.792
 8157SOL    HW125370   6.408   4.726   5.729
 8157SOL    HW225371   6.450   4.673   5.877
 8158SOL     OW25372   6.715   5.046   6.334
 8158SOL    HW125373   6.791   5.048   6.399
 8158SOL    HW225374   6.645   4.983   6.366
 8159SOL     OW25375   1.977   6.427   5.517
 8159SOL    HW125376   1.995   6.366   5.595
 8159SOL    HW225377   1.917   6.502   5.548
 8160SOL     OW25378   4.945   3.335   2.614
 8160SOL    HW125379   4.886   3.319   2.693
 8160SOL    HW225380   5.035   3.296   2.632
 8161SOL     OW25381   0.426   2.493   0.976
 8161SOL    HW125382   0.328   2.474   0.969
 8161SOL    HW225383   0.458   2.533   0.890
 8162SOL     OW25384   6.845   6.228   5.914
 8162SOL    HW125385   6.932   6.181   5.894
 8162SOL    HW225386   6.771   6.184   5.863
 8163SOL     OW25387   3.675   5.211   5.827
 8163SOL    HW125388   3.760   5.264   5.821
 8163SOL    HW225389   3.597   5.272   5.819
 8164SOL     OW25390   5.680   1.894   0.271
 8164SOL    HW125391   5.719   1.851   0.353
 8164SOL    HW225392   5.671   1.826   0.198
 8165SOL     OW25393   1.513   2.446   5.718
 8165SOL    HW125394   1.441   2.506   5.752
 8165SOL    HW225395   1.560   2.403   5.795
 8166SOL     OW25396   3.581   2.106   4.014
 8166SOL    HW125397   3.563   2.019   3.968
 8166SOL    HW225398   3.534   2.180   3.965
 8167SOL     OW25399   1.667   2.042   2.113
 8167SOL    HW125400   1.621   1.955   2.096
 8167SOL    HW225401   1.662   2.099   2.030
 8168SOL     OW25402   1.217   5.889   2.855
 8168SOL    HW125403   1.207   5.970   2.913
 8168SOL    HW225404   1.275   5.822   2.901
 8169SOL     OW25405   5.238   5.073   6.668
 8169SOL    HW125406   5.184   5.007   6.614
 8169SOL    HW225407   5.335   5.053   6.657
 8170SOL     OW25408   0.298   4.831   3.187
 8170SOL    HW125409   0.369   4.765   3.165
 8170SOL    HW225410   0.234   4.838   3.110
 8171SOL     OW25411   1.527   1.657   1.703
 8171SOL    HW125412   1.572   1.707   1.777
 8171SOL    HW225413   1.541   1.559   1.715
 8172SOL     OW25414   1.709   4.819   0.773
 8172SOL    HW125415   1.705   4.734   0.720
 8172SOL    HW225416   1.637   4.818   0.842
 8173SOL     OW25417   5.173   0.707   1.457
 8173SOL    HW125418   5.157   0.609   1.444
 8173SOL    HW225419   5.208   0.746   1.372
 8174SOL     OW25420   2.724   6.479   3.910
 8174SOL    HW125421   2.736   6.386   3.877
 8174SOL    HW225422   2.732   6.543   3.833
 8175SOL     OW25423   0.812   2.404   6.165
 8175SOL    HW125424   0.762   2.472   6.218
 8175SOL    HW225425   0.866   2.450   6.094
 8176SOL     OW25426   2.715   4.517   0.490
 8176SOL    HW125427   2.759   4.588   0.546
 8176SOL    HW225428   2.617   4.537   0.483
 8177SOL     OW25429   3.380   1.332   2.258
 8177SOL    HW125430   3.411   1.240   2.282
 8177SOL    HW225431   3.459   1.393   2.250
 8178SOL     OW25432   2.770   6.467   0.926
 8178SOL    HW125433   2.676   6.501   0.917
 8178SOL    HW225434   2.829   6.541   0.957
 8179SOL     OW25435   6.095   6.571   4.576
 8179SOL    HW125436   6.097   6.484   4.527
 8179SOL    HW225437   6.187   6.609   4.582
 8180SOL     OW25438   3.729   5.495   0.862
 8180SOL    HW125439   3.754   5.528   0.771
 8180SOL    HW225440   3.749   5.565   0.930
 8181SOL     OW25441   6.542   0.916   6.625
 8181SOL    HW125442   6.445   0.909   6.602
 8181SOL    HW225443   6.578   0.824   6.641
 8182SOL     OW25444   3.213   3.396   3.256
 8182SOL    HW125445   3.128   3.448   3.254
 8182SOL    HW225446   3.200   3.311   3.205
 8183SOL     OW25447   0.319   0.182   5.383
 8183SOL    HW125448   0.331   0.103   5.444
 8183SOL    HW225449   0.330   0.266   5.436
 8184SOL     OW25450   6.908   6.045   4.938
 8184SOL    HW125451   6.876   5.974   5.000
 8184SOL    HW225452   7.002   6.025   4.909
 8185SOL     OW25453   6.816   6.470   4.866
 8185SOL    HW125454   6.863   6.538   4.810
 8185SOL    HW225455   6.718   6.485   4.862
 8186SOL     OW25456   0.683   6.004   6.784
 8186SOL    HW125457   0.683   5.908   6.809
 8186SOL    HW225458   0.687   6.013   6.685
 8187SOL     OW25459   1.279   6.326   4.441
 8187SOL    HW125460   1.352   6.390   4.465
 8187SOL    HW225461   1.241   6.285   4.524
 8188SOL     OW25462   1.509   2.327   2.719
 8188SOL    HW125463   1.482   2.398   2.653
 8188SOL    HW225464   1.597   2.353   2.760
 8189SOL     OW25465   6.624   5.197   3.831
 8189SOL    HW125466   6.603   5.196   3.929
 8189SOL    HW225467   6.722   5.183   3.818
 8190SOL     OW25468   5.176   3.711   2.575
 8190SOL    HW125469   5.193   3.748   2.667
 8190SOL    HW225470   5.132   3.781   2.518
 8191SOL     OW25471   4.625   5.214   0.664
 8191SOL    HW125472   4.678   5.160   0.598
 8191SOL    HW225473   4.598   5.301   0.623
 8192SOL     OW25474   6.473   5.760   2.815
 8192SOL    HW125475   6.399   5.733   2.753
 8192SOL    HW225476   6.523   5.837   2.777
 8193SOL     OW25477   1.020   5.079   4.576
 8193SOL    HW125478   0.957   5.082   4.497
 8193SOL    HW225479   0.978   5.125   4.654
 8194SOL     OW25480   5.722   6.554   2.187
 8194SOL    HW125481   5.818   6.528   2.203
 8194SOL    HW225482   5.709   6.650   2.210
 8195SOL     OW25483   6.531   6.729   3.245
 8195SOL    HW125484   6.599   6.802   3.256
 8195SOL    HW225485   6.524   6.704   3.148
 8196SOL     OW25486   5.320   0.057   2.310
 8196SOL    HW125487   5.374   0.069   2.393
 8196SOL    HW225488   5.234   0.108   2.319
 8197SOL     OW25489   3.990   0.783   3.297
 8197SOL    HW125490   3.947   0.750   3.213
 8197SOL    HW225491   3.939   0.862   3.332
 8198SOL     OW25492   1.974   5.518   0.201
 8198SOL    HW125493   1.944   5.610   0.175
 8198SOL    HW225494   1.969   5.458   0.121
 8199SOL     OW25495   5.925   2.785   6.959
 8199SOL    HW125496   5.957   2.850   0.009
 8199SOL    HW225497   5.876   2.710   7.005
 8200SOL     OW25498   5.813   4.368   7.012
 8200SOL    HW125499   5.796   4.425   0.074
 8200SOL    HW225500   5.797   4.422   6.929
 8201SOL     OW25501   5.419   1.507   5.953
 8201SOL    HW125502   5.496   1.446   5.972
 8201SOL    HW225503   5.337   1.472   5.998
 8202SOL     OW25504   6.838   6.147   2.388
 8202SOL    HW125505   6.928   6.158   2.345
 8202SOL    HW225506   6.776   6.218   2.354
 8203SOL     OW25507   0.743   3.034   0.273
 8203SOL    HW125508   0.746   3.134   0.274
 8203SOL    HW225509   0.789   3.000   0.355
 8204SOL     OW25510   1.574   3.469   0.689
 8204SOL    HW125511   1.633   3.529   0.635
 8204SOL    HW225512   1.538   3.519   0.767
 8205SOL     OW25513   6.849   3.981   6.388
 8205SOL    HW125514   6.787   3.913   6.349
 8205SOL    HW225515   6.923   4.000   6.323
 8206SOL     OW25516   3.192   1.454   1.281
 8206SOL    HW125517   3.100   1.493   1.289
 8206SOL    HW225518   3.252   1.498   1.348
 8207SOL     OW25519   3.697   3.440   3.990
 8207SOL    HW125520   3.651   3.529   3.999
 8207SOL    HW225521   3.673   3.383   4.069
 8208SOL     OW25522   3.532   0.272   5.508
 8208SOL    HW125523   3.489   0.341   5.451
 8208SOL    HW225524   3.491   0.183   5.489
 8209SOL     OW25525   5.161   2.639   3.650
 8209SOL    HW125526   5.154   2.721   3.593
 8209SOL    HW225527   5.189   2.665   3.742
 8210SOL     OW25528   1.237   1.585   6.239
 8210SOL    HW125529   1.307   1.654   6.222
 8210SOL    HW225530   1.157   1.604   6.182
 8211SOL     OW25531   3.907   4.613   1.290
 8211SOL    HW125532   3.957   4.676   1.349
 8211SOL    HW225533   3.854   4.665   1.223
 8212SOL     OW25534   1.878   3.586   2.664
 8212SOL    HW125535   1.779   3.577   2.677
 8212SOL    HW225536   1.898   3.670   2.614
 8213SOL     OW25537   6.368   4.710   0.759
 8213SOL    HW125538   6.336   4.804   0.746
 8213SOL    HW225539   6.468   4.708   0.755
 8214SOL     OW25540   4.791   2.695   3.430
 8214SOL    HW125541   4.705   2.646   3.439
 8214SOL    HW225542   4.783   2.786   3.471
 8215SOL     OW25543   3.354   4.225   1.668
 8215SOL    HW125544   3.447   4.244   1.700
 8215SOL    HW225545   3.358   4.177   1.581
 8216SOL     OW25546   5.678   2.844   4.469
 8216SOL    HW125547   5.722   2.760   4.501
 8216SOL    HW225548   5.743   2.919   4.472
 8217SOL     OW25549   2.251   5.743   6.975
 8217SOL    HW125550   2.325   5.693   6.931
 8217SOL    HW225551   2.223   5.695   0.040
 8218SOL     OW25552   4.768   1.903   0.204
 8218SOL    HW125553   4.863   1.907   0.174
 8218SOL    HW225554   4.721   1.830   0.154
 8219SOL     OW25555   5.355   2.678   0.250
 8219SOL    HW125556   5.422   2.630   0.193
 8219SOL    HW225557   5.356   2.775   0.226
 8220SOL     OW25558   4.077   3.559   1.697
 8220SOL    HW125559   4.014   3.621   1.649
 8220SOL    HW225560   4.038   3.535   1.786
 8221SOL     OW25561   5.574   3.639   3.727
 8221SOL    HW125562   5.622   3.553   3.748
 8221SOL    HW225563   5.560   3.645   3.628
 8222SOL     OW25564   5.686   1.368   3.147
 8222SOL    HW125565   5.703   1.436   3.076
 8222SOL    HW225566   5.745   1.386   3.225
 8223SOL     OW25567   1.054   3.679   0.091
 8223SOL    HW125568   1.137   3.650   0.138
 8223SOL    HW225569   1.061   3.776   0.068
 8224SOL     OW25570   1.038   3.633   2.561
 8224SOL    HW125571   1.043   3.534   2.551
 8224SOL    HW225572   0.942   3.662   2.558
 8225SOL     OW25573   4.921   0.365   1.146
 8225SOL    HW125574   4.944   0.336   1.053
 8225SOL    HW225575   4.832   0.411   1.145
 8226SOL     OW25576   4.339   0.130   0.101
 8226SOL    HW125577   4.371   0.161   0.190
 8226SOL    HW225578   4.239   0.140   0.097
 8227SOL     OW25579   5.882   4.619   3.232
 8227SOL    HW125580   5.932   4.581   3.155
 8227SOL    HW225581   5.918   4.580   3.317
 8228SOL     OW25582   0.047   1.048   3.573
 8228SOL    HW125583   0.036   1.037   3.672
 8228SOL    HW225584   0.066   0.959   3.532
 8229SOL     OW25585   5.947   5.481   6.658
 8229SOL    HW125586   6.013   5.423   6.706
 8229SOL    HW225587   5.974   5.577   6.667
 8230SOL     OW25588   5.033   6.998   3.435
 8230SOL    HW125589   5.112   0.029   3.470
 8230SOL    HW225590   4.955   0.041   3.429
 8231SOL     OW25591   3.772   6.166   1.510
 8231SOL    HW125592   3.796   6.148   1.606
 8231SOL    HW225593   3.746   6.081   1.466
 8232SOL     OW25594   2.492   1.424   0.310
 8232SOL    HW125595   2.416   1.424   0.375
 8232SOL    HW225596   2.469   1.363   0.233
 8233SOL     OW25597   0.929   5.807   6.203
 8233SOL    HW125598   0.935   5.906   6.205
 8233SOL    HW225599   0.833   5.779   6.201
 8234SOL     OW25600   1.740   3.034   6.807
 8234SOL    HW125601   1.695   2.951   6.839
 8234SOL    HW225602   1.708   3.112   6.862
 8235SOL     OW25603   4.660   2.632   6.625
 8235SOL    HW125604   4.695   2.716   6.584
 8235SOL    HW225605   4.571   2.650   6.666
 8236SOL     OW25606   6.339   1.385   1.596
 8236SOL    HW125607   6.403   1.309   1.592
 8236SOL    HW225608   6.372   1.455   1.660
 8237SOL     OW25609   3.806   6.159   5.370
 8237SOL    HW125610   3.722   6.206   5.400
 8237SOL    HW225611   3.801   6.141   5.272
 8238SOL     OW25612   0.174   1.198   5.646
 8238SOL    HW125613   0.075   1.184   5.651
 8238SOL    HW225614   0.195   1.266   5.576
 8239SOL     OW25615   4.885   1.644   6.477
 8239SOL    HW125616   4.872   1.738   6.445
 8239SOL    HW225617   4.805   1.616   6.530
 8240SOL     OW25618   3.959   3.043   2.600
 8240SOL    HW125619   3.866   3.058   2.565
 8240SOL    HW225620   3.983   2.946   2.587
 8241SOL     OW25621   4.368   6.372   1.088
 8241SOL    HW125622   4.374   6.468   1.116
 8241SOL    HW225623   4.327   6.318   1.162
 8242SOL     OW25624   1.796   4.242   5.009
 8242SOL    HW125625   1.890   4.227   4.979
 8242SOL    HW225626   1.743   4.158   4.997
 8243SOL     OW25627   6.920   4.246   4.497
 8243SOL    HW125628   7.011   4.255   4.536
 8243SOL    HW225629   6.855   4.217   4.567
 8244SOL     OW25630   3.384   5.654   5.377
 8244SOL    HW125631   3.426   5.595   5.308
 8244SOL    HW225632   3.288   5.630   5.387
 8245SOL     OW25633   4.412   4.188   1.109
 8245SOL    HW125634   4.352   4.171   1.187
 8245SOL    HW225635   4.504   4.211   1.142
 8246SOL     OW25636   5.467   3.238   5.291
 8246SOL    HW125637   5.421   3.230   5.203
 8246SOL    HW225638   5.398   3.248   5.363
 8247SOL     OW25639   1.152   6.146   0.016
 8247SOL    HW125640   1.231   6.171   6.979
 8247SOL    HW225641   1.068   6.169   6.985
 8248SOL     OW25642   6.708   4.271   3.198
 8248SOL    HW125643   6.655   4.205   3.251
 8248SOL    HW225644   6.776   4.222   3.142
 8249SOL     OW25645   0.771   5.836   3.189
 8249SOL    HW125646   0.806   5.891   3.113
 8249SOL    HW225647   0.701   5.773   3.155
 8250SOL     OW25648   2.947   3.162   2.560
 8250SOL    HW125649   2.855   3.130   2.536
 8250SOL    HW225650   2.951   3.261   2.553
 8251SOL     OW25651   5.544   0.654   4.159
 8251SOL    HW125652   5.524   0.748   4.134
 8251SOL    HW225653   5.481   0.592   4.112
 8252SOL     OW25654   0.841   3.930   4.442
 8252SOL    HW125655   0.894   4.013   4.425
 8252SOL    HW225656   0.872   3.857   4.381
 8253SOL     OW25657   3.042   3.176   5.930
 8253SOL    HW125658   3.094   3.189   5.845
 8253SOL    HW225659   2.968   3.243   5.934
 8254SOL     OW25660   4.895   4.860   2.995
 8254SOL    HW125661   4.909   4.954   3.026
 8254SOL    HW225662   4.802   4.831   3.017
 8255SOL     OW25663   3.944   5.113   3.787
 8255SOL    HW125664   3.872   5.043   3.784
 8255SOL    HW225665   3.910   5.198   3.747
 8256SOL     OW25666   5.093   2.327   2.677
 8256SOL    HW125667   5.123   2.235   2.701
 8256SOL    HW225668   4.998   2.339   2.707
 8257SOL     OW25669   6.334   4.553   4.339
 8257SOL    HW125670   6.252   4.602   4.308
 8257SOL    HW225671   6.382   4.608   4.406
 8258SOL     OW25672   5.396   1.959   0.568
 8258SOL    HW125673   5.465   1.892   0.595
 8258SOL    HW225674   5.431   2.013   0.491
 8259SOL     OW25675   4.346   0.465   1.048
 8259SOL    HW125676   4.396   0.436   1.129
 8259SOL    HW225677   4.406   0.458   0.968
 8260SOL     OW25678   3.389   5.435   6.496
 8260SOL    HW125679   3.339   5.517   6.525
 8260SOL    HW225680   3.487   5.453   6.497
 8261SOL     OW25681   4.656   1.337   1.608
 8261SOL    HW125682   4.725   1.316   1.677
 8261SOL    HW225683   4.565   1.317   1.645
 8262SOL     OW25684   6.424   2.735   1.835
 8262SOL    HW125685   6.338   2.700   1.800
 8262SOL    HW225686   6.431   2.715   1.933
 8263SOL     OW25687   6.054   1.851   0.315
 8263SOL    HW125688   6.123   1.833   0.385
 8263SOL    HW225689   6.020   1.945   0.325
 8264SOL     OW25690   1.527   4.293   1.339
 8264SOL    HW125691   1.586   4.267   1.416
 8264SOL    HW225692   1.470   4.216   1.313
 8265SOL     OW25693   2.182   0.556   3.088
 8265SOL    HW125694   2.250   0.487   3.062
 8265SOL    HW225695   2.209   0.645   3.050
 8266SOL     OW25696   2.688   1.092   2.814
 8266SOL    HW125697   2.667   1.127   2.723
 8266SOL    HW225698   2.785   1.105   2.834
 8267SOL     OW25699   0.007   3.149   1.950
 8267SOL    HW125700   0.076   3.191   1.890
 8267SOL    HW225701   0.027   3.173   2.045
 8268SOL     OW25702   2.216   4.494   0.079
 8268SOL    HW125703   2.294   4.548   0.112
 8268SOL    HW225704   2.218   4.404   0.124
 8269SOL     OW25705   5.548   2.351   6.983
 8269SOL    HW125706   5.460   2.308   7.003
 8269SOL    HW225707   5.622   2.286   7.004
 8270SOL     OW25708   2.176   6.037   4.418
 8270SOL    HW125709   2.101   6.010   4.357
 8270SOL    HW225710   2.151   6.018   4.512
 8271SOL     OW25711   0.332   2.110   2.530
 8271SOL    HW125712   0.370   2.068   2.448
 8271SOL    HW225713   0.388   2.189   2.557
 8272SOL     OW25714   3.485   1.014   4.201
 8272SOL    HW125715   3.568   1.046   4.246
 8272SOL    HW225716   3.414   1.085   4.209
 8273SOL     OW25717   2.269   6.653   2.032
 8273SOL    HW125718   2.203   6.603   2.089
 8273SOL    HW225719   2.360   6.645   2.073
 8274SOL     OW25720   5.171   3.473   3.780
 8274SOL    HW125721   5.080   3.506   3.755
 8274SOL    HW225722   5.229   3.550   3.806
 8275SOL     OW25723   6.178   2.406   0.075
 8275SOL    HW125724   6.230   2.421   0.159
 8275SOL    HW225725   6.161   2.493   0.030
 8276SOL     OW25726   0.899   1.912   3.560
 8276SOL    HW125727   0.877   2.000   3.520
 8276SOL    HW225728   0.986   1.918   3.609
 8277SOL     OW25729   0.322   1.363   0.637
 8277SOL    HW125730   0.395   1.418   0.598
 8277SOL    HW225731   0.361   1.284   0.685
 8278SOL     OW25732   1.006   2.548   0.292
 8278SOL    HW125733   1.057   2.634   0.304
 8278SOL    HW225734   0.912   2.570   0.265
 8279SOL     OW25735   0.539   6.145   4.038
 8279SOL    HW125736   0.632   6.110   4.023
 8279SOL    HW225737   0.506   6.187   3.953
 8280SOL     OW25738   3.053   2.320   6.147
 8280SOL    HW125739   3.000   2.380   6.087
 8280SOL    HW225740   3.120   2.270   6.092
 8281SOL     OW25741   3.967   5.186   2.249
 8281SOL    HW125742   3.975   5.193   2.348
 8281SOL    HW225743   4.011   5.265   2.206
 8282SOL     OW25744   6.697   3.080   6.140
 8282SOL    HW125745   6.621   3.084   6.075
 8282SOL    HW225746   6.661   3.064   6.232
 8283SOL     OW25747   2.393   2.689   6.677
 8283SOL    HW125748   2.343   2.676   6.591
 8283SOL    HW225749   2.491   2.690   6.658
 8284SOL     OW25750   6.761   4.599   1.797
 8284SOL    HW125751   6.709   4.611   1.881
 8284SOL    HW225752   6.854   4.632   1.810
 8285SOL     OW25753   3.460   2.886   3.528
 8285SOL    HW125754   3.558   2.879   3.549
 8285SOL    HW225755   3.444   2.857   3.433
 8286SOL     OW25756   7.004   2.899   7.002
 8286SOL    HW125757   0.026   2.810   6.982
 8286SOL    HW225758   0.059   2.966   7.017
 8287SOL     OW25759   1.546   6.803   4.427
 8287SOL    HW125760   1.560   6.771   4.520
 8287SOL    HW225761   1.633   6.834   4.389
 8288SOL     OW25762   2.384   1.614   2.965
 8288SOL    HW125763   2.470   1.663   2.972
 8288SOL    HW225764   2.314   1.661   3.019
 8289SOL     OW25765   0.918   6.751   0.273
 8289SOL    HW125766   0.926   6.762   0.174
 8289SOL    HW225767   1.002   6.784   0.317
 8290SOL     OW25768   6.390   1.924   1.122
 8290SOL    HW125769   6.315   1.908   1.187
 8290SOL    HW225770   6.395   1.849   1.057
 8291SOL     OW25771   4.034   0.576   1.296
 8291SOL    HW125772   4.024   0.645   1.224
 8291SOL    HW225773   3.947   0.565   1.344
 8292SOL     OW25774   2.192   0.772   6.258
 8292SOL    HW125775   2.246   0.697   6.219
 8292SOL    HW225776   2.124   0.802   6.192
 8293SOL     OW25777   5.953   5.223   5.507
 8293SOL    HW125778   6.025   5.254   5.569
 8293SOL    HW225779   5.964   5.125   5.489
 8294SOL     OW25780   5.987   3.009   0.106
 8294SOL    HW125781   6.014   3.051   0.019
 8294SOL    HW225782   6.063   2.956   0.144
 8295SOL     OW25783   5.441   2.348   6.684
 8295SOL    HW125784   5.467   2.344   6.780
 8295SOL    HW225785   5.514   2.308   6.628
 8296SOL     OW25786   0.330   5.104   5.288
 8296SOL    HW125787   0.420   5.100   5.246
 8296SOL    HW225788   0.339   5.126   5.386
 8297SOL     OW25789   1.426   3.673   4.054
 8297SOL    HW125790   1.467   3.746   4.109
 8297SOL    HW225791   1.416   3.592   4.110
 8298SOL     OW25792   4.782   2.773   2.162
 8298SOL    HW125793   4.709   2.751   2.097
 8298SOL    HW225794   4.802   2.871   2.158
 8299SOL     OW25795   6.130   1.359   1.219
 8299SOL    HW125796   6.210   1.419   1.225
 8299SOL    HW225797   6.098   1.336   1.311
 8300SOL     OW25798   1.326   5.361   2.800
 8300SOL    HW125799   1.253   5.429   2.798
 8300SOL    HW225800   1.409   5.402   2.838
 8301SOL     OW25801   2.942   1.379   5.893
 8301SOL    HW125802   2.864   1.442   5.893
 8301SOL    HW225803   2.986   1.379   5.983
 8302SOL     OW25804   6.097   5.164   6.368
 8302SOL    HW125805   6.064   5.082   6.321
 8302SOL    HW225806   6.108   5.145   6.465
 8303SOL     OW25807   0.397   0.174   6.892
 8303SOL    HW125808   0.420   0.229   6.972
 8303SOL    HW225809   0.458   0.095   6.887
 8304SOL     OW25810   0.014   3.344   0.222
 8304SOL    HW125811   0.048   3.382   0.136
 8304SOL    HW225812   6.969   3.269   0.202
 8305SOL     OW25813   3.229   5.776   2.430
 8305SOL    HW125814   3.216   5.729   2.343
 8305SOL    HW225815   3.184   5.724   2.503
 8306SOL     OW25816   1.627   2.249   3.739
 8306SOL    HW125817   1.653   2.182   3.670
 8306SOL    HW225818   1.617   2.339   3.697
 8307SOL     OW25819   3.561   6.313   0.973
 8307SOL    HW125820   3.519   6.336   0.885
 8307SOL    HW225821   3.598   6.397   1.015
 8308SOL     OW25822   2.655   0.841   2.426
 8308SOL    HW125823   2.563   0.876   2.444
 8308SOL    HW225824   2.663   0.749   2.463
 8309SOL     OW25825   5.865   6.203   2.465
 8309SOL    HW125826   5.862   6.109   2.432
 8309SOL    HW225827   5.875   6.202   2.565
 8310SOL     OW25828   5.990   4.964   6.939
 8310SOL    HW125829   6.043   4.962   0.005
 8310SOL    HW225830   6.046   4.929   6.864
 8311SOL     OW25831   6.760   0.700   6.843
 8311SOL    HW125832   6.793   0.685   6.749
 8311SOL    HW225833   6.831   0.745   6.896
 8312SOL     OW25834   4.734   6.103   1.089
 8312SOL    HW125835   4.680   6.165   1.033
 8312SOL    HW225836   4.686   6.017   1.100
 8313SOL     OW25837   4.026   2.055   2.816
 8313SOL    HW125838   3.952   2.055   2.749
 8313SOL    HW225839   4.088   2.132   2.798
 8314SOL     OW25840   6.920   6.846   4.169
 8314SOL    HW125841   6.963   6.901   4.241
 8314SOL    HW225842   6.867   6.906   4.109
 8315SOL     OW25843   4.974   4.101   0.078
 8315SOL    HW125844   4.947   4.195   0.057
 8315SOL    HW225845   4.991   4.093   0.176
 8316SOL     OW25846   2.734   5.645   6.346
 8316SOL    HW125847   2.787   5.565   6.318
 8316SOL    HW225848   2.775   5.686   6.427
 8317SOL     OW25849   2.123   5.003   1.599
 8317SOL    HW125850   2.117   5.081   1.536
 8317SOL    HW225851   2.216   4.996   1.635
 8318SOL     OW25852   2.962   1.147   5.763
 8318SOL    HW125853   2.955   1.229   5.820
 8318SOL    HW225854   2.948   1.172   5.667
 8319SOL     OW25855   1.997   0.690   5.349
 8319SOL    HW125856   2.050   0.608   5.367
 8319SOL    HW225857   2.013   0.720   5.255
 8320SOL     OW25858   3.756   4.994   0.955
 8320SOL    HW125859   3.771   5.083   0.997
 8320SOL    HW225860   3.678   4.998   0.893
 8321SOL     OW25861   6.834   1.354   1.516
 8321SOL    HW125862   6.834   1.436   1.460
 8321SOL    HW225863   6.859   1.275   1.461
 8322SOL     OW25864   5.265   6.526   1.025
 8322SOL    HW125865   5.341   6.498   0.967
 8322SOL    HW225866   5.297   6.541   1.118
 8323SOL     OW25867   1.259   0.720   1.673
 8323SOL    HW125868   1.346   0.750   1.711
 8323SOL    HW225869   1.234   0.632   1.713
 8324SOL     OW25870   6.993   0.732   2.943
 8324SOL    HW125871   7.003   0.741   2.844
 8324SOL    HW225872   6.912   0.783   2.973
 8325SOL     OW25873   3.671   3.746   5.119
 8325SOL    HW125874   3.618   3.670   5.155
 8325SOL    HW225875   3.762   3.714   5.093
 8326SOL     OW25876   4.160   3.121   5.554
 8326SOL    HW125877   4.139   3.056   5.480
 8326SOL    HW225878   4.140   3.079   5.642
 8327SOL     OW25879   4.627   2.542   6.146
 8327SOL    HW125880   4.595   2.622   6.196
 8327SOL    HW225881   4.719   2.517   6.177
 8328SOL     OW25882   1.841   2.569   3.886
 8328SOL    HW125883   1.805   2.581   3.979
 8328SOL    HW225884   1.900   2.488   3.884
 8329SOL     OW25885   0.889   3.655   4.709
 8329SOL    HW125886   0.881   3.647   4.610
 8329SOL    HW225887   0.914   3.749   4.734
 8330SOL     OW25888   2.616   6.819   6.918
 8330SOL    HW125889   2.679   6.820   6.840
 8330SOL    HW225890   2.659   6.866   6.996
 8331SOL     OW25891   2.430   6.904   1.149
 8331SOL    HW125892   2.451   6.877   1.243
 8331SOL    HW225893   2.344   6.955   1.147
 8332SOL     OW25894   4.691   6.359   3.071
 8332SOL    HW125895   4.629   6.405   3.135
 8332SOL    HW225896   4.639   6.326   2.993
 8333SOL     OW25897   2.115   4.649   5.209
 8333SOL    HW125898   2.084   4.554   5.212
 8333SOL    HW225899   2.044   4.706   5.169
 8334SOL     OW25900   6.722   0.312   3.208
 8334SOL    HW125901   6.685   0.232   3.159
 8334SOL    HW225902   6.794   0.354   3.152
 8335SOL     OW25903   6.122   6.151   4.839
 8335SOL    HW125904   6.032   6.116   4.864
 8335SOL    HW225905   6.188   6.076   4.835
 8336SOL     OW25906   1.546   1.587   2.697
 8336SOL    HW125907   1.483   1.640   2.641
 8336SOL    HW225908   1.498   1.554   2.779
 8337SOL     OW25909   6.395   6.762   2.317
 8337SOL    HW125910   6.330   6.692   2.288
 8337SOL    HW225911   6.458   6.722   2.384
 8338SOL     OW25912   2.541   5.852   0.747
 8338SOL    HW125913   2.616   5.796   0.711
 8338SOL    HW225914   2.513   5.817   0.836
 8339SOL     OW25915   4.928   1.320   3.305
 8339SOL    HW125916   4.985   1.362   3.235
 8339SOL    HW225917   4.925   1.379   3.386
 8340SOL     OW25918   5.098   4.027   1.521
 8340SOL    HW125919   5.098   4.008   1.619
 8340SOL    HW225920   5.103   3.941   1.470
 8341SOL     OW25921   1.935   0.309   0.657
 8341SOL    HW125922   1.967   0.339   0.747
 8341SOL    HW225923   1.870   0.375   0.620
 8342SOL     OW25924   5.417   0.058   1.403
 8342SOL    HW125925   5.414   0.028   1.498
 8342SOL    HW225926   5.374   0.148   1.395
 8343SOL     OW25927   6.909   4.600   4.893
 8343SOL    HW125928   6.950   4.672   4.949
 8343SOL    HW225929   6.878   4.640   4.806
 8344SOL     OW25930   3.480   6.668   4.818
 8344SOL    HW125931   3.566   6.633   4.780
 8344SOL    HW225932   3.416   6.688   4.744
 8345SOL     OW25933   5.523   1.651   2.844
 8345SOL    HW125934   5.606   1.633   2.896
 8345SOL    HW225935   5.521   1.747   2.816
 8346SOL     OW25936   4.115   5.352   2.069
 8346SOL    HW125937   4.214   5.358   2.083
 8346SOL    HW225938   4.089   5.410   1.991
 8347SOL     OW25939   3.047   5.182   4.538
 8347SOL    HW125940   3.120   5.194   4.606
 8347SOL    HW225941   3.036   5.085   4.518
 8348SOL     OW25942   2.150   0.045   0.766
 8348SOL    HW125943   2.073   0.014   0.710
 8348SOL    HW225944   2.228   0.065   0.706
 8349SOL     OW25945   5.663   4.536   2.592
 8349SOL    HW125946   5.696   4.445   2.618
 8349SOL    HW225947   5.568   4.529   2.561
 8350SOL     OW25948   6.191   1.130   5.233
 8350SOL    HW125949   6.270   1.086   5.276
 8350SOL    HW225950   6.111   1.071   5.241
 8351SOL     OW25951   2.980   6.975   2.290
 8351SOL    HW125952   2.999   6.877   2.294
 8351SOL    HW225953   3.007   7.018   2.377
 8352SOL     OW25954   6.189   6.351   1.962
 8352SOL    HW125955   6.256   6.423   1.980
 8352SOL    HW225956   6.143   6.327   2.047
 8353SOL     OW25957   2.235   3.747   1.837
 8353SOL    HW125958   2.256   3.656   1.871
 8353SOL    HW225959   2.241   3.748   1.737
 8354SOL     OW25960   3.163   0.353   0.594
 8354SOL    HW125961   3.164   0.256   0.569
 8354SOL    HW225962   3.231   0.402   0.539
 8355SOL     OW25963   2.770   1.857   0.662
 8355SOL    HW125964   2.814   1.927   0.606
 8355SOL    HW225965   2.709   1.803   0.604
 8356SOL     OW25966   2.986   4.735   0.376
 8356SOL    HW125967   2.962   4.827   0.405
 8356SOL    HW225968   2.922   4.705   0.305
 8357SOL     OW25969   3.780   6.673   2.615
 8357SOL    HW125970   3.744   6.663   2.707
 8357SOL    HW225971   3.740   6.604   2.555
 8358SOL     OW25972   2.883   1.911   5.038
 8358SOL    HW125973   2.804   1.956   4.997
 8358SOL    HW225974   2.922   1.971   5.108
 8359SOL     OW25975   4.023   4.765   4.142
 8359SOL    HW125976   3.947   4.765   4.077
 8359SOL    HW225977   4.104   4.805   4.099
 8360SOL     OW25978   4.685   0.838   3.493
 8360SOL    HW125979   4.740   0.909   3.448
 8360SOL    HW225980   4.710   0.833   3.589
 8361SOL     OW25981   1.551   0.540   3.181
 8361SOL    HW125982   1.591   0.512   3.094
 8361SOL    HW225983   1.451   0.544   3.171
 8362SOL     OW25984   3.130   2.787   0.614
 8362SOL    HW125985   3.085   2.698   0.607
 8362SOL    HW225986   3.108   2.829   0.702
 8363SOL     OW25987   0.753   3.298   2.128
 8363SOL    HW125988   0.794   3.283   2.038
 8363SOL    HW225989   0.730   3.395   2.137
 8364SOL     OW25990   0.110   4.952   5.393
 8364SOL    HW125991   0.064   5.029   5.438
 8364SOL    HW225992   0.184   4.987   5.335
 8365SOL     OW25993   1.779   3.893   5.640
 8365SOL    HW125994   1.684   3.863   5.640
 8365SOL    HW225995   1.829   3.846   5.713
 8366SOL     OW25996   2.685   6.826   1.967
 8366SOL    HW125997   2.781   6.846   1.948
 8366SOL    HW225998   2.652   6.887   2.039
 8367SOL     OW25999   5.211   5.624   3.936
 8367SOL    HW126000   5.307   5.596   3.945
 8367SOL    HW226001   5.154   5.542   3.925
 8368SOL     OW26002   2.852   5.717   6.092
 8368SOL    HW126003   2.835   5.764   6.179
 8368SOL    HW226004   2.935   5.662   6.099
 8369SOL     OW26005   2.146   1.503   1.412
 8369SOL    HW126006   2.130   1.590   1.459
 8369SOL    HW226007   2.230   1.510   1.359
 8370SOL     OW26008   2.397   1.102   0.733
 8370SOL    HW126009   2.298   1.090   0.738
 8370SOL    HW226010   2.442   1.015   0.756
 8371SOL     OW26011   1.583   2.472   0.028
 8371SOL    HW126012   1.539   2.392   7.005
 8371SOL    HW226013   1.525   2.552   0.014
 8372SOL     OW26014   5.837   0.604   0.270
 8372SOL    HW126015   5.931   0.629   0.293
 8372SOL    HW226016   5.782   0.686   0.258
 8373SOL     OW26017   1.786   6.937   3.953
 8373SOL    HW126018   1.723   6.906   4.024
 8373SOL    HW226019   1.774   0.016   3.937
 8374SOL     OW26020   6.706   1.956   5.521
 8374SOL    HW126021   6.619   2.005   5.520
 8374SOL    HW226022   6.751   1.970   5.609
 8375SOL     OW26023   4.215   0.863   6.588
 8375SOL    HW126024   4.161   0.779   6.582
 8375SOL    HW226025   4.290   0.850   6.654
 8376SOL     OW26026   4.270   0.315   3.878
 8376SOL    HW126027   4.334   0.351   3.810
 8376SOL    HW226028   4.306   0.332   3.970
 8377SOL     OW26029   4.769   5.076   0.469
 8377SOL    HW126030   4.779   4.976   0.469
 8377SOL    HW226031   4.779   5.110   0.375
 8378SOL     OW26032   5.073   2.942   3.563
 8378SOL    HW126033   4.975   2.956   3.549
 8378SOL    HW226034   5.103   2.994   3.643
 8379SOL     OW26035   5.413   2.856   2.612
 8379SOL    HW126036   5.494   2.906   2.641
 8379SOL    HW226037   5.432   2.807   2.527
 8380SOL     OW26038   5.869   1.386   4.062
 8380SOL    HW126039   5.781   1.407   4.104
 8380SOL    HW226040   5.876   1.435   3.975
 8381SOL     OW26041   1.624   5.366   4.938
 8381SOL    HW126042   1.570   5.286   4.963
 8381SOL    HW226043   1.639   5.366   4.839
 8382SOL     OW26044   0.868   4.872   2.162
 8382SOL    HW126045   0.910   4.950   2.208
 8382SOL    HW226046   0.872   4.792   2.222
 8383SOL     OW26047   3.115   1.369   5.382
 8383SOL    HW126048   3.210   1.390   5.406
 8383SOL    HW226049   3.105   1.270   5.368
 8384SOL     OW26050   0.519   6.964   1.049
 8384SOL    HW126051   0.538   6.968   0.951
 8384SOL    HW226052   0.552   6.877   1.085
 8385SOL     OW26053   4.124   1.671   1.252
 8385SOL    HW126054   4.122   1.723   1.338
 8385SOL    HW226055   4.209   1.693   1.203
 8386SOL     OW26056   0.176   2.752   1.890
 8386SOL    HW126057   0.140   2.754   1.983
 8386SOL    HW226058   0.239   2.828   1.877
 8387SOL     OW26059   0.701   1.942   2.099
 8387SOL    HW126060   0.782   1.932   2.041
 8387SOL    HW226061   0.629   1.880   2.068
 8388SOL     OW26062   1.565   6.691   2.415
 8388SOL    HW126063   1.515   6.776   2.398
 8388SOL    HW226064   1.661   6.712   2.432
 8389SOL     OW26065   6.467   3.041   3.663
 8389SOL    HW126066   6.375   3.006   3.643
 8389SOL    HW226067   6.506   2.989   3.740
 8390SOL     OW26068   6.120   2.202   6.496
 8390SOL    HW126069   6.178   2.186   6.415
 8390SOL    HW226070   6.177   2.233   6.572
 8391SOL     OW26071   6.338   0.892   1.197
 8391SOL    HW126072   6.360   0.983   1.232
 8391SOL    HW226073   6.263   0.853   1.250
 8392SOL     OW26074   3.635   3.110   4.623
 8392SOL    HW126075   3.705   3.052   4.665
 8392SOL    HW226076   3.679   3.178   4.565
 8393SOL     OW26077   5.705   0.227   0.941
 8393SOL    HW126078   5.707   0.180   1.030
 8393SOL    HW226079   5.762   0.309   0.946
 8394SOL     OW26080   4.849   3.245   2.860
 8394SOL    HW126081   4.791   3.203   2.931
 8394SOL    HW226082   4.945   3.241   2.889
 8395SOL     OW26083   1.962   1.149   5.808
 8395SOL    HW126084   1.942   1.057   5.843
 8395SOL    HW226085   1.964   1.147   5.708
 8396SOL     OW26086   4.733   4.875   4.106
 8396SOL    HW126087   4.790   4.956   4.115
 8396SOL    HW226088   4.665   4.889   4.034
 8397SOL     OW26089   5.706   6.430   2.792
 8397SOL    HW126090   5.686   6.519   2.751
 8397SOL    HW226091   5.771   6.441   2.867
 8398SOL     OW26092   6.046   1.931   6.505
 8398SOL    HW126093   5.947   1.918   6.509
 8398SOL    HW226094   6.068   2.026   6.530
 8399SOL     OW26095   0.571   4.106   2.615
 8399SOL    HW126096   0.635   4.035   2.647
 8399SOL    HW226097   0.513   4.067   2.543
 8400SOL     OW26098   1.414   0.818   4.272
 8400SOL    HW126099   1.387   0.813   4.176
 8400SOL    HW226100   1.415   0.726   4.311
 8401SOL     OW26101   1.441   0.340   6.036
 8401SOL    HW126102   1.369   0.271   6.041
 8401SOL    HW226103   1.451   0.371   5.941
 8402SOL     OW26104   2.299   0.550   6.131
 8402SOL    HW126105   2.350   0.612   6.072
 8402SOL    HW226106   2.251   0.482   6.075
 8403SOL     OW26107   5.965   4.487   6.165
 8403SOL    HW126108   5.913   4.527   6.089
 8403SOL    HW226109   6.056   4.461   6.133
 8404SOL     OW26110   1.134   1.319   0.217
 8404SOL    HW126111   1.072   1.290   0.290
 8404SOL    HW226112   1.084   1.373   0.150
 8405SOL     OW26113   3.620   6.388   5.779
 8405SOL    HW126114   3.559   6.459   5.744
 8405SOL    HW226115   3.708   6.393   5.730
 8406SOL     OW26116   6.319   1.049   6.287
 8406SOL    HW126117   6.388   1.076   6.219
 8406SOL    HW226118   6.229   1.052   6.245
 8407SOL     OW26119   4.795   0.638   5.052
 8407SOL    HW126120   4.793   0.732   5.019
 8407SOL    HW226121   4.721   0.624   5.117
 8408SOL     OW26122   3.767   1.986   1.630
 8408SOL    HW126123   3.762   1.958   1.726
 8408SOL    HW226124   3.843   2.050   1.618
 8409SOL     OW26125   4.745   2.722   1.842
 8409SOL    HW126126   4.711   2.778   1.766
 8409SOL    HW226127   4.844   2.736   1.851
 8410SOL     OW26128   0.031   2.106   1.676
 8410SOL    HW126129   0.003   2.202   1.671
 8410SOL    HW226130   6.970   2.048   1.689
 8411SOL     OW26131   0.824   5.557   1.331
 8411SOL    HW126132   0.737   5.605   1.321
 8411SOL    HW226133   0.814   5.463   1.297
 8412SOL     OW26134   2.676   2.138   6.979
 8412SOL    HW126135   2.650   2.128   6.883
 8412SOL    HW226136   2.628   2.216   0.000
 8413SOL     OW26137   4.052   6.042   4.971
 8413SOL    HW126138   4.096   5.964   4.926
 8413SOL    HW226139   4.106   6.125   4.954
 8414SOL     OW26140   1.535   0.054   0.988
 8414SOL    HW126141   1.597   0.113   1.041
 8414SOL    HW226142   1.516   6.989   1.040
 8415SOL     OW26143   3.714   1.270   5.897
 8415SOL    HW126144   3.632   1.284   5.953
 8415SOL    HW226145   3.786   1.331   5.928
 8416SOL     OW26146   0.413   2.368   4.870
 8416SOL    HW126147   0.500   2.402   4.906
 8416SOL    HW226148   0.354   2.445   4.847
 8417SOL     OW26149   1.983   3.019   6.496
 8417SOL    HW126150   2.021   2.974   6.416
 8417SOL    HW226151   1.903   3.073   6.469
 8418SOL     OW26152   6.630   6.393   2.418
 8418SOL    HW126153   6.678   6.380   2.505
 8418SOL    HW226154   6.537   6.358   2.425
 8419SOL     OW26155   3.985   1.628   4.063
 8419SOL    HW126156   4.045   1.691   4.113
 8419SOL    HW226157   3.935   1.571   4.128
 8420SOL     OW26158   3.968   1.036   2.494
 8420SOL    HW126159   3.953   0.946   2.535
 8420SOL    HW226160   3.879   1.079   2.475
 8421SOL     OW26161   4.631   0.155   6.671
 8421SOL    HW126162   4.568   0.187   6.600
 8421SOL    HW226163   4.579   0.117   6.747
 8422SOL     OW26164   5.400   1.704   4.533
 8422SOL    HW126165   5.397   1.705   4.633
 8422SOL    HW226166   5.442   1.789   4.500
 8423SOL     OW26167   6.354   5.629   0.558
 8423SOL    HW126168   6.353   5.678   0.471
 8423SOL    HW226169   6.283   5.666   0.618
 8424SOL     OW26170   2.487   6.929   5.273
 8424SOL    HW126171   2.458   6.834   5.284
 8424SOL    HW226172   2.528   6.962   5.357
 8425SOL     OW26173   3.396   2.934   1.802
 8425SOL    HW126174   3.330   2.965   1.870
 8425SOL    HW226175   3.386   2.835   1.788
 8426SOL     OW26176   3.570   3.504   1.648
 8426SOL    HW126177   3.476   3.481   1.672
 8426SOL    HW226178   3.628   3.494   1.729
 8427SOL     OW26179   3.909   3.994   2.807
 8427SOL    HW126180   3.830   4.054   2.818
 8427SOL    HW226181   3.974   4.035   2.743
 8428SOL     OW26182   4.880   1.209   1.764
 8428SOL    HW126183   4.959   1.180   1.818
 8428SOL    HW226184   4.873   1.153   1.682
 8429SOL     OW26185   3.319   6.231   5.642
 8429SOL    HW126186   3.288   6.207   5.734
 8429SOL    HW226187   3.240   6.237   5.581
 8430SOL     OW26188   5.276   0.092   5.580
 8430SOL    HW126189   5.189   0.068   5.536
 8430SOL    HW226190   5.306   0.017   5.637
 8431SOL     OW26191   2.611   3.310   6.480
 8431SOL    HW126192   2.588   3.382   6.415
 8431SOL    HW226193   2.672   3.244   6.437
 8432SOL     OW26194   6.681   5.120   5.398
 8432SOL    HW126195   6.648   5.173   5.320
 8432SOL    HW226196   6.693   5.025   5.371
 8433SOL     OW26197   4.557   1.517   0.749
 8433SOL    HW126198   4.489   1.457   0.791
 8433SOL    HW226199   4.543   1.520   0.651
 8434SOL     OW26200   2.643   6.202   4.425
 8434SOL    HW126201   2.610   6.210   4.519
 8434SOL    HW226202   2.742   6.190   4.425
 8435SOL     OW26203   6.700   1.408   3.487
 8435SOL    HW126204   6.605   1.437   3.496
 8435SOL    HW226205   6.704   1.313   3.457
 8436SOL     OW26206   2.675   5.020   2.533
 8436SOL    HW126207   2.705   5.034   2.439
 8436SOL    HW226208   2.575   5.015   2.536
 8437SOL     OW26209   1.639   5.606   0.175
 8437SOL    HW126210   1.567   5.673   0.190
 8437SOL    HW226211   1.677   5.618   0.083
 8438SOL     OW26212   1.048   4.323   2.375
 8438SOL    HW126213   0.951   4.306   2.393
 8438SOL    HW226214   1.099   4.238   2.387
 8439SOL     OW26215   5.522   4.252   2.501
 8439SOL    HW126216   5.472   4.229   2.418
 8439SOL    HW226217   5.615   4.280   2.477
 8440SOL     OW26218   1.482   1.801   2.542
 8440SOL    HW126219   1.563   1.818   2.487
 8440SOL    HW226220   1.467   1.878   2.604
 8441SOL     OW26221   6.923   2.832   6.510
 8441SOL    HW126222   6.999   2.830   6.575
 8441SOL    HW226223   6.936   2.909   6.447
 8442SOL     OW26224   3.681   2.692   6.352
 8442SOL    HW126225   3.761   2.631   6.356
 8442SOL    HW226226   3.693   2.758   6.278
 8443SOL     OW26227   1.896   4.274   2.954
 8443SOL    HW126228   1.834   4.326   3.014
 8443SOL    HW226229   1.975   4.331   2.933
 8444SOL     OW26230   5.597   5.666   5.085
 8444SOL    HW126231   5.538   5.596   5.045
 8444SOL    HW226232   5.576   5.675   5.183
 8445SOL     OW26233   4.749   6.445   6.395
 8445SOL    HW126234   4.653   6.456   6.423
 8445SOL    HW226235   4.804   6.418   6.474
 8446SOL     OW26236   6.380   6.151   4.568
 8446SOL    HW126237   6.477   6.126   4.562
 8446SOL    HW226238   6.370   6.234   4.623
 8447SOL     OW26239   3.452   2.066   4.275
 8447SOL    HW126240   3.380   2.134   4.294
 8447SOL    HW226241   3.517   2.104   4.210
 8448SOL     OW26242   3.379   6.811   2.707
 8448SOL    HW126243   3.473   6.810   2.743
 8448SOL    HW226244   3.376   6.760   2.621
 8449SOL     OW26245   1.223   2.491   3.705
 8449SOL    HW126246   1.274   2.568   3.667
 8449SOL    HW226247   1.128   2.518   3.719
 8450SOL     OW26248   6.783   1.462   0.965
 8450SOL    HW126249   6.769   1.422   1.056
 8450SOL    HW226250   6.737   1.550   0.959
 8451SOL     OW26251   4.418   2.493   0.566
 8451SOL    HW126252   4.327   2.488   0.608
 8451SOL    HW226253   4.427   2.421   0.497
 8452SOL     OW26254   5.246   0.914   5.744
 8452SOL    HW126255   5.181   0.962   5.686
 8452SOL    HW226256   5.245   0.954   5.836
 8453SOL     OW26257   0.238   0.756   0.152
 8453SOL    HW126258   0.295   0.682   0.117
 8453SOL    HW226259   0.295   0.837   0.166
 8454SOL     OW26260   6.365   5.856   6.785
 8454SOL    HW126261   6.461   5.882   6.781
 8454SOL    HW226262   6.336   5.819   6.697
 8455SOL     OW26263   6.567   0.732   3.061
 8455SOL    HW126264   6.551   0.652   3.119
 8455SOL    HW226265   6.656   0.771   3.082
 8456SOL     OW26266   6.181   0.207   2.144
 8456SOL    HW126267   6.245   0.132   2.163
 8456SOL    HW226268   6.184   0.273   2.219
 8457SOL     OW26269   6.308   0.047   4.932
 8457SOL    HW126270   6.251   6.991   4.898
 8457SOL    HW226271   6.402   0.016   4.941
 8458SOL     OW26272   1.279   6.517   0.677
 8458SOL    HW126273   1.190   6.484   0.645
 8458SOL    HW226274   1.275   6.616   0.690
 8459SOL     OW26275   0.861   6.523   3.492
 8459SOL    HW126276   0.784   6.492   3.548
 8459SOL    HW226277   0.940   6.541   3.551
 8460SOL     OW26278   3.789   3.224   3.816
 8460SOL    HW126279   3.829   3.175   3.893
 8460SOL    HW226280   3.725   3.293   3.850
 8461SOL     OW26281   6.449   3.560   3.811
 8461SOL    HW126282   6.466   3.463   3.833
 8461SOL    HW226283   6.369   3.567   3.753
 8462SOL     OW26284   2.487   2.495   2.073
 8462SOL    HW126285   2.561   2.459   2.015
 8462SOL    HW226286   2.437   2.419   2.114
 8463SOL     OW26287   6.404   0.011   1.620
 8463SOL    HW126288   6.409   0.092   1.679
 8463SOL    HW226289   6.359   0.035   1.534
 8464SOL     OW26290   6.605   0.951   4.611
 8464SOL    HW126291   6.519   0.931   4.657
 8464SOL    HW226292   6.652   1.024   4.659
 8465SOL     OW26293   2.191   0.694   0.605
 8465SOL    HW126294   2.260   0.760   0.575
 8465SOL    HW226295   2.120   0.685   0.535
 8466SOL     OW26296   1.073   0.188   3.898
 8466SOL    HW126297   1.113   0.244   3.825
 8466SOL    HW226298   0.995   0.237   3.938
 8467SOL     OW26299   3.715   5.244   1.262
 8467SOL    HW126300   3.772   5.248   1.180
 8467SOL    HW226301   3.618   5.253   1.236
 8468SOL     OW26302   4.486   2.797   0.082
 8468SOL    HW126303   4.386   2.795   0.077
 8468SOL    HW226304   4.516   2.884   0.122
 8469SOL     OW26305   5.131   2.402   5.479
 8469SOL    HW126306   5.167   2.330   5.538
 8469SOL    HW226307   5.031   2.396   5.476
 8470SOL     OW26308   1.984   2.637   6.971
 8470SOL    HW126309   1.942   2.564   0.006
 8470SOL    HW226310   2.028   2.598   6.890
 8471SOL     OW26311   3.853   1.800   5.572
 8471SOL    HW126312   3.825   1.881   5.521
 8471SOL    HW226313   3.778   1.770   5.631
 8472SOL     OW26314   1.457   5.801   2.664
 8472SOL    HW126315   1.431   5.883   2.716
 8472SOL    HW226316   1.557   5.791   2.665
 8473SOL     OW26317   6.742   5.530   6.607
 8473SOL    HW126318   6.662   5.567   6.559
 8473SOL    HW226319   6.737   5.430   6.609
 8474SOL     OW26320   4.332   5.790   6.895
 8474SOL    HW126321   4.384   5.869   6.863
 8474SOL    HW226322   4.368   5.707   6.852
 8475SOL     OW26323   5.192   1.282   2.925
 8475SOL    HW126324   5.201   1.382   2.921
 8475SOL    HW226325   5.275   1.240   2.886
 8476SOL     OW26326   5.059   0.817   2.918
 8476SOL    HW126327   4.992   0.861   2.977
 8476SOL    HW226328   5.147   0.810   2.965
 8477SOL     OW26329   2.607   0.598   3.474
 8477SOL    HW126330   2.522   0.642   3.503
 8477SOL    HW226331   2.668   0.667   3.434
 8478SOL     OW26332   0.780   1.545   6.402
 8478SOL    HW126333   0.784   1.590   6.313
 8478SOL    HW226334   0.725   1.600   6.465
 8479SOL     OW26335   5.743   0.038   2.193
 8479SOL    HW126336   5.805   0.108   2.228
 8479SOL    HW226337   5.670   0.081   2.140
 8480SOL     OW26338   2.211   0.916   2.276
 8480SOL    HW126339   2.209   1.013   2.299
 8480SOL    HW226340   2.210   0.905   2.177
 8481SOL     OW26341   3.810   0.205   5.584
 8481SOL    HW126342   3.847   0.297   5.565
 8481SOL    HW226343   3.714   0.201   5.556
 8482SOL     OW26344   6.455   0.406   1.534
 8482SOL    HW126345   6.515   0.340   1.490
 8482SOL    HW226346   6.412   0.364   1.614
 8483SOL     OW26347   4.807   6.322   1.350
 8483SOL    HW126348   4.892   6.371   1.328
 8483SOL    HW226349   4.731   6.387   1.355
 8484SOL     OW26350   6.099   4.603   5.905
 8484SOL    HW126351   6.073   4.614   5.809
 8484SOL    HW226352   6.057   4.676   5.959
 8485SOL     OW26353   2.369   3.239   6.583
 8485SOL    HW126354   2.287   3.221   6.530
 8485SOL    HW226355   2.450   3.223   6.526
 8486SOL     OW26356   4.406   0.320   2.232
 8486SOL    HW126357   4.432   0.386   2.302
 8486SOL    HW226358   4.313   0.288   2.250
 8487SOL     OW26359   4.008   0.608   0.726
 8487SOL    HW126360   4.065   0.689   0.714
 8487SOL    HW226361   3.918   0.624   0.687
 8488SOL     OW26362   0.011   4.239   6.032
 8488SOL    HW126363   6.942   4.190   6.033
 8488SOL    HW226364   0.070   4.201   5.962
 8489SOL     OW26365   3.310   0.162   3.501
 8489SOL    HW126366   3.393   0.168   3.556
 8489SOL    HW226367   3.288   0.252   3.463
 8490SOL     OW26368   3.676   4.860   2.509
 8490SOL    HW126369   3.760   4.821   2.470
 8490SOL    HW226370   3.697   4.949   2.550
 8491SOL     OW26371   0.459   1.046   1.038
 8491SOL    HW126372   0.460   0.946   1.034
 8491SOL    HW226373   0.521   1.077   1.111
 8492SOL     OW26374   6.014   4.023   5.004
 8492SOL    HW126375   6.107   3.989   5.019
 8492SOL    HW226376   6.012   4.122   5.017
 8493SOL     OW26377   4.098   3.039   0.404
 8493SOL    HW126378   4.007   3.055   0.443
 8493SOL    HW226379   4.143   2.966   0.455
 8494SOL     OW26380   3.475   6.204   6.659
 8494SOL    HW126381   3.465   6.296   6.695
 8494SOL    HW226382   3.422   6.195   6.574
 8495SOL     OW26383   0.214   3.405   6.218
 8495SOL    HW126384   0.200   3.310   6.245
 8495SOL    HW226385   0.269   3.452   6.287
 8496SOL     OW26386   1.255   2.046   4.312
 8496SOL    HW126387   1.288   1.953   4.300
 8496SOL    HW226388   1.156   2.049   4.301
 8497SOL     OW26389   5.336   3.695   3.860
 8497SOL    HW126390   5.415   3.683   3.799
 8497SOL    HW226391   5.318   3.793   3.871
 8498SOL     OW26392   6.920   0.806   1.960
 8498SOL    HW126393   6.847   0.741   1.941
 8498SOL    HW226394   6.882   0.887   2.005
 8499SOL     OW26395   6.634   4.369   0.910
 8499SOL    HW126396   6.667   4.394   0.818
 8499SOL    HW226397   6.620   4.452   0.964
 8500SOL     OW26398   2.038   0.788   5.072
 8500SOL    HW126399   2.059   0.703   5.024
 8500SOL    HW226400   1.942   0.788   5.099
 8501SOL     OW26401   3.220   3.697   6.434
 8501SOL    HW126402   3.238   3.663   6.342
 8501SOL    HW226403   3.141   3.650   6.473
 8502SOL     OW26404   0.351   6.241   1.070
 8502SOL    HW126405   0.419   6.194   1.014
 8502SOL    HW226406   0.316   6.320   1.021
 8503SOL     OW26407   3.995   5.629   3.136
 8503SOL    HW126408   4.021   5.678   3.053
 8503SOL    HW226409   4.040   5.671   3.215
 8504SOL     OW26410   2.026   4.920   2.838
 8504SOL    HW126411   2.083   5.002   2.835
 8504SOL    HW226412   2.075   4.846   2.885
 8505SOL     OW26413   4.223   2.030   2.525
 8505SOL    HW126414   4.133   1.999   2.493
 8505SOL    HW226415   4.216   2.123   2.559
 8506SOL     OW26416   0.585   5.211   6.993
 8506SOL    HW126417   0.520   5.144   6.957
 8506SOL    HW226418   0.676   5.171   6.996
 8507SOL     OW26419   2.227   0.419   4.219
 8507SOL    HW126420   2.316   0.465   4.216
 8507SOL    HW226421   2.196   0.413   4.313
 8508SOL     OW26422   1.047   3.624   6.164
 8508SOL    HW126423   1.109   3.677   6.223
 8508SOL    HW226424   1.091   3.609   6.075
 8509SOL     OW26425   6.692   2.808   4.437
 8509SOL    HW126426   6.710   2.717   4.401
 8509SOL    HW226427   6.779   2.856   4.452
 8510SOL     OW26428   5.449   6.689   2.992
 8510SOL    HW126429   5.478   6.713   3.085
 8510SOL    HW226430   5.491   6.753   2.927
 8511SOL     OW26431   6.534   5.101   1.295
 8511SOL    HW126432   6.521   5.003   1.285
 8511SOL    HW226433   6.602   5.119   1.367
 8512SOL     OW26434   3.880   2.865   0.752
 8512SOL    HW126435   3.794   2.912   0.771
 8512SOL    HW226436   3.934   2.859   0.836
 8513SOL     OW26437   0.848   3.609   0.470
 8513SOL    HW126438   0.853   3.690   0.528
 8513SOL    HW226439   0.800   3.536   0.518
 8514SOL     OW26440   2.021   3.140   5.195
 8514SOL    HW126441   2.103   3.108   5.241
 8514SOL    HW226442   2.041   3.222   5.142
 8515SOL     OW26443   3.182   1.164   0.316
 8515SOL    HW126444   3.085   1.151   0.338
 8515SOL    HW226445   3.215   1.249   0.356
 8516SOL     OW26446   6.786   3.633   5.259
 8516SOL    HW126447   6.837   3.595   5.182
 8516SOL    HW226448   6.818   3.591   5.344
 8517SOL     OW26449   1.370   2.193   5.771
 8517SOL    HW126450   1.394   2.290   5.767
 8517SOL    HW226451   1.441   2.143   5.820
 8518SOL     OW26452   5.417   4.906   0.290
 8518SOL    HW126453   5.419   4.964   0.208
 8518SOL    HW226454   5.510   4.891   0.322
 8519SOL     OW26455   1.175   3.992   1.041
 8519SOL    HW126456   1.207   3.944   0.959
 8519SOL    HW226457   1.097   3.943   1.079
 8520SOL     OW26458   3.639   3.828   6.118
 8520SOL    HW126459   3.569   3.886   6.161
 8520SOL    HW226460   3.714   3.886   6.085
 8521SOL     OW26461   2.119   6.976   4.694
 8521SOL    HW126462   2.110   0.020   4.616
 8521SOL    HW226463   2.147   6.886   4.661
 8522SOL     OW26464   0.649   0.749   6.937
 8522SOL    HW126465   0.736   0.752   6.987
 8522SOL    HW226466   0.631   0.656   6.905
 8523SOL     OW26467   4.128   1.840   1.797
 8523SOL    HW126468   4.082   1.771   1.853
 8523SOL    HW226469   4.216   1.804   1.766
 8524SOL     OW26470   2.713   6.053   5.447
 8524SOL    HW126471   2.703   6.137   5.499
 8524SOL    HW226472   2.739   5.978   5.508
 8525SOL     OW26473   6.028   2.697   3.327
 8525SOL    HW126474   6.029   2.657   3.235
 8525SOL    HW226475   5.946   2.667   3.375
 8526SOL     OW26476   0.694   4.754   6.411
 8526SOL    HW126477   0.757   4.730   6.337
 8526SOL    HW226478   0.615   4.692   6.409
 8527SOL     OW26479   1.772   0.820   6.479
 8527SOL    HW126480   1.844   0.849   6.416
 8527SOL    HW226481   1.765   0.720   6.477
 8528SOL     OW26482   5.806   6.918   0.471
 8528SOL    HW126483   5.712   6.902   0.501
 8528SOL    HW226484   5.865   6.846   0.507
 8529SOL     OW26485   1.013   6.467   6.792
 8529SOL    HW126486   0.954   6.420   6.725
 8529SOL    HW226487   1.103   6.423   6.793
 8530SOL     OW26488   3.439   4.116   2.967
 8530SOL    HW126489   3.452   4.116   3.066
 8530SOL    HW226490   3.350   4.074   2.945
 8531SOL     OW26491   6.374   5.737   3.074
 8531SOL    HW126492   6.287   5.690   3.056
 8531SOL    HW226493   6.408   5.778   2.989
 8532SOL     OW26494   3.656   5.386   0.492
 8532SOL    HW126495   3.690   5.342   0.575
 8532SOL    HW226496   3.648   5.484   0.508
 8533SOL     OW26497   2.739   5.603   5.422
 8533SOL    HW126498   2.756   5.514   5.465
 8533SOL    HW226499   2.645   5.608   5.390
 8534SOL     OW26500   1.836   3.634   2.068
 8534SOL    HW126501   1.927   3.629   2.111
 8534SOL    HW226502   1.839   3.696   1.991
 8535SOL     OW26503   6.287   6.850   1.933
 8535SOL    HW126504   6.257   6.941   1.905
 8535SOL    HW226505   6.362   6.820   1.874
 8536SOL     OW26506   2.007   0.935   4.286
 8536SOL    HW126507   1.959   0.858   4.329
 8536SOL    HW226508   1.966   1.021   4.315
 8537SOL     OW26509   5.776   1.124   3.175
 8537SOL    HW126510   5.748   1.220   3.175
 8537SOL    HW226511   5.856   1.113   3.235
 8538SOL     OW26512   0.486   2.511   6.465
 8538SOL    HW126513   0.395   2.550   6.453
 8538SOL    HW226514   0.481   2.412   6.458
 8539SOL     OW26515   5.350   3.884   1.964
 8539SOL    HW126516   5.373   3.981   1.952
 8539SOL    HW226517   5.297   3.872   2.047
 8540SOL     OW26518   4.061   0.099   1.006
 8540SOL    HW126519   4.114   0.103   1.091
 8540SOL    HW226520   4.050   0.191   0.969
 8541SOL     OW26521   1.208   2.972   3.348
 8541SOL    HW126522   1.210   2.935   3.254
 8541SOL    HW226523   1.158   2.909   3.407
 8542SOL     OW26524   3.015   5.031   6.659
 8542SOL    HW126525   3.080   5.107   6.655
 8542SOL    HW226526   2.963   5.026   6.574
 8543SOL     OW26527   4.216   2.057   6.706
 8543SOL    HW126528   4.118   2.070   6.721
 8543SOL    HW226529   4.261   2.039   6.794
 8544SOL     OW26530   5.777   2.212   4.516
 8544SOL    HW126531   5.682   2.187   4.536
 8544SOL    HW226532   5.839   2.161   4.576
 8545SOL     OW26533   4.473   0.319   5.463
 8545SOL    HW126534   4.420   0.393   5.504
 8545SOL    HW226535   4.446   0.308   5.368
 8546SOL     OW26536   4.291   2.140   6.438
 8546SOL    HW126537   4.254   2.123   6.529
 8546SOL    HW226538   4.246   2.081   6.372
 8547SOL     OW26539   1.468   4.708   2.314
 8547SOL    HW126540   1.369   4.707   2.299
 8547SOL    HW226541   1.504   4.799   2.294
 8548SOL     OW26542   5.849   2.510   5.199
 8548SOL    HW126543   5.848   2.418   5.160
 8548SOL    HW226544   5.755   2.537   5.221
 8549SOL     OW26545   5.158   2.717   4.545
 8549SOL    HW126546   5.179   2.675   4.634
 8549SOL    HW226547   5.242   2.723   4.491
 8550SOL     OW26548   1.488   4.877   5.684
 8550SOL    HW126549   1.533   4.847   5.600
 8550SOL    HW226550   1.476   4.976   5.683
 8551SOL     OW26551   2.677   4.994   0.652
 8551SOL    HW126552   2.602   4.929   0.637
 8551SOL    HW226553   2.747   4.980   0.582
 8552SOL     OW26554   3.014   6.567   3.692
 8552SOL    HW126555   2.999   6.479   3.738
 8552SOL    HW226556   3.063   6.629   3.754
 8553SOL     OW26557   6.240   5.584   0.218
 8553SOL    HW126558   6.280   5.669   0.186
 8553SOL    HW226559   6.141   5.586   0.204
 8554SOL     OW26560   5.583   3.769   0.059
 8554SOL    HW126561   5.499   3.822   0.067
 8554SOL    HW226562   5.562   3.678   0.023
 8555SOL     OW26563   1.907   6.253   4.246
 8555SOL    HW126564   1.909   6.160   4.283
 8555SOL    HW226565   1.865   6.252   4.155
 8556SOL     OW26566   5.345   0.470   5.225
 8556SOL    HW126567   5.400   0.517   5.295
 8556SOL    HW226568   5.277   0.413   5.270
 8557SOL     OW26569   6.943   1.726   1.077
 8557SOL    HW126570   6.953   1.814   1.032
 8557SOL    HW226571   6.992   1.656   1.026
 8558SOL     OW26572   1.959   4.718   2.311
 8558SOL    HW126573   2.012   4.742   2.392
 8558SOL    HW226574   1.925   4.624   2.320
 8559SOL     OW26575   1.265   0.921   5.206
 8559SOL    HW126576   1.195   0.993   5.205
 8559SOL    HW226577   1.294   0.905   5.301
 8560SOL     OW26578   6.494   2.983   0.184
 8560SOL    HW126579   6.576   2.930   0.204
 8560SOL    HW226580   6.498   3.015   0.089
 8561SOL     OW26581   5.097   6.422   6.065
 8561SOL    HW126582   5.017   6.407   6.006
 8561SOL    HW226583   5.103   6.520   6.088
 8562SOL     OW26584   3.821   0.696   4.474
 8562SOL    HW126585   3.830   0.610   4.523
 8562SOL    HW226586   3.848   0.684   4.379
 8563SOL     OW26587   2.475   3.037   6.378
 8563SOL    HW126588   2.383   2.999   6.367
 8563SOL    HW226589   2.497   3.095   6.300
 8564SOL     OW26590   1.075   5.324   3.997
 8564SOL    HW126591   1.027   5.408   4.022
 8564SOL    HW226592   1.008   5.253   3.976
 8565SOL     OW26593   3.530   0.714   1.539
 8565SOL    HW126594   3.479   0.785   1.588
 8565SOL    HW226595   3.474   0.632   1.532
 8566SOL     OW26596   1.421   4.497   4.329
 8566SOL    HW126597   1.387   4.415   4.376
 8566SOL    HW226598   1.490   4.471   4.262
 8567SOL     OW26599   5.161   6.905   6.408
 8567SOL    HW126600   5.079   6.908   6.352
 8567SOL    HW226601   5.183   6.810   6.431
 8568SOL     OW26602   5.215   6.889   0.808
 8568SOL    HW126603   5.298   6.906   0.862
 8568SOL    HW226604   5.235   6.826   0.734
 8569SOL     OW26605   2.396   0.848   5.431
 8569SOL    HW126606   2.375   0.859   5.334
 8569SOL    HW226607   2.318   0.876   5.486
 8570SOL     OW26608   6.784   3.700   6.190
 8570SOL    HW126609   6.756   3.646   6.271
 8570SOL    HW226610   6.730   3.784   6.186
 8571SOL     OW26611   0.038   4.599   6.355
 8571SOL    HW126612   0.020   4.543   6.436
 8571SOL    HW226613   0.131   4.636   6.361
 8572SOL     OW26614   2.362   5.099   6.500
 8572SOL    HW126615   2.436   5.147   6.548
 8572SOL    HW226616   2.300   5.166   6.460
 8573SOL     OW26617   3.105   5.832   4.125
 8573SOL    HW126618   3.081   5.737   4.140
 8573SOL    HW226619   3.192   5.838   4.077
 8574SOL     OW26620   1.106   4.084   4.390
 8574SOL    HW126621   1.048   4.165   4.384
 8574SOL    HW226622   1.100   4.032   4.305
 8575SOL     OW26623   2.762   3.561   6.399
 8575SOL    HW126624   2.857   3.533   6.413
 8575SOL    HW226625   2.746   3.578   6.302
 8576SOL     OW26626   1.822   0.537   0.570
 8576SOL    HW126627   1.742   0.597   0.574
 8576SOL    HW226628   1.888   0.566   0.640
 8577SOL     OW26629   6.299   5.944   4.823
 8577SOL    HW126630   6.383   5.957   4.876
 8577SOL    HW226631   6.322   5.906   4.733
 8578SOL     OW26632   4.644   0.541   4.399
 8578SOL    HW126633   4.672   0.637   4.406
 8578SOL    HW226634   4.621   0.507   4.490
 8579SOL     OW26635   0.011   4.810   2.404
 8579SOL    HW126636   0.001   4.898   2.451
 8579SOL    HW226637   6.960   4.803   2.332
 8580SOL     OW26638   2.030   5.585   5.983
 8580SOL    HW126639   2.029   5.486   5.995
 8580SOL    HW226640   1.976   5.609   5.903
 8581SOL     OW26641   3.644   3.588   0.088
 8581SOL    HW126642   3.691   3.571   0.175
 8581SOL    HW226643   3.545   3.586   0.102
 8582SOL     OW26644   3.067   5.520   0.207
 8582SOL    HW126645   3.126   5.439   0.210
 8582SOL    HW226646   3.122   5.600   0.183
 8583SOL     OW26647   5.723   6.929   4.321
 8583SOL    HW126648   5.764   6.904   4.233
 8583SOL    HW226649   5.709   0.010   4.323
 8584SOL     OW26650   0.637   5.715   6.126
 8584SOL    HW126651   0.589   5.659   6.194
 8584SOL    HW226652   0.652   5.661   6.043
 8585SOL     OW26653   1.126   0.856   0.326
 8585SOL    HW126654   1.185   0.780   0.298
 8585SOL    HW226655   1.083   0.896   0.245
 8586SOL     OW26656   3.594   5.221   3.608
 8586SOL    HW126657   3.585   5.137   3.554
 8586SOL    HW226658   3.529   5.289   3.575
 8587SOL     OW26659   0.113   1.543   0.688
 8587SOL    HW126660   0.036   1.485   0.714
 8587SOL    HW226661   0.195   1.488   0.678
 8588SOL     OW26662   3.829   2.896   6.494
 8588SOL    HW126663   3.757   2.871   6.429
 8588SOL    HW226664   3.891   2.963   6.452
 8589SOL     OW26665   3.260   1.616   3.944
 8589SOL    HW126666   3.185   1.618   4.010
 8589SOL    HW226667   3.307   1.528   3.949
 8590SOL     OW26668   5.046   3.749   5.984
 8590SOL    HW126669   4.986   3.681   6.026
 8590SOL    HW226670   5.138   3.712   5.975
 8591SOL     OW26671   0.472   3.257   0.530
 8591SOL    HW126672   0.533   3.272   0.607
 8591SOL    HW226673   0.432   3.165   0.537
 8592SOL     OW26674   6.488   6.041   0.057
 8592SOL    HW126675   6.583   6.010   0.054
 8592SOL    HW226676   6.426   5.962   0.060
 8593SOL     OW26677   0.641   5.282   3.724
 8593SOL    HW126678   0.629   5.373   3.762
 8593SOL    HW226679   0.719   5.282   3.661
 8594SOL     OW26680   4.117   3.728   2.606
 8594SOL    HW126681   4.118   3.633   2.576
 8594SOL    HW226682   4.135   3.788   2.527
 8595SOL     OW26683   1.326   2.632   2.035
 8595SOL    HW126684   1.265   2.676   1.969
 8595SOL    HW226685   1.344   2.538   2.006
 8596SOL     OW26686   6.890   4.099   2.801
 8596SOL    HW126687   6.822   4.060   2.862
 8596SOL    HW226688   6.968   4.037   2.792
 8597SOL     OW26689   1.936   2.093   1.017
 8597SOL    HW126690   1.970   2.040   1.095
 8597SOL    HW226691   1.973   2.055   0.933
 8598SOL     OW26692   6.292   2.487   1.441
 8598SOL    HW126693   6.239   2.488   1.356
 8598SOL    HW226694   6.271   2.404   1.493
 8599SOL     OW26695   0.815   2.420   0.633
 8599SOL    HW126696   0.807   2.383   0.726
 8599SOL    HW226697   0.912   2.422   0.607
 8600SOL     OW26698   0.335   2.875   5.681
 8600SOL    HW126699   0.295   2.950   5.629
 8600SOL    HW226700   0.428   2.857   5.648
 8601SOL     OW26701   0.811   0.197   4.480
 8601SOL    HW126702   0.750   0.152   4.545
 8601SOL    HW226703   0.813   0.145   4.395
 8602SOL     OW26704   0.998   6.285   2.427
 8602SOL    HW126705   0.910   6.239   2.423
 8602SOL    HW226706   1.028   6.307   2.334
 8603SOL     OW26707   4.799   3.847   1.843
 8603SOL    HW126708   4.846   3.840   1.755
 8603SOL    HW226709   4.700   3.842   1.828
 8604SOL     OW26710   6.249   2.119   3.413
 8604SOL    HW126711   6.274   2.145   3.320
 8604SOL    HW226712   6.164   2.066   3.410
 8605SOL     OW26713   2.195   5.629   1.713
 8605SOL    HW126714   2.260   5.645   1.787
 8605SOL    HW226715   2.102   5.638   1.747
 8606SOL     OW26716   3.839   5.398   4.492
 8606SOL    HW126717   3.810   5.355   4.577
 8606SOL    HW226718   3.849   5.328   4.421
 8607SOL     OW26719   2.984   6.180   0.150
 8607SOL    HW126720   2.977   6.266   0.099
 8607SOL    HW226721   3.039   6.115   0.098
 8608SOL     OW26722   5.897   6.208   2.719
 8608SOL    HW126723   5.891   6.137   2.789
 8608SOL    HW226724   5.828   6.279   2.738
 8609SOL     OW26725   5.781   0.070   6.017
 8609SOL    HW126726   5.693   0.113   5.997
 8609SOL    HW226727   5.791   7.006   5.960
 8610SOL     OW26728   6.941   6.942   4.821
 8610SOL    HW126729   6.855   6.982   4.789
 8610SOL    HW226730   6.938   6.843   4.810
 8611SOL     OW26731   1.815   1.660   2.768
 8611SOL    HW126732   1.731   1.620   2.731
 8611SOL    HW226733   1.861   1.593   2.826
 8612SOL     OW26734   5.055   3.455   4.285
 8612SOL    HW126735   5.004   3.512   4.349
 8612SOL    HW226736   5.007   3.369   4.271
 8613SOL     OW26737   1.684   0.491   0.898
 8613SOL    HW126738   1.650   0.548   0.973
 8613SOL    HW226739   1.646   0.522   0.811
 8614SOL     OW26740   1.742   2.772   3.211
 8614SOL    HW126741   1.745   2.676   3.237
 8614SOL    HW226742   1.698   2.825   3.283
 8615SOL     OW26743   4.779   1.899   6.018
 8615SOL    HW126744   4.726   1.945   5.946
 8615SOL    HW226745   4.789   1.802   5.994
 8616SOL     OW26746   1.011   3.239   1.143
 8616SOL    HW126747   0.919   3.279   1.139
 8616SOL    HW226748   1.017   3.162   1.080
 8617SOL     OW26749   6.587   3.352   0.569
 8617SOL    HW126750   6.554   3.442   0.599
 8617SOL    HW226751   6.648   3.364   0.491
 8618SOL     OW26752   3.047   1.286   2.815
 8618SOL    HW126753   3.024   1.201   2.863
 8618SOL    HW226754   2.986   1.359   2.845
 8619SOL     OW26755   3.981   6.337   0.693
 8619SOL    HW126756   4.041   6.405   0.649
 8619SOL    HW226757   3.983   6.350   0.792
 8620SOL     OW26758   6.056   5.776   3.989
 8620SOL    HW126759   5.984   5.722   4.033
 8620SOL    HW226760   6.018   5.864   3.960
 8621SOL     OW26761   5.022   1.307   3.815
 8621SOL    HW126762   4.973   1.227   3.781
 8621SOL    HW226763   5.027   1.303   3.915
 8622SOL     OW26764   5.302   4.851   6.160
 8622SOL    HW126765   5.338   4.826   6.250
 8622SOL    HW226766   5.358   4.924   6.121
 8623SOL     OW26767   5.592   1.731   3.730
 8623SOL    HW126768   5.622   1.758   3.638
 8623SOL    HW226769   5.495   1.750   3.741
 8624SOL     OW26770   6.693   2.752   3.615
 8624SOL    HW126771   6.715   2.659   3.584
 8624SOL    HW226772   6.652   2.748   3.706
 8625SOL     OW26773   3.569   1.639   6.776
 8625SOL    HW126774   3.529   1.730   6.767
 8625SOL    HW226775   3.497   1.570   6.767
 8626SOL     OW26776   2.978   3.936   1.787
 8626SOL    HW126777   2.982   4.035   1.770
 8626SOL    HW226778   3.039   3.889   1.722
 8627SOL     OW26779   3.394   0.515   6.483
 8627SOL    HW126780   3.369   0.423   6.453
 8627SOL    HW226781   3.430   0.511   6.576
 8628SOL     OW26782   6.306   0.621   1.685
 8628SOL    HW126783   6.269   0.711   1.661
 8628SOL    HW226784   6.399   0.630   1.719
 8629SOL     OW26785   1.341   5.973   3.255
 8629SOL    HW126786   1.385   5.951   3.343
 8629SOL    HW226787   1.348   6.071   3.238
 8630SOL     OW26788   5.366   4.946   4.287
 8630SOL    HW126789   5.346   4.848   4.276
 8630SOL    HW226790   5.284   4.992   4.321
 8631SOL     OW26791   4.043   0.114   3.598
 8631SOL    HW126792   4.077   0.036   3.544
 8631SOL    HW226793   4.080   0.199   3.560
 8632SOL     OW26794   2.973   1.031   2.888
 8632SOL    HW126795   2.964   0.945   2.838
 8632SOL    HW226796   3.039   1.021   2.962
 8633SOL     OW26797   6.208   6.493   3.091
 8633SOL    HW126798   6.221   6.499   2.992
 8633SOL    HW226799   6.124   6.441   3.110
 8634SOL     OW26800   5.813   6.604   1.548
 8634SOL    HW126801   5.819   6.677   1.616
 8634SOL    HW226802   5.797   6.643   1.458
 8635SOL     OW26803   6.139   3.780   5.780
 8635SOL    HW126804   6.139   3.779   5.880
 8635SOL    HW226805   6.114   3.690   5.746
 8636SOL     OW26806   5.426   4.915   0.998
 8636SOL    HW126807   5.452   4.834   0.946
 8636SOL    HW226808   5.508   4.964   1.027
 8637SOL     OW26809   1.014   0.350   2.023
 8637SOL    HW126810   0.988   0.445   2.045
 8637SOL    HW226811   0.993   0.292   2.102
 8638SOL     OW26812   6.123   4.361   1.185
 8638SOL    HW126813   6.058   4.433   1.162
 8638SOL    HW226814   6.209   4.402   1.215
 8639SOL     OW26815   5.827   2.491   3.586
 8639SOL    HW126816   5.827   2.391   3.595
 8639SOL    HW226817   5.769   2.530   3.657
 8640SOL     OW26818   4.812   5.842   1.260
 8640SOL    HW126819   4.838   5.837   1.356
 8640SOL    HW226820   4.894   5.842   1.203
 8641SOL     OW26821   4.904   5.242   3.826
 8641SOL    HW126822   4.885   5.253   3.924
 8641SOL    HW226823   4.961   5.161   3.813
 8642SOL     OW26824   4.360   0.873   0.874
 8642SOL    HW126825   4.341   0.957   0.925
 8642SOL    HW226826   4.449   0.836   0.900
 8643SOL     OW26827   5.073   0.075   0.338
 8643SOL    HW126828   5.041   7.001   0.362
 8643SOL    HW226829   5.165   0.088   0.373
 8644SOL     OW26830   6.261   3.248   5.505
 8644SOL    HW126831   6.210   3.229   5.589
 8644SOL    HW226832   6.220   3.327   5.459
 8645SOL     OW26833   6.347   3.589   2.118
 8645SOL    HW126834   6.352   3.575   2.217
 8645SOL    HW226835   6.433   3.559   2.075
 8646SOL     OW26836   4.340   6.352   0.186
 8646SOL    HW126837   4.305   6.298   0.263
 8646SOL    HW226838   4.392   6.292   0.125
 8647SOL     OW26839   4.933   4.867   1.902
 8647SOL    HW126840   4.942   4.966   1.891
 8647SOL    HW226841   5.021   4.824   1.883
 8648SOL     OW26842   6.125   0.688   4.393
 8648SOL    HW126843   6.179   0.732   4.465
 8648SOL    HW226844   6.187   0.645   4.327
 8649SOL     OW26845   6.613   3.091   5.494
 8649SOL    HW126846   6.624   3.145   5.577
 8649SOL    HW226847   6.688   3.024   5.488
 8650SOL     OW26848   0.457   5.531   1.863
 8650SOL    HW126849   0.490   5.496   1.950
 8650SOL    HW226850   0.499   5.479   1.788
 8651SOL     OW26851   4.368   3.390   1.216
 8651SOL    HW126852   4.318   3.444   1.284
 8651SOL    HW226853   4.408   3.310   1.260
 8652SOL     OW26854   0.914   2.523   4.820
 8652SOL    HW126855   1.007   2.488   4.808
 8652SOL    HW226856   0.863   2.512   4.735
 8653SOL     OW26857   5.297   3.719   6.408
 8653SOL    HW126858   5.350   3.734   6.492
 8653SOL    HW226859   5.201   3.703   6.432
 8654SOL     OW26860   1.821   4.679   1.659
 8654SOL    HW126861   1.733   4.646   1.693
 8654SOL    HW226862   1.888   4.678   1.733
 8655SOL     OW26863   5.539   6.003   2.951
 8655SOL    HW126864   5.542   5.937   2.876
 8655SOL    HW226865   5.498   5.961   3.032
 8656SOL     OW26866   6.454   2.076   2.085
 8656SOL    HW126867   6.461   2.144   2.158
 8656SOL    HW226868   6.415   2.119   2.004
 8657SOL     OW26869   2.913   4.982   0.444
 8657SOL    HW126870   2.902   4.967   0.346
 8657SOL    HW226871   2.889   5.077   0.465
 8658SOL     OW26872   0.925   5.957   5.339
 8658SOL    HW126873   0.830   5.936   5.360
 8658SOL    HW226874   0.981   5.946   5.422
 8659SOL     OW26875   3.448   0.025   4.328
 8659SOL    HW126876   3.392   0.105   4.349
 8659SOL    HW226877   3.545   0.049   4.333
 8660SOL     OW26878   4.803   4.272   0.380
 8660SOL    HW126879   4.876   4.204   0.389
 8660SOL    HW226880   4.830   4.356   0.427
 8661SOL     OW26881   6.450   2.641   2.111
 8661SOL    HW126882   6.502   2.636   2.196
 8661SOL    HW226883   6.354   2.621   2.128
 8662SOL     OW26884   0.398   1.198   0.056
 8662SOL    HW126885   0.456   1.123   0.024
 8662SOL    HW226886   0.359   1.174   0.145
 8663SOL     OW26887   3.008   5.533   0.486
 8663SOL    HW126888   3.011   5.627   0.520
 8663SOL    HW226889   3.018   5.533   0.386
 8664SOL     OW26890   4.774   4.113   1.358
 8664SOL    HW126891   4.755   4.158   1.446
 8664SOL    HW226892   4.727   4.024   1.356
 8665SOL     OW26893   5.513   5.165   4.267
 8665SOL    HW126894   5.465   5.078   4.272
 8665SOL    HW226895   5.454   5.238   4.303
 8666SOL     OW26896   6.598   4.975   4.789
 8666SOL    HW126897   6.549   4.889   4.808
 8666SOL    HW226898   6.677   4.983   4.851
 8667SOL     OW26899   5.460   2.932   3.139
 8667SOL    HW126900   5.382   2.938   3.201
 8667SOL    HW226901   5.446   2.992   3.061
 8668SOL     OW26902   3.027   0.765   5.006
 8668SOL    HW126903   3.059   0.854   4.972
 8668SOL    HW226904   2.977   0.718   4.933
 8669SOL     OW26905   3.734   6.268   6.494
 8669SOL    HW126906   3.671   6.191   6.478
 8669SOL    HW226907   3.770   6.263   6.587
 8670SOL     OW26908   4.199   4.706   2.779
 8670SOL    HW126909   4.176   4.802   2.766
 8670SOL    HW226910   4.116   4.654   2.796
 8671SOL     OW26911   6.013   5.304   1.393
 8671SOL    HW126912   5.997   5.394   1.434
 8671SOL    HW226913   6.056   5.315   1.304
 8672SOL     OW26914   3.793   5.287   4.737
 8672SOL    HW126915   3.875   5.329   4.775
 8672SOL    HW226916   3.712   5.333   4.773
 8673SOL     OW26917   4.866   2.219   6.833
 8673SOL    HW126918   4.962   2.230   6.807
 8673SOL    HW226919   4.812   2.291   6.790
 8674SOL     OW26920   0.487   6.844   2.347
 8674SOL    HW126921   0.538   6.888   2.273
 8674SOL    HW226922   0.551   6.809   2.415
 8675SOL     OW26923   2.481   1.889   2.015
 8675SOL    HW126924   2.515   1.964   2.072
 8675SOL    HW226925   2.547   1.814   2.016
 8676SOL     OW26926   5.318   1.413   4.202
 8676SOL    HW126927   5.381   1.409   4.125
 8676SOL    HW226928   5.274   1.502   4.205
 8677SOL     OW26929   2.052   3.543   5.599
 8677SOL    HW126930   2.120   3.502   5.538
 8677SOL    HW226931   2.097   3.579   5.680
 8678SOL     OW26932   0.690   1.092   5.912
 8678SOL    HW126933   0.612   1.113   5.970
 8678SOL    HW226934   0.771   1.141   5.945
 8679SOL     OW26935   6.169   2.580   4.417
 8679SOL    HW126936   6.148   2.485   4.439
 8679SOL    HW226937   6.175   2.634   4.501
 8680SOL     OW26938   0.530   3.264   6.422
 8680SOL    HW126939   0.446   3.276   6.475
 8680SOL    HW226940   0.508   3.253   6.325
 8681SOL     OW26941   4.145   4.177   1.285
 8681SOL    HW126942   4.195   4.103   1.329
 8681SOL    HW226943   4.112   4.241   1.354
 8682SOL     OW26944   1.433   5.726   2.932
 8682SOL    HW126945   1.527   5.693   2.942
 8682SOL    HW226946   1.408   5.726   2.836
 8683SOL     OW26947   4.581   3.925   6.813
 8683SOL    HW126948   4.492   3.925   6.859
 8683SOL    HW226949   4.628   3.839   6.833
 8684SOL     OW26950   6.389   2.698   3.830
 8684SOL    HW126951   6.386   2.681   3.732
 8684SOL    HW226952   6.328   2.634   3.877
 8685SOL     OW26953   0.362   2.198   5.354
 8685SOL    HW126954   0.337   2.242   5.267
 8685SOL    HW226955   0.450   2.152   5.343
 8686SOL     OW26956   6.326   1.445   3.983
 8686SOL    HW126957   6.400   1.383   4.010
 8686SOL    HW226958   6.301   1.503   4.061
 8687SOL     OW26959   3.688   1.181   2.735
 8687SOL    HW126960   3.653   1.239   2.660
 8687SOL    HW226961   3.761   1.229   2.783
 8688SOL     OW26962   0.052   6.700   2.020
 8688SOL    HW126963   0.040   6.632   1.948
 8688SOL    HW226964   0.150   6.715   2.035
 8689SOL     OW26965   4.708   4.571   1.851
 8689SOL    HW126966   4.645   4.542   1.922
 8689SOL    HW226967   4.802   4.549   1.879
 8690SOL     OW26968   2.007   0.667   1.759
 8690SOL    HW126969   2.074   0.645   1.829
 8690SOL    HW226970   2.019   0.762   1.729
 8691SOL     OW26971   5.769   1.420   6.915
 8691SOL    HW126972   5.769   1.323   6.889
 8691SOL    HW226973   5.795   1.475   6.836
 8692SOL     OW26974   1.534   1.240   3.733
 8692SOL    HW126975   1.504   1.145   3.725
 8692SOL    HW226976   1.633   1.245   3.724
 8693SOL     OW26977   5.014   2.657   6.593
 8693SOL    HW126978   5.001   2.754   6.573
 8693SOL    HW226979   5.069   2.614   6.521
 8694SOL     OW26980   4.017   0.389   6.596
 8694SOL    HW126981   3.997   0.322   6.667
 8694SOL    HW226982   3.953   0.377   6.520
 8695SOL     OW26983   4.295   3.723   5.189
 8695SOL    HW126984   4.216   3.662   5.199
 8695SOL    HW226985   4.280   3.805   5.244
 8696SOL     OW26986   2.251   5.574   0.195
 8696SOL    HW126987   2.155   5.559   0.217
 8696SOL    HW226988   2.299   5.606   0.277
 8697SOL     OW26989   5.234   5.777   6.630
 8697SOL    HW126990   5.318   5.751   6.584
 8697SOL    HW226991   5.170   5.700   6.629
 8698SOL     OW26992   5.821   5.768   5.438
 8698SOL    HW126993   5.764   5.789   5.517
 8698SOL    HW226994   5.850   5.672   5.442
 8699SOL     OW26995   1.977   1.480   4.261
 8699SOL    HW126996   1.982   1.524   4.351
 8699SOL    HW226997   2.046   1.520   4.201
 8700SOL     OW26998   2.441   0.733   6.001
 8700SOL    HW126999   2.525   0.777   6.035
 8700SOL    HW227000   2.444   0.728   5.901
 8701SOL     OW27001   1.266   0.613   3.243
 8701SOL    HW127002   1.188   0.661   3.283
 8701SOL    HW227003   1.259   0.515   3.261
 8702SOL     OW27004   4.868   0.175   6.367
 8702SOL    HW127005   4.860   0.273   6.348
 8702SOL    HW227006   4.801   0.124   6.313
 8703SOL     OW27007   1.645   4.557   0.925
 8703SOL    HW127008   1.564   4.510   0.958
 8703SOL    HW227009   1.633   4.656   0.934
 8704SOL     OW27010   1.076   4.501   2.140
 8704SOL    HW127011   0.988   4.515   2.096
 8704SOL    HW227012   1.071   4.421   2.200
 8705SOL     OW27013   4.630   6.450   4.333
 8705SOL    HW127014   4.710   6.396   4.360
 8705SOL    HW227015   4.633   6.466   4.234
 8706SOL     OW27016   4.612   0.429   6.780
 8706SOL    HW127017   4.599   0.398   6.874
 8706SOL    HW227018   4.662   0.359   6.729
 8707SOL     OW27019   4.033   1.755   5.818
 8707SOL    HW127020   4.005   1.789   5.728
 8707SOL    HW227021   4.130   1.731   5.816
 8708SOL     OW27022   3.862   1.569   1.272
 8708SOL    HW127023   3.955   1.604   1.269
 8708SOL    HW227024   3.812   1.597   1.190
 8709SOL     OW27025   5.159   3.440   6.988
 8709SOL    HW127026   5.159   3.379   0.049
 8709SOL    HW227027   5.195   3.529   7.015
 8710SOL     OW27028   6.418   3.952   4.031
 8710SOL    HW127029   6.345   3.885   4.045
 8710SOL    HW227030   6.379   4.044   4.025
 8711SOL     OW27031   1.978   1.665   4.480
 8711SOL    HW127032   1.894   1.718   4.492
 8711SOL    HW227033   2.046   1.721   4.433
 8712SOL     OW27034   3.486   0.415   6.768
 8712SOL    HW127035   3.446   0.490   6.821
 8712SOL    HW227036   3.570   0.383   6.813
 8713SOL     OW27037   6.214   4.716   2.875
 8713SOL    HW127038   6.237   4.715   2.972
 8713SOL    HW227039   6.288   4.673   2.823
 8714SOL     OW27040   2.074   1.363   3.804
 8714SOL    HW127041   2.033   1.437   3.858
 8714SOL    HW227042   2.016   1.344   3.725
 8715SOL     OW27043   5.478   0.544   2.599
 8715SOL    HW127044   5.409   0.568   2.667
 8715SOL    HW227045   5.439   0.549   2.507
 8716SOL     OW27046   1.438   0.595   2.705
 8716SOL    HW127047   1.454   0.621   2.609
 8716SOL    HW227048   1.507   0.636   2.763
 8717SOL     OW27049   4.645   3.955   0.932
 8717SOL    HW127050   4.730   3.926   0.976
 8717SOL    HW227051   4.661   4.039   0.879
 8718SOL     OW27052   6.837   2.682   5.890
 8718SOL    HW127053   6.900   2.634   5.829
 8718SOL    HW227054   6.751   2.630   5.896
 8719SOL     OW27055   6.486   1.143   5.830
 8719SOL    HW127056   6.486   1.225   5.772
 8719SOL    HW227057   6.394   1.104   5.831
 8720SOL     OW27058   5.218   3.106   5.066
 8720SOL    HW127059   5.203   3.052   5.149
 8720SOL    HW227060   5.283   3.058   5.007
 8721SOL     OW27061   6.808   0.714   5.002
 8721SOL    HW127062   6.889   0.749   5.049
 8721SOL    HW227063   6.775   0.632   5.049
 8722SOL     OW27064   3.749   2.604   0.310
 8722SOL    HW127065   3.803   2.613   0.394
 8722SOL    HW227066   3.715   2.511   0.302
 8723SOL     OW27067   0.453   5.900   0.582
 8723SOL    HW127068   0.529   5.963   0.564
 8723SOL    HW227069   0.475   5.842   0.660
 8724SOL     OW27070   4.556   5.949   6.395
 8724SOL    HW127071   4.587   5.865   6.351
 8724SOL    HW227072   4.598   6.028   6.350
 8725SOL     OW27073   2.929   6.358   0.715
 8725SOL    HW127074   2.918   6.346   0.814
 8725SOL    HW227075   2.848   6.402   0.677
 8726SOL     OW27076   0.189   6.946   0.713
 8726SOL    HW127077   0.141   6.876   0.660
 8726SOL    HW227078   0.127   6.987   0.779
 8727SOL     OW27079   5.373   6.474   2.024
 8727SOL    HW127080   5.292   6.480   1.967
 8727SOL    HW227081   5.454   6.495   1.970
 8728SOL     OW27082   2.416   5.370   5.542
 8728SOL    HW127083   2.327   5.412   5.557
 8728SOL    HW227084   2.483   5.440   5.517
 8729SOL     OW27085   4.925   5.634   4.382
 8729SOL    HW127086   4.891   5.630   4.288
 8729SOL    HW227087   4.987   5.712   4.392
 8730SOL     OW27088   6.262   6.207   1.321
 8730SOL    HW127089   6.275   6.207   1.420
 8730SOL    HW227090   6.173   6.168   1.299
 8731SOL     OW27091   0.715   1.890   3.057
 8731SOL    HW127092   0.758   1.926   2.974
 8731SOL    HW227093   0.772   1.816   3.093
 8732SOL     OW27094   6.456   6.502   2.145
 8732SOL    HW127095   6.512   6.580   2.172
 8732SOL    HW227096   6.365   6.533   2.118
 8733SOL     OW27097   6.803   0.766   0.739
 8733SOL    HW127098   6.704   0.754   0.744
 8733SOL    HW227099   6.848   0.682   0.771
 8734SOL     OW27100   6.155   6.851   1.102
 8734SOL    HW127101   6.175   6.761   1.064
 8734SOL    HW227102   6.212   6.867   1.183
 8735SOL     OW27103   0.363   2.978   5.970
 8735SOL    HW127104   0.327   2.990   5.878
 8735SOL    HW227105   0.341   2.887   6.004
 8736SOL     OW27106   0.600   5.007   5.735
 8736SOL    HW127107   0.648   5.092   5.716
 8736SOL    HW227108   0.609   4.984   5.832
 8737SOL     OW27109   3.931   5.341   6.761
 8737SOL    HW127110   3.971   5.409   6.699
 8737SOL    HW227111   3.922   5.380   6.852
 8738SOL     OW27112   1.059   3.981   5.413
 8738SOL    HW127113   1.104   3.907   5.363
 8738SOL    HW227114   0.978   4.011   5.362
 8739SOL     OW27115   1.283   3.517   5.381
 8739SOL    HW127116   1.343   3.437   5.372
 8739SOL    HW227117   1.253   3.546   5.290
 8740SOL     OW27118   1.222   5.960   0.306
 8740SOL    HW127119   1.306   6.011   0.324
 8740SOL    HW227120   1.164   5.962   0.387
 8741SOL     OW27121   1.397   3.668   1.943
 8741SOL    HW127122   1.345   3.586   1.917
 8741SOL    HW227123   1.334   3.743   1.958
 8742SOL     OW27124   4.625   5.096   1.775
 8742SOL    HW127125   4.544   5.138   1.734
 8742SOL    HW227126   4.615   4.996   1.773
 8743SOL     OW27127   3.133   5.194   2.707
 8743SOL    HW127128   3.107   5.261   2.638
 8743SOL    HW227129   3.063   5.192   2.779
 8744SOL     OW27130   2.843   3.694   5.538
 8744SOL    HW127131   2.770   3.636   5.502
 8744SOL    HW227132   2.932   3.651   5.520
 8745SOL     OW27133   5.483   1.803   5.938
 8745SOL    HW127134   5.542   1.805   6.019
 8745SOL    HW227135   5.437   1.715   5.932
 8746SOL     OW27136   5.305   3.397   4.488
 8746SOL    HW127137   5.299   3.460   4.411
 8746SOL    HW227138   5.377   3.330   4.470
 8747SOL     OW27139   1.036   1.651   4.186
 8747SOL    HW127140   0.998   1.673   4.096
 8747SOL    HW227141   1.006   1.559   4.213
 8748SOL     OW27142   3.462   0.561   6.189
 8748SOL    HW127143   3.495   0.471   6.163
 8748SOL    HW227144   3.410   0.555   6.275
 8749SOL     OW27145   4.026   1.540   3.553
 8749SOL    HW127146   4.114   1.540   3.599
 8749SOL    HW227147   4.029   1.477   3.475
 8750SOL     OW27148   1.858   0.059   4.781
 8750SOL    HW127149   1.827   7.006   4.843
 8750SOL    HW227150   1.953   0.043   4.757
 8751SOL     OW27151   2.064   6.252   2.885
 8751SOL    HW127152   2.004   6.254   2.965
 8751SOL    HW227153   2.153   6.214   2.911
 8752SOL     OW27154   2.170   0.714   6.532
 8752SOL    HW127155   2.230   0.768   6.591
 8752SOL    HW227156   2.163   0.757   6.442
 8753SOL     OW27157   5.109   1.955   5.171
 8753SOL    HW127158   5.146   1.908   5.251
 8753SOL    HW227159   5.075   1.887   5.106
 8754SOL     OW27160   1.589   1.067   6.010
 8754SOL    HW127161   1.497   1.106   6.002
 8754SOL    HW227162   1.586   0.985   6.066
 8755SOL     OW27163   2.288   2.243   0.516
 8755SOL    HW127164   2.266   2.274   0.609
 8755SOL    HW227165   2.203   2.225   0.466
 8756SOL     OW27166   3.179   4.955   5.000
 8756SOL    HW127167   3.275   4.926   5.004
 8756SOL    HW227168   3.150   4.986   5.090
 8757SOL     OW27169   3.177   5.202   3.466
 8757SOL    HW127170   3.155   5.171   3.374
 8757SOL    HW227171   3.095   5.242   3.508
 8758SOL     OW27172   5.323   6.565   2.774
 8758SOL    HW127173   5.362   6.612   2.853
 8758SOL    HW227174   5.370   6.478   2.761
 8759SOL     OW27175   5.177   0.148   5.898
 8759SOL    HW127176   5.184   0.232   5.845
 8759SOL    HW227177   5.113   0.161   5.974
 8760SOL     OW27178   1.938   2.662   3.595
 8760SOL    HW127179   1.909   2.757   3.609
 8760SOL    HW227180   1.939   2.615   3.683
 8761SOL     OW27181   4.892   6.059   1.491
 8761SOL    HW127182   4.881   5.960   1.502
 8761SOL    HW227183   4.948   6.095   1.566
 8762SOL     OW27184   1.779   4.877   1.194
 8762SOL    HW127185   1.829   4.819   1.259
 8762SOL    HW227186   1.681   4.866   1.209
 8763SOL     OW27187   6.918   5.927   6.875
 8763SOL    HW127188   6.948   5.981   6.796
 8763SOL    HW227189   6.921   5.830   6.851
 8764SOL     OW27190   2.928   1.828   6.376
 8764SOL    HW127191   2.917   1.906   6.315
 8764SOL    HW227192   2.978   1.857   6.459
 8765SOL     OW27193   5.769   0.755   4.979
 8765SOL    HW127194   5.804   0.720   4.892
 8765SOL    HW227195   5.684   0.806   4.963
 8766SOL     OW27196   2.507   4.464   2.733
 8766SOL    HW127197   2.484   4.554   2.697
 8766SOL    HW227198   2.575   4.420   2.673
 8767SOL     OW27199   4.003   0.798   4.788
 8767SOL    HW127200   4.042   0.818   4.878
 8767SOL    HW227201   4.075   0.770   4.725
 8768SOL     OW27202   0.817   4.327   1.140
 8768SOL    HW127203   0.744   4.279   1.092
 8768SOL    HW227204   0.779   4.410   1.183
 8769SOL     OW27205   1.689   0.624   6.659
 8769SOL    HW127206   1.773   0.649   6.706
 8769SOL    HW227207   1.615   0.611   6.725
 8770SOL     OW27208   5.816   1.796   3.139
 8770SOL    HW127209   5.787   1.879   3.188
 8770SOL    HW227210   5.903   1.815   3.092
 8771SOL     OW27211   2.914   3.305   5.560
 8771SOL    HW127212   2.888   3.307   5.463
 8771SOL    HW227213   2.871   3.226   5.604
 8772SOL     OW27214   0.236   6.929   6.872
 8772SOL    HW127215   0.202   6.905   6.962
 8772SOL    HW227216   0.298   7.008   6.879
 8773SOL     OW27217   2.934   1.573   3.530
 8773SOL    HW127218   2.981   1.655   3.497
 8773SOL    HW227219   2.950   1.563   3.629
 8774SOL     OW27220   1.227   1.205   0.478
 8774SOL    HW127221   1.164   1.279   0.502
 8774SOL    HW227222   1.177   1.119   0.473
 8775SOL     OW27223   6.129   6.214   4.164
 8775SOL    HW127224   6.064   6.274   4.117
 8775SOL    HW227225   6.080   6.136   4.203
 8776SOL     OW27226   2.766   3.674   5.853
 8776SOL    HW127227   2.815   3.591   5.827
 8776SOL    HW227228   2.808   3.753   5.809
 8777SOL     OW27229   6.071   5.466   3.252
 8777SOL    HW127230   5.995   5.458   3.317
 8777SOL    HW227231   6.097   5.374   3.220
 8778SOL     OW27232   1.094   2.898   2.935
 8778SOL    HW127233   1.086   2.816   2.992
 8778SOL    HW227234   1.097   2.872   2.839
 8779SOL     OW27235   2.123   4.855   0.741
 8779SOL    HW127236   2.132   4.777   0.679
 8779SOL    HW227237   2.090   4.824   0.830
 8780SOL     OW27238   2.159   5.950   5.397
 8780SOL    HW127239   2.085   5.957   5.330
 8780SOL    HW227240   2.161   5.858   5.436
 8781SOL     OW27241   0.783   2.502   2.553
 8781SOL    HW127242   0.811   2.560   2.476
 8781SOL    HW227243   0.724   2.554   2.614
 8782SOL     OW27244   5.552   1.168   4.471
 8782SOL    HW127245   5.523   1.264   4.476
 8782SOL    HW227246   5.513   1.125   4.390
 8783SOL     OW27247   5.690   2.349   6.047
 8783SOL    HW127248   5.657   2.305   5.963
 8783SOL    HW227249   5.620   2.412   6.081
 8784SOL     OW27250   4.956   3.921   6.271
 8784SOL    HW127251   4.940   3.840   6.214
 8784SOL    HW227252   4.877   3.936   6.330
 8785SOL     OW27253   5.097   4.117   6.163
 8785SOL    HW127254   5.053   4.034   6.199
 8785SOL    HW227255   5.041   4.197   6.184
 8786SOL     OW27256   1.865   5.865   6.582
 8786SOL    HW127257   1.932   5.825   6.643
 8786SOL    HW227258   1.800   5.795   6.552
 8787SOL     OW27259   0.671   2.610   6.269
 8787SOL    HW127260   0.612   2.569   6.340
 8787SOL    HW227261   0.616   2.631   6.189
 8788SOL     OW27262   1.558   1.683   5.251
 8788SOL    HW127263   1.518   1.764   5.294
 8788SOL    HW227264   1.487   1.616   5.232
 8789SOL     OW27265   6.750   1.620   0.373
 8789SOL    HW127266   6.823   1.615   0.440
 8789SOL    HW227267   6.665   1.649   0.418
 8790SOL     OW27268   4.044   1.091   6.556
 8790SOL    HW127269   4.116   1.023   6.569
 8790SOL    HW227270   4.050   1.129   6.464
 8791SOL     OW27271   6.015   5.927   5.601
 8791SOL    HW127272   6.091   5.863   5.592
 8791SOL    HW227273   5.952   5.916   5.524
 8792SOL     OW27274   5.757   6.620   2.551
 8792SOL    HW127275   5.716   6.546   2.499
 8792SOL    HW227276   5.782   6.695   2.489
 8793SOL     OW27277   1.073   4.851   3.214
 8793SOL    HW127278   1.082   4.884   3.309
 8793SOL    HW227279   1.149   4.887   3.160
 8794SOL     OW27280   2.618   6.743   2.349
 8794SOL    HW127281   2.645   6.731   2.444
 8794SOL    HW227282   2.661   6.825   2.312
 8795SOL     OW27283   3.247   6.687   4.296
 8795SOL    HW127284   3.293   6.766   4.256
 8795SOL    HW227285   3.160   6.672   4.249
 8796SOL     OW27286   4.512   2.548   4.307
 8796SOL    HW127287   4.424   2.525   4.264
 8796SOL    HW227288   4.548   2.466   4.352
 8797SOL     OW27289   0.031   5.501   6.540
 8797SOL    HW127290   6.959   5.479   6.575
 8797SOL    HW227291   0.101   5.469   6.604
 8798SOL     OW27292   3.535   3.404   5.662
 8798SOL    HW127293   3.611   3.339   5.659
 8798SOL    HW227294   3.500   3.411   5.755
 8799SOL     OW27295   3.585   0.540   1.852
 8799SOL    HW127296   3.514   0.490   1.802
 8799SOL    HW227297   3.590   0.634   1.819
 8800SOL     OW27298   4.131   4.023   0.548
 8800SOL    HW127299   4.031   4.017   0.551
 8800SOL    HW227300   4.170   3.960   0.614
 8801SOL     OW27301   3.082   6.265   5.526
 8801SOL    HW127302   3.072   6.356   5.566
 8801SOL    HW227303   3.012   6.205   5.565
 8802SOL     OW27304   1.863   6.754   1.457
 8802SOL    HW127305   1.766   6.778   1.448
 8802SOL    HW227306   1.882   6.727   1.552
 8803SOL     OW27307   3.528   5.632   2.123
 8803SOL    HW127308   3.464   5.651   2.049
 8803SOL    HW227309   3.613   5.594   2.086
 8804SOL     OW27310   3.184   0.782   1.393
 8804SOL    HW127311   3.112   0.714   1.400
 8804SOL    HW227312   3.259   0.746   1.337
 8805SOL     OW27313   0.157   0.314   4.135
 8805SOL    HW127314   0.236   0.276   4.184
 8805SOL    HW227315   0.074   0.297   4.188
 8806SOL     OW27316   1.874   5.047   6.784
 8806SOL    HW127317   1.936   5.065   6.707
 8806SOL    HW227318   1.909   5.090   6.867
 8807SOL     OW27319   1.599   4.705   6.530
 8807SOL    HW127320   1.613   4.614   6.570
 8807SOL    HW227321   1.634   4.774   6.593
 8808SOL     OW27322   6.265   2.625   1.030
 8808SOL    HW127323   6.264   2.672   0.942
 8808SOL    HW227324   6.350   2.573   1.040
 8809SOL     OW27325   6.054   4.230   6.947
 8809SOL    HW127326   5.968   4.273   6.971
 8809SOL    HW227327   6.044   4.131   6.949
 8810SOL     OW27328   4.933   1.484   4.381
 8810SOL    HW127329   4.993   1.562   4.401
 8810SOL    HW227330   4.941   1.416   4.454
 8811SOL     OW27331   0.602   0.657   3.499
 8811SOL    HW127332   0.557   0.700   3.578
 8811SOL    HW227333   0.662   0.724   3.456
 8812SOL     OW27334   2.607   0.981   0.447
 8812SOL    HW127335   2.659   0.996   0.363
 8812SOL    HW227336   2.518   0.941   0.425
 8813SOL     OW27337   0.756   5.334   0.745
 8813SOL    HW127338   0.823   5.401   0.713
 8813SOL    HW227339   0.714   5.289   0.666
 8814SOL     OW27340   5.493   6.995   6.267
 8814SOL    HW127341   5.486   6.942   6.352
 8814SOL    HW227342   5.408   6.985   6.215
 8815SOL     OW27343   6.295   4.716   3.149
 8815SOL    HW127344   6.345   4.635   3.181
 8815SOL    HW227345   6.264   4.769   3.229
 8816SOL     OW27346   0.788   5.992   2.578
 8816SOL    HW127347   0.846   6.063   2.619
 8816SOL    HW227348   0.832   5.903   2.589
 8817SOL     OW27349   1.996   4.038   5.164
 8817SOL    HW127350   2.014   4.106   5.092
 8817SOL    HW227351   1.981   4.085   5.251
 8818SOL     OW27352   6.866   4.882   5.229
 8818SOL    HW127353   6.957   4.922   5.237
 8818SOL    HW227354   6.826   4.872   5.320
 8819SOL     OW27355   0.441   0.981   4.503
 8819SOL    HW127356   0.401   1.067   4.534
 8819SOL    HW227357   0.525   0.963   4.555
 8820SOL     OW27358   1.512   2.144   3.064
 8820SOL    HW127359   1.438   2.211   3.060
 8820SOL    HW227360   1.520   2.109   3.158
 8821SOL     OW27361   1.369   6.760   7.012
 8821SOL    HW127362   1.311   6.817   6.954
 8821SOL    HW227363   1.464   6.789   7.002
 8822SOL     OW27364   1.317   2.276   3.553
 8822SOL    HW127365   1.317   2.356   3.612
 8822SOL    HW227366   1.249   2.210   3.586
 8823SOL     OW27367   2.778   5.727   0.658
 8823SOL    HW127368   2.759   5.658   0.588
 8823SOL    HW227369   2.779   5.683   0.748
 8824SOL     OW27370   5.096   4.430   1.483
 8824SOL    HW127371   5.002   4.420   1.516
 8824SOL    HW227372   5.153   4.359   1.523
 8825SOL     OW27373   2.620   2.059   6.728
 8825SOL    HW127374   2.590   1.969   6.696
 8825SOL    HW227375   2.685   2.098   6.663
 8826SOL     OW27376   5.296   0.297   1.227
 8826SOL    HW127377   5.221   0.331   1.284
 8826SOL    HW227378   5.373   0.361   1.232
 8827SOL     OW27379   6.901   1.199   3.814
 8827SOL    HW127380   6.953   1.173   3.895
 8827SOL    HW227381   6.804   1.181   3.829
 8828SOL     OW27382   1.281   5.527   3.044
 8828SOL    HW127383   1.338   5.602   3.010
 8828SOL    HW227384   1.195   5.564   3.080
 8829SOL     OW27385   0.526   0.462   1.340
 8829SOL    HW127386   0.584   0.495   1.265
 8829SOL    HW227387   0.500   0.539   1.398
 8830SOL     OW27388   1.632   1.493   1.106
 8830SOL    HW127389   1.549   1.457   1.063
 8830SOL    HW227390   1.711   1.442   1.071
 8831SOL     OW27391   0.270   0.364   1.238
 8831SOL    HW127392   0.319   0.400   1.317
 8831SOL    HW227393   0.265   0.434   1.167
 8832SOL     OW27394   6.565   0.674   1.771
 8832SOL    HW127395   6.628   0.632   1.837
 8832SOL    HW227396   6.603   0.762   1.741
 8833SOL     OW27397   0.227   5.349   1.567
 8833SOL    HW127398   0.242   5.444   1.539
 8833SOL    HW227399   0.186   5.347   1.658
 8834SOL     OW27400   6.299   4.865   4.560
 8834SOL    HW127401   6.212   4.823   4.536
 8834SOL    HW227402   6.284   4.934   4.631
 8835SOL     OW27403   0.808   1.633   0.832
 8835SOL    HW127404   0.804   1.648   0.734
 8835SOL    HW227405   0.819   1.535   0.851
 8836SOL     OW27406   4.716   2.249   1.452
 8836SOL    HW127407   4.677   2.293   1.371
 8836SOL    HW227408   4.749   2.158   1.427
 8837SOL     OW27409   0.539   2.896   2.372
 8837SOL    HW127410   0.613   2.923   2.311
 8837SOL    HW227411   0.575   2.884   2.465
 8838SOL     OW27412   1.529   6.568   3.150
 8838SOL    HW127413   1.431   6.583   3.137
 8838SOL    HW227414   1.570   6.538   3.063
 8839SOL     OW27415   6.124   5.252   4.920
 8839SOL    HW127416   6.178   5.320   4.870
 8839SOL    HW227417   6.036   5.292   4.946
 8840SOL     OW27418   4.188   0.583   2.016
 8840SOL    HW127419   4.197   0.661   1.955
 8840SOL    HW227420   4.244   0.596   2.097
 8841SOL     OW27421   4.084   0.003   3.329
 8841SOL    HW127422   4.108   0.096   3.302
 8841SOL    HW227423   4.028   6.979   3.257
 8842SOL     OW27424   1.823   1.448   2.031
 8842SOL    HW127425   1.767   1.469   2.111
 8842SOL    HW227426   1.870   1.360   2.045
 8843SOL     OW27427   0.143   2.863   3.913
 8843SOL    HW127428   0.131   2.769   3.880
 8843SOL    HW227429   0.055   2.899   3.942
 8844SOL     OW27430   5.679   2.113   0.055
 8844SOL    HW127431   5.647   2.037   0.113
 8844SOL    HW227432   5.766   2.088   0.014
 8845SOL     OW27433   5.151   2.363   0.211
 8845SOL    HW127434   5.091   2.352   0.290
 8845SOL    HW227435   5.143   2.456   0.175
 8846SOL     OW27436   3.343   4.893   4.102
 8846SOL    HW127437   3.257   4.863   4.059
 8846SOL    HW227438   3.329   4.905   4.200
 8847SOL     OW27439   1.336   1.688   3.666
 8847SOL    HW127440   1.333   1.611   3.729
 8847SOL    HW227441   1.350   1.773   3.718
 8848SOL     OW27442   0.346   1.030   3.643
 8848SOL    HW127443   0.271   1.067   3.697
 8848SOL    HW227444   0.407   1.104   3.614
 8849SOL     OW27445   3.189   6.907   1.755
 8849SOL    HW127446   3.142   6.956   1.829
 8849SOL    HW227447   3.126   6.891   1.680
 8850SOL     OW27448   3.326   1.554   0.166
 8850SOL    HW127449   3.416   1.570   0.127
 8850SOL    HW227450   3.255   1.583   0.102
 8851SOL     OW27451   2.392   3.895   1.091
 8851SOL    HW127452   2.391   3.854   1.182
 8851SOL    HW227453   2.479   3.876   1.047
 8852SOL     OW27454   0.879   2.635   5.058
 8852SOL    HW127455   0.906   2.585   4.975
 8852SOL    HW227456   0.890   2.733   5.042
 8853SOL     OW27457   4.978   0.236   1.939
 8853SOL    HW127458   5.052   0.287   1.983
 8853SOL    HW227459   5.016   0.181   1.865
 8854SOL     OW27460   6.909   2.577   4.832
 8854SOL    HW127461   6.937   2.481   4.839
 8854SOL    HW227462   6.917   2.607   4.737
 8855SOL     OW27463   4.962   4.822   1.184
 8855SOL    HW127464   5.030   4.770   1.134
 8855SOL    HW227465   4.891   4.855   1.121
 8856SOL     OW27466   6.192   0.795   5.334
 8856SOL    HW127467   6.284   0.810   5.297
 8856SOL    HW227468   6.136   0.749   5.266
 8857SOL     OW27469   0.290   2.540   6.658
 8857SOL    HW127470   0.352   2.496   6.723
 8857SOL    HW227471   0.214   2.478   6.638
 8858SOL     OW27472   0.581   5.022   5.213
 8858SOL    HW127473   0.615   5.004   5.121
 8858SOL    HW227474   0.636   4.971   5.279
 8859SOL     OW27475   0.577   6.076   3.170
 8859SOL    HW127476   0.498   6.079   3.231
 8859SOL    HW227477   0.604   5.981   3.154
 8860SOL     OW27478   6.830   2.449   3.064
 8860SOL    HW127479   6.802   2.448   3.160
 8860SOL    HW227480   6.768   2.391   3.011
 8861SOL     OW27481   3.293   2.895   0.999
 8861SOL    HW127482   3.217   2.909   0.936
 8861SOL    HW227483   3.267   2.927   1.090
 8862SOL     OW27484   4.525   4.450   4.769
 8862SOL    HW127485   4.481   4.411   4.688
 8862SOL    HW227486   4.455   4.491   4.828
 8863SOL     OW27487   1.641   3.510   1.775
 8863SOL    HW127488   1.553   3.555   1.759
 8863SOL    HW227489   1.626   3.427   1.829
 8864SOL     OW27490   0.135   2.007   4.668
 8864SOL    HW127491   0.123   1.934   4.600
 8864SOL    HW227492   0.047   2.024   4.713
 8865SOL     OW27493   2.667   1.249   0.562
 8865SOL    HW127494   2.612   1.333   0.561
 8865SOL    HW227495   2.616   1.176   0.516
 8866SOL     OW27496   6.477   0.700   2.129
 8866SOL    HW127497   6.444   0.721   2.221
 8866SOL    HW227498   6.496   0.786   2.080
 8867SOL     OW27499   5.595   2.264   3.339
 8867SOL    HW127500   5.604   2.292   3.434
 8867SOL    HW227501   5.517   2.310   3.297
 8868SOL     OW27502   0.581   2.906   3.415
 8868SOL    HW127503   0.519   2.953   3.352
 8868SOL    HW227504   0.642   2.847   3.363
 8869SOL     OW27505   4.117   0.288   3.250
 8869SOL    HW127506   4.148   0.357   3.186
 8869SOL    HW227507   4.122   0.324   3.343
 8870SOL     OW27508   1.271   0.814   1.407
 8870SOL    HW127509   1.173   0.824   1.389
 8870SOL    HW227510   1.284   0.770   1.496
 8871SOL     OW27511   6.844   6.846   0.485
 8871SOL    HW127512   6.942   6.835   0.498
 8871SOL    HW227513   6.798   6.843   0.574
 8872SOL     OW27514   6.673   5.272   3.550
 8872SOL    HW127515   6.600   5.269   3.618
 8872SOL    HW227516   6.635   5.251   3.460
 8873SOL     OW27517   1.840   1.378   3.115
 8873SOL    HW127518   1.883   1.289   3.134
 8873SOL    HW227519   1.767   1.394   3.181
 8874SOL     OW27520   2.653   6.162   0.497
 8874SOL    HW127521   2.655   6.238   0.562
 8874SOL    HW227522   2.746   6.143   0.466
 8875SOL     OW27523   6.571   2.675   4.123
 8875SOL    HW127524   6.643   2.685   4.191
 8875SOL    HW227525   6.592   2.599   4.062
 8876SOL     OW27526   4.836   0.080   1.065
 8876SOL    HW127527   4.897   0.015   1.111
 8876SOL    HW227528   4.744   0.073   1.105
 8877SOL     OW27529   1.213   4.689   1.859
 8877SOL    HW127530   1.262   4.738   1.931
 8877SOL    HW227531   1.247   4.595   1.854
 8878SOL     OW27532   4.943   3.880   2.476
 8878SOL    HW127533   4.894   3.961   2.444
 8878SOL    HW227534   4.933   3.806   2.409
 8879SOL     OW27535   6.849   4.560   3.737
 8879SOL    HW127536   6.881   4.591   3.827
 8879SOL    HW227537   6.782   4.488   3.748
 8880SOL     OW27538   3.998   1.726   2.665
 8880SOL    HW127539   4.072   1.775   2.711
 8880SOL    HW227540   3.970   1.777   2.583
 8881SOL     OW27541   3.834   5.969   2.913
 8881SOL    HW127542   3.751   5.925   2.947
 8881SOL    HW227543   3.809   6.043   2.850
 8882SOL     OW27544   4.064   1.462   0.104
 8882SOL    HW127545   4.093   1.506   0.190
 8882SOL    HW227546   4.138   1.467   0.038
 8883SOL     OW27547   0.760   6.591   2.924
 8883SOL    HW127548   0.709   6.553   3.001
 8883SOL    HW227549   0.695   6.625   2.856
 8884SOL     OW27550   4.463   1.882   6.039
 8884SOL    HW127551   4.494   1.906   6.131
 8884SOL    HW227552   4.500   1.948   5.974
 8885SOL     OW27553   5.147   5.297   0.672
 8885SOL    HW127554   5.159   5.395   0.691
 8885SOL    HW227555   5.066   5.284   0.614
 8886SOL     OW27556   4.286   6.712   0.667
 8886SOL    HW127557   4.370   6.723   0.613
 8886SOL    HW227558   4.227   6.792   0.654
 8887SOL     OW27559   3.893   0.665   2.276
 8887SOL    HW127560   3.944   0.738   2.231
 8887SOL    HW227561   3.809   0.703   2.316
 8888SOL     OW27562   3.867   1.611   2.234
 8888SOL    HW127563   3.812   1.652   2.160
 8888SOL    HW227564   3.854   1.664   2.318
 8889SOL     OW27565   1.571   4.418   6.593
 8889SOL    HW127566   1.618   4.385   6.510
 8889SOL    HW227567   1.472   4.415   6.578
 8890SOL     OW27568   1.732   5.717   6.953
 8890SOL    HW127569   1.794   5.652   6.909
 8890SOL    HW227570   1.784   5.793   6.990
 8891SOL     OW27571   5.503   3.685   5.268
 8891SOL    HW127572   5.513   3.764   5.328
 8891SOL    HW227573   5.409   3.682   5.232
 8892SOL     OW27574   2.698   5.093   5.687
 8892SOL    HW127575   2.707   5.188   5.718
 8892SOL    HW227576   2.715   5.089   5.589
 8893SOL     OW27577   0.990   4.402   5.569
 8893SOL    HW127578   0.924   4.477   5.560
 8893SOL    HW227579   1.001   4.379   5.665
 8894SOL     OW27580   6.436   2.081   1.556
 8894SOL    HW127581   6.350   2.096   1.507
 8894SOL    HW227582   6.499   2.157   1.538
 8895SOL     OW27583   0.440   3.505   2.239
 8895SOL    HW127584   0.437   3.555   2.325
 8895SOL    HW227585   0.536   3.492   2.211
 8896SOL     OW27586   0.549   0.459   3.882
 8896SOL    HW127587   0.469   0.483   3.938
 8896SOL    HW227588   0.521   0.453   3.786
 8897SOL     OW27589   1.414   4.855   4.652
 8897SOL    HW127590   1.373   4.945   4.635
 8897SOL    HW227591   1.435   4.811   4.565
 8898SOL     OW27592   6.122   4.964   2.753
 8898SOL    HW127593   6.141   4.866   2.764
 8898SOL    HW227594   6.109   4.985   2.656
 8899SOL     OW27595   1.686   4.893   1.919
 8899SOL    HW127596   1.765   4.859   1.971
 8899SOL    HW227597   1.655   4.979   1.958
 8900SOL     OW27598   4.774   1.748   4.997
 8900SOL    HW127599   4.722   1.729   4.914
 8900SOL    HW227600   4.775   1.846   5.015
 8901SOL     OW27601   1.123   4.576   5.855
 8901SOL    HW127602   1.070   4.633   5.792
 8901SOL    HW227603   1.146   4.628   5.937
 8902SOL     OW27604   1.260   3.927   6.557
 8902SOL    HW127605   1.222   3.896   6.470
 8902SOL    HW227606   1.189   3.928   6.627
 8903SOL     OW27607   0.664   0.932   4.105
 8903SOL    HW127608   0.678   0.840   4.069
 8903SOL    HW227609   0.571   0.963   4.083
 8904SOL     OW27610   6.644   0.931   2.300
 8904SOL    HW127611   6.710   0.994   2.259
 8904SOL    HW227612   6.551   0.963   2.282
 8905SOL     OW27613   1.256   5.331   1.183
 8905SOL    HW127614   1.158   5.310   1.188
 8905SOL    HW227615   1.304   5.285   1.257
 8906SOL     OW27616   6.812   1.111   6.259
 8906SOL    HW127617   6.851   1.058   6.334
 8906SOL    HW227618   6.739   1.059   6.215
 8907SOL     OW27619   2.625   3.096   5.442
 8907SOL    HW127620   2.575   3.082   5.357
 8907SOL    HW227621   2.718   3.061   5.432
 8908SOL     OW27622   1.859   5.764   5.457
 8908SOL    HW127623   1.895   5.705   5.529
 8908SOL    HW227624   1.838   5.854   5.495
 8909SOL     OW27625   2.689   6.102   1.816
 8909SOL    HW127626   2.589   6.096   1.814
 8909SOL    HW227627   2.725   6.091   1.723
 8910SOL     OW27628   1.297   0.768   3.789
 8910SOL    HW127629   1.342   0.820   3.862
 8910SOL    HW227630   1.293   0.823   3.706
 8911SOL     OW27631   4.816   3.026   4.286
 8911SOL    HW127632   4.799   2.940   4.239
 8911SOL    HW227633   4.824   3.009   4.385
 8912SOL     OW27634   3.574   3.217   3.290
 8912SOL    HW127635   3.630   3.186   3.367
 8912SOL    HW227636   3.607   3.173   3.206
 8913SOL     OW27637   5.050   5.618   0.196
 8913SOL    HW127638   5.136   5.594   0.242
 8913SOL    HW227639   4.974   5.610   0.260
 8914SOL     OW27640   5.278   4.578   4.817
 8914SOL    HW127641   5.337   4.643   4.864
 8914SOL    HW227642   5.298   4.485   4.849
 8915SOL     OW27643   2.657   1.507   3.115
 8915SOL    HW127644   2.607   1.591   3.133
 8915SOL    HW227645   2.593   1.431   3.106
 8916SOL     OW27646   6.623   0.039   2.540
 8916SOL    HW127647   6.692   6.990   2.515
 8916SOL    HW227648   6.630   0.118   2.478
 8917SOL     OW27649   5.554   2.603   0.097
 8917SOL    HW127650   5.554   2.510   0.061
 8917SOL    HW227651   5.643   2.621   0.140
 8918SOL     OW27652   1.800   2.941   2.751
 8918SOL    HW127653   1.823   3.003   2.676
 8918SOL    HW227654   1.772   2.853   2.713
 8919SOL     OW27655   6.806   2.098   3.218
 8919SOL    HW127656   6.728   2.052   3.175
 8919SOL    HW227657   6.850   2.036   3.283
 8920SOL     OW27658   1.237   1.815   6.819
 8920SOL    HW127659   1.324   1.814   6.868
 8920SOL    HW227660   1.199   1.907   6.819
 8921SOL     OW27661   1.450   2.036   1.704
 8921SOL    HW127662   1.405   2.021   1.792
 8921SOL    HW227663   1.402   1.986   1.633
 8922SOL     OW27664   3.386   5.663   3.318
 8922SOL    HW127665   3.480   5.697   3.309
 8922SOL    HW227666   3.344   5.703   3.399
 8923SOL     OW27667   2.479   2.450   3.565
 8923SOL    HW127668   2.409   2.496   3.619
 8923SOL    HW227669   2.456   2.353   3.555
 8924SOL     OW27670   6.589   5.260   5.165
 8924SOL    HW127671   6.571   5.251   5.067
 8924SOL    HW227672   6.564   5.352   5.196
 8925SOL     OW27673   0.439   6.452   3.688
 8925SOL    HW127674   0.503   6.528   3.676
 8925SOL    HW227675   0.350   6.487   3.716
 8926SOL     OW27676   5.825   2.327   6.878
 8926SOL    HW127677   5.914   2.294   6.846
 8926SOL    HW227678   5.838   2.411   6.931
 8927SOL     OW27679   1.161   1.580   6.521
 8927SOL    HW127680   1.158   1.485   6.552
 8927SOL    HW227681   1.176   1.582   6.422
 8928SOL     OW27682   0.208   6.574   4.726
 8928SOL    HW127683   0.197   6.492   4.669
 8928SOL    HW227684   0.301   6.610   4.713
 8929SOL     OW27685   6.956   1.410   3.362
 8929SOL    HW127686   6.964   1.485   3.296
 8929SOL    HW227687   6.860   1.387   3.374
 8930SOL     OW27688   2.391   5.276   2.273
 8930SOL    HW127689   2.437   5.338   2.337
 8930SOL    HW227690   2.460   5.224   2.222
 8931SOL     OW27691   4.691   3.149   0.021
 8931SOL    HW127692   4.649   3.092   0.091
 8931SOL    HW227693   4.790   3.154   0.037
 8932SOL     OW27694   0.752   3.673   2.595
 8932SOL    HW127695   0.712   3.761   2.619
 8932SOL    HW227696   0.686   3.600   2.615
 8933SOL     OW27697   4.893   2.571   5.815
 8933SOL    HW127698   4.816   2.622   5.856
 8933SOL    HW227699   4.948   2.634   5.760
 8934SOL     OW27700   2.656   6.025   2.950
 8934SOL    HW127701   2.645   5.963   2.872
 8934SOL    HW227702   2.753   6.034   2.972
 8935SOL     OW27703   6.917   5.796   6.571
 8935SOL    HW127704   7.005   5.753   6.551
 8935SOL    HW227705   6.847   5.725   6.581
 8936SOL     OW27706   4.448   3.657   0.527
 8936SOL    HW127707   4.505   3.691   0.452
 8936SOL    HW227708   4.466   3.710   0.609
 8937SOL     OW27709   6.957   1.680   6.285
 8937SOL    HW127710   6.869   1.687   6.332
 8937SOL    HW227711   6.943   1.646   6.192
 8938SOL     OW27712   4.954   5.162   1.832
 8938SOL    HW127713   4.907   5.236   1.782
 8938SOL    HW227714   5.053   5.181   1.833
 8939SOL     OW27715   5.789   2.085   4.255
 8939SOL    HW127716   5.862   2.019   4.238
 8939SOL    HW227717   5.779   2.098   4.354
 8940SOL     OW27718   5.584   6.676   1.873
 8940SOL    HW127719   5.622   6.651   1.962
 8940SOL    HW227720   5.657   6.711   1.814
 8941SOL     OW27721   4.204   1.845   0.033
 8941SOL    HW127722   4.220   1.939   0.005
 8941SOL    HW227723   4.271   1.785   7.007
 8942SOL     OW27724   1.312   1.854   5.927
 8942SOL    HW127725   1.408   1.866   5.950
 8942SOL    HW227726   1.296   1.760   5.897
 8943SOL     OW27727   4.703   3.351   0.824
 8943SOL    HW127728   4.750   3.275   0.778
 8943SOL    HW227729   4.616   3.368   0.779
 8944SOL     OW27730   4.888   5.565   0.604
 8944SOL    HW127731   4.986   5.580   0.621
 8944SOL    HW227732   4.875   5.487   0.544
 8945SOL     OW27733   2.016   1.013   3.461
 8945SOL    HW127734   2.029   1.056   3.550
 8945SOL    HW227735   1.999   0.915   3.473
 8946SOL     OW27736   3.403   0.071   5.103
 8946SOL    HW127737   3.391   0.003   5.176
 8946SOL    HW227738   3.498   0.071   5.073
 8947SOL     OW27739   3.184   3.780   5.915
 8947SOL    HW127740   3.099   3.828   5.891
 8947SOL    HW227741   3.262   3.834   5.885
 8948SOL     OW27742   5.355   4.956   3.794
 8948SOL    HW127743   5.313   4.899   3.724
 8948SOL    HW227744   5.339   4.916   3.884
 8949SOL     OW27745   1.648   5.357   6.323
 8949SOL    HW127746   1.562   5.312   6.347
 8949SOL    HW227747   1.628   5.438   6.267
 8950SOL     OW27748   4.944   2.564   4.986
 8950SOL    HW127749   4.863   2.520   5.026
 8950SOL    HW227750   4.936   2.663   4.995
 8951SOL     OW27751   2.701   1.411   5.437
 8951SOL    HW127752   2.621   1.434   5.381
 8951SOL    HW227753   2.714   1.480   5.508
 8952SOL     OW27754   5.592   6.629   3.604
 8952SOL    HW127755   5.606   6.725   3.626
 8952SOL    HW227756   5.681   6.584   3.595
 8953SOL     OW27757   1.262   5.041   6.322
 8953SOL    HW127758   1.310   5.126   6.341
 8953SOL    HW227759   1.165   5.061   6.305
 8954SOL     OW27760   2.534   6.314   6.612
 8954SOL    HW127761   2.444   6.349   6.639
 8954SOL    HW227762   2.600   6.388   6.609
 8955SOL     OW27763   6.984   3.194   4.302
 8955SOL    HW127764   0.044   3.251   4.280
 8955SOL    HW227765   6.905   3.252   4.321
 8956SOL     OW27766   1.807   0.388   4.044
 8956SOL    HW127767   1.724   0.414   4.094
 8956SOL    HW227768   1.804   0.426   3.952
 8957SOL     OW27769   3.407   6.285   1.776
 8957SOL    HW127770   3.328   6.325   1.822
 8957SOL    HW227771   3.386   6.270   1.680
 8958SOL     OW27772   2.888   0.529   4.884
 8958SOL    HW127773   2.798   0.553   4.849
 8958SOL    HW227774   2.893   0.430   4.899
 8959SOL     OW27775   3.846   4.900   6.696
 8959SOL    HW127776   3.807   4.990   6.718
 8959SOL    HW227777   3.940   4.911   6.663
 8960SOL     OW27778   4.387   5.519   0.819
 8960SOL    HW127779   4.432   5.518   0.730
 8960SOL    HW227780   4.376   5.425   0.851
 8961SOL     OW27781   0.567   2.991   4.569
 8961SOL    HW127782   0.519   3.074   4.542
 8961SOL    HW227783   0.616   3.007   4.655
 8962SOL     OW27784   4.340   0.487   3.653
 8962SOL    HW127785   4.280   0.537   3.715
 8962SOL    HW227786   4.401   0.552   3.607
 8963SOL     OW27787   1.429   0.474   4.610
 8963SOL    HW127788   1.529   0.483   4.600
 8963SOL    HW227789   1.409   0.389   4.658
 8964SOL     OW27790   0.973   2.453   3.374
 8964SOL    HW127791   1.056   2.459   3.319
 8964SOL    HW227792   0.971   2.365   3.422
 8965SOL     OW27793   1.316   5.023   1.161
 8965SOL    HW127794   1.383   5.001   1.090
 8965SOL    HW227795   1.360   5.073   1.235
 8966SOL     OW27796   3.530   2.095   4.879
 8966SOL    HW127797   3.477   2.013   4.860
 8966SOL    HW227798   3.572   2.089   4.969
 8967SOL     OW27799   5.300   6.675   0.650
 8967SOL    HW127800   5.355   6.629   0.720
 8967SOL    HW227801   5.360   6.716   0.582
 8968SOL     OW27802   6.592   3.913   3.790
 8968SOL    HW127803   6.636   4.003   3.786
 8968SOL    HW227804   6.533   3.909   3.870
 8969SOL     OW27805   6.515   6.819   4.390
 8969SOL    HW127806   6.506   6.864   4.479
 8969SOL    HW227807   6.532   6.888   4.319
 8970SOL     OW27808   3.166   2.977   1.377
 8970SOL    HW127809   3.185   3.041   1.302
 8970SOL    HW227810   3.212   2.890   1.358
 8971SOL     OW27811   3.160   6.815   2.887
 8971SOL    HW127812   3.068   6.808   2.849
 8971SOL    HW227813   3.226   6.823   2.813
 8972SOL     OW27814   5.543   0.619   5.451
 8972SOL    HW127815   5.559   0.529   5.492
 8972SOL    HW227816   5.456   0.656   5.484
 8973SOL     OW27817   2.025   4.391   6.883
 8973SOL    HW127818   2.078   4.309   6.860
 8973SOL    HW227819   2.071   4.440   6.958
 8974SOL     OW27820   0.929   2.582   4.175
 8974SOL    HW127821   0.888   2.582   4.267
 8974SOL    HW227822   1.026   2.559   4.182
 8975SOL     OW27823   3.488   1.200   6.293
 8975SOL    HW127824   3.587   1.184   6.298
 8975SOL    HW227825   3.466   1.247   6.207
 8976SOL     OW27826   1.784   5.896   4.111
 8976SOL    HW127827   1.744   5.960   4.046
 8976SOL    HW227828   1.766   5.802   4.082
 8977SOL     OW27829   5.677   1.739   0.058
 8977SOL    HW127830   5.749   1.694   0.112
 8977SOL    HW227831   5.592   1.687   0.067
 8978SOL     OW27832   5.440   4.690   2.287
 8978SOL    HW127833   5.357   4.641   2.258
 8978SOL    HW227834   5.520   4.632   2.272
 8979SOL     OW27835   0.851   4.678   5.016
 8979SOL    HW127836   0.868   4.623   5.098
 8979SOL    HW227837   0.932   4.735   4.997
 8980SOL     OW27838   3.121   3.277   3.750
 8980SOL    HW127839   3.220   3.264   3.761
 8980SOL    HW227840   3.103   3.328   3.667
 8981SOL     OW27841   3.174   2.207   5.402
 8981SOL    HW127842   3.130   2.256   5.477
 8981SOL    HW227843   3.189   2.269   5.325
 8982SOL     OW27844   2.860   5.216   0.301
 8982SOL    HW127845   2.783   5.272   0.270
 8982SOL    HW227846   2.885   5.243   0.394
 8983SOL     OW27847   4.905   4.312   0.919
 8983SOL    HW127848   4.923   4.284   1.013
 8983SOL    HW227849   4.810   4.288   0.896
 8984SOL     OW27850   1.643   6.293   3.054
 8984SOL    HW127851   1.693   6.326   2.975
 8984SOL    HW227852   1.591   6.211   3.029
 8985SOL     OW27853   2.861   3.155   6.377
 8985SOL    HW127854   2.913   3.069   6.380
 8985SOL    HW227855   2.876   3.199   6.288
 8986SOL     OW27856   2.651   6.191   2.112
 8986SOL    HW127857   2.581   6.121   2.127
 8986SOL    HW227858   2.716   6.159   2.043
 8987SOL     OW27859   5.186   6.508   2.466
 8987SOL    HW127860   5.145   6.553   2.546
 8987SOL    HW227861   5.188   6.409   2.482
 8988SOL     OW27862   0.876   4.318   5.219
 8988SOL    HW127863   0.790   4.367   5.238
 8988SOL    HW227864   0.921   4.359   5.140
 8989SOL     OW27865   2.349   2.515   6.909
 8989SOL    HW127866   2.331   2.604   6.868
 8989SOL    HW227867   2.397   2.457   6.843
 8990SOL     OW27868   0.086   5.020   4.919
 8990SOL    HW127869   0.027   5.084   4.869
 8990SOL    HW227870   0.145   5.071   4.981
 8991SOL     OW27871   1.238   2.139   4.826
 8991SOL    HW127872   1.202   2.079   4.897
 8991SOL    HW227873   1.244   2.232   4.862
 8992SOL     OW27874   6.493   1.131   1.528
 8992SOL    HW127875   6.558   1.196   1.569
 8992SOL    HW227876   6.524   1.038   1.546
 8993SOL     OW27877   4.323   2.200   0.752
 8993SOL    HW127878   4.286   2.208   0.844
 8993SOL    HW227879   4.407   2.145   0.754
 8994SOL     OW27880   2.256   5.363   2.798
 8994SOL    HW127881   2.356   5.359   2.806
 8994SOL    HW227882   2.215   5.337   2.886
 8995SOL     OW27883   0.413   0.198   1.014
 8995SOL    HW127884   0.461   0.111   1.028
 8995SOL    HW227885   0.384   0.235   1.102
 8996SOL     OW27886   4.381   5.512   5.333
 8996SOL    HW127887   4.289   5.540   5.304
 8996SOL    HW227888   4.379   5.490   5.430
 8997SOL     OW27889   5.529   6.821   4.767
 8997SOL    HW127890   5.507   6.913   4.736
 8997SOL    HW227891   5.605   6.785   4.712
 8998SOL     OW27892   6.979   4.104   5.130
 8998SOL    HW127893   6.924   4.181   5.162
 8998SOL    HW227894   6.930   4.018   5.145
 8999SOL     OW27895   4.333   5.753   6.235
 8999SOL    HW127896   4.280   5.696   6.172
 8999SOL    HW227897   4.317   5.850   6.214
 9000SOL     OW27898   1.454   4.074   1.166
 9000SOL    HW127899   1.536   4.038   1.121
 9000SOL    HW227900   1.376   4.066   1.105
 9001SOL     OW27901   1.399   5.146   0.775
 9001SOL    HW127902   1.346   5.217   0.823
 9001SOL    HW227903   1.342   5.104   0.705
 9002SOL     OW27904   6.713   6.519   6.868
 9002SOL    HW127905   6.617   6.499   6.847
 9002SOL    HW227906   6.744   6.458   6.940
 9003SOL     OW27907   4.752   6.651   1.080
 9003SOL    HW127908   4.848   6.626   1.088
 9003SOL    HW227909   4.725   6.654   0.984
 9004SOL     OW27910   6.369   4.942   2.108
 9004SOL    HW127911   6.320   4.890   2.177
 9004SOL    HW227912   6.404   5.026   2.149
 9005SOL     OW27913   4.956   1.215   4.876
 9005SOL    HW127914   4.947   1.239   4.972
 9005SOL    HW227915   4.992   1.293   4.825
 9006SOL     OW27916   3.373   6.203   0.419
 9006SOL    HW127917   3.451   6.150   0.452
 9006SOL    HW227918   3.294   6.187   0.478
 9007SOL     OW27919   0.233   0.577   2.976
 9007SOL    HW127920   0.244   0.489   3.022
 9007SOL    HW227921   0.140   0.610   2.990
 9008SOL     OW27922   6.947   5.262   2.136
 9008SOL    HW127923   6.916   5.265   2.231
 9008SOL    HW227924   6.975   5.169   2.113
 9009SOL     OW27925   3.431   6.520   2.298
 9009SOL    HW127926   3.492   6.539   2.221
 9009SOL    HW227927   3.370   6.445   2.273
 9010SOL     OW27928   2.279   5.039   4.997
 9010SOL    HW127929   2.369   5.021   5.038
 9010SOL    HW227930   2.259   5.136   5.002
 9011SOL     OW27931   2.729   2.083   1.727
 9011SOL    HW127932   2.722   2.111   1.632
 9011SOL    HW227933   2.821   2.100   1.761
 9012SOL     OW27934   2.253   6.198   0.350
 9012SOL    HW127935   2.217   6.161   0.264
 9012SOL    HW227936   2.350   6.220   0.339
 9013SOL     OW27937   1.882   0.482   4.537
 9013SOL    HW127938   1.808   0.434   4.489
 9013SOL    HW227939   1.855   0.499   4.632
 9014SOL     OW27940   5.626   3.181   3.175
 9014SOL    HW127941   5.568   3.101   3.160
 9014SOL    HW227942   5.716   3.151   3.208
 9015SOL     OW27943   3.737   6.399   6.173
 9015SOL    HW127944   3.742   6.403   6.272
 9015SOL    HW227945   3.722   6.490   6.136
 9016SOL     OW27946   4.646   4.140   5.944
 9016SOL    HW127947   4.701   4.197   6.005
 9016SOL    HW227948   4.598   4.070   5.997
 9017SOL     OW27949   2.365   0.040   5.782
 9017SOL    HW127950   2.358   0.085   5.693
 9017SOL    HW227951   2.319   6.970   5.778
 9018SOL     OW27952   3.526   4.812   0.468
 9018SOL    HW127953   3.614   4.859   0.460
 9018SOL    HW227954   3.507   4.762   0.384
 9019SOL     OW27955   0.337   3.920   4.620
 9019SOL    HW127956   0.429   3.957   4.607
 9019SOL    HW227957   0.278   3.991   4.658
 9020SOL     OW27958   5.525   5.267   3.482
 9020SOL    HW127959   5.488   5.320   3.559
 9020SOL    HW227960   5.595   5.204   3.516
 9021SOL     OW27961   0.104   1.469   4.577
 9021SOL    HW127962   0.071   1.377   4.556
 9021SOL    HW227963   0.172   1.496   4.509
 9022SOL     OW27964   4.598   3.354   6.763
 9022SOL    HW127965   4.528   3.397   6.821
 9022SOL    HW227966   4.664   3.306   6.821
 9023SOL     OW27967   0.359   4.693   0.916
 9023SOL    HW127968   0.293   4.760   0.949
 9023SOL    HW227969   0.331   4.601   0.944
 9024SOL     OW27970   2.072   4.685   6.231
 9024SOL    HW127971   1.990   4.721   6.275
 9024SOL    HW227972   2.048   4.607   6.172
 9025SOL     OW27973   0.551   5.915   1.937
 9025SOL    HW127974   0.599   5.996   1.903
 9025SOL    HW227975   0.501   5.939   2.020
 9026SOL     OW27976   5.979   1.299   6.743
 9026SOL    HW127977   6.036   1.291   6.661
 9026SOL    HW227978   5.884   1.280   6.719
 9027SOL     OW27979   0.374   4.289   2.965
 9027SOL    HW127980   0.452   4.226   2.960
 9027SOL    HW227981   0.335   4.287   3.057
 9028SOL     OW27982   2.918   4.714   0.015
 9028SOL    HW127983   2.902   4.792   0.075
 9028SOL    HW227984   2.832   4.686   6.991
 9029SOL     OW27985   4.100   6.259   4.513
 9029SOL    HW127986   4.100   6.160   4.525
 9029SOL    HW227987   4.194   6.292   4.504
 9030SOL     OW27988   2.866   2.119   2.139
 9030SOL    HW127989   2.958   2.113   2.178
 9030SOL    HW227990   2.849   2.212   2.107
 9031SOL     OW27991   5.305   6.688   4.885
 9031SOL    HW127992   5.213   6.717   4.857
 9031SOL    HW227993   5.372   6.753   4.850
 9032SOL     OW27994   4.955   3.134   1.218
 9032SOL    HW127995   4.928   3.194   1.294
 9032SOL    HW227996   4.873   3.095   1.176
 9033SOL     OW27997   1.240   5.753   2.529
 9033SOL    HW127998   1.273   5.802   2.448
 9033SOL    HW227999   1.301   5.769   2.606
 9034SOL     OW28000   4.159   6.417   5.215
 9034SOL    HW128001   4.134   6.509   5.245
 9034SOL    HW228002   4.091   6.384   5.150
 9035SOL     OW28003   2.330   5.555   5.777
 9035SOL    HW128004   2.253   5.500   5.746
 9035SOL    HW228005   2.311   5.652   5.763
 9036SOL     OW28006   0.333   5.379   5.203
 9036SOL    HW128007   0.248   5.329   5.221
 9036SOL    HW228008   0.408   5.336   5.254
 9037SOL     OW28009   6.917   0.845   2.537
 9037SOL    HW128010   6.958   0.878   2.452
 9037SOL    HW228011   6.842   0.783   2.515
 9038SOL     OW28012   3.211   3.566   5.760
 9038SOL    HW128013   3.180   3.650   5.804
 9038SOL    HW228014   3.294   3.533   5.804
 9039SOL     OW28015   4.543   6.361   6.076
 9039SOL    HW128016   4.533   6.427   6.002
 9039SOL    HW228017   4.473   6.376   6.146
 9040SOL     OW28018   2.416   2.274   1.369
 9040SOL    HW128019   2.365   2.234   1.294
 9040SOL    HW228020   2.474   2.348   1.334
 9041SOL     OW28021   6.605   2.442   3.291
 9041SOL    HW128022   6.588   2.374   3.219
 9041SOL    HW228023   6.566   2.530   3.264
 9042SOL     OW28024   6.127   5.435   6.406
 9042SOL    HW128025   6.109   5.345   6.366
 9042SOL    HW228026   6.053   5.459   6.469
 9043SOL     OW28027   2.801   2.863   1.660
 9043SOL    HW128028   2.838   2.954   1.681
 9043SOL    HW228029   2.705   2.860   1.686
 9044SOL     OW28030   1.803   0.790   0.241
 9044SOL    HW128031   1.728   0.855   0.249
 9044SOL    HW228032   1.868   0.822   0.172
 9045SOL     OW28033   3.009   0.548   4.073
 9045SOL    HW128034   2.952   0.563   4.154
 9045SOL    HW228035   2.999   0.454   4.042
 9046SOL     OW28036   3.989   3.860   1.868
 9046SOL    HW128037   4.016   3.811   1.951
 9046SOL    HW228038   3.954   3.796   1.800
 9047SOL     OW28039   0.377   3.951   5.776
 9047SOL    HW128040   0.476   3.958   5.792
 9047SOL    HW228041   0.328   3.979   5.859
 9048SOL     OW28042   0.641   2.394   5.490
 9048SOL    HW128043   0.643   2.419   5.393
 9048SOL    HW228044   0.672   2.299   5.501
 9049SOL     OW28045   0.575   6.772   5.197
 9049SOL    HW128046   0.532   6.743   5.111
 9049SOL    HW228047   0.545   6.712   5.271
 9050SOL     OW28048   1.302   4.392   0.018
 9050SOL    HW128049   1.322   4.359   6.944
 9050SOL    HW228050   1.387   4.397   0.071
 9051SOL     OW28051   2.007   0.817   1.296
 9051SOL    HW128052   1.963   0.735   1.257
 9051SOL    HW228053   1.937   0.879   1.329
 9052SOL     OW28054   2.258   2.885   6.842
 9052SOL    HW128055   2.325   2.958   6.854
 9052SOL    HW228056   2.295   2.817   6.778
 9053SOL     OW28057   0.586   1.409   0.478
 9053SOL    HW128058   0.632   1.328   0.442
 9053SOL    HW228059   0.578   1.478   0.406
 9054SOL     OW28060   1.160   5.274   3.192
 9054SOL    HW128061   1.219   5.276   3.273
 9054SOL    HW228062   1.105   5.357   3.188
 9055SOL     OW28063   0.460   2.851   6.248
 9055SOL    HW128064   0.374   2.891   6.281
 9055SOL    HW228065   0.536   2.910   6.274
 9056SOL     OW28066   4.999   0.947   4.219
 9056SOL    HW128067   4.972   0.964   4.314
 9056SOL    HW228068   4.941   1.001   4.158
 9057SOL     OW28069   4.785   1.608   3.773
 9057SOL    HW128070   4.811   1.598   3.869
 9057SOL    HW228071   4.828   1.690   3.735
 9058SOL     OW28072   1.930   6.809   6.122
 9058SOL    HW128073   1.883   6.732   6.079
 9058SOL    HW228074   1.863   6.873   6.158
 9059SOL     OW28075   2.004   2.064   3.454
 9059SOL    HW128076   2.055   2.139   3.412
 9059SOL    HW228077   1.987   1.993   3.385
 9060SOL     OW28078   5.520   2.218   5.398
 9060SOL    HW128079   5.616   2.192   5.392
 9060SOL    HW228080   5.513   2.318   5.409
 9061SOL     OW28081   2.322   4.684   4.115
 9061SOL    HW128082   2.360   4.608   4.166
 9061SOL    HW228083   2.223   4.674   4.108
 9062SOL     OW28084   1.979   6.424   1.891
 9062SOL    HW128085   2.049   6.459   1.953
 9062SOL    HW228086   2.003   6.331   1.863
 9063SOL     OW28087   3.000   1.818   1.482
 9063SOL    HW128088   2.971   1.762   1.559
 9063SOL    HW228089   3.095   1.844   1.494
 9064SOL     OW28090   3.950   3.779   0.271
 9064SOL    HW128091   3.996   3.859   0.235
 9064SOL    HW228092   3.852   3.798   0.279
 9065SOL     OW28093   2.885   1.131   0.844
 9065SOL    HW128094   2.864   1.105   0.750
 9065SOL    HW228095   2.822   1.202   0.874
 9066SOL     OW28096   4.928   6.505   0.241
 9066SOL    HW128097   4.919   6.414   0.199
 9066SOL    HW228098   4.941   6.574   0.169
 9067SOL     OW28099   0.653   0.475   2.156
 9067SOL    HW128100   0.633   0.565   2.116
 9067SOL    HW228101   0.588   0.408   2.121
 9068SOL     OW28102   0.760   6.066   6.284
 9068SOL    HW128103   0.718   6.059   6.193
 9068SOL    HW228104   0.773   6.162   6.307
 9069SOL     OW28105   1.026   2.425   5.695
 9069SOL    HW128106   0.967   2.475   5.632
 9069SOL    HW228107   1.116   2.468   5.700
 9070SOL     OW28108   1.138   4.070   4.640
 9070SOL    HW128109   1.124   4.079   4.541
 9070SOL    HW228110   1.182   4.152   4.675
 9071SOL     OW28111   4.959   5.322   6.924
 9071SOL    HW128112   4.963   5.334   6.825
 9071SOL    HW228113   5.035   5.263   6.953
 9072SOL     OW28114   5.483   4.581   0.535
 9072SOL    HW128115   5.476   4.637   0.617
 9072SOL    HW228116   5.444   4.491   0.553
 9073SOL     OW28117   1.966   0.035   1.328
 9073SOL    HW128118   2.023   6.995   1.271
 9073SOL    HW228119   2.022   0.081   1.397
 9074SOL     OW28120   1.033   1.103   1.384
 9074SOL    HW128121   1.095   1.136   1.455
 9074SOL    HW228122   0.975   1.178   1.353
 9075SOL     OW28123   6.372   0.274   1.045
 9075SOL    HW128124   6.408   0.227   0.964
 9075SOL    HW228125   6.448   0.314   1.097
 9076SOL     OW28126   1.117   2.762   5.268
 9076SOL    HW128127   1.158   2.848   5.297
 9076SOL    HW228128   1.017   2.767   5.278
 9077SOL     OW28129   5.621   5.704   1.657
 9077SOL    HW128130   5.581   5.795   1.666
 9077SOL    HW228131   5.719   5.709   1.678
 9078SOL     OW28132   4.881   3.063   5.287
 9078SOL    HW128133   4.829   3.139   5.248
 9078SOL    HW228134   4.829   2.979   5.278
 9079SOL     OW28135   1.839   0.336   5.407
 9079SOL    HW128136   1.911   0.268   5.399
 9079SOL    HW228137   1.858   0.412   5.345
 9080SOL     OW28138   4.121   0.550   0.402
 9080SOL    HW128139   4.101   0.531   0.498
 9080SOL    HW228140   4.164   0.470   0.361
 9081SOL     OW28141   5.603   6.726   4.145
 9081SOL    HW128142   5.551   6.688   4.222
 9081SOL    HW228143   5.550   6.717   4.061
 9082SOL     OW28144   2.141   0.321   2.048
 9082SOL    HW128145   2.089   0.241   2.018
 9082SOL    HW228146   2.238   0.297   2.055
 9083SOL     OW28147   4.252   5.407   3.323
 9083SOL    HW128148   4.271   5.450   3.235
 9083SOL    HW228149   4.155   5.417   3.346
 9084SOL     OW28150   3.613   3.682   2.567
 9084SOL    HW128151   3.697   3.729   2.593
 9084SOL    HW228152   3.538   3.748   2.558
 9085SOL     OW28153   1.809   1.686   0.659
 9085SOL    HW128154   1.906   1.709   0.653
 9085SOL    HW228155   1.755   1.770   0.656
 9086SOL     OW28156   6.866   3.593   1.112
 9086SOL    HW128157   6.925   3.547   1.045
 9086SOL    HW228158   6.778   3.614   1.071
 9087SOL     OW28159   5.119   4.013   1.779
 9087SOL    HW128160   5.134   3.915   1.764
 9087SOL    HW228161   5.107   4.031   1.876
 9088SOL     OW28162   6.444   4.846   2.485
 9088SOL    HW128163   6.440   4.859   2.584
 9088SOL    HW228164   6.502   4.767   2.465
 9089SOL     OW28165   4.388   1.223   5.661
 9089SOL    HW128166   4.425   1.306   5.618
 9089SOL    HW228167   4.290   1.233   5.674
 9090SOL     OW28168   0.050   2.329   4.054
 9090SOL    HW128169   0.105   2.248   4.076
 9090SOL    HW228170   6.994   2.303   3.993
 9091SOL     OW28171   4.467   3.029   5.957
 9091SOL    HW128172   4.463   3.057   6.054
 9091SOL    HW228173   4.505   2.938   5.950
 9092SOL     OW28174   6.764   4.137   6.101
 9092SOL    HW128175   6.714   4.223   6.106
 9092SOL    HW228176   6.708   4.063   6.139
 9093SOL     OW28177   2.594   6.293   4.954
 9093SOL    HW128178   2.685   6.258   4.977
 9093SOL    HW228179   2.524   6.231   4.990
 9094SOL     OW28180   1.746   3.981   0.478
 9094SOL    HW128181   1.744   3.908   0.546
 9094SOL    HW228182   1.770   4.067   0.523
 9095SOL     OW28183   0.361   0.470   6.148
 9095SOL    HW128184   0.308   0.390   6.175
 9095SOL    HW228185   0.433   0.444   6.084
 9096SOL     OW28186   6.397   5.240   3.676
 9096SOL    HW128187   6.460   5.201   3.743
 9096SOL    HW228188   6.325   5.290   3.724
 9097SOL     OW28189   0.584   4.185   1.011
 9097SOL    HW128190   0.522   4.263   1.007
 9097SOL    HW228191   0.549   4.112   0.951
 9098SOL     OW28192   2.053   5.395   4.761
 9098SOL    HW128193   1.982   5.465   4.753
 9098SOL    HW228194   2.074   5.359   4.670
 9099SOL     OW28195   1.944   1.046   6.303
 9099SOL    HW128196   1.966   1.130   6.254
 9099SOL    HW228197   1.924   1.066   6.399
 9100SOL     OW28198   1.498   4.947   4.200
 9100SOL    HW128199   1.459   4.881   4.265
 9100SOL    HW228200   1.528   4.898   4.118
 9101SOL     OW28201   6.568   1.845   1.449
 9101SOL    HW128202   6.523   1.928   1.481
 9101SOL    HW228203   6.499   1.776   1.426
 9102SOL     OW28204   4.040   0.806   2.948
 9102SOL    HW128205   4.002   0.725   2.991
 9102SOL    HW228206   4.137   0.791   2.927
 9103SOL     OW28207   5.838   0.924   1.140
 9103SOL    HW128208   5.869   1.018   1.153
 9103SOL    HW228209   5.914   0.868   1.109
 9104SOL     OW28210   5.164   2.517   5.948
 9104SOL    HW128211   5.144   2.427   5.986
 9104SOL    HW228212   5.079   2.563   5.924
 9105SOL     OW28213   3.040   0.840   0.224
 9105SOL    HW128214   3.114   0.828   0.290
 9105SOL    HW228215   3.078   0.844   0.131
 9106SOL     OW28216   2.252   2.899   6.294
 9106SOL    HW128217   2.158   2.929   6.274
 9106SOL    HW228218   2.249   2.806   6.330
 9107SOL     OW28219   3.933   0.645   1.039
 9107SOL    HW128220   4.024   0.677   1.011
 9107SOL    HW228221   3.921   0.550   1.009
 9108SOL     OW28222   6.130   6.718   5.691
 9108SOL    HW128223   6.139   6.765   5.603
 9108SOL    HW228224   6.158   6.622   5.680
 9109SOL     OW28225   5.569   3.807   3.283
 9109SOL    HW128226   5.585   3.765   3.193
 9109SOL    HW228227   5.607   3.899   3.284
 9110SOL     OW28228   0.935   6.155   2.021
 9110SOL    HW128229   0.881   6.082   2.063
 9110SOL    HW228230   1.005   6.115   1.962
 9111SOL     OW28231   5.100   3.242   5.795
 9111SOL    HW128232   5.197   3.257   5.813
 9111SOL    HW228233   5.062   3.322   5.748
 9112SOL     OW28234   0.872   4.825   1.563
 9112SOL    HW128235   0.857   4.871   1.651
 9112SOL    HW228236   0.954   4.863   1.519
 9113SOL     OW28237   5.417   0.298   5.027
 9113SOL    HW128238   5.437   0.203   5.050
 9113SOL    HW228239   5.408   0.351   5.112
 9114SOL     OW28240   6.750   1.161   5.789
 9114SOL    HW128241   6.801   1.116   5.861
 9114SOL    HW228242   6.652   1.159   5.811
 9115SOL     OW28243   5.164   3.917   4.356
 9115SOL    HW128244   5.177   3.845   4.424
 9115SOL    HW228245   5.253   3.945   4.321
 9116SOL     OW28246   0.402   5.280   3.640
 9116SOL    HW128247   0.393   5.264   3.542
 9116SOL    HW228248   0.498   5.274   3.667
 9117SOL     OW28249   2.153   6.585   6.982
 9117SOL    HW128250   2.128   6.569   0.059
 9117SOL    HW228251   2.101   6.523   6.923
 9118SOL     OW28252   0.049   4.738   1.108
 9118SOL    HW128253   0.136   4.787   1.101
 9118SOL    HW228254   6.997   4.800   1.140
 9119SOL     OW28255   3.843   2.020   0.875
 9119SOL    HW128256   3.798   2.013   0.964
 9119SOL    HW228257   3.881   2.112   0.864
 9120SOL     OW28258   6.637   4.627   5.020
 9120SOL    HW128259   6.639   4.576   5.105
 9120SOL    HW228260   6.730   4.634   4.983
 9121SOL     OW28261   4.725   1.079   4.710
 9121SOL    HW128262   4.803   1.119   4.758
 9121SOL    HW228263   4.640   1.107   4.757
 9122SOL     OW28264   0.326   1.791   2.299
 9122SOL    HW128265   0.253   1.739   2.343
 9122SOL    HW228266   0.349   1.749   2.211
 9123SOL     OW28267   0.627   5.921   4.852
 9123SOL    HW128268   0.528   5.930   4.845
 9123SOL    HW228269   0.655   5.828   4.830
 9124SOL     OW28270   2.999   5.459   0.988
 9124SOL    HW128271   2.986   5.417   1.077
 9124SOL    HW228272   3.035   5.392   0.924
 9125SOL     OW28273   4.667   6.630   1.904
 9125SOL    HW128274   4.750   6.638   1.959
 9125SOL    HW228275   4.620   6.718   1.901
 9126SOL     OW28276   3.738   4.915   0.320
 9126SOL    HW128277   3.724   4.843   0.252
 9126SOL    HW228278   3.779   4.995   0.276
 9127SOL     OW28279   6.079   4.012   6.330
 9127SOL    HW128280   5.989   3.967   6.332
 9127SOL    HW228281   6.148   3.947   6.300
 9128SOL     OW28282   5.284   3.126   6.985
 9128SOL    HW128283   5.266   3.039   6.939
 9128SOL    HW228284   5.299   3.198   6.918
 9129SOL     OW28285   0.968   2.484   1.551
 9129SOL    HW128286   0.943   2.534   1.468
 9129SOL    HW228287   1.067   2.467   1.550
 9130SOL     OW28288   2.973   4.134   6.317
 9130SOL    HW128289   3.000   4.113   6.223
 9130SOL    HW228290   3.020   4.073   6.380
 9131SOL     OW28291   6.107   3.022   0.982
 9131SOL    HW128292   6.025   2.968   0.964
 9131SOL    HW228293   6.164   2.976   1.051
 9132SOL     OW28294   0.959   4.350   3.572
 9132SOL    HW128295   0.892   4.303   3.514
 9132SOL    HW228296   0.951   4.316   3.665
 9133SOL     OW28297   5.151   6.441   0.583
 9133SOL    HW128298   5.197   6.404   0.502
 9133SOL    HW228299   5.177   6.536   0.596
 9134SOL     OW28300   4.842   3.886   6.653
 9134SOL    HW128301   4.877   3.921   6.566
 9134SOL    HW228302   4.754   3.928   6.673
 9135SOL     OW28303   6.674   5.012   2.566
 9135SOL    HW128304   6.593   4.985   2.513
 9135SOL    HW228305   6.710   4.932   2.613
 9136SOL     OW28306   0.434   4.925   6.457
 9136SOL    HW128307   0.428   5.013   6.410
 9136SOL    HW228308   0.491   4.863   6.402
 9137SOL     OW28309   5.804   5.444   5.970
 9137SOL    HW128310   5.726   5.507   5.967
 9137SOL    HW228311   5.775   5.357   6.009
 9138SOL     OW28312   1.418   3.744   5.849
 9138SOL    HW128313   1.426   3.645   5.853
 9138SOL    HW228314   1.453   3.777   5.761
 9139SOL     OW28315   0.579   7.017   0.762
 9139SOL    HW128316   0.561   0.089   0.722
 9139SOL    HW228317   0.677   6.997   0.755
 9140SOL     OW28318   0.522   4.514   2.864
 9140SOL    HW128319   0.470   4.444   2.912
 9140SOL    HW228320   0.542   4.483   2.771
 9141SOL     OW28321   0.055   5.363   4.443
 9141SOL    HW128322   6.986   5.316   4.454
 9141SOL    HW228323   0.114   5.309   4.383
 9142SOL     OW28324   1.653   5.169   3.149
 9142SOL    HW128325   1.601   5.223   3.215
 9142SOL    HW228326   1.601   5.160   3.065
 9143SOL     OW28327   5.341   3.239   2.447
 9143SOL    HW128328   5.315   3.333   2.429
 9143SOL    HW228329   5.268   3.177   2.417
 9144SOL     OW28330   2.541   4.622   5.603
 9144SOL    HW128331   2.614   4.605   5.537
 9144SOL    HW228332   2.460   4.655   5.556
 9145SOL     OW28333   2.388   5.608   6.785
 9145SOL    HW128334   2.479   5.618   6.825
 9145SOL    HW228335   2.359   5.513   6.791
 9146SOL     OW28336   5.494   1.465   4.438
 9146SOL    HW128337   5.430   1.457   4.361
 9146SOL    HW228338   5.473   1.548   4.490
 9147SOL     OW28339   3.825   6.993   6.209
 9147SOL    HW128340   3.733   6.957   6.192
 9147SOL    HW228341   3.828   0.018   6.298
 9148SOL     OW28342   3.192   5.940   1.973
 9148SOL    HW128343   3.116   5.973   1.917
 9148SOL    HW228344   3.193   5.990   2.060
 9149SOL     OW28345   1.024   4.096   2.038
 9149SOL    HW128346   1.018   4.141   1.949
 9149SOL    HW228347   1.101   4.033   2.038
 9150SOL     OW28348   3.924   3.472   0.032
 9150SOL    HW128349   3.930   3.542   6.979
 9150SOL    HW228350   3.844   3.490   0.089
 9151SOL     OW28351   2.128   3.930   3.676
 9151SOL    HW128352   2.040   3.899   3.712
 9151SOL    HW228353   2.160   4.008   3.729
 9152SOL     OW28354   1.860   5.509   2.095
 9152SOL    HW128355   1.912   5.425   2.110
 9152SOL    HW228356   1.763   5.491   2.109
 9153SOL     OW28357   0.761   3.333   1.105
 9153SOL    HW128358   0.742   3.429   1.083
 9153SOL    HW228359   0.680   3.278   1.085
 9154SOL     OW28360   4.226   5.349   2.615
 9154SOL    HW128361   4.289   5.285   2.658
 9154SOL    HW228362   4.270   5.438   2.605
 9155SOL     OW28363   0.577   6.859   2.088
 9155SOL    HW128364   0.610   6.948   2.058
 9155SOL    HW228365   0.613   6.787   2.028
 9156SOL     OW28366   6.747   4.812   5.695
 9156SOL    HW128367   6.653   4.782   5.711
 9156SOL    HW228368   6.787   4.844   5.781
 9157SOL     OW28369   2.286   4.647   4.855
 9157SOL    HW128370   2.221   4.718   4.825
 9157SOL    HW228371   2.338   4.681   4.933
 9158SOL     OW28372   0.036   2.574   3.972
 9158SOL    HW128373   0.011   2.570   3.875
 9158SOL    HW228374   0.061   2.483   4.004
 9159SOL     OW28375   1.915   0.717   3.483
 9159SOL    HW128376   1.838   0.744   3.425
 9159SOL    HW228377   1.936   0.621   3.468
 9160SOL     OW28378   0.465   3.597   6.558
 9160SOL    HW128379   0.562   3.574   6.554
 9160SOL    HW228380   0.443   3.634   6.649
 9161SOL     OW28381   6.063   3.081   2.791
 9161SOL    HW128382   6.144   3.042   2.835
 9161SOL    HW228383   6.050   3.175   2.824
 9162SOL     OW28384   5.646   2.160   1.878
 9162SOL    HW128385   5.566   2.214   1.904
 9162SOL    HW228386   5.628   2.116   1.789
 9163SOL     OW28387   1.202   3.628   2.781
 9163SOL    HW128388   1.288   3.668   2.749
 9163SOL    HW228389   1.134   3.635   2.708
 9164SOL     OW28390   4.185   0.833   0.681
 9164SOL    HW128391   4.262   0.845   0.744
 9164SOL    HW228392   4.167   0.919   0.634
 9165SOL     OW28393   6.777   0.379   0.424
 9165SOL    HW128394   6.803   0.283   0.415
 9165SOL    HW228395   6.813   0.431   0.346
 9166SOL     OW28396   4.236   5.695   2.068
 9166SOL    HW128397   4.270   5.779   2.026
 9166SOL    HW228398   4.239   5.620   2.002
 9167SOL     OW28399   0.329   2.765   5.329
 9167SOL    HW128400   0.346   2.691   5.394
 9167SOL    HW228401   0.410   2.823   5.322
 9168SOL     OW28402   6.157   6.491   5.108
 9168SOL    HW128403   6.131   6.540   5.025
 9168SOL    HW228404   6.213   6.412   5.083
 9169SOL     OW28405   5.531   5.877   0.138
 9169SOL    HW128406   5.435   5.896   0.118
 9169SOL    HW228407   5.538   5.793   0.191
 9170SOL     OW28408   1.595   6.695   5.184
 9170SOL    HW128409   1.592   6.622   5.116
 9170SOL    HW228410   1.506   6.702   5.229
 9171SOL     OW28411   4.459   5.462   6.558
 9171SOL    HW128412   4.429   5.556   6.542
 9171SOL    HW228413   4.461   5.412   6.472
 9172SOL     OW28414   5.252   0.426   5.934
 9172SOL    HW128415   5.351   0.413   5.927
 9172SOL    HW228416   5.227   0.513   5.892
 9173SOL     OW28417   5.574   4.047   6.853
 9173SOL    HW128418   5.601   4.105   6.776
 9173SOL    HW228419   5.554   4.105   6.932
 9174SOL     OW28420   5.522   5.355   0.022
 9174SOL    HW128421   5.602   5.338   6.983
 9174SOL    HW228422   5.475   5.437   7.010
 9175SOL     OW28423   2.343   0.983   1.591
 9175SOL    HW128424   2.373   1.024   1.504
 9175SOL    HW228425   2.423   0.966   1.648
 9176SOL     OW28426   1.325   6.622   2.024
 9176SOL    HW128427   1.252   6.681   2.061
 9176SOL    HW228428   1.283   6.542   1.980
 9177SOL     OW28429   0.486   5.731   3.155
 9177SOL    HW128430   0.460   5.642   3.192
 9177SOL    HW228431   0.445   5.803   3.212
 9178SOL     OW28432   0.571   3.021   1.249
 9178SOL    HW128433   0.659   3.004   1.293
 9178SOL    HW228434   0.546   2.942   1.193
 9179SOL     OW28435   3.755   5.812   2.535
 9179SOL    HW128436   3.804   5.898   2.518
 9179SOL    HW228437   3.682   5.802   2.468
 9180SOL     OW28438   0.730   1.305   4.345
 9180SOL    HW128439   0.660   1.341   4.406
 9180SOL    HW228440   0.733   1.205   4.352
 9181SOL     OW28441   3.087   1.789   2.723
 9181SOL    HW128442   3.056   1.750   2.637
 9181SOL    HW228443   3.044   1.739   2.799
 9182SOL     OW28444   6.495   0.986   2.803
 9182SOL    HW128445   6.499   1.045   2.723
 9182SOL    HW228446   6.488   0.890   2.774
 9183SOL     OW28447   2.927   1.565   5.378
 9183SOL    HW128448   3.000   1.498   5.370
 9183SOL    HW228449   2.841   1.525   5.347
 9184SOL     OW28450   2.713   6.376   0.134
 9184SOL    HW128451   2.781   6.391   0.206
 9184SOL    HW228452   2.681   6.464   0.099
 9185SOL     OW28453   0.707   1.158   4.961
 9185SOL    HW128454   0.683   1.204   4.875
 9185SOL    HW228455   0.795   1.112   4.951
 9186SOL     OW28456   4.819   6.622   5.986
 9186SOL    HW128457   4.787   6.543   5.935
 9186SOL    HW228458   4.854   6.691   5.922
 9187SOL     OW28459   4.685   3.281   1.277
 9187SOL    HW128460   4.711   3.226   1.198
 9187SOL    HW228461   4.600   3.245   1.316
 9188SOL     OW28462   1.658   0.858   2.500
 9188SOL    HW128463   1.634   0.843   2.404
 9188SOL    HW228464   1.590   0.918   2.542
 9189SOL     OW28465   3.140   0.452   6.788
 9189SOL    HW128466   3.041   0.436   6.791
 9189SOL    HW228467   3.188   0.364   6.793
 9190SOL     OW28468   3.667   0.951   6.005
 9190SOL    HW128469   3.593   0.968   6.069
 9190SOL    HW228470   3.666   1.021   5.934
 9191SOL     OW28471   5.272   0.314   1.822
 9191SOL    HW128472   5.368   0.285   1.828
 9191SOL    HW228473   5.226   0.263   1.749
 9192SOL     OW28474   3.942   4.871   3.454
 9192SOL    HW128475   4.021   4.812   3.437
 9192SOL    HW228476   3.892   4.886   3.368
 9193SOL     OW28477   3.805   3.890   2.160
 9193SOL    HW128478   3.889   3.837   2.155
 9193SOL    HW228479   3.732   3.835   2.201
 9194SOL     OW28480   2.567   5.688   3.473
 9194SOL    HW128481   2.658   5.698   3.512
 9194SOL    HW228482   2.550   5.592   3.452
 9195SOL     OW28483   0.359   3.496   3.620
 9195SOL    HW128484   0.393   3.403   3.608
 9195SOL    HW228485   0.320   3.528   3.533
 9196SOL     OW28486   5.471   5.546   3.320
 9196SOL    HW128487   5.527   5.469   3.351
 9196SOL    HW228488   5.527   5.610   3.268
 9197SOL     OW28489   4.249   2.645   6.141
 9197SOL    HW128490   4.231   2.563   6.195
 9197SOL    HW228491   4.347   2.654   6.125
 9198SOL     OW28492   6.709   3.208   4.667
 9198SOL    HW128493   6.773   3.135   4.689
 9198SOL    HW228494   6.735   3.292   4.715
 9199SOL     OW28495   0.739   3.524   6.574
 9199SOL    HW128496   0.737   3.427   6.549
 9199SOL    HW228497   0.728   3.533   6.673
 9200SOL     OW28498   4.544   6.043   2.110
 9200SOL    HW128499   4.565   6.094   2.027
 9200SOL    HW228500   4.513   6.107   2.181
 9201SOL     OW28501   0.244   2.837   2.510
 9201SOL    HW128502   0.201   2.924   2.486
 9201SOL    HW228503   0.174   2.771   2.536
 9202SOL     OW28504   2.065   5.978   3.257
 9202SOL    HW128505   2.118   6.063   3.246
 9202SOL    HW228506   1.970   5.995   3.231
 9203SOL     OW28507   5.522   2.090   0.378
 9203SOL    HW128508   5.576   2.166   0.414
 9203SOL    HW228509   5.584   2.015   0.353
 9204SOL     OW28510   5.276   3.735   1.443
 9204SOL    HW128511   5.217   3.666   1.399
 9204SOL    HW228512   5.316   3.696   1.526
 9205SOL     OW28513   4.819   2.695   0.925
 9205SOL    HW128514   4.733   2.711   0.974
 9205SOL    HW228515   4.893   2.685   0.991
 9206SOL     OW28516   6.631   0.532   5.091
 9206SOL    HW128517   6.633   0.521   5.190
 9206SOL    HW228518   6.575   0.460   5.051
 9207SOL     OW28519   6.034   6.087   0.698
 9207SOL    HW128520   6.015   6.141   0.616
 9207SOL    HW228521   6.133   6.089   0.717
 9208SOL     OW28522   6.402   3.793   1.528
 9208SOL    HW128523   6.346   3.764   1.605
 9208SOL    HW228524   6.343   3.826   1.454
 9209SOL     OW28525   5.194   0.588   4.295
 9209SOL    HW128526   5.237   0.658   4.352
 9209SOL    HW228527   5.113   0.552   4.342
 9210SOL     OW28528   1.521   6.487   0.484
 9210SOL    HW128529   1.505   6.578   0.445
 9210SOL    HW228530   1.437   6.433   0.479
 9211SOL     OW28531   5.213   1.164   6.224
 9211SOL    HW128532   5.118   1.192   6.241
 9211SOL    HW228533   5.222   1.065   6.238
 9212SOL     OW28534   5.781   3.414   6.130
 9212SOL    HW128535   5.806   3.467   6.211
 9212SOL    HW228536   5.704   3.355   6.151
 9213SOL     OW28537   0.455   6.200   3.511
 9213SOL    HW128538   0.506   6.174   3.593
 9213SOL    HW228539   0.433   6.298   3.514
 9214SOL     OW28540   1.618   1.292   5.530
 9214SOL    HW128541   1.630   1.237   5.612
 9214SOL    HW228542   1.581   1.235   5.457
 9215SOL     OW28543   6.524   4.525   3.527
 9215SOL    HW128544   6.594   4.526   3.455
 9215SOL    HW228545   6.502   4.619   3.554
 9216SOL     OW28546   1.345   6.969   3.371
 9216SOL    HW128547   1.394   6.883   3.360
 9216SOL    HW228548   1.348   0.001   3.284
 9217SOL     OW28549   3.940   2.523   0.093
 9217SOL    HW128550   3.893   2.546   0.178
 9217SOL    HW228551   3.943   2.604   0.034
 9218SOL     OW28552   5.247   5.941   5.988
 9218SOL    HW128553   5.180   6.014   6.004
 9218SOL    HW228554   5.227   5.864   6.049
 9219SOL     OW28555   3.210   2.703   5.821
 9219SOL    HW128556   3.187   2.758   5.741
 9219SOL    HW228557   3.185   2.607   5.804
 9220SOL     OW28558   0.333   6.631   3.402
 9220SOL    HW128559   0.275   6.697   3.450
 9220SOL    HW228560   0.424   6.669   3.390
 9221SOL     OW28561   2.545   1.175   2.137
 9221SOL    HW128562   2.488   1.249   2.174
 9221SOL    HW228563   2.616   1.152   2.203
 9222SOL     OW28564   2.725   6.262   3.154
 9222SOL    HW128565   2.791   6.205   3.105
 9222SOL    HW228566   2.665   6.307   3.089
 9223SOL     OW28567   5.667   2.663   4.978
 9223SOL    HW128568   5.761   2.697   4.985
 9223SOL    HW228569   5.668   2.570   4.941
 9224SOL     OW28570   2.128   5.537   2.628
 9224SOL    HW128571   2.158   5.462   2.687
 9224SOL    HW228572   2.100   5.614   2.685
 9225SOL     OW28573   0.128   6.163   5.574
 9225SOL    HW128574   0.040   6.128   5.606
 9225SOL    HW228575   0.200   6.097   5.596
 9226SOL     OW28576   0.496   6.778   4.752
 9226SOL    HW128577   0.441   6.853   4.716
 9226SOL    HW228578   0.592   6.793   4.728
 9227SOL     OW28579   4.244   2.604   0.929
 9227SOL    HW128580   4.319   2.668   0.943
 9227SOL    HW228581   4.164   2.636   0.980
 9228SOL     OW28582   3.442   3.784   4.237
 9228SOL    HW128583   3.538   3.812   4.245
 9228SOL    HW228584   3.395   3.801   4.324
 9229SOL     OW28585   0.298   6.101   1.411
 9229SOL    HW128586   0.247   6.141   1.335
 9229SOL    HW228587   0.265   6.008   1.428
 9230SOL     OW28588   3.424   6.578   5.688
 9230SOL    HW128589   3.440   6.613   5.596
 9230SOL    HW228590   3.394   6.653   5.748
 9231SOL     OW28591   5.051   5.819   1.921
 9231SOL    HW128592   5.047   5.720   1.906
 9231SOL    HW228593   4.967   5.861   1.885
 9232SOL     OW28594   1.230   5.054   1.531
 9232SOL    HW128595   1.150   5.024   1.477
 9232SOL    HW228596   1.311   5.052   1.473
 9233SOL     OW28597   0.770   0.832   5.846
 9233SOL    HW128598   0.752   0.929   5.836
 9233SOL    HW228599   0.867   0.814   5.826
 9234SOL     OW28600   3.067   3.980   0.495
 9234SOL    HW128601   3.160   4.016   0.504
 9234SOL    HW228602   3.023   4.022   0.416
 9235SOL     OW28603   1.158   2.404   2.824
 9235SOL    HW128604   1.123   2.469   2.756
 9235SOL    HW228605   1.154   2.311   2.787
 9236SOL     OW28606   1.847   3.904   6.114
 9236SOL    HW128607   1.939   3.875   6.142
 9236SOL    HW228608   1.818   3.981   6.170
 9237SOL     OW28609   6.734   6.048   3.708
 9237SOL    HW128610   6.663   6.115   3.684
 9237SOL    HW228611   6.800   6.091   3.770
 9238SOL     OW28612   2.235   2.706   5.701
 9238SOL    HW128613   2.199   2.792   5.739
 9238SOL    HW228614   2.269   2.723   5.609
 9239SOL     OW28615   2.069   5.933   6.342
 9239SOL    HW128616   2.093   5.863   6.409
 9239SOL    HW228617   2.048   6.019   6.389
 9240SOL     OW28618   3.558   1.443   5.030
 9240SOL    HW128619   3.577   1.532   4.988
 9240SOL    HW228620   3.568   1.371   4.962
 9241SOL     OW28621   5.357   5.852   6.906
 9241SOL    HW128622   5.447   5.830   6.868
 9241SOL    HW228623   5.292   5.868   6.831
 9242SOL     OW28624   1.965   2.854   0.140
 9242SOL    HW128625   2.026   2.932   0.124
 9242SOL    HW228626   1.964   2.795   0.060
 9243SOL     OW28627   2.121   0.062   0.144
 9243SOL    HW128628   2.198   0.027   0.197
 9243SOL    HW228629   2.136   0.159   0.124
 9244SOL     OW28630   3.490   6.090   6.253
 9244SOL    HW128631   3.494   6.017   6.185
 9244SOL    HW228632   3.511   6.178   6.209
 9245SOL     OW28633   0.761   4.214   3.430
 9245SOL    HW128634   0.682   4.252   3.478
 9245SOL    HW228635   0.788   4.129   3.474
 9246SOL     OW28636   5.181   1.772   6.686
 9246SOL    HW128637   5.233   1.696   6.726
 9246SOL    HW228638   5.166   1.842   6.756
 9247SOL     OW28639   3.071   6.332   2.360
 9247SOL    HW128640   3.059   6.414   2.416
 9247SOL    HW228641   3.094   6.254   2.419
 9248SOL     OW28642   3.070   6.983   6.772
 9248SOL    HW128643   3.029   6.942   6.854
 9248SOL    HW228644   3.022   0.049   6.749
 9249SOL     OW28645   2.768   1.598   0.466
 9249SOL    HW128646   2.816   1.641   0.389
 9249SOL    HW228647   2.769   1.499   0.454
 9250SOL     OW28648   1.006   3.804   1.849
 9250SOL    HW128649   1.085   3.834   1.797
 9250SOL    HW228650   1.009   3.704   1.861
 9251SOL     OW28651   4.319   1.416   0.951
 9251SOL    HW128652   4.227   1.432   0.985
 9251SOL    HW228653   4.317   1.353   0.874
 9252SOL     OW28654   6.003   1.539   4.767
 9252SOL    HW128655   6.005   1.443   4.739
 9252SOL    HW228656   6.085   1.585   4.733
 9253SOL     OW28657   2.652   5.243   3.951
 9253SOL    HW128658   2.734   5.227   3.896
 9253SOL    HW228659   2.677   5.247   4.048
 9254SOL     OW28660   6.376   5.647   2.168
 9254SOL    HW128661   6.334   5.734   2.141
 9254SOL    HW228662   6.313   5.572   2.147
 9255SOL     OW28663   0.499   3.040   2.097
 9255SOL    HW128664   0.455   3.045   2.007
 9255SOL    HW228665   0.599   3.043   2.085
 9256SOL     OW28666   1.465   6.303   0.731
 9256SOL    HW128667   1.422   6.380   0.684
 9256SOL    HW228668   1.412   6.220   0.714
 9257SOL     OW28669   6.426   6.641   5.610
 9257SOL    HW128670   6.429   6.739   5.629
 9257SOL    HW228671   6.390   6.626   5.518
 9258SOL     OW28672   5.120   3.553   3.054
 9258SOL    HW128673   5.106   3.651   3.069
 9258SOL    HW228674   5.038   3.514   3.011
 9259SOL     OW28675   1.240   2.945   6.047
 9259SOL    HW128676   1.315   2.988   5.998
 9259SOL    HW228677   1.275   2.876   6.110
 9260SOL     OW28678   5.321   4.695   5.188
 9260SOL    HW128679   5.314   4.794   5.203
 9260SOL    HW228680   5.413   4.673   5.155
 9261SOL     OW28681   1.393   3.139   0.944
 9261SOL    HW128682   1.328   3.208   0.914
 9261SOL    HW228683   1.478   3.147   0.892
 9262SOL     OW28684   6.384   6.126   5.613
 9262SOL    HW128685   6.333   6.175   5.542
 9262SOL    HW228686   6.321   6.065   5.663
 9263SOL     OW28687   1.873   4.473   2.313
 9263SOL    HW128688   1.922   4.405   2.367
 9263SOL    HW228689   1.775   4.452   2.312
 9264SOL     OW28690   5.974   3.772   5.379
 9264SOL    HW128691   6.072   3.785   5.361
 9264SOL    HW228692   5.931   3.860   5.398
 9265SOL     OW28693   3.929   0.394   2.139
 9265SOL    HW128694   3.912   0.370   2.043
 9265SOL    HW228695   3.905   0.490   2.153
 9266SOL     OW28696   0.125   4.904   1.364
 9266SOL    HW128697   0.184   4.974   1.404
 9266SOL    HW228698   0.161   4.876   1.275
 9267SOL     OW28699   6.962   1.022   3.252
 9267SOL    HW128700   6.886   1.031   3.316
 9267SOL    HW228701   6.990   1.113   3.220
 9268SOL     OW28702   0.018   0.372   0.677
 9268SOL    HW128703   0.038   0.281   0.643
 9268SOL    HW228704   0.103   0.425   0.685
 9269SOL     OW28705   3.613   6.534   1.345
 9269SOL    HW128706   3.589   6.576   1.257
 9269SOL    HW228707   3.537   6.545   1.409
 9270SOL     OW28708   1.734   0.885   5.638
 9270SOL    HW128709   1.776   0.893   5.729
 9270SOL    HW228710   1.681   0.968   5.619
 9271SOL     OW28711   0.995   5.365   5.695
 9271SOL    HW128712   1.051   5.401   5.620
 9271SOL    HW228713   0.973   5.439   5.758
 9272SOL     OW28714   6.368   6.711   6.005
 9272SOL    HW128715   6.293   6.763   5.963
 9272SOL    HW228716   6.336   6.667   6.088
 9273SOL     OW28717   6.193   3.934   3.358
 9273SOL    HW128718   6.181   3.848   3.408
 9273SOL    HW228719   6.258   3.991   3.408
 9274SOL     OW28720   6.881   2.867   1.878
 9274SOL    HW128721   6.941   2.944   1.900
 9274SOL    HW228722   6.797   2.901   1.836
 9275SOL     OW28723   4.636   1.750   0.439
 9275SOL    HW128724   4.730   1.715   0.427
 9275SOL    HW228725   4.584   1.735   0.355
 9276SOL     OW28726   1.322   3.884   0.836
 9276SOL    HW128727   1.370   3.951   0.779
 9276SOL    HW228728   1.271   3.822   0.777
 9277SOL     OW28729   3.238   5.873   2.920
 9277SOL    HW128730   3.191   5.874   2.831
 9277SOL    HW228731   3.215   5.956   2.970
 9278SOL     OW28732   1.362   6.536   4.732
 9278SOL    HW128733   1.289   6.520   4.799
 9278SOL    HW228734   1.449   6.507   4.771
 9279SOL     OW28735   4.012   5.696   2.196
 9279SOL    HW128736   4.100   5.726   2.160
 9279SOL    HW228737   3.948   5.683   2.120
 9280SOL     OW28738   1.343   4.365   1.896
 9280SOL    HW128739   1.414   4.416   1.943
 9280SOL    HW228740   1.279   4.326   1.963
 9281SOL     OW28741   1.275   5.758   0.559
 9281SOL    HW128742   1.353   5.705   0.594
 9281SOL    HW228743   1.233   5.709   0.483
 9282SOL     OW28744   1.859   0.703   3.763
 9282SOL    HW128745   1.930   0.741   3.822
 9282SOL    HW228746   1.894   0.694   3.670
 9283SOL     OW28747   5.499   5.045   6.601
 9283SOL    HW128748   5.578   5.081   6.551
 9283SOL    HW228749   5.529   5.013   6.691
 9284SOL     OW28750   3.946   6.291   1.324
 9284SOL    HW128751   3.890   6.271   1.404
 9284SOL    HW228752   3.907   6.245   1.244
 9285SOL     OW28753   6.720   5.877   3.238
 9285SOL    HW128754   6.786   5.802   3.238
 9285SOL    HW228755   6.641   5.852   3.294
 9286SOL     OW28756   5.282   5.919   1.763
 9286SOL    HW128757   5.205   5.892   1.821
 9286SOL    HW228758   5.367   5.884   1.802
 9287SOL     OW28759   4.541   4.393   0.312
 9287SOL    HW128760   4.557   4.489   0.337
 9287SOL    HW228761   4.623   4.356   0.268
 9288SOL     OW28762   3.383   0.886   3.403
 9288SOL    HW128763   3.297   0.883   3.454
 9288SOL    HW228764   3.389   0.973   3.354
 9289SOL     OW28765   4.399   5.969   2.524
 9289SOL    HW128766   4.437   6.054   2.560
 9289SOL    HW228767   4.303   5.984   2.497
 9290SOL     OW28768   5.541   0.249   3.690
 9290SOL    HW128769   5.604   0.296   3.752
 9290SOL    HW228770   5.520   0.158   3.726
 9291SOL     OW28771   0.425   5.143   5.547
 9291SOL    HW128772   0.478   5.083   5.607
 9291SOL    HW228773   0.362   5.198   5.602
 9292SOL     OW28774   2.077   1.740   0.207
 9292SOL    HW128775   2.009   1.668   0.217
 9292SOL    HW228776   2.165   1.708   0.239
 9293SOL     OW28777   3.785   1.472   6.236
 9293SOL    HW128778   3.789   1.378   6.201
 9293SOL    HW228779   3.874   1.516   6.222
 9294SOL     OW28780   5.365   6.694   6.281
 9294SOL    HW128781   5.377   6.744   6.367
 9294SOL    HW228782   5.380   6.596   6.298
 9295SOL     OW28783   6.158   0.567   3.123
 9295SOL    HW128784   6.207   0.532   3.203
 9295SOL    HW228785   6.212   0.551   3.041
 9296SOL     OW28786   2.145   2.939   5.798
 9296SOL    HW128787   2.110   3.003   5.867
 9296SOL    HW228788   2.220   2.982   5.748
 9297SOL     OW28789   6.875   5.357   1.900
 9297SOL    HW128790   6.897   5.329   1.993
 9297SOL    HW228791   6.884   5.456   1.891
 9298SOL     OW28792   6.513   4.369   0.223
 9298SOL    HW128793   6.586   4.392   0.157
 9298SOL    HW228794   6.449   4.305   0.180
 9299SOL     OW28795   3.840   2.163   4.085
 9299SOL    HW128796   3.837   2.173   4.185
 9299SOL    HW228797   3.756   2.119   4.054
 9300SOL     OW28798   2.621   6.126   5.909
 9300SOL    HW128799   2.665   6.117   5.999
 9300SOL    HW228800   2.676   6.079   5.841
 9301SOL     OW28801   0.131   3.609   3.978
 9301SOL    HW128802   0.062   3.680   3.992
 9301SOL    HW228803   0.210   3.628   4.035
 9302SOL     OW28804   3.271   5.911   3.808
 9302SOL    HW128805   3.312   5.891   3.897
 9302SOL    HW228806   3.265   6.010   3.795
 9303SOL     OW28807   2.923   4.061   0.265
 9303SOL    HW128808   2.835   4.063   0.218
 9303SOL    HW228809   2.987   4.122   0.219
 9304SOL     OW28810   5.803   5.804   6.817
 9304SOL    HW128811   5.900   5.819   6.794
 9304SOL    HW228812   5.780   5.857   6.899
 9305SOL     OW28813   2.392   1.745   0.690
 9305SOL    HW128814   2.426   1.794   0.770
 9305SOL    HW228815   2.376   1.809   0.616
 9306SOL     OW28816   6.465   6.405   3.165
 9306SOL    HW128817   6.370   6.373   3.174
 9306SOL    HW228818   6.467   6.485   3.105
 9307SOL     OW28819   1.892   3.789   1.054
 9307SOL    HW128820   1.850   3.699   1.050
 9307SOL    HW228821   1.933   3.803   1.145
 9308SOL     OW28822   2.490   3.184   0.908
 9308SOL    HW128823   2.479   3.233   0.994
 9308SOL    HW228824   2.553   3.108   0.920
 9309SOL     OW28825   3.362   5.328   6.253
 9309SOL    HW128826   3.281   5.269   6.256
 9309SOL    HW228827   3.379   5.364   6.345
 9310SOL     OW28828   6.155   6.863   5.932
 9310SOL    HW128829   6.113   6.954   5.923
 9310SOL    HW228830   6.164   6.823   5.841
 9311SOL     OW28831   5.218   4.344   0.342
 9311SOL    HW128832   5.274   4.318   0.264
 9311SOL    HW228833   5.159   4.421   0.316
 9312SOL     OW28834   6.479   3.283   4.312
 9312SOL    HW128835   6.430   3.244   4.391
 9312SOL    HW228836   6.418   3.346   4.264
 9313SOL     OW28837   0.447   0.304   2.025
 9313SOL    HW128838   0.427   0.388   1.975
 9313SOL    HW228839   0.377   0.236   2.004
 9314SOL     OW28840   5.754   4.630   1.846
 9314SOL    HW128841   5.757   4.718   1.797
 9314SOL    HW228842   5.828   4.627   1.913
 9315SOL     OW28843   5.341   5.370   5.049
 9315SOL    HW128844   5.328   5.465   5.018
 9315SOL    HW228845   5.280   5.352   5.126
 9316SOL     OW28846   5.492   6.096   6.825
 9316SOL    HW128847   5.435   6.173   6.854
 9316SOL    HW228848   5.496   6.028   6.898
 9317SOL     OW28849   2.684   6.840   2.867
 9317SOL    HW128850   2.668   6.924   2.919
 9317SOL    HW228851   2.631   6.765   2.907
 9318SOL     OW28852   3.468   0.514   3.517
 9318SOL    HW128853   3.394   0.448   3.524
 9318SOL    HW228854   3.543   0.476   3.463
 9319SOL     OW28855   4.185   2.460   0.701
 9319SOL    HW128856   4.214   2.509   0.783
 9319SOL    HW228857   4.205   2.362   0.711
 9320SOL     OW28858   6.482   0.224   6.868
 9320SOL    HW128859   6.545   0.161   6.823
 9320SOL    HW228860   6.439   0.178   6.946
 9321SOL     OW28861   1.608   2.669   4.085
 9321SOL    HW128862   1.612   2.734   4.160
 9321SOL    HW228863   1.520   2.677   4.038
 9322SOL     OW28864   5.467   3.594   0.747
 9322SOL    HW128865   5.389   3.639   0.705
 9322SOL    HW228866   5.550   3.614   0.695
 9323SOL     OW28867   0.286   2.798   5.066
 9323SOL    HW128868   0.293   2.842   5.155
 9323SOL    HW228869   0.368   2.818   5.012
 9324SOL     OW28870   1.081   3.995   1.441
 9324SOL    HW128871   1.047   3.928   1.375
 9324SOL    HW228872   1.143   3.950   1.505
 9325SOL     OW28873   0.268   3.706   3.072
 9325SOL    HW128874   0.223   3.630   3.025
 9325SOL    HW228875   0.230   3.793   3.040
 9326SOL     OW28876   3.759   4.774   1.113
 9326SOL    HW128877   3.683   4.810   1.168
 9326SOL    HW228878   3.781   4.840   1.041
 9327SOL     OW28879   2.048   1.850   2.955
 9327SOL    HW128880   2.123   1.886   2.900
 9327SOL    HW228881   2.010   1.769   2.909
 9328SOL     OW28882   0.718   0.020   3.551
 9328SOL    HW128883   0.710   0.066   3.640
 9328SOL    HW228884   0.789   6.968   3.556
 9329SOL     OW28885   1.511   4.967   6.238
 9329SOL    HW128886   1.545   4.873   6.233
 9329SOL    HW228887   1.411   4.965   6.244
 9330SOL     OW28888   0.647   5.953   0.832
 9330SOL    HW128889   0.645   5.995   0.741
 9330SOL    HW228890   0.640   6.023   0.902
 9331SOL     OW28891   2.504   5.411   5.185
 9331SOL    HW128892   2.499   5.322   5.230
 9331SOL    HW228893   2.578   5.411   5.117
 9332SOL     OW28894   6.433   6.086   0.513
 9332SOL    HW128895   6.510   6.027   0.489
 9332SOL    HW228896   6.353   6.061   0.458
 9333SOL     OW28897   0.929   5.799   1.106
 9333SOL    HW128898   0.954   5.793   1.203
 9333SOL    HW228899   0.830   5.811   1.099
 9334SOL     OW28900   6.755   6.431   0.498
 9334SOL    HW128901   6.701   6.450   0.579
 9334SOL    HW228902   6.770   6.516   0.447
 9335SOL     OW28903   0.061   3.393   1.231
 9335SOL    HW128904   7.016   3.316   1.237
 9335SOL    HW228905   0.040   3.448   1.150
 9336SOL     OW28906   4.668   5.652   5.707
 9336SOL    HW128907   4.591   5.611   5.657
 9336SOL    HW228908   4.637   5.734   5.754
 9337SOL     OW28909   3.091   1.824   4.864
 9337SOL    HW128910   3.042   1.801   4.779
 9337SOL    HW228911   3.033   1.884   4.920
 9338SOL     OW28912   4.181   0.334   1.951
 9338SOL    HW128913   4.271   0.293   1.970
 9338SOL    HW228914   4.176   0.425   1.993
 9339SOL     OW28915   0.189   3.587   4.799
 9339SOL    HW128916   0.197   3.533   4.883
 9339SOL    HW228917   0.280   3.599   4.758
 9340SOL     OW28918   3.075   4.824   2.124
 9340SOL    HW128919   3.029   4.743   2.089
 9340SOL    HW228920   3.132   4.864   2.053
 9341SOL     OW28921   4.865   5.798   1.522
 9341SOL    HW128922   4.867   5.811   1.621
 9341SOL    HW228923   4.882   5.702   1.501
 9342SOL     OW28924   2.715   0.739   4.720
 9342SOL    HW128925   2.716   0.730   4.620
 9342SOL    HW228926   2.621   0.747   4.752
 9343SOL     OW28927   5.737   3.804   0.885
 9343SOL    HW128928   5.639   3.791   0.866
 9343SOL    HW228929   5.765   3.895   0.853
 9344SOL     OW28930   5.201   6.469   5.014
 9344SOL    HW128931   5.249   6.393   4.970
 9344SOL    HW228932   5.237   6.556   4.981
 9345SOL     OW28933   6.893   4.995   6.547
 9345SOL    HW128934   6.871   4.901   6.519
 9345SOL    HW228935   6.973   4.994   6.606
 9346SOL     OW28936   4.888   0.856   2.540
 9346SOL    HW128937   4.932   0.829   2.625
 9346SOL    HW228938   4.792   0.828   2.542
 9347SOL     OW28939   4.949   6.616   2.657
 9347SOL    HW128940   4.873   6.664   2.614
 9347SOL    HW228941   4.914   6.540   2.711
 9348SOL     OW28942   2.530   5.096   2.110
 9348SOL    HW128943   2.602   5.131   2.049
 9348SOL    HW228944   2.467   5.040   2.057
 9349SOL     OW28945   0.698   4.575   1.313
 9349SOL    HW128946   0.696   4.503   1.382
 9349SOL    HW228947   0.724   4.661   1.355
 9350SOL     OW28948   6.576   0.899   6.927
 9350SOL    HW128949   6.629   0.818   6.900
 9350SOL    HW228950   6.501   0.913   6.863
 9351SOL     OW28951   4.284   3.955   6.244
 9351SOL    HW128952   4.253   4.038   6.290
 9351SOL    HW228953   4.205   3.905   6.207
 9352SOL     OW28954   2.624   1.627   0.138
 9352SOL    HW128955   2.532   1.616   0.176
 9352SOL    HW228956   2.629   1.712   0.086
 9353SOL     OW28957   1.207   3.010   2.251
 9353SOL    HW128958   1.307   3.017   2.257
 9353SOL    HW228959   1.179   3.011   2.155
 9354SOL     OW28960   5.851   2.041   2.431
 9354SOL    HW128961   5.885   2.075   2.343
 9354SOL    HW228962   5.916   2.065   2.503
 9355SOL     OW28963   0.534   2.117   1.943
 9355SOL    HW128964   0.596   2.095   1.868
 9355SOL    HW228965   0.567   2.074   2.028
 9356SOL     OW28966   4.566   2.513   1.935
 9356SOL    HW128967   4.618   2.434   1.968
 9356SOL    HW228968   4.628   2.579   1.894
 9357SOL     OW28969   1.992   4.087   6.755
 9357SOL    HW128970   1.924   4.060   6.823
 9357SOL    HW228971   2.080   4.101   6.800
 9358SOL     OW28972   5.520   4.820   3.447
 9358SOL    HW128973   5.434   4.782   3.412
 9358SOL    HW228974   5.571   4.862   3.372
 9359SOL     OW28975   4.013   5.447   5.360
 9359SOL    HW128976   3.989   5.381   5.289
 9359SOL    HW228977   3.940   5.449   5.429
 9360SOL     OW28978   0.576   0.246   5.664
 9360SOL    HW128979   0.493   0.277   5.617
 9360SOL    HW228980   0.635   0.198   5.599
 9361SOL     OW28981   1.220   1.374   2.468
 9361SOL    HW128982   1.269   1.322   2.538
 9361SOL    HW228983   1.260   1.465   2.461
 9362SOL     OW28984   1.385   1.490   2.911
 9362SOL    HW128985   1.339   1.577   2.928
 9362SOL    HW228986   1.408   1.447   2.999
 9363SOL     OW28987   1.059   6.588   2.137
 9363SOL    HW128988   0.979   6.534   2.109
 9363SOL    HW228989   1.128   6.526   2.175
 9364SOL     OW28990   5.873   4.023   0.763
 9364SOL    HW128991   5.848   4.114   0.730
 9364SOL    HW228992   5.880   3.960   0.685
 9365SOL     OW28993   2.799   1.162   4.489
 9365SOL    HW128994   2.804   1.205   4.579
 9365SOL    HW228995   2.743   1.218   4.428
 9366SOL     OW28996   2.572   1.524   0.645
 9366SOL    HW128997   2.502   1.594   0.658
 9366SOL    HW228998   2.646   1.561   0.589
 9367SOL     OW28999   5.414   6.456   4.695
 9367SOL    HW129000   5.437   6.549   4.726
 9367SOL    HW229001   5.317   6.451   4.674
 9368SOL     OW29002   5.448   3.121   1.368
 9368SOL    HW129003   5.498   3.065   1.434
 9368SOL    HW229004   5.385   3.064   1.316
 9369SOL     OW29005   0.337   2.585   5.508
 9369SOL    HW129006   0.349   2.642   5.589
 9369SOL    HW229007   0.414   2.522   5.500
 9370SOL     OW29008   5.772   5.601   2.014
 9370SOL    HW129009   5.808   5.529   2.072
 9370SOL    HW229010   5.676   5.582   1.993
 9371SOL     OW29011   2.111   0.204   0.981
 9371SOL    HW129012   2.040   0.275   0.978
 9371SOL    HW229013   2.132   0.174   0.889
 9372SOL     OW29014   5.145   5.581   0.567
 9372SOL    HW129015   5.108   5.670   0.539
 9372SOL    HW229016   5.206   5.546   0.495
 9373SOL     OW29017   4.862   2.913   4.774
 9373SOL    HW129018   4.892   2.905   4.680
 9373SOL    HW229019   4.782   2.855   4.789
 9374SOL     OW29020   4.940   3.864   6.982
 9374SOL    HW129021   4.948   3.948   0.017
 9374SOL    HW229022   4.910   3.887   6.889
 9375SOL     OW29023   6.467   6.624   3.901
 9375SOL    HW129024   6.495   6.537   3.861
 9375SOL    HW229025   6.378   6.651   3.863
 9376SOL     OW29026   2.708   3.396   1.794
 9376SOL    HW129027   2.771   3.418   1.868
 9376SOL    HW229028   2.635   3.465   1.790
 9377SOL     OW29029   0.040   4.255   3.732
 9377SOL    HW129030   0.024   4.164   3.772
 9377SOL    HW229031   7.018   4.258   3.641
 9378SOL     OW29032   4.139   6.064   1.544
 9378SOL    HW129033   4.237   6.078   1.552
 9378SOL    HW229034   4.115   6.043   1.449
 9379SOL     OW29035   4.395   4.784   5.095
 9379SOL    HW129036   4.390   4.693   5.055
 9379SOL    HW229037   4.360   4.851   5.030
 9380SOL     OW29038   6.971   5.765   5.384
 9380SOL    HW129039   6.926   5.677   5.392
 9380SOL    HW229040   0.051   5.754   5.399
 9381SOL     OW29041   0.614   0.983   0.072
 9381SOL    HW129042   0.678   1.059   0.078
 9381SOL    HW229043   0.628   0.934   7.005
 9382SOL     OW29044   5.983   2.083   2.209
 9382SOL    HW129045   6.005   1.990   2.180
 9382SOL    HW229046   6.056   2.146   2.182
 9383SOL     OW29047   6.875   5.660   6.862
 9383SOL    HW129048   6.846   5.640   6.956
 9383SOL    HW229049   6.819   5.608   6.798
 9384SOL     OW29050   3.386   0.009   2.409
 9384SOL    HW129051   3.349   0.027   2.318
 9384SOL    HW229052   3.373   0.090   2.466
 9385SOL     OW29053   4.345   6.555   3.408
 9385SOL    HW129054   4.397   6.514   3.483
 9385SOL    HW229055   4.326   6.651   3.429
 9386SOL     OW29056   3.288   6.624   4.990
 9386SOL    HW129057   3.295   6.528   5.016
 9386SOL    HW229058   3.365   6.648   4.930
 9387SOL     OW29059   4.774   5.887   0.701
 9387SOL    HW129060   4.795   5.804   0.752
 9387SOL    HW229061   4.686   5.923   0.730
 9388SOL     OW29062   6.555   0.145   1.366
 9388SOL    HW129063   6.588   0.065   1.316
 9388SOL    HW229064   6.603   0.151   1.453
 9389SOL     OW29065   3.263   1.184   1.317
 9389SOL    HW129066   3.178   1.133   1.315
 9389SOL    HW229067   3.245   1.281   1.302
 9390SOL     OW29068   3.579   6.552   0.764
 9390SOL    HW129069   3.492   6.601   0.759
 9390SOL    HW229070   3.613   6.534   0.672
 9391SOL     OW29071   5.602   0.393   3.989
 9391SOL    HW129072   5.627   0.315   4.046
 9391SOL    HW229073   5.507   0.419   4.007
 9392SOL     OW29074   0.868   0.255   5.041
 9392SOL    HW129075   0.957   0.214   5.024
 9392SOL    HW229076   0.796   0.196   5.004
 9393SOL     OW29077   4.825   1.530   5.313
 9393SOL    HW129078   4.827   1.445   5.365
 9393SOL    HW229079   4.917   1.569   5.307
 9394SOL     OW29080   6.206   1.394   2.322
 9394SOL    HW129081   6.242   1.322   2.381
 9394SOL    HW229082   6.161   1.353   2.243
 9395SOL     OW29083   1.693   2.906   0.045
 9395SOL    HW129084   1.709   2.991   0.096
 9395SOL    HW229085   1.711   2.828   0.105
 9396SOL     OW29086   0.355   1.268   5.301
 9396SOL    HW129087   0.311   1.195   5.249
 9396SOL    HW229088   0.453   1.249   5.308
 9397SOL     OW29089   1.692   2.214   0.958
 9397SOL    HW129090   1.759   2.140   0.968
 9397SOL    HW229091   1.602   2.181   0.987
 9398SOL     OW29092   2.299   2.116   1.161
 9398SOL    HW129093   2.381   2.058   1.169
 9398SOL    HW229094   2.266   2.114   1.067
 9399SOL     OW29095   0.077   0.783   5.469
 9399SOL    HW129096   0.024   0.851   5.418
 9399SOL    HW229097   0.175   0.801   5.457
 9400SOL     OW29098   4.165   1.475   3.944
 9400SOL    HW129099   4.081   1.522   3.971
 9400SOL    HW229100   4.231   1.478   4.019
 9401SOL     OW29101   4.253   6.822   3.817
 9401SOL    HW129102   4.219   6.840   3.725
 9401SOL    HW229103   4.175   6.812   3.879
 9402SOL     OW29104   2.282   4.586   6.364
 9402SOL    HW129105   2.352   4.656   6.374
 9402SOL    HW229106   2.195   4.630   6.340
 9403SOL     OW29107   6.321   0.257   3.552
 9403SOL    HW129108   6.300   0.338   3.606
 9403SOL    HW229109   6.354   0.185   3.612
 9404SOL     OW29110   1.992   4.516   4.876
 9404SOL    HW129111   2.092   4.527   4.872
 9404SOL    HW229112   1.965   4.497   4.971
 9405SOL     OW29113   0.263   0.544   1.018
 9405SOL    HW129114   0.250   0.514   0.924
 9405SOL    HW229115   0.215   0.631   1.033
 9406SOL     OW29116   6.597   1.813   4.859
 9406SOL    HW129117   6.592   1.829   4.957
 9406SOL    HW229118   6.663   1.740   4.840
 9407SOL     OW29119   3.332   5.481   3.714
 9407SOL    HW129120   3.425   5.468   3.751
 9407SOL    HW229121   3.328   5.446   3.621
 9408SOL     OW29122   3.584   1.673   0.091
 9408SOL    HW129123   3.545   1.680   7.017
 9408SOL    HW229124   3.679   1.643   0.084
 9409SOL     OW29125   6.311   4.047   3.611
 9409SOL    HW129126   6.322   3.953   3.642
 9409SOL    HW229127   6.398   4.096   3.619
 9410SOL     OW29128   4.234   6.876   2.313
 9410SOL    HW129129   4.143   6.917   2.313
 9410SOL    HW229130   4.239   6.806   2.242
 9411SOL     OW29131   5.113   4.451   2.389
 9411SOL    HW129132   5.204   4.487   2.414
 9411SOL    HW229133   5.115   4.351   2.393
 9412SOL     OW29134   6.912   1.871   3.350
 9412SOL    HW129135   6.878   1.807   3.419
 9412SOL    HW229136   7.011   1.860   3.340
 9413SOL     OW29137   4.378   5.715   3.726
 9413SOL    HW129138   4.441   5.779   3.681
 9413SOL    HW229139   4.429   5.635   3.758
 9414SOL     OW29140   2.430   0.234   2.051
 9414SOL    HW129141   2.459   0.166   1.983
 9414SOL    HW229142   2.490   0.314   2.046
 9415SOL     OW29143   1.212   0.018   2.154
 9415SOL    HW129144   1.155   0.095   2.184
 9415SOL    HW229145   1.156   6.953   2.150
 9416SOL     OW29146   1.490   1.769   1.431
 9416SOL    HW129147   1.417   1.837   1.425
 9416SOL    HW229148   1.505   1.744   1.527
 9417SOL     OW29149   1.047   0.419   4.346
 9417SOL    HW129150   1.032   0.325   4.376
 9417SOL    HW229151   1.139   0.428   4.307
 9418SOL     OW29152   4.332   4.327   0.564
 9418SOL    HW129153   4.388   4.375   0.497
 9418SOL    HW229154   4.336   4.229   0.548
 9419SOL     OW29155   2.477   5.851   3.812
 9419SOL    HW129156   2.556   5.795   3.788
 9419SOL    HW229157   2.471   5.860   3.911
 9420SOL     OW29158   1.182   0.514   2.753
 9420SOL    HW129159   1.192   0.481   2.847
 9420SOL    HW229160   1.264   0.565   2.726
 9421SOL     OW29161   1.677   4.350   5.483
 9421SOL    HW129162   1.704   4.255   5.465
 9421SOL    HW229163   1.624   4.385   5.406
 9422SOL     OW29164   3.793   1.181   3.111
 9422SOL    HW129165   3.855   1.161   3.036
 9422SOL    HW229166   3.700   1.151   3.087
 9423SOL     OW29167   4.551   0.529   5.201
 9423SOL    HW129168   4.478   0.468   5.172
 9423SOL    HW229169   4.531   0.565   5.292
 9424SOL     OW29170   2.794   5.495   3.274
 9424SOL    HW129171   2.832   5.529   3.360
 9424SOL    HW229172   2.719   5.555   3.245
 9425SOL     OW29173   0.184   5.860   2.252
 9425SOL    HW129174   0.224   5.801   2.182
 9425SOL    HW229175   0.161   5.805   2.333
 9426SOL     OW29176   3.449   5.860   0.917
 9426SOL    HW129177   3.369   5.908   0.880
 9426SOL    HW229178   3.425   5.765   0.937
 9427SOL     OW29179   2.768   5.257   4.480
 9427SOL    HW129180   2.862   5.233   4.503
 9427SOL    HW229181   2.708   5.236   4.557
 9428SOL     OW29182   4.506   6.275   2.298
 9428SOL    HW129183   4.474   6.302   2.388
 9428SOL    HW229184   4.474   6.340   2.229
 9429SOL     OW29185   0.509   3.586   3.055
 9429SOL    HW129186   0.433   3.649   3.070
 9429SOL    HW229187   0.485   3.521   2.983
 9430SOL     OW29188   6.480   6.538   1.779
 9430SOL    HW129189   6.504   6.635   1.785
 9430SOL    HW229190   6.388   6.529   1.742
 9431SOL     OW29191   6.309   4.495   0.582
 9431SOL    HW129192   6.381   4.510   0.515
 9431SOL    HW229193   6.324   4.553   0.662
 9432SOL     OW29194   6.335   6.485   3.537
 9432SOL    HW129195   6.327   6.517   3.443
 9432SOL    HW229196   6.393   6.548   3.589
 9433SOL     OW29197   2.440   5.398   4.611
 9433SOL    HW129198   2.397   5.311   4.583
 9433SOL    HW229199   2.403   5.472   4.556
 9434SOL     OW29200   6.128   4.682   3.676
 9434SOL    HW129201   6.075   4.609   3.635
 9434SOL    HW229202   6.074   4.766   3.678
 9435SOL     OW29203   2.743   2.461   6.244
 9435SOL    HW129204   2.761   2.366   6.218
 9435SOL    HW229205   2.814   2.520   6.205
 9436SOL     OW29206   3.651   2.224   5.302
 9436SOL    HW129207   3.600   2.180   5.376
 9436SOL    HW229208   3.589   2.243   5.225
 9437SOL     OW29209   0.557   5.903   4.461
 9437SOL    HW129210   0.591   5.957   4.538
 9437SOL    HW229211   0.615   5.919   4.381
 9438SOL     OW29212   0.324   6.469   1.749
 9438SOL    HW129213   0.329   6.392   1.686
 9438SOL    HW229214   0.228   6.489   1.771
 9439SOL     OW29215   1.630   2.898   1.923
 9439SOL    HW129216   1.710   2.948   1.957
 9439SOL    HW229217   1.656   2.842   1.844
 9440SOL     OW29218   3.239   6.385   3.535
 9440SOL    HW129219   3.255   6.481   3.516
 9440SOL    HW229220   3.290   6.329   3.470
 9441SOL     OW29221   1.076   5.465   6.018
 9441SOL    HW129222   1.063   5.517   5.933
 9441SOL    HW229223   0.989   5.460   6.067
 9442SOL     OW29224   1.083   2.181   1.044
 9442SOL    HW129225   1.067   2.109   0.977
 9442SOL    HW229226   1.121   2.141   1.128
 9443SOL     OW29227   1.207   1.922   0.774
 9443SOL    HW129228   1.117   1.928   0.817
 9443SOL    HW229229   1.261   1.852   0.820
 9444SOL     OW29230   1.118   3.894   5.002
 9444SOL    HW129231   1.069   3.907   5.089
 9444SOL    HW229232   1.208   3.937   5.009
 9445SOL     OW29233   5.568   1.807   2.033
 9445SOL    HW129234   5.514   1.888   2.007
 9445SOL    HW229235   5.600   1.818   2.127
 9446SOL     OW29236   5.171   4.934   0.421
 9446SOL    HW129237   5.158   4.915   0.518
 9446SOL    HW229238   5.264   4.908   0.394
 9447SOL     OW29239   5.540   0.896   1.435
 9447SOL    HW129240   5.494   0.878   1.522
 9447SOL    HW229241   5.619   0.836   1.426
 9448SOL     OW29242   6.197   6.696   0.533
 9448SOL    HW129243   6.261   6.706   0.457
 9448SOL    HW229244   6.236   6.634   0.601
 9449SOL     OW29245   5.715   5.466   4.801
 9449SOL    HW129246   5.790   5.416   4.758
 9449SOL    HW229247   5.738   5.563   4.805
 9450SOL     OW29248   1.931   6.134   3.844
 9450SOL    HW129249   1.872   6.192   3.900
 9450SOL    HW229250   1.953   6.050   3.895
 9451SOL     OW29251   4.145   3.470   4.727
 9451SOL    HW129252   4.109   3.519   4.648
 9451SOL    HW229253   4.225   3.416   4.701
 9452SOL     OW29254   4.042   4.744   0.418
 9452SOL    HW129255   4.082   4.665   0.464
 9452SOL    HW229256   3.948   4.722   0.391
 9453SOL     OW29257   3.321   6.400   1.233
 9453SOL    HW129258   3.414   6.361   1.230
 9453SOL    HW229259   3.322   6.492   1.196
 9454SOL     OW29260   2.402   1.727   5.682
 9454SOL    HW129261   2.378   1.815   5.641
 9454SOL    HW229262   2.359   1.653   5.630
 9455SOL     OW29263   1.893   2.143   1.670
 9455SOL    HW129264   1.983   2.105   1.691
 9455SOL    HW229265   1.901   2.242   1.660
 9456SOL     OW29266   1.264   3.016   0.348
 9456SOL    HW129267   1.224   3.097   0.392
 9456SOL    HW229268   1.354   2.998   0.387
 9457SOL     OW29269   5.983   3.629   0.301
 9457SOL    HW129270   5.894   3.673   0.290
 9457SOL    HW229271   5.973   3.546   0.356
 9458SOL     OW29272   1.110   5.802   4.211
 9458SOL    HW129273   1.146   5.825   4.301
 9458SOL    HW229274   1.129   5.877   4.147
 9459SOL     OW29275   3.867   6.140   0.463
 9459SOL    HW129276   3.902   6.190   0.542
 9459SOL    HW229277   3.924   6.060   0.446
 9460SOL     OW29278   1.643   3.639   5.311
 9460SOL    HW129279   1.676   3.733   5.315
 9460SOL    HW229280   1.645   3.599   5.402
 9461SOL     OW29281   1.598   0.525   2.422
 9461SOL    HW129282   1.518   0.465   2.421
 9461SOL    HW229283   1.616   0.555   2.516
 9462SOL     OW29284   0.508   3.267   3.598
 9462SOL    HW129285   0.529   3.247   3.694
 9462SOL    HW229286   0.584   3.316   3.557
 9463SOL     OW29287   4.918   2.059   6.167
 9463SOL    HW129288   4.870   2.141   6.199
 9463SOL    HW229289   4.856   2.005   6.110
 9464SOL     OW29290   3.951   6.691   6.227
 9464SOL    HW129291   4.004   6.772   6.255
 9464SOL    HW229292   3.863   6.721   6.191
 9465SOL     OW29293   4.318   6.439   4.114
 9465SOL    HW129294   4.413   6.416   4.093
 9465SOL    HW229295   4.268   6.357   4.142
 9466SOL     OW29296   3.423   1.858   6.742
 9466SOL    HW129297   3.441   1.838   6.646
 9466SOL    HW229298   3.484   1.931   6.773
 9467SOL     OW29299   1.187   3.107   2.511
 9467SOL    HW129300   1.212   3.053   2.431
 9467SOL    HW229301   1.253   3.181   2.524
 9468SOL     OW29302   0.169   2.663   6.304
 9468SOL    HW129303   0.211   2.581   6.263
 9468SOL    HW229304   0.092   2.692   6.248
 9469SOL     OW29305   0.345   4.397   2.480
 9469SOL    HW129306   0.281   4.333   2.520
 9469SOL    HW229307   0.425   4.406   2.539
 9470SOL     OW29308   6.376   3.782   1.861
 9470SOL    HW129309   6.288   3.829   1.855
 9470SOL    HW229310   6.365   3.694   1.907
 9471SOL     OW29311   7.017   2.589   5.682
 9471SOL    HW129312   0.004   2.489   5.679
 9471SOL    HW229313   0.021   2.626   5.592
 9472SOL     OW29314   6.462   2.191   5.163
 9472SOL    HW129315   6.523   2.124   5.205
 9472SOL    HW229316   6.409   2.237   5.234
 9473SOL     OW29317   3.067   4.734   6.015
 9473SOL    HW129318   3.098   4.643   6.040
 9473SOL    HW229319   3.128   4.774   5.947
 9474SOL     OW29320   3.907   5.619   4.122
 9474SOL    HW129321   3.913   5.719   4.118
 9474SOL    HW229322   3.968   5.585   4.193
 9475SOL     OW29323   2.633   3.330   1.458
 9475SOL    HW129324   2.730   3.344   1.475
 9475SOL    HW229325   2.585   3.317   1.544
 9476SOL     OW29326   2.465   3.438   5.821
 9476SOL    HW129327   2.456   3.347   5.861
 9476SOL    HW229328   2.418   3.440   5.732
 9477SOL     OW29329   1.075   2.398   0.563
 9477SOL    HW129330   1.145   2.453   0.609
 9477SOL    HW229331   1.068   2.427   0.468
 9478SOL     OW29332   5.797   3.754   6.762
 9478SOL    HW129333   5.756   3.791   6.845
 9478SOL    HW229334   5.848   3.827   6.715
 9479SOL     OW29335   5.550   4.763   4.773
 9479SOL    HW129336   5.568   4.725   4.864
 9479SOL    HW229337   5.578   4.859   4.772
 9480SOL     OW29338   0.074   3.615   6.095
 9480SOL    HW129339   7.005   3.633   6.141
 9480SOL    HW229340   0.111   3.528   6.126
 9481SOL     OW29341   0.864   2.630   3.560
 9481SOL    HW129342   0.895   2.577   3.481
 9481SOL    HW229343   0.768   2.609   3.578
 9482SOL     OW29344   4.290   1.422   2.022
 9482SOL    HW129345   4.242   1.510   2.020
 9482SOL    HW229346   4.226   1.350   2.048
 9483SOL     OW29347   1.924   0.916   0.657
 9483SOL    HW129348   1.933   0.822   0.688
 9483SOL    HW229349   1.947   0.922   0.560
 9484SOL     OW29350   6.377   0.132   3.198
 9484SOL    HW129351   6.440   0.096   3.267
 9484SOL    HW229352   6.285   0.138   3.237
 9485SOL     OW29353   0.232   6.885   3.123
 9485SOL    HW129354   0.273   6.809   3.073
 9485SOL    HW229355   0.304   6.944   3.160
 9486SOL     OW29356   3.016   0.172   2.120
 9486SOL    HW129357   3.029   0.077   2.150
 9486SOL    HW229358   3.000   0.230   2.200
 9487SOL     OW29359   3.436   2.877   3.216
 9487SOL    HW129360   3.512   2.887   3.151
 9487SOL    HW229361   3.359   2.832   3.171
 9488SOL     OW29362   1.903   0.399   1.735
 9488SOL    HW129363   1.988   0.369   1.778
 9488SOL    HW229364   1.900   0.498   1.732
 9489SOL     OW29365   2.959   5.036   0.733
 9489SOL    HW129366   2.918   4.981   0.806
 9489SOL    HW229367   2.961   4.984   0.648
 9490SOL     OW29368   4.803   1.567   0.333
 9490SOL    HW129369   4.890   1.610   0.313
 9490SOL    HW229370   4.814   1.504   0.410
 9491SOL     OW29371   5.969   6.253   6.253
 9491SOL    HW129372   6.062   6.222   6.232
 9491SOL    HW229373   5.932   6.199   6.329
 9492SOL     OW29374   2.391   5.915   1.037
 9492SOL    HW129375   2.416   5.832   0.988
 9492SOL    HW229376   2.302   5.904   1.081
 9493SOL     OW29377   4.965   5.869   2.373
 9493SOL    HW129378   4.889   5.925   2.407
 9493SOL    HW229379   5.026   5.847   2.450
 9494SOL     OW29380   3.535   3.073   6.461
 9494SOL    HW129381   3.601   3.127   6.512
 9494SOL    HW229382   3.578   3.035   6.379
 9495SOL     OW29383   5.400   2.731   4.317
 9495SOL    HW129384   5.432   2.818   4.355
 9495SOL    HW229385   5.461   2.657   4.346
 9496SOL     OW29386   6.770   4.220   6.775
 9496SOL    HW129387   6.811   4.296   6.825
 9496SOL    HW229388   6.677   4.204   6.808
 9497SOL     OW29389   1.196   6.270   6.220
 9497SOL    HW129390   1.227   6.348   6.274
 9497SOL    HW229391   1.232   6.278   6.127
 9498SOL     OW29392   4.486   6.474   6.487
 9498SOL    HW129393   4.435   6.449   6.404
 9498SOL    HW229394   4.455   6.563   6.520
 9499SOL     OW29395   4.691   4.222   5.650
 9499SOL    HW129396   4.617   4.254   5.591
 9499SOL    HW229397   4.657   4.211   5.743
 9500SOL     OW29398   4.221   5.958   0.482
 9500SOL    HW129399   4.131   5.925   0.453
 9500SOL    HW229400   4.292   5.897   0.447
 9501SOL     OW29401   3.330   1.942   5.055
 9501SOL    HW129402   3.232   1.957   5.059
 9501SOL    HW229403   3.352   1.886   4.975
 9502SOL     OW29404   3.698   3.168   6.093
 9502SOL    HW129405   3.689   3.249   6.151
 9502SOL    HW229406   3.650   3.183   6.007
 9503SOL     OW29407   1.024   6.570   1.326
 9503SOL    HW129408   1.042   6.667   1.341
 9503SOL    HW229409   0.940   6.559   1.274
 9504SOL     OW29410   0.096   3.221   0.632
 9504SOL    HW129411   0.135   3.129   0.632
 9504SOL    HW229412   0.140   3.276   0.562
 9505SOL     OW29413   4.833   3.147   3.283
 9505SOL    HW129414   4.868   3.241   3.282
 9505SOL    HW229415   4.825   3.114   3.189
 9506SOL     OW29416   6.493   2.384   1.137
 9506SOL    HW129417   6.538   2.332   1.210
 9506SOL    HW229418   6.562   2.432   1.083
 9507SOL     OW29419   1.407   3.302   5.616
 9507SOL    HW129420   1.366   3.276   5.529
 9507SOL    HW229421   1.468   3.229   5.648
 9508SOL     OW29422   4.244   1.223   5.091
 9508SOL    HW129423   4.208   1.243   5.182
 9508SOL    HW229424   4.179   1.253   5.022
 9509SOL     OW29425   3.536   6.877   5.940
 9509SOL    HW129426   3.498   6.903   6.029
 9509SOL    HW229427   3.529   6.955   5.878
 9510SOL     OW29428   6.693   4.470   2.988
 9510SOL    HW129429   6.740   4.446   2.903
 9510SOL    HW229430   6.690   4.390   3.048
 9511SOL     OW29431   2.025   1.982   1.388
 9511SOL    HW129432   2.061   2.018   1.474
 9511SOL    HW229433   1.970   1.901   1.406
 9512SOL     OW29434   1.916   3.702   5.425
 9512SOL    HW129435   1.898   3.784   5.480
 9512SOL    HW229436   1.940   3.626   5.485
 9513SOL     OW29437   2.759   4.905   4.088
 9513SOL    HW129438   2.685   4.947   4.035
 9513SOL    HW229439   2.833   4.879   4.026
 9514SOL     OW29440   2.886   3.000   5.478
 9514SOL    HW129441   2.875   2.984   5.576
 9514SOL    HW229442   2.960   2.942   5.443
 9515SOL     OW29443   1.815   5.720   5.810
 9515SOL    HW129444   1.773   5.752   5.895
 9515SOL    HW229445   1.744   5.700   5.743
 9516SOL     OW29446   6.246   4.347   4.666
 9516SOL    HW129447   6.307   4.317   4.593
 9516SOL    HW229448   6.295   4.410   4.727
 9517SOL     OW29449   0.345   5.254   2.550
 9517SOL    HW129450   0.319   5.324   2.617
 9517SOL    HW229451   0.299   5.168   2.572
 9518SOL     OW29452   0.886   3.171   5.122
 9518SOL    HW129453   0.880   3.244   5.054
 9518SOL    HW229454   0.901   3.210   5.212
 9519SOL     OW29455   3.339   3.704   3.319
 9519SOL    HW129456   3.415   3.724   3.382
 9519SOL    HW229457   3.372   3.642   3.247
 9520SOL     OW29458   4.906   1.314   6.021
 9520SOL    HW129459   4.892   1.270   5.932
 9520SOL    HW229460   4.818   1.345   6.057
 9521SOL     OW29461   3.930   1.380   1.483
 9521SOL    HW129462   3.887   1.457   1.437
 9521SOL    HW229463   3.961   1.408   1.574
 9522SOL     OW29464   3.915   6.760   1.273
 9522SOL    HW129465   3.873   6.788   1.186
 9522SOL    HW229466   3.986   6.826   1.298
 9523SOL     OW29467   2.661   4.685   4.745
 9523SOL    HW129468   2.593   4.612   4.743
 9523SOL    HW229469   2.714   4.680   4.830
 9524SOL     OW29470   1.677   3.640   0.236
 9524SOL    HW129471   1.696   3.643   0.138
 9524SOL    HW229472   1.651   3.547   0.262
 9525SOL     OW29473   2.683   2.689   6.678
 9525SOL    HW129474   2.767   2.665   6.629
 9525SOL    HW229475   2.659   2.784   6.658
 9526SOL     OW29476   5.430   4.547   6.055
 9526SOL    HW129477   5.509   4.488   6.044
 9526SOL    HW229478   5.347   4.497   6.032
 9527SOL     OW29479   4.104   5.957   4.557
 9527SOL    HW129480   4.008   5.930   4.558
 9527SOL    HW229481   4.159   5.883   4.518
 9528SOL     OW29482   4.859   2.242   1.130
 9528SOL    HW129483   4.898   2.187   1.204
 9528SOL    HW229484   4.772   2.202   1.102
 9529SOL     OW29485   6.236   0.084   1.906
 9529SOL    HW129486   6.203   0.111   1.816
 9529SOL    HW229487   6.220   0.158   1.972
 9530SOL     OW29488   0.928   6.000   3.589
 9530SOL    HW129489   0.900   6.074   3.528
 9530SOL    HW229490   0.887   6.014   3.679
 9531SOL     OW29491   3.799   6.426   1.614
 9531SOL    HW129492   3.778   6.354   1.548
 9531SOL    HW229493   3.760   6.513   1.582
 9532SOL     OW29494   6.895   5.172   4.739
 9532SOL    HW129495   6.867   5.078   4.717
 9532SOL    HW229496   6.832   5.237   4.697
 9533SOL     OW29497   1.206   4.022   3.736
 9533SOL    HW129498   1.230   3.977   3.822
 9533SOL    HW229499   1.219   3.957   3.661
 9534SOL     OW29500   5.105   5.849   4.385
 9534SOL    HW129501   5.086   5.887   4.295
 9534SOL    HW229502   5.151   5.917   4.442
 9535SOL     OW29503   0.136   1.705   3.920
 9535SOL    HW129504   0.222   1.654   3.917
 9535SOL    HW229505   0.076   1.673   3.847
 9536SOL     OW29506   3.356   3.694   5.447
 9536SOL    HW129507   3.434   3.644   5.409
 9536SOL    HW229508   3.285   3.629   5.475
 9537SOL     OW29509   0.131   0.618   4.150
 9537SOL    HW129510   0.056   0.654   4.205
 9537SOL    HW229511   0.160   0.529   4.185
 9538SOL     OW29512   5.466   0.826   4.874
 9538SOL    HW129513   5.423   0.915   4.859
 9538SOL    HW229514   5.412   0.774   4.940
 9539SOL     OW29515   4.056   3.732   2.136
 9539SOL    HW129516   4.149   3.768   2.143
 9539SOL    HW229517   4.053   3.639   2.172
 9540SOL     OW29518   4.215   4.933   3.034
 9540SOL    HW129519   4.117   4.948   3.048
 9540SOL    HW229520   4.248   4.864   3.098
 9541SOL     OW29521   1.634   5.660   5.620
 9541SOL    HW129522   1.565   5.721   5.661
 9541SOL    HW229523   1.594   5.614   5.541
 9542SOL     OW29524   6.314   3.911   3.104
 9542SOL    HW129525   6.262   3.964   3.038
 9542SOL    HW229526   6.286   3.936   3.197
 9543SOL     OW29527   2.295   0.630   5.692
 9543SOL    HW129528   2.384   0.673   5.702
 9543SOL    HW229529   2.307   0.531   5.678
 9544SOL     OW29530   6.114   3.199   4.502
 9544SOL    HW129531   6.194   3.239   4.546
 9544SOL    HW229532   6.122   3.100   4.501
 9545SOL     OW29533   6.366   4.296   1.672
 9545SOL    HW129534   6.369   4.321   1.576
 9545SOL    HW229535   6.288   4.236   1.688
 9546SOL     OW29536   3.411   2.687   0.620
 9546SOL    HW129537   3.400   2.623   0.696
 9546SOL    HW229538   3.324   2.734   0.603
 9547SOL     OW29539   4.461   0.727   3.554
 9547SOL    HW129540   4.532   0.783   3.510
 9547SOL    HW229541   4.380   0.723   3.495
 9548SOL     OW29542   0.964   4.704   5.662
 9548SOL    HW129543   1.036   4.739   5.602
 9548SOL    HW229544   0.896   4.654   5.608
 9549SOL     OW29545   4.554   1.022   1.570
 9549SOL    HW129546   4.499   1.036   1.488
 9549SOL    HW229547   4.636   1.079   1.566
 9550SOL     OW29548   6.774   2.080   1.944
 9550SOL    HW129549   6.807   2.037   2.029
 9550SOL    HW229550   6.712   2.017   1.898
 9551SOL     OW29551   6.415   3.130   6.715
 9551SOL    HW129552   6.361   3.214   6.718
 9551SOL    HW229553   6.481   3.136   6.640
 9552SOL     OW29554   3.055   1.492   0.058
 9552SOL    HW129555   3.071   1.396   0.037
 9552SOL    HW229556   3.091   1.549   7.003
 9553SOL     OW29557   5.413   1.646   0.030
 9553SOL    HW129558   5.435   1.549   0.017
 9553SOL    HW229559   5.370   1.682   6.966
 9554SOL     OW29560   2.465   0.888   4.441
 9554SOL    HW129561   2.430   0.969   4.487
 9554SOL    HW229562   2.407   0.809   4.464
 9555SOL     OW29563   0.594   6.589   2.703
 9555SOL    HW129564   0.634   6.513   2.653
 9555SOL    HW229565   0.502   6.564   2.734
 9556SOL     OW29566   2.309   4.493   6.637
 9556SOL    HW129567   2.213   4.508   6.661
 9556SOL    HW229568   2.320   4.497   6.538
 9557SOL     OW29569   5.441   0.912   0.472
 9557SOL    HW129570   5.440   0.860   0.557
 9557SOL    HW229571   5.377   0.871   0.407
 9558SOL     OW29572   5.669   6.085   5.631
 9558SOL    HW129573   5.734   6.108   5.703
 9558SOL    HW229574   5.717   6.076   5.544
 9559SOL     OW29575   2.387   4.279   0.164
 9559SOL    HW129576   2.409   4.334   0.245
 9559SOL    HW229577   2.342   4.195   0.193
 9560SOL     OW29578   2.483   0.556   1.877
 9560SOL    HW129579   2.520   0.471   1.840
 9560SOL    HW229580   2.549   0.595   1.942
 9561SOL     OW29581   0.042   1.130   0.079
 9561SOL    HW129582   0.060   1.058   0.146
 9561SOL    HW229583   0.068   1.100   7.006
 9562SOL     OW29584   2.151   5.780   2.800
 9562SOL    HW129585   2.177   5.805   2.894
 9562SOL    HW229586   2.085   5.847   2.765
 9563SOL     OW29587   0.330   5.470   6.856
 9563SOL    HW129588   0.403   5.494   6.919
 9563SOL    HW229589   0.255   5.535   6.865
 9564SOL     OW29590   0.961   1.915   0.412
 9564SOL    HW129591   1.050   1.945   0.379
 9564SOL    HW229592   0.896   1.911   0.336
 9565SOL     OW29593   2.264   2.268   4.705
 9565SOL    HW129594   2.245   2.281   4.802
 9565SOL    HW229595   2.194   2.209   4.664
 9566SOL     OW29596   2.999   0.471   0.046
 9566SOL    HW129597   3.069   0.542   0.051
 9566SOL    HW229598   2.963   0.467   6.971
 9567SOL     OW29599   6.599   4.587   1.131
 9567SOL    HW129600   6.626   4.662   1.071
 9567SOL    HW229601   6.675   4.562   1.191
 9568SOL     OW29602   4.525   2.287   5.688
 9568SOL    HW129603   4.616   2.289   5.648
 9568SOL    HW229604   4.525   2.340   5.774
 9569SOL     OW29605   5.676   0.485   1.853
 9569SOL    HW129606   5.769   0.513   1.877
 9569SOL    HW229607   5.675   0.386   1.836
 9570SOL     OW29608   0.814   3.866   2.374
 9570SOL    HW129609   0.908   3.865   2.341
 9570SOL    HW229610   0.763   3.790   2.333
 9571SOL     OW29611   1.611   1.221   6.525
 9571SOL    HW129612   1.565   1.290   6.470
 9571SOL    HW229613   1.573   1.221   6.618
 9572SOL     OW29614   2.852   4.828   4.340
 9572SOL    HW129615   2.827   4.731   4.339
 9572SOL    HW229616   2.818   4.871   4.256
 9573SOL     OW29617   5.885   6.979   4.575
 9573SOL    HW129618   5.847   6.973   4.482
 9573SOL    HW229619   5.984   6.992   4.570
 9574SOL     OW29620   4.630   2.396   0.981
 9574SOL    HW129621   4.545   2.398   0.929
 9574SOL    HW229622   4.706   2.422   0.921
 9575SOL     OW29623   5.062   0.666   1.739
 9575SOL    HW129624   5.018   0.577   1.736
 9575SOL    HW229625   5.078   0.699   1.646
 9576SOL     OW29626   1.159   1.111   5.491
 9576SOL    HW129627   1.114   1.156   5.414
 9576SOL    HW229628   1.207   1.179   5.546
 9577SOL     OW29629   0.494   5.386   2.928
 9577SOL    HW129630   0.409   5.339   2.952
 9577SOL    HW229631   0.559   5.321   2.889
 9578SOL     OW29632   2.124   3.333   3.068
 9578SOL    HW129633   2.212   3.381   3.074
 9578SOL    HW229634   2.102   3.317   2.972
 9579SOL     OW29635   5.511   4.961   2.564
 9579SOL    HW129636   5.516   5.058   2.586
 9579SOL    HW229637   5.468   4.911   2.640
 9580SOL     OW29638   4.917   3.868   3.863
 9580SOL    HW129639   4.874   3.903   3.945
 9580SOL    HW229640   4.922   3.768   3.868
 9581SOL     OW29641   4.890   1.901   6.420
 9581SOL    HW129642   4.862   1.932   6.329
 9581SOL    HW229643   4.989   1.910   6.430
 9582SOL     OW29644   4.184   6.617   4.866
 9582SOL    HW129645   4.265   6.573   4.827
 9582SOL    HW229646   4.104   6.559   4.850
 9583SOL     OW29647   2.709   5.415   1.219
 9583SOL    HW129648   2.633   5.370   1.173
 9583SOL    HW229649   2.790   5.357   1.214
 9584SOL     OW29650   2.324   5.162   4.512
 9584SOL    HW129651   2.232   5.137   4.481
 9584SOL    HW229652   2.387   5.086   4.495
 9585SOL     OW29653   4.428   6.791   0.890
 9585SOL    HW129654   4.408   6.874   0.942
 9585SOL    HW229655   4.350   6.769   0.830
 9586SOL     OW29656   3.158   5.146   3.200
 9586SOL    HW129657   3.101   5.085   3.145
 9586SOL    HW229658   3.225   5.191   3.142
 9587SOL     OW29659   3.735   6.368   6.968
 9587SOL    HW129660   3.718   6.308   6.891
 9587SOL    HW229661   3.680   6.451   6.959
 9588SOL     OW29662   6.620   5.772   0.872
 9588SOL    HW129663   6.621   5.736   0.779
 9588SOL    HW229664   6.714   5.778   0.906
 9589SOL     OW29665   1.269   1.320   5.662
 9589SOL    HW129666   1.340   1.384   5.633
 9589SOL    HW229667   1.180   1.366   5.661
 9590SOL     OW29668   5.380   0.692   0.652
 9590SOL    HW129669   5.450   0.715   0.720
 9590SOL    HW229670   5.290   0.688   0.697
 9591SOL     OW29671   5.147   0.647   6.843
 9591SOL    HW129672   5.179   0.653   6.749
 9591SOL    HW229673   5.048   0.661   6.846
 9592SOL     OW29674   1.463   5.961   5.398
 9592SOL    HW129675   1.528   5.924   5.464
 9592SOL    HW229676   1.425   5.885   5.344
 9593SOL     OW29677   2.416   2.313   4.044
 9593SOL    HW129678   2.471   2.376   3.989
 9593SOL    HW229679   2.394   2.356   4.131
 9594SOL     OW29680   0.226   6.426   3.236
 9594SOL    HW129681   0.279   6.478   3.303
 9594SOL    HW229682   0.161   6.367   3.284
 9595SOL     OW29683   0.542   3.449   3.293
 9595SOL    HW129684   0.538   3.507   3.212
 9595SOL    HW229685   0.598   3.494   3.363
 9596SOL     OW29686   1.684   6.296   1.139
 9596SOL    HW129687   1.735   6.304   1.225
 9596SOL    HW229688   1.711   6.370   1.077
 9597SOL     OW29689   0.983   3.510   2.229
 9597SOL    HW129690   1.009   3.606   2.246
 9597SOL    HW229691   1.060   3.451   2.252
 9598SOL     OW29692   2.526   4.480   3.705
 9598SOL    HW129693   2.588   4.477   3.784
 9598SOL    HW229694   2.474   4.566   3.707
 9599SOL     OW29695   4.710   0.309   5.193
 9599SOL    HW129696   4.649   0.388   5.195
 9599SOL    HW229697   4.674   0.238   5.254
 9600SOL     OW29698   4.074   1.164   0.633
 9600SOL    HW129699   4.169   1.164   0.603
 9600SOL    HW229700   4.014   1.173   0.554
 9601SOL     OW29701   0.837   3.856   0.593
 9601SOL    HW129702   0.888   3.925   0.542
 9601SOL    HW229703   0.873   3.849   0.686
 9602SOL     OW29704   4.091   4.381   5.837
 9602SOL    HW129705   4.108   4.380   5.935
 9602SOL    HW229706   4.034   4.303   5.812
 9603SOL     OW29707   5.145   6.739   6.092
 9603SOL    HW129708   5.224   6.723   6.151
 9603SOL    HW229709   5.077   6.793   6.141
 9604SOL     OW29710   4.829   6.790   1.698
 9604SOL    HW129711   4.796   6.825   1.786
 9604SOL    HW229712   4.807   6.693   1.690
 9605SOL     OW29713   4.937   4.848   1.464
 9605SOL    HW129714   4.973   4.853   1.371
 9605SOL    HW229715   4.897   4.936   1.489
 9606SOL     OW29716   1.539   1.673   6.591
 9606SOL    HW129717   1.600   1.728   6.533
 9606SOL    HW229718   1.447   1.712   6.590
 9607SOL     OW29719   1.303   2.530   6.695
 9607SOL    HW129720   1.361   2.606   6.667
 9607SOL    HW229721   1.253   2.495   6.616
 9608SOL     OW29722   6.448   2.458   4.404
 9608SOL    HW129723   6.469   2.469   4.501
 9608SOL    HW229724   6.357   2.494   4.385
 9609SOL     OW29725   4.721   3.119   1.064
 9609SOL    HW129726   4.710   3.196   1.002
 9609SOL    HW229727   4.632   3.080   1.085
 9610SOL     OW29728   1.229   4.911   3.019
 9610SOL    HW129729   1.328   4.908   3.006
 9610SOL    HW229730   1.195   5.002   2.994
 9611SOL     OW29731   2.499   0.438   0.641
 9611SOL    HW129732   2.545   0.454   0.553
 9611SOL    HW229733   2.564   0.396   0.705
 9612SOL     OW29734   6.929   1.540   3.862
 9612SOL    HW129735   6.940   1.499   3.953
 9612SOL    HW229736   6.958   1.475   3.792
 9613SOL     OW29737   5.902   4.689   4.762
 9613SOL    HW129738   5.886   4.653   4.854
 9613SOL    HW229739   5.847   4.638   4.696
 9614SOL     OW29740   4.198   1.818   3.158
 9614SOL    HW129741   4.262   1.768   3.217
 9614SOL    HW229742   4.170   1.760   3.082
 9615SOL     OW29743   1.987   3.810   1.320
 9615SOL    HW129744   2.038   3.890   1.350
 9615SOL    HW229745   2.050   3.736   1.295
 9616SOL     OW29746   4.170   4.049   5.963
 9616SOL    HW129747   4.171   3.955   5.999
 9616SOL    HW229748   4.252   4.064   5.908
 9617SOL     OW29749   1.234   3.137   2.900
 9617SOL    HW129750   1.163   3.202   2.873
 9617SOL    HW229751   1.194   3.046   2.910
 9618SOL     OW29752   2.674   2.404   0.628
 9618SOL    HW129753   2.603   2.473   0.614
 9618SOL    HW229754   2.750   2.444   0.679
 9619SOL     OW29755   2.521   0.068   6.685
 9619SOL    HW129756   2.427   0.076   6.653
 9619SOL    HW229757   2.557   6.995   6.664
 9620SOL     OW29758   5.581   1.101   5.168
 9620SOL    HW129759   5.616   1.117   5.076
 9620SOL    HW229760   5.601   1.181   5.225
 9621SOL     OW29761   1.905   3.528   3.152
 9621SOL    HW129762   1.986   3.561   3.201
 9621SOL    HW229763   1.933   3.467   3.078
 9622SOL     OW29764   4.292   6.872   0.067
 9622SOL    HW129765   4.307   6.970   0.085
 9622SOL    HW229766   4.244   6.831   0.144
 9623SOL     OW29767   0.743   3.267   6.564
 9623SOL    HW129768   0.823   3.216   6.533
 9623SOL    HW229769   0.667   3.251   6.502
 9624SOL     OW29770   6.531   3.296   3.685
 9624SOL    HW129771   6.531   3.207   3.640
 9624SOL    HW229772   6.504   3.285   3.781
 9625SOL     OW29773   5.820   6.310   1.822
 9625SOL    HW129774   5.832   6.402   1.857
 9625SOL    HW229775   5.878   6.298   1.741
 9626SOL     OW29776   3.914   0.356   0.142
 9626SOL    HW129777   3.887   0.382   0.234
 9626SOL    HW229778   3.991   0.414   0.112
 9627SOL     OW29779   0.707   0.607   0.533
 9627SOL    HW129780   0.624   0.662   0.518
 9627SOL    HW229781   0.707   0.530   0.469
 9628SOL     OW29782   3.625   6.759   1.721
 9628SOL    HW129783   3.530   6.739   1.697
 9628SOL    HW229784   3.640   6.737   1.817
 9629SOL     OW29785   2.414   0.232   0.855
 9629SOL    HW129786   2.327   0.273   0.826
 9629SOL    HW229787   2.458   0.293   0.921
 9630SOL     OW29788   6.933   2.640   6.159
 9630SOL    HW129789   6.969   2.547   6.152
 9630SOL    HW229790   6.894   2.668   6.071
 9631SOL     OW29791   6.807   5.436   0.917
 9631SOL    HW129792   6.820   5.401   0.824
 9631SOL    HW229793   6.822   5.535   0.918
 9632SOL     OW29794   1.937   5.586   2.860
 9632SOL    HW129795   1.930   5.582   2.960
 9632SOL    HW229796   2.019   5.537   2.830
 9633SOL     OW29797   0.461   4.988   6.856
 9633SOL    HW129798   0.503   4.898   6.845
 9633SOL    HW229799   0.385   4.983   6.921
 9634SOL     OW29800   6.978   5.821   5.856
 9634SOL    HW129801   6.881   5.821   5.831
 9634SOL    HW229802   6.997   5.743   5.916
 9635SOL     OW29803   6.249   5.833   5.972
 9635SOL    HW129804   6.232   5.908   5.908
 9635SOL    HW229805   6.254   5.747   5.923
 9636SOL     OW29806   3.811   1.384   0.906
 9636SOL    HW129807   3.736   1.326   0.875
 9636SOL    HW229808   3.885   1.327   0.941
 9637SOL     OW29809   2.685   1.133   0.007
 9637SOL    HW129810   2.719   1.078   0.083
 9637SOL    HW229811   2.760   1.189   6.990
 9638SOL     OW29812   6.636   2.583   6.594
 9638SOL    HW129813   6.707   2.562   6.527
 9638SOL    HW229814   6.552   2.608   6.545
 9639SOL     OW29815   3.333   0.536   2.533
 9639SOL    HW129816   3.419   0.511   2.489
 9639SOL    HW229817   3.352   0.599   2.609
 9640SOL     OW29818   1.923   1.934   3.194
 9640SOL    HW129819   1.956   1.927   3.100
 9640SOL    HW229820   1.895   1.844   3.227
 9641SOL     OW29821   5.175   5.704   6.153
 9641SOL    HW129822   5.218   5.635   6.211
 9641SOL    HW229823   5.083   5.724   6.188
 9642SOL     OW29824   3.232   6.927   3.415
 9642SOL    HW129825   3.171   6.939   3.337
 9642SOL    HW229826   3.270   7.016   3.442
 9643SOL     OW29827   3.912   4.916   2.206
 9643SOL    HW129828   3.952   5.007   2.216
 9643SOL    HW229829   3.819   4.923   2.172
 9644SOL     OW29830   2.812   0.981   0.640
 9644SOL    HW129831   2.727   0.961   0.591
 9644SOL    HW229832   2.864   0.896   0.652
 9645SOL     OW29833   2.990   5.103   5.583
 9645SOL    HW129834   3.070   5.063   5.628
 9645SOL    HW229835   2.919   5.120   5.651
 9646SOL     OW29836   3.635   5.068   3.853
 9646SOL    HW129837   3.597   5.050   3.762
 9646SOL    HW229838   3.581   5.139   3.899
 9647SOL     OW29839   6.539   3.117   5.938
 9647SOL    HW129840   6.447   3.154   5.954
 9647SOL    HW229841   6.574   3.152   5.851
 9648SOL     OW29842   4.271   3.888   0.724
 9648SOL    HW129843   4.363   3.850   0.731
 9648SOL    HW229844   4.260   3.962   0.791
 9649SOL     OW29845   2.518   4.698   1.036
 9649SOL    HW129846   2.545   4.706   1.132
 9649SOL    HW229847   2.449   4.768   1.015
 9650SOL     OW29848   1.688   0.615   1.445
 9650SOL    HW129849   1.691   0.714   1.432
 9650SOL    HW229850   1.754   0.571   1.385
 9651SOL     OW29851   0.833   2.108   6.914
 9651SOL    HW129852   0.851   2.019   6.955
 9651SOL    HW229853   0.820   2.097   6.815
 9652SOL     OW29854   2.044   4.753   0.990
 9652SOL    HW129855   1.980   4.684   1.024
 9652SOL    HW229856   2.048   4.829   1.055
 9653SOL     OW29857   6.092   6.044   4.557
 9653SOL    HW129858   6.085   6.089   4.645
 9653SOL    HW229859   6.188   6.045   4.527
 9654SOL     OW29860   2.157   2.894   2.238
 9654SOL    HW129861   2.126   2.945   2.158
 9654SOL    HW229862   2.249   2.860   2.223
 9655SOL     OW29863   6.276   2.147   0.335
 9655SOL    HW129864   6.196   2.181   0.285
 9655SOL    HW229865   6.357   2.152   0.277
 9656SOL     OW29866   2.570   2.098   2.176
 9656SOL    HW129867   2.647   2.161   2.163
 9656SOL    HW229868   2.570   2.066   2.271
 9657SOL     OW29869   0.623   0.133   4.945
 9657SOL    HW129870   0.614   0.232   4.929
 9657SOL    HW229871   0.552   0.103   5.008
 9658SOL     OW29872   5.646   1.336   2.797
 9658SOL    HW129873   5.656   1.337   2.698
 9658SOL    HW229874   5.607   1.423   2.828
 9659SOL     OW29875   1.600   5.077   6.547
 9659SOL    HW129876   1.556   5.052   6.460
 9659SOL    HW229877   1.691   5.034   6.551
 9660SOL     OW29878   0.977   4.477   0.493
 9660SOL    HW129879   0.915   4.493   0.416
 9660SOL    HW229880   0.934   4.414   0.558
 9661SOL     OW29881   3.896   0.915   0.533
 9661SOL    HW129882   3.968   0.939   0.598
 9661SOL    HW229883   3.828   0.989   0.530
 9662SOL     OW29884   5.163   2.400   4.071
 9662SOL    HW129885   5.234   2.424   4.005
 9662SOL    HW229886   5.073   2.411   4.029
 9663SOL     OW29887   3.162   6.039   2.380
 9663SOL    HW129888   3.103   6.061   2.303
 9663SOL    HW229889   3.191   5.944   2.374
 9664SOL     OW29890   2.973   5.963   1.303
 9664SOL    HW129891   2.933   6.041   1.352
 9664SOL    HW229892   3.047   5.925   1.358
 9665SOL     OW29893   5.657   4.622   3.593
 9665SOL    HW129894   5.594   4.666   3.528
 9665SOL    HW229895   5.658   4.675   3.678
 9666SOL     OW29896   5.620   5.201   5.238
 9666SOL    HW129897   5.599   5.241   5.149
 9666SOL    HW229898   5.716   5.219   5.261
 9667SOL     OW29899   2.893   3.456   3.057
 9667SOL    HW129900   2.890   3.380   3.123
 9667SOL    HW229901   2.866   3.541   3.102
 9668SOL     OW29902   0.607   1.454   4.928
 9668SOL    HW129903   0.544   1.436   5.004
 9668SOL    HW229904   0.560   1.436   4.842
 9669SOL     OW29905   1.631   6.831   6.941
 9669SOL    HW129906   1.624   6.890   6.861
 9669SOL    HW229907   1.725   6.798   6.949
 9670SOL     OW29908   6.312   3.970   6.815
 9670SOL    HW129909   6.280   4.022   6.736
 9670SOL    HW229910   6.412   3.962   6.811
 9671SOL     OW29911   6.951   1.822   0.057
 9671SOL    HW129912   6.945   1.874   6.991
 9671SOL    HW229913   0.026   1.826   0.092
 9672SOL     OW29914   0.420   6.592   6.029
 9672SOL    HW129915   0.481   6.529   5.981
 9672SOL    HW229916   0.344   6.618   5.969
 9673SOL     OW29917   2.005   2.312   5.691
 9673SOL    HW129918   2.058   2.293   5.609
 9673SOL    HW229919   1.912   2.275   5.680
 9674SOL     OW29920   2.681   6.317   2.351
 9674SOL    HW129921   2.649   6.257   2.278
 9674SOL    HW229922   2.727   6.263   2.421
 9675SOL     OW29923   6.591   2.434   2.347
 9675SOL    HW129924   6.651   2.507   2.380
 9675SOL    HW229925   6.638   2.346   2.355
 9676SOL     OW29926   6.946   2.941   4.415
 9676SOL    HW129927   6.910   2.993   4.338
 9676SOL    HW229928   6.941   2.997   4.498
 9677SOL     OW29929   1.778   3.487   5.780
 9677SOL    HW129930   1.779   3.465   5.878
 9677SOL    HW229931   1.863   3.534   5.755
 9678SOL     OW29932   3.796   3.453   3.350
 9678SOL    HW129933   3.744   3.369   3.362
 9678SOL    HW229934   3.834   3.456   3.257
 9679SOL     OW29935   0.287   3.721   1.537
 9679SOL    HW129936   0.272   3.755   1.630
 9679SOL    HW229937   0.312   3.624   1.541
 9680SOL     OW29938   4.621   5.323   2.745
 9680SOL    HW129939   4.545   5.260   2.727
 9680SOL    HW229940   4.688   5.316   2.671
 9681SOL     OW29941   0.987   0.815   4.031
 9681SOL    HW129942   0.916   0.825   3.961
 9681SOL    HW229943   1.047   0.895   4.029
 9682SOL     OW29944   0.657   4.286   2.166
 9682SOL    HW129945   0.725   4.215   2.184
 9682SOL    HW229946   0.567   4.243   2.154
 9683SOL     OW29947   4.199   0.085   4.867
 9683SOL    HW129948   4.223   0.024   4.942
 9683SOL    HW229949   4.282   0.107   4.815
 9684SOL     OW29950   1.219   4.213   3.139
 9684SOL    HW129951   1.313   4.183   3.129
 9684SOL    HW229952   1.207   4.257   3.228
 9685SOL     OW29953   1.836   1.480   6.488
 9685SOL    HW129954   1.794   1.447   6.404
 9685SOL    HW229955   1.768   1.480   6.562
 9686SOL     OW29956   5.761   2.380   2.338
 9686SOL    HW129957   5.773   2.475   2.309
 9686SOL    HW229958   5.787   2.319   2.264
 9687SOL     OW29959   3.238   1.323   4.669
 9687SOL    HW129960   3.189   1.269   4.738
 9687SOL    HW229961   3.176   1.393   4.632
 9688SOL     OW29962   5.362   1.858   4.198
 9688SOL    HW129963   5.340   1.935   4.139
 9688SOL    HW229964   5.377   1.890   4.291
 9689SOL     OW29965   3.091   5.106   6.010
 9689SOL    HW129966   3.000   5.144   6.026
 9689SOL    HW229967   3.110   5.033   6.076
 9690SOL     OW29968   6.411   3.685   0.196
 9690SOL    HW129969   6.510   3.671   0.206
 9690SOL    HW229970   6.363   3.637   0.269
 9691SOL     OW29971   1.304   4.204   0.864
 9691SOL    HW129972   1.250   4.139   0.810
 9691SOL    HW229973   1.246   4.245   0.934
 9692SOL     OW29974   3.505   5.656   0.558
 9692SOL    HW129975   3.478   5.734   0.614
 9692SOL    HW229976   3.430   5.589   0.556
 9693SOL     OW29977   5.800   5.568   1.143
 9693SOL    HW129978   5.789   5.618   1.230
 9693SOL    HW229979   5.778   5.629   1.067
 9694SOL     OW29980   0.895   0.968   0.268
 9694SOL    HW129981   0.861   0.903   0.200
 9694SOL    HW229982   0.888   0.927   0.359
 9695SOL     OW29983   6.040   4.645   0.031
 9695SOL    HW129984   5.971   4.621   6.982
 9695SOL    HW229985   6.004   4.717   0.091
 9696SOL     OW29986   3.915   4.220   6.946
 9696SOL    HW129987   3.848   4.157   6.985
 9696SOL    HW229988   3.953   4.277   0.000
 9697SOL     OW29989   7.003   6.092   6.652
 9697SOL    HW129990   7.002   6.178   6.704
 9697SOL    HW229991   0.075   6.080   6.610
 9698SOL     OW29992   5.178   1.422   5.533
 9698SOL    HW129993   5.225   1.506   5.562
 9698SOL    HW229994   5.239   1.368   5.475
 9699SOL     OW29995   1.467   2.210   6.092
 9699SOL    HW129996   1.385   2.154   6.091
 9699SOL    HW229997   1.511   2.205   6.182
 9700SOL     OW29998   3.767   2.908   3.675
 9700SOL    HW129999   3.854   2.862   3.656
 9700SOL    HW230000   3.763   2.994   3.624
 9701SOL     OW30001   4.100   4.815   3.802
 9701SOL    HW130002   4.047   4.734   3.778
 9701SOL    HW230003   4.040   4.886   3.838
 9702SOL     OW30004   5.597   0.585   6.870
 9702SOL    HW130005   5.524   0.574   6.937
 9702SOL    HW230006   5.686   0.580   6.917
 9703SOL     OW30007   2.463   5.817   4.685
 9703SOL    HW130008   2.525   5.799   4.761
 9703SOL    HW230009   2.469   5.913   4.659
 9704SOL     OW30010   3.027   1.301   4.377
 9704SOL    HW130011   2.966   1.244   4.431
 9704SOL    HW230012   2.983   1.323   4.290
 9705SOL     OW30013   3.267   4.177   0.492
 9705SOL    HW130014   3.224   4.267   0.481
 9705SOL    HW230015   3.324   4.158   0.412
 9706SOL     OW30016   6.940   1.906   3.684
 9706SOL    HW130017   6.909   1.811   3.683
 9706SOL    HW230018   0.014   1.910   3.722
 9707SOL     OW30019   2.953   5.281   1.210
 9707SOL    HW130020   2.896   5.203   1.184
 9707SOL    HW230021   3.035   5.249   1.256
 9708SOL     OW30022   1.871   1.771   1.504
 9708SOL    HW130023   1.804   1.844   1.522
 9708SOL    HW230024   1.828   1.701   1.447
 9709SOL     OW30025   1.512   6.230   3.879
 9709SOL    HW130026   1.444   6.258   3.946
 9709SOL    HW230027   1.487   6.265   3.789
 9710SOL     OW30028   1.540   0.123   3.715
 9710SOL    HW130029   1.541   0.180   3.633
 9710SOL    HW230030   1.599   0.164   3.785
 9711SOL     OW30031   2.023   2.844   6.707
 9711SOL    HW130032   2.110   2.848   6.756
 9711SOL    HW230033   2.008   2.930   6.658
 9712SOL     OW30034   5.186   3.858   4.805
 9712SOL    HW130035   5.112   3.831   4.865
 9712SOL    HW230036   5.186   3.800   4.724
 9713SOL     OW30037   0.426   5.623   3.521
 9713SOL    HW130038   0.409   5.531   3.484
 9713SOL    HW230039   0.517   5.653   3.494
 9714SOL     OW30040   2.873   1.893   1.945
 9714SOL    HW130041   2.829   1.830   2.009
 9714SOL    HW230042   2.873   1.986   1.983
 9715SOL     OW30043   5.953   5.747   6.279
 9715SOL    HW130044   6.037   5.790   6.245
 9715SOL    HW230045   5.880   5.814   6.282
 9716SOL     OW30046   3.188   0.782   5.474
 9716SOL    HW130047   3.158   0.727   5.396
 9716SOL    HW230048   3.268   0.739   5.517
 9717SOL     OW30049   6.105   5.194   3.200
 9717SOL    HW130050   6.164   5.166   3.276
 9717SOL    HW230051   6.010   5.170   3.221
 9718SOL     OW30052   6.147   2.267   2.128
 9718SOL    HW130053   6.129   2.341   2.064
 9718SOL    HW230054   6.242   2.271   2.158
 9719SOL     OW30055   0.436   1.458   6.992
 9719SOL    HW130056   0.395   1.518   0.042
 9719SOL    HW230057   0.416   1.362   7.015
 9720SOL     OW30058   0.780   0.942   0.819
 9720SOL    HW130059   0.763   0.845   0.832
 9720SOL    HW230060   0.810   0.983   0.905
 9721SOL     OW30061   0.595   2.186   3.621
 9721SOL    HW130062   0.561   2.124   3.551
 9721SOL    HW230063   0.634   2.132   3.696
 9722SOL     OW30064   0.180   0.246   4.619
 9722SOL    HW130065   0.168   0.197   4.705
 9722SOL    HW230066   0.267   0.295   4.620
 9723SOL     OW30067   6.582   1.036   4.163
 9723SOL    HW130068   6.547   0.943   4.173
 9723SOL    HW230069   6.639   1.059   4.242
 9724SOL     OW30070   3.872   2.880   1.698
 9724SOL    HW130071   3.828   2.887   1.609
 9724SOL    HW230072   3.843   2.796   1.743
 9725SOL     OW30073   4.052   2.879   5.735
 9725SOL    HW130074   4.116   2.827   5.792
 9725SOL    HW230075   4.003   2.945   5.792
 9726SOL     OW30076   4.929   6.328   4.776
 9726SOL    HW130077   4.905   6.262   4.847
 9726SOL    HW230078   4.846   6.370   4.739
 9727SOL     OW30079   0.262   0.740   6.605
 9727SOL    HW130080   0.238   0.764   6.511
 9727SOL    HW230081   0.295   0.646   6.608
 9728SOL     OW30082   3.177   5.928   6.116
 9728SOL    HW130083   3.101   5.991   6.105
 9728SOL    HW230084   3.223   5.915   6.028
 9729SOL     OW30085   3.459   5.383   2.243
 9729SOL    HW130086   3.402   5.376   2.162
 9729SOL    HW230087   3.525   5.457   2.231
 9730SOL     OW30088   5.196   3.872   2.786
 9730SOL    HW130089   5.235   3.963   2.796
 9730SOL    HW230090   5.138   3.852   2.865
 9731SOL     OW30091   5.332   4.395   0.694
 9731SOL    HW130092   5.298   4.468   0.752
 9731SOL    HW230093   5.287   4.309   0.719
 9732SOL     OW30094   5.163   6.339   4.667
 9732SOL    HW130095   5.072   6.310   4.697
 9732SOL    HW230096   5.200   6.271   4.603
 9733SOL     OW30097   5.026   4.629   4.137
 9733SOL    HW130098   5.015   4.532   4.158
 9733SOL    HW230099   4.964   4.682   4.195
 9734SOL     OW30100   6.241   2.534   5.902
 9734SOL    HW130101   6.164   2.581   5.945
 9734SOL    HW230102   6.216   2.508   5.808
 9735SOL     OW30103   3.205   5.080   1.074
 9735SOL    HW130104   3.172   5.070   1.168
 9735SOL    HW230105   3.282   5.017   1.060
 9736SOL     OW30106   3.742   1.750   2.044
 9736SOL    HW130107   3.646   1.730   2.022
 9736SOL    HW230108   3.774   1.824   1.985
 9737SOL     OW30109   4.339   1.659   4.791
 9737SOL    HW130110   4.348   1.640   4.693
 9737SOL    HW230111   4.262   1.722   4.806
 9738SOL     OW30112   2.655   0.493   2.139
 9738SOL    HW130113   2.574   0.548   2.161
 9738SOL    HW230114   2.737   0.550   2.149
 9739SOL     OW30115   5.181   4.496   2.795
 9739SOL    HW130116   5.250   4.524   2.862
 9739SOL    HW230117   5.137   4.411   2.825
 9740SOL     OW30118   6.754   3.051   3.253
 9740SOL    HW130119   6.718   3.073   3.344
 9740SOL    HW230120   6.705   2.972   3.216
 9741SOL     OW30121   3.813   2.116   2.557
 9741SOL    HW130122   3.736   2.092   2.616
 9741SOL    HW230123   3.784   2.110   2.461
 9742SOL     OW30124   3.539   1.513   2.850
 9742SOL    HW130125   3.491   1.513   2.762
 9742SOL    HW230126   3.636   1.535   2.835
 9743SOL     OW30127   1.230   1.022   5.840
 9743SOL    HW130128   1.295   0.947   5.829
 9743SOL    HW230129   1.279   1.109   5.842
 9744SOL     OW30130   2.366   0.283   1.480
 9744SOL    HW130131   2.358   0.377   1.514
 9744SOL    HW230132   2.358   0.283   1.380
 9745SOL     OW30133   0.791   0.954   4.357
 9745SOL    HW130134   0.770   0.868   4.404
 9745SOL    HW230135   0.759   0.949   4.263
 9746SOL     OW30136   5.916   6.916   4.833
 9746SOL    HW130137   6.015   6.915   4.845
 9746SOL    HW230138   5.893   6.943   4.740
 9747SOL     OW30139   6.556   0.351   6.044
 9747SOL    HW130140   6.585   0.281   6.109
 9747SOL    HW230141   6.586   0.326   5.952
 9748SOL     OW30142   1.688   4.795   4.464
 9748SOL    HW130143   1.711   4.839   4.377
 9748SOL    HW230144   1.747   4.716   4.479
 9749SOL     OW30145   0.728   4.918   4.949
 9749SOL    HW130146   0.782   4.836   4.965
 9749SOL    HW230147   0.644   4.894   4.900
 9750SOL     OW30148   2.730   5.336   2.506
 9750SOL    HW130149   2.735   5.266   2.435
 9750SOL    HW230150   2.750   5.295   2.595
 9751SOL     OW30151   1.718   1.808   0.351
 9751SOL    HW130152   1.717   1.710   0.332
 9751SOL    HW230153   1.679   1.825   0.441
 9752SOL     OW30154   3.041   6.709   6.084
 9752SOL    HW130155   3.045   6.718   5.984
 9752SOL    HW230156   3.085   6.788   6.127
 9753SOL     OW30157   0.165   0.197   6.721
 9753SOL    HW130158   0.205   0.218   6.810
 9753SOL    HW230159   0.235   0.161   6.660
 9754SOL     OW30160   0.304   3.380   6.522
 9754SOL    HW130161   0.351   3.467   6.512
 9754SOL    HW230162   0.207   3.392   6.504
 9755SOL     OW30163   4.193   5.691   4.532
 9755SOL    HW130164   4.153   5.654   4.448
 9755SOL    HW230165   4.225   5.615   4.590
 9756SOL     OW30166   4.460   3.065   6.240
 9756SOL    HW130167   4.369   3.107   6.250
 9756SOL    HW230168   4.496   3.041   6.329
 9757SOL     OW30169   5.937   0.996   4.114
 9757SOL    HW130170   5.843   1.029   4.112
 9757SOL    HW230171   5.998   1.066   4.076
 9758SOL     OW30172   3.429   0.471   0.445
 9758SOL    HW130173   3.436   0.515   0.535
 9758SOL    HW230174   3.471   0.529   0.376
 9759SOL     OW30175   2.720   5.801   2.116
 9759SOL    HW130176   2.741   5.704   2.116
 9759SOL    HW230177   2.627   5.815   2.083
 9760SOL     OW30178   5.024   3.649   6.520
 9760SOL    HW130179   5.042   3.721   6.588
 9760SOL    HW230180   4.927   3.627   6.519
 9761SOL     OW30181   5.085   5.629   3.207
 9761SOL    HW130182   5.000   5.609   3.254
 9761SOL    HW230183   5.092   5.728   3.190
 9762SOL     OW30184   3.482   1.108   2.403
 9762SOL    HW130185   3.423   1.033   2.372
 9762SOL    HW230186   3.575   1.094   2.367
 9763SOL     OW30187   2.160   2.070   1.598
 9763SOL    HW130188   2.226   2.143   1.614
 9763SOL    HW230189   2.207   1.982   1.599
 9764SOL     OW30190   1.254   2.876   4.129
 9764SOL    HW130191   1.211   2.787   4.114
 9764SOL    HW230192   1.248   2.899   4.227
 9765SOL     OW30193   0.177   1.404   5.469
 9765SOL    HW130194   0.117   1.445   5.400
 9765SOL    HW230195   0.250   1.353   5.424
 9766SOL     OW30196   2.993   0.641   1.702
 9766SOL    HW130197   2.924   0.593   1.756
 9766SOL    HW230198   3.009   0.592   1.617
 9767SOL     OW30199   4.121   0.124   5.303
 9767SOL    HW130200   4.063   0.205   5.299
 9767SOL    HW230201   4.072   0.050   5.347
 9768SOL     OW30202   4.580   1.977   3.017
 9768SOL    HW130203   4.484   1.981   3.045
 9768SOL    HW230204   4.595   1.898   2.958
 9769SOL     OW30205   6.946   2.477   0.458
 9769SOL    HW130206   0.013   2.424   0.455
 9769SOL    HW230207   6.879   2.434   0.398
 9770SOL     OW30208   0.452   3.214   4.479
 9770SOL    HW130209   0.454   3.314   4.470
 9770SOL    HW230210   0.362   3.186   4.514
 9771SOL     OW30211   1.752   6.260   3.996
 9771SOL    HW130212   1.660   6.224   3.980
 9771SOL    HW230213   1.754   6.357   3.973
 9772SOL     OW30214   5.811   6.287   1.260
 9772SOL    HW130215   5.840   6.292   1.356
 9772SOL    HW230216   5.887   6.253   1.204
 9773SOL     OW30217   5.422   5.208   3.863
 9773SOL    HW130218   5.350   5.272   3.888
 9773SOL    HW230219   5.381   5.120   3.837
 9774SOL     OW30220   6.424   6.216   4.139
 9774SOL    HW130221   6.325   6.217   4.150
 9774SOL    HW230222   6.456   6.309   4.121
 9775SOL     OW30223   2.937   1.743   4.628
 9775SOL    HW130224   2.925   1.772   4.533
 9775SOL    HW230225   2.977   1.652   4.631
 9776SOL     OW30226   0.653   4.520   4.553
 9776SOL    HW130227   0.556   4.541   4.547
 9776SOL    HW230228   0.665   4.424   4.579
 9777SOL     OW30229   4.980   5.710   5.950
 9777SOL    HW130230   5.057   5.734   6.009
 9777SOL    HW230231   4.900   5.763   5.976
 9778SOL     OW30232   2.983   0.821   4.670
 9778SOL    HW130233   2.970   0.844   4.574
 9778SOL    HW230234   2.898   0.782   4.706
 9779SOL     OW30235   3.293   2.160   6.506
 9779SOL    HW130236   3.362   2.177   6.576
 9779SOL    HW230237   3.337   2.125   6.423
 9780SOL     OW30238   1.915   3.213   1.414
 9780SOL    HW130239   1.894   3.291   1.474
 9780SOL    HW230240   1.896   3.128   1.463
 9781SOL     OW30241   0.296   0.171   4.345
 9781SOL    HW130242   0.393   0.184   4.327
 9781SOL    HW230243   0.278   0.182   4.443
 9782SOL     OW30244   5.856   0.457   0.924
 9782SOL    HW130245   5.917   0.381   0.900
 9782SOL    HW230246   5.789   0.470   0.850
 9783SOL     OW30247   6.127   6.891   3.637
 9783SOL    HW130248   6.072   6.937   3.707
 9783SOL    HW230249   6.080   6.893   3.550
 9784SOL     OW30250   4.967   0.537   4.590
 9784SOL    HW130251   4.964   0.509   4.494
 9784SOL    HW230252   4.965   0.456   4.649
 9785SOL     OW30253   1.328   1.858   0.539
 9785SOL    HW130254   1.275   1.904   0.610
 9785SOL    HW230255   1.309   1.900   0.450
 9786SOL     OW30256   1.668   0.282   3.286
 9786SOL    HW130257   1.614   0.354   3.242
 9786SOL    HW230258   1.708   0.223   3.217
 9787SOL     OW30259   6.257   3.898   0.824
 9787SOL    HW130260   6.356   3.910   0.824
 9787SOL    HW230261   6.214   3.976   0.778
 9788SOL     OW30262   0.134   0.091   6.378
 9788SOL    HW130263   0.184   0.038   6.446
 9788SOL    HW230264   0.086   0.029   6.316
 9789SOL     OW30265   1.854   4.402   4.160
 9789SOL    HW130266   1.840   4.303   4.153
 9789SOL    HW230267   1.945   4.421   4.195
 9790SOL     OW30268   0.540   0.810   3.719
 9790SOL    HW130269   0.509   0.902   3.697
 9790SOL    HW230270   0.503   0.782   3.808
 9791SOL     OW30271   1.268   2.166   0.526
 9791SOL    HW130272   1.255   2.081   0.476
 9791SOL    HW230273   1.180   2.211   0.541
 9792SOL     OW30274   4.799   5.330   2.946
 9792SOL    HW130275   4.719   5.310   2.889
 9792SOL    HW230276   4.854   5.402   2.902
 9793SOL     OW30277   5.209   5.912   2.141
 9793SOL    HW130278   5.155   5.859   2.075
 9793SOL    HW230279   5.196   6.009   2.124
 9794SOL     OW30280   3.652   4.435   6.863
 9794SOL    HW130281   3.655   4.527   6.902
 9794SOL    HW230282   3.671   4.368   6.935
 9795SOL     OW30283   2.214   4.761   2.927
 9795SOL    HW130284   2.270   4.825   2.874
 9795SOL    HW230285   2.246   4.758   3.021
 9796SOL     OW30286   4.043   5.206   6.412
 9796SOL    HW130287   4.084   5.273   6.350
 9796SOL    HW230288   4.110   5.178   6.480
 9797SOL     OW30289   6.147   3.483   5.007
 9797SOL    HW130290   6.061   3.483   5.058
 9797SOL    HW230291   6.223   3.468   5.070
 9798SOL     OW30292   3.340   1.288   1.700
 9798SOL    HW130293   3.295   1.206   1.664
 9798SOL    HW230294   3.280   1.333   1.766
 9799SOL     OW30295   3.956   3.867   3.328
 9799SOL    HW130296   3.876   3.843   3.273
 9799SOL    HW230297   3.938   3.847   3.425
 9800SOL     OW30298   4.139   6.511   0.566
 9800SOL    HW130299   4.196   6.572   0.621
 9800SOL    HW230300   4.197   6.454   0.507
 9801SOL     OW30301   5.895   4.979   1.724
 9801SOL    HW130302   5.914   4.992   1.822
 9801SOL    HW230303   5.953   4.907   1.688
 9802SOL     OW30304   0.759   6.185   2.393
 9802SOL    HW130305   0.763   6.098   2.442
 9802SOL    HW230306   0.669   6.193   2.349
 9803SOL     OW30307   5.535   0.325   6.234
 9803SOL    HW130308   5.488   0.366   6.312
 9803SOL    HW230309   5.580   0.241   6.264
 9804SOL     OW30310   5.138   5.848   4.096
 9804SOL    HW130311   5.140   5.770   4.033
 9804SOL    HW230312   5.157   5.932   4.046
 9805SOL     OW30313   3.779   4.405   0.490
 9805SOL    HW130314   3.750   4.462   0.567
 9805SOL    HW230315   3.866   4.362   0.511
 9806SOL     OW30316   0.435   1.272   3.118
 9806SOL    HW130317   0.411   1.176   3.132
 9806SOL    HW230318   0.357   1.321   3.078
 9807SOL     OW30319   2.014   3.928   0.814
 9807SOL    HW130320   2.104   3.962   0.839
 9807SOL    HW230321   1.970   3.888   0.894
 9808SOL     OW30322   2.564   2.091   2.823
 9808SOL    HW130323   2.541   2.188   2.826
 9808SOL    HW230324   2.619   2.073   2.742
 9809SOL     OW30325   0.534   0.148   4.015
 9809SOL    HW130326   0.545   0.203   4.098
 9809SOL    HW230327   0.522   0.052   4.040
 9810SOL     OW30328   4.959   1.647   2.710
 9810SOL    HW130329   4.945   1.664   2.808
 9810SOL    HW230330   4.886   1.690   2.658
 9811SOL     OW30331   1.325   0.210   3.149
 9811SOL    HW130332   1.235   0.171   3.127
 9811SOL    HW230333   1.316   0.274   3.225
 9812SOL     OW30334   6.091   2.593   6.821
 9812SOL    HW130335   6.044   2.556   6.740
 9812SOL    HW230336   6.028   2.653   6.870
 9813SOL     OW30337   6.267   4.202   0.174
 9813SOL    HW130338   6.235   4.171   0.085
 9813SOL    HW230339   6.202   4.268   0.212
 9814SOL     OW30340   6.532   1.375   5.689
 9814SOL    HW130341   6.517   1.352   5.593
 9814SOL    HW230342   6.462   1.440   5.720
 9815SOL     OW30343   0.161   5.401   2.083
 9815SOL    HW130344   0.223   5.373   2.155
 9815SOL    HW230345   0.068   5.371   2.105
 9816SOL     OW30346   0.125   2.067   5.208
 9816SOL    HW130347   0.093   2.061   5.302
 9816SOL    HW230348   0.168   2.156   5.193
 9817SOL     OW30349   2.328   2.098   0.184
 9817SOL    HW130350   2.289   2.187   0.160
 9817SOL    HW230351   2.258   2.042   0.228
 9818SOL     OW30352   0.454   0.328   2.558
 9818SOL    HW130353   0.530   0.383   2.523
 9818SOL    HW230354   0.473   0.231   2.542
 9819SOL     OW30355   6.162   1.255   4.969
 9819SOL    HW130356   6.234   1.239   4.901
 9819SOL    HW230357   6.182   1.203   5.051
 9820SOL     OW30358   3.364   0.885   6.616
 9820SOL    HW130359   3.427   0.858   6.543
 9820SOL    HW230360   3.326   0.975   6.596
 9821SOL     OW30361   4.762   4.261   6.616
 9821SOL    HW130362   4.685   4.210   6.578
 9821SOL    HW230363   4.786   4.223   6.706
 9822SOL     OW30364   3.133   6.748   3.867
 9822SOL    HW130365   3.230   6.726   3.878
 9822SOL    HW230366   3.124   6.839   3.825
 9823SOL     OW30367   4.022   5.764   2.871
 9823SOL    HW130368   3.993   5.859   2.882
 9823SOL    HW230369   4.003   5.733   2.778
 9824SOL     OW30370   1.578   6.142   5.659
 9824SOL    HW130371   1.593   6.199   5.740
 9824SOL    HW230372   1.504   6.077   5.678
 9825SOL     OW30373   0.477   6.287   4.567
 9825SOL    HW130374   0.547   6.356   4.586
 9825SOL    HW230375   0.425   6.269   4.650
 9826SOL     OW30376   1.427   6.116   5.164
 9826SOL    HW130377   1.402   6.078   5.253
 9826SOL    HW230378   1.369   6.195   5.145
 9827SOL     OW30379   1.353   4.774   1.523
 9827SOL    HW130380   1.393   4.749   1.435
 9827SOL    HW230381   1.261   4.736   1.531
 9828SOL     OW30382   4.859   2.273   4.175
 9828SOL    HW130383   4.833   2.190   4.223
 9828SOL    HW230384   4.920   2.328   4.233
 9829SOL     OW30385   5.685   3.852   5.701
 9829SOL    HW130386   5.661   3.797   5.621
 9829SOL    HW230387   5.749   3.924   5.673
 9830SOL     OW30388   5.899   0.750   3.487
 9830SOL    HW130389   5.927   0.840   3.453
 9830SOL    HW230390   5.979   0.691   3.495
 9831SOL     OW30391   0.748   4.723   1.052
 9831SOL    HW130392   0.724   4.626   1.060
 9831SOL    HW230393   0.708   4.773   1.129
 9832SOL     OW30394   5.409   6.033   5.253
 9832SOL    HW130395   5.502   6.031   5.288
 9832SOL    HW230396   5.346   6.061   5.326
 9833SOL     OW30397   3.420   2.867   4.121
 9833SOL    HW130398   3.438   2.785   4.066
 9833SOL    HW230399   3.489   2.936   4.100
 9834SOL     OW30400   3.299   5.923   5.874
 9834SOL    HW130401   3.261   5.847   5.821
 9834SOL    HW230402   3.396   5.931   5.855
 9835SOL     OW30403   3.374   2.952   3.795
 9835SOL    HW130404   3.407   2.909   3.711
 9835SOL    HW230405   3.447   2.954   3.863
 9836SOL     OW30406   6.677   3.015   6.469
 9836SOL    HW130407   6.745   2.989   6.538
 9836SOL    HW230408   6.709   3.097   6.421
 9837SOL     OW30409   6.343   0.703   4.586
 9837SOL    HW130410   6.291   0.627   4.624
 9837SOL    HW230411   6.356   0.773   4.656
 9838SOL     OW30412   0.375   5.836   0.965
 9838SOL    HW130413   0.300   5.786   0.922
 9838SOL    HW230414   0.439   5.867   0.895
 9839SOL     OW30415   3.698   6.676   3.891
 9839SOL    HW130416   3.735   6.724   3.812
 9839SOL    HW230417   3.728   6.721   3.975
 9840SOL     OW30418   6.288   2.271   5.920
 9840SOL    HW130419   6.275   2.369   5.930
 9840SOL    HW230420   6.357   2.253   5.849
 9841SOL     OW30421   6.757   5.773   2.344
 9841SOL    HW130422   6.758   5.828   2.261
 9841SOL    HW230423   6.663   5.757   2.374
 9842SOL     OW30424   4.427   0.201   0.366
 9842SOL    HW130425   4.348   0.255   0.338
 9842SOL    HW230426   4.508   0.259   0.369
 9843SOL     OW30427   0.508   0.196   0.528
 9843SOL    HW130428   0.515   0.235   0.620
 9843SOL    HW230429   0.456   0.259   0.470
 9844SOL     OW30430   5.675   1.151   4.816
 9844SOL    HW130431   5.586   1.107   4.816
 9844SOL    HW230432   5.731   1.115   4.741
 9845SOL     OW30433   0.970   3.377   2.525
 9845SOL    HW130434   0.993   3.305   2.460
 9845SOL    HW230435   0.872   3.373   2.547
 9846SOL     OW30436   5.778   2.048   2.949
 9846SOL    HW130437   5.739   2.055   2.857
 9846SOL    HW230438   5.876   2.067   2.945
 9847SOL     OW30439   3.950   3.614   6.794
 9847SOL    HW130440   4.040   3.653   6.814
 9847SOL    HW230441   3.885   3.688   6.775
 9848SOL     OW30442   2.754   3.928   6.335
 9848SOL    HW130443   2.802   3.861   6.277
 9848SOL    HW230444   2.809   4.011   6.340
 9849SOL     OW30445   1.583   1.590   2.237
 9849SOL    HW130446   1.493   1.546   2.241
 9849SOL    HW230447   1.592   1.654   2.313
 9850SOL     OW30448   2.062   0.773   3.941
 9850SOL    HW130449   2.066   0.688   3.994
 9850SOL    HW230450   2.006   0.840   3.989
 9851SOL     OW30451   3.554   5.916   3.784
 9851SOL    HW130452   3.458   5.927   3.758
 9851SOL    HW230453   3.565   5.832   3.836
 9852SOL     OW30454   2.321   0.487   6.445
 9852SOL    HW130455   2.415   0.505   6.476
 9852SOL    HW230456   2.264   0.567   6.466
 9853SOL     OW30457   0.302   4.205   3.757
 9853SOL    HW130458   0.289   4.106   3.743
 9853SOL    HW230459   0.214   4.252   3.748
 9854SOL     OW30460   6.218   3.832   7.017
 9854SOL    HW130461   6.262   3.884   6.944
 9854SOL    HW230462   6.279   3.829   0.078
 9855SOL     OW30463   0.505   6.426   0.706
 9855SOL    HW130464   0.492   6.521   0.677
 9855SOL    HW230465   0.441   6.406   0.780
 9856SOL     OW30466   4.523   4.670   3.005
 9856SOL    HW130467   4.512   4.680   2.906
 9856SOL    HW230468   4.449   4.719   3.051
 9857SOL     OW30469   4.235   6.711   5.828
 9857SOL    HW130470   4.239   6.655   5.745
 9857SOL    HW230471   4.223   6.807   5.804
 9858SOL     OW30472   6.729   5.703   2.920
 9858SOL    HW130473   6.765   5.791   2.950
 9858SOL    HW230474   6.629   5.705   2.922
 9859SOL     OW30475   0.403   6.975   2.841
 9859SOL    HW130476   0.394   0.053   2.816
 9859SOL    HW230477   0.328   6.923   2.802
 9860SOL     OW30478   1.071   3.679   3.545
 9860SOL    HW130479   1.044   3.589   3.581
 9860SOL    HW230480   1.007   3.748   3.577
 9861SOL     OW30481   4.095   2.225   4.378
 9861SOL    HW130482   4.119   2.251   4.284
 9861SOL    HW230483   3.996   2.217   4.386
 9862SOL     OW30484   1.176   2.828   6.365
 9862SOL    HW130485   1.086   2.784   6.360
 9862SOL    HW230486   1.236   2.790   6.294
 9863SOL     OW30487   4.055   5.952   1.766
 9863SOL    HW130488   4.050   5.856   1.739
 9863SOL    HW230489   4.082   6.007   1.688
 9864SOL     OW30490   3.136   5.992   5.279
 9864SOL    HW130491   3.048   6.016   5.240
 9864SOL    HW230492   3.123   5.950   5.369
 9865SOL     OW30493   2.408   4.882   6.306
 9865SOL    HW130494   2.319   4.883   6.261
 9865SOL    HW230495   2.416   4.962   6.366
 9866SOL     OW30496   0.667   5.826   5.243
 9866SOL    HW130497   0.580   5.789   5.211
 9866SOL    HW230498   0.741   5.767   5.214
 9867SOL     OW30499   5.069   1.476   2.537
 9867SOL    HW130500   5.006   1.524   2.598
 9867SOL    HW230501   5.160   1.476   2.577
 9868SOL     OW30502   2.567   5.054   3.163
 9868SOL    HW130503   2.535   5.106   3.241
 9868SOL    HW230504   2.512   5.077   3.082
 9869SOL     OW30505   5.737   1.694   2.610
 9869SOL    HW130506   5.707   1.678   2.704
 9869SOL    HW230507   5.659   1.682   2.548
 9870SOL     OW30508   2.187   2.924   2.652
 9870SOL    HW130509   2.199   3.006   2.707
 9870SOL    HW230510   2.143   2.853   2.708
 9871SOL     OW30511   5.839   5.327   3.107
 9871SOL    HW130512   5.830   5.426   3.121
 9871SOL    HW230513   5.749   5.284   3.112
 9872SOL     OW30514   0.620   6.538   4.590
 9872SOL    HW130515   0.547   6.557   4.524
 9872SOL    HW230516   0.663   6.624   4.618
 9873SOL     OW30517   0.585   0.619   5.067
 9873SOL    HW130518   0.492   0.612   5.104
 9873SOL    HW230519   0.613   0.715   5.064
 9874SOL     OW30520   6.838   2.095   4.092
 9874SOL    HW130521   6.858   2.130   4.001
 9874SOL    HW230522   6.782   2.161   4.142
 9875SOL     OW30523   5.824   5.776   0.618
 9875SOL    HW130524   5.778   5.842   0.559
 9875SOL    HW230525   5.794   5.683   0.596
 9876SOL     OW30526   0.851   0.361   2.669
 9876SOL    HW130527   0.865   0.330   2.763
 9876SOL    HW230528   0.898   0.449   2.656
 9877SOL     OW30529   1.646   5.717   5.234
 9877SOL    HW130530   1.563   5.675   5.272
 9877SOL    HW230531   1.714   5.727   5.307
 9878SOL     OW30532   4.568   4.150   0.549
 9878SOL    HW130533   4.551   4.062   0.504
 9878SOL    HW230534   4.592   4.218   0.480
 9879SOL     OW30535   5.697   5.501   4.461
 9879SOL    HW130536   5.709   5.593   4.498
 9879SOL    HW230537   5.786   5.456   4.456
 9880SOL     OW30538   2.446   1.351   0.840
 9880SOL    HW130539   2.474   1.409   0.764
 9880SOL    HW230540   2.428   1.259   0.806
 9881SOL     OW30541   6.297   0.538   2.888
 9881SOL    HW130542   6.254   0.502   2.805
 9881SOL    HW230543   6.365   0.473   2.921
 9882SOL     OW30544   3.095   3.829   4.586
 9882SOL    HW130545   3.090   3.863   4.680
 9882SOL    HW230546   3.004   3.831   4.544
 9883SOL     OW30547   0.883   5.115   2.861
 9883SOL    HW130548   0.880   5.072   2.771
 9883SOL    HW230549   0.965   5.085   2.910
 9884SOL     OW30550   3.514   2.644   5.348
 9884SOL    HW130551   3.472   2.730   5.320
 9884SOL    HW230552   3.443   2.581   5.380
 9885SOL     OW30553   4.968   2.132   5.322
 9885SOL    HW130554   5.030   2.086   5.259
 9885SOL    HW230555   4.942   2.221   5.283
 9886SOL     OW30556   2.503   6.071   1.265
 9886SOL    HW130557   2.484   6.012   1.187
 9886SOL    HW230558   2.596   6.107   1.257
 9887SOL     OW30559   3.863   1.588   6.971
 9887SOL    HW130560   3.815   1.538   6.899
 9887SOL    HW230561   3.929   1.527   7.015
 9888SOL     OW30562   5.997   6.618   4.013
 9888SOL    HW130563   6.041   6.624   4.103
 9888SOL    HW230564   5.993   6.522   3.984
 9889SOL     OW30565   6.534   6.090   2.193
 9889SOL    HW130566   6.450   6.056   2.151
 9889SOL    HW230567   6.609   6.025   2.176
 9890SOL     OW30568   1.907   3.129   3.189
 9890SOL    HW130569   1.907   3.184   3.272
 9890SOL    HW230570   1.930   3.034   3.212
 9891SOL     OW30571   3.686   0.144   2.065
 9891SOL    HW130572   3.734   0.057   2.082
 9891SOL    HW230573   3.690   0.201   2.148
 9892SOL     OW30574   2.265   5.829   3.043
 9892SOL    HW130575   2.219   5.888   3.110
 9892SOL    HW230576   2.347   5.790   3.084
 9893SOL     OW30577   5.449   4.764   4.521
 9893SOL    HW130578   5.470   4.854   4.482
 9893SOL    HW230579   5.466   4.765   4.619
 9894SOL     OW30580   4.747   3.415   5.883
 9894SOL    HW130581   4.723   3.386   5.791
 9894SOL    HW230582   4.789   3.506   5.879
 9895SOL     OW30583   5.338   2.812   5.808
 9895SOL    HW130584   5.267   2.861   5.860
 9895SOL    HW230585   5.390   2.753   5.870
 9896SOL     OW30586   3.656   4.119   6.668
 9896SOL    HW130587   3.651   4.124   6.568
 9896SOL    HW230588   3.576   4.164   6.707
 9897SOL     OW30589   1.098   0.954   2.751
 9897SOL    HW130590   1.021   0.930   2.692
 9897SOL    HW230591   1.177   0.978   2.695
 9898SOL     OW30592   0.474   5.182   6.641
 9898SOL    HW130593   0.451   5.152   6.733
 9898SOL    HW230594   0.439   5.115   6.575
 9899SOL     OW30595   3.513   4.924   0.779
 9899SOL    HW130596   3.523   4.863   0.701
 9899SOL    HW230597   3.531   5.018   0.750
 9900SOL     OW30598   2.553   5.439   3.367
 9900SOL    HW130599   2.490   5.438   3.289
 9900SOL    HW230600   2.645   5.414   3.337
 9901SOL     OW30601   2.887   1.339   6.419
 9901SOL    HW130602   2.884   1.240   6.412
 9901SOL    HW230603   2.863   1.380   6.331
 9902SOL     OW30604   4.115   4.509   6.920
 9902SOL    HW130605   4.174   4.434   6.949
 9902SOL    HW230606   4.044   4.474   6.859
 9903SOL     OW30607   3.143   1.247   0.805
 9903SOL    HW130608   3.053   1.205   0.810
 9903SOL    HW230609   3.136   1.337   0.761
 9904SOL     OW30610   6.329   5.964   1.695
 9904SOL    HW130611   6.355   6.011   1.779
 9904SOL    HW230612   6.328   5.865   1.710
 9905SOL     OW30613   2.372   6.785   6.872
 9905SOL    HW130614   2.338   6.744   6.957
 9905SOL    HW230615   2.467   6.812   6.883
 9906SOL     OW30616   2.979   3.664   6.619
 9906SOL    HW130617   2.950   3.621   6.705
 9906SOL    HW230618   2.958   3.602   6.543
 9907SOL     OW30619   1.168   6.837   2.938
 9907SOL    HW130620   1.143   6.762   2.999
 9907SOL    HW230621   1.256   6.875   2.966
 9908SOL     OW30622   6.951   2.973   6.203
 9908SOL    HW130623   6.997   2.923   6.130
 9908SOL    HW230624   6.853   2.978   6.184
 9909SOL     OW30625   2.451   6.095   3.189
 9909SOL    HW130626   2.471   6.000   3.163
 9909SOL    HW230627   2.530   6.135   3.235
 9910SOL     OW30628   1.137   5.538   0.419
 9910SOL    HW130629   1.120   5.489   0.334
 9910SOL    HW230630   1.069   5.512   0.487
 9911SOL     OW30631   3.053   4.763   1.817
 9911SOL    HW130632   3.011   4.699   1.880
 9911SOL    HW230633   3.045   4.729   1.723
 9912SOL     OW30634   6.074   6.327   0.524
 9912SOL    HW130635   6.172   6.326   0.540
 9912SOL    HW230636   6.031   6.397   0.582
 9913SOL     OW30637   6.560   1.828   1.942
 9913SOL    HW130638   6.532   1.774   2.022
 9913SOL    HW230639   6.532   1.923   1.955
 9914SOL     OW30640   2.161   5.515   3.457
 9914SOL    HW130641   2.100   5.459   3.512
 9914SOL    HW230642   2.220   5.569   3.517
 9915SOL     OW30643   6.074   4.968   4.104
 9915SOL    HW130644   6.046   5.064   4.102
 9915SOL    HW230645   6.162   4.958   4.059
 9916SOL     OW30646   1.713   3.368   1.238
 9916SOL    HW130647   1.792   3.343   1.294
 9916SOL    HW230648   1.634   3.313   1.264
 9917SOL     OW30649   1.956   4.287   4.543
 9917SOL    HW130650   2.044   4.331   4.523
 9917SOL    HW230651   1.966   4.188   4.534
 9918SOL     OW30652   2.450   1.809   4.096
 9918SOL    HW130653   2.479   1.904   4.107
 9918SOL    HW230654   2.351   1.805   4.088
 9919SOL     OW30655   0.909   5.870   1.441
 9919SOL    HW130656   0.911   5.829   1.532
 9919SOL    HW230657   0.817   5.865   1.404
 9920SOL     OW30658   3.515   0.466   3.112
 9920SOL    HW130659   3.570   0.486   3.030
 9920SOL    HW230660   3.462   0.547   3.137
 9921SOL     OW30661   4.675   0.086   2.568
 9921SOL    HW130662   4.598   0.069   2.507
 9921SOL    HW230663   4.759   0.049   2.528
 9922SOL     OW30664   6.165   2.622   2.192
 9922SOL    HW130665   6.119   2.571   2.120
 9922SOL    HW230666   6.138   2.718   2.187
 9923SOL     OW30667   5.757   0.049   6.278
 9923SOL    HW130668   5.794   0.049   6.185
 9923SOL    HW230669   5.664   0.013   6.276
 9924SOL     OW30670   5.837   6.838   4.004
 9924SOL    HW130671   5.755   6.797   4.045
 9924SOL    HW230672   5.901   6.765   3.979
 9925SOL     OW30673   4.007   2.174   5.053
 9925SOL    HW130674   4.037   2.264   5.021
 9925SOL    HW230675   3.966   2.183   5.144
 9926SOL     OW30676   1.408   1.231   5.855
 9926SOL    HW130677   1.366   1.254   5.768
 9926SOL    HW230678   1.436   1.315   5.902
 9927SOL     OW30679   2.238   4.155   4.342
 9927SOL    HW130680   2.188   4.110   4.416
 9927SOL    HW230681   2.334   4.166   4.368
 9928SOL     OW30682   6.656   3.299   3.155
 9928SOL    HW130683   6.714   3.219   3.138
 9928SOL    HW230684   6.711   3.382   3.152
 9929SOL     OW30685   1.198   4.953   5.320
 9929SOL    HW130686   1.277   4.918   5.271
 9929SOL    HW230687   1.205   4.928   5.417
 9930SOL     OW30688   6.769   6.270   0.007
 9930SOL    HW130689   6.741   6.175   7.017
 9930SOL    HW230690   6.781   6.294   0.103
 9931SOL     OW30691   1.250   4.009   6.960
 9931SOL    HW130692   1.181   3.980   6.894
 9931SOL    HW230693   1.209   4.071   0.008
 9932SOL     OW30694   1.841   1.780   1.029
 9932SOL    HW130695   1.818   1.787   1.126
 9932SOL    HW230696   1.758   1.783   0.974
 9933SOL     OW30697   1.664   1.710   3.542
 9933SOL    HW130698   1.740   1.712   3.476
 9933SOL    HW230699   1.593   1.774   3.512
 9934SOL     OW30700   4.712   0.466   5.607
 9934SOL    HW130701   4.639   0.425   5.661
 9934SOL    HW230702   4.799   0.453   5.654
 9935SOL     OW30703   3.510   2.808   6.945
 9935SOL    HW130704   3.496   2.808   6.846
 9935SOL    HW230705   3.605   2.835   6.965
 9936SOL     OW30706   4.683   6.061   0.485
 9936SOL    HW130707   4.685   5.988   0.554
 9936SOL    HW230708   4.696   6.022   0.394
 9937SOL     OW30709   1.307   0.156   5.211
 9937SOL    HW130710   1.226   0.104   5.240
 9937SOL    HW230711   1.278   0.245   5.177
 9938SOL     OW30712   1.255   1.593   3.382
 9938SOL    HW130713   1.281   1.604   3.478
 9938SOL    HW230714   1.336   1.606   3.324
 9939SOL     OW30715   3.232   3.863   0.796
 9939SOL    HW130716   3.261   3.958   0.783
 9939SOL    HW230717   3.160   3.841   0.730
 9940SOL     OW30718   6.162   1.146   2.890
 9940SOL    HW130719   6.160   1.082   2.814
 9940SOL    HW230720   6.240   1.125   2.949
 9941SOL     OW30721   5.923   3.173   0.687
 9941SOL    HW130722   5.888   3.146   0.598
 9941SOL    HW230723   6.000   3.236   0.674
 9942SOL     OW30724   5.373   4.532   2.995
 9942SOL    HW130725   5.338   4.598   3.062
 9942SOL    HW230726   5.345   4.440   3.020
 9943SOL     OW30727   1.591   4.443   5.221
 9943SOL    HW130728   1.499   4.454   5.257
 9943SOL    HW230729   1.593   4.369   5.153
 9944SOL     OW30730   2.091   5.407   6.936
 9944SOL    HW130731   2.180   5.406   6.890
 9944SOL    HW230732   2.067   5.315   6.966
 9945SOL     OW30733   6.165   3.505   5.358
 9945SOL    HW130734   6.156   3.539   5.452
 9945SOL    HW230735   6.075   3.496   5.318
 9946SOL     OW30736   6.088   1.667   0.979
 9946SOL    HW130737   6.156   1.739   0.971
 9946SOL    HW230738   6.111   1.592   0.916
 9947SOL     OW30739   0.028   0.388   3.313
 9947SOL    HW130740   6.994   0.456   3.363
 9947SOL    HW230741   0.010   0.397   3.215
 9948SOL     OW30742   4.879   1.172   5.343
 9948SOL    HW130743   4.812   1.154   5.415
 9948SOL    HW230744   4.901   1.086   5.296
 9949SOL     OW30745   6.744   3.236   2.617
 9949SOL    HW130746   6.809   3.189   2.558
 9949SOL    HW230747   6.679   3.287   2.561
 9950SOL     OW30748   5.164   4.283   6.453
 9950SOL    HW130749   5.068   4.307   6.441
 9950SOL    HW230750   5.174   4.184   6.463
 9951SOL     OW30751   6.554   2.168   2.563
 9951SOL    HW130752   6.573   2.181   2.465
 9951SOL    HW230753   6.490   2.238   2.594
 9952SOL     OW30754   1.602   4.559   1.379
 9952SOL    HW130755   1.594   4.459   1.371
 9952SOL    HW230756   1.531   4.602   1.322
 9953SOL     OW30757   6.474   4.399   5.142
 9953SOL    HW130758   6.389   4.419   5.190
 9953SOL    HW230759   6.548   4.387   5.209
 9954SOL     OW30760   4.381   2.418   1.777
 9954SOL    HW130761   4.462   2.456   1.822
 9954SOL    HW230762   4.327   2.493   1.737
 9955SOL     OW30763   6.160   4.717   2.220
 9955SOL    HW130764   6.211   4.636   2.190
 9955SOL    HW230765   6.072   4.689   2.258
 9956SOL     OW30766   1.533   4.636   3.599
 9956SOL    HW130767   1.473   4.560   3.622
 9956SOL    HW230768   1.608   4.602   3.540
 9957SOL     OW30769   5.804   6.680   0.928
 9957SOL    HW130770   5.817   6.772   0.891
 9957SOL    HW230771   5.717   6.674   0.976
 9958SOL     OW30772   6.280   6.292   5.406
 9958SOL    HW130773   6.285   6.390   5.425
 9958SOL    HW230774   6.283   6.277   5.307
 9959SOL     OW30775   5.950   5.291   7.015
 9959SOL    HW130776   5.962   5.205   0.045
 9959SOL    HW230777   6.015   5.297   6.940
 9960SOL     OW30778   6.385   0.312   6.500
 9960SOL    HW130779   6.426   0.225   6.476
 9960SOL    HW230780   6.447   0.364   6.559
 9961SOL     OW30781   2.933   6.942   7.012
 9961SOL    HW130782   2.948   6.980   0.085
 9961SOL    HW230783   2.896   6.850   0.002
 9962SOL     OW30784   4.179   1.017   2.048
 9962SOL    HW130785   4.106   1.018   1.980
 9962SOL    HW230786   4.181   1.105   2.095
 9963SOL     OW30787   0.416   0.218   6.437
 9963SOL    HW130788   0.509   0.193   6.412
 9963SOL    HW230789   0.354   0.194   6.362
 9964SOL     OW30790   4.848   5.373   5.077
 9964SOL    HW130791   4.864   5.280   5.110
 9964SOL    HW230792   4.765   5.410   5.118
 9965SOL     OW30793   1.858   5.209   5.024
 9965SOL    HW130794   1.883   5.273   4.952
 9965SOL    HW230795   1.829   5.260   5.105
 9966SOL     OW30796   1.843   4.355   1.754
 9966SOL    HW130797   1.819   4.446   1.789
 9966SOL    HW230798   1.937   4.357   1.720
 9967SOL     OW30799   6.923   0.553   2.273
 9967SOL    HW130800   6.965   0.608   2.200
 9967SOL    HW230801   6.968   0.464   2.277
 9968SOL     OW30802   4.208   6.155   6.852
 9968SOL    HW130803   4.234   6.251   6.856
 9968SOL    HW230804   4.243   6.114   6.768
 9969SOL     OW30805   0.869   6.875   2.871
 9969SOL    HW130806   0.965   6.886   2.846
 9969SOL    HW230807   0.853   6.780   2.897
 9970SOL     OW30808   0.567   3.445   1.732
 9970SOL    HW130809   0.617   3.531   1.737
 9970SOL    HW230810   0.485   3.457   1.676
 9971SOL     OW30811   0.373   5.648   5.996
 9971SOL    HW130812   0.428   5.691   6.067
 9971SOL    HW230813   0.422   5.571   5.956
 9972SOL     OW30814   2.987   4.785   5.646
 9972SOL    HW130815   3.052   4.857   5.670
 9972SOL    HW230816   2.897   4.806   5.685
 9973SOL     OW30817   3.098   2.075   2.678
 9973SOL    HW130818   3.127   1.980   2.679
 9973SOL    HW230819   3.115   2.115   2.588
 9974SOL     OW30820   0.727   3.753   3.041
 9974SOL    HW130821   0.731   3.807   3.125
 9974SOL    HW230822   0.642   3.701   3.039
 9975SOL     OW30823   1.427   4.925   6.849
 9975SOL    HW130824   1.508   4.933   6.790
 9975SOL    HW230825   1.453   4.879   6.934
 9976SOL     OW30826   4.635   5.468   4.761
 9976SOL    HW130827   4.618   5.384   4.710
 9976SOL    HW230828   4.551   5.497   4.807
 9977SOL     OW30829   3.956   0.123   5.807
 9977SOL    HW130830   3.898   0.150   5.730
 9977SOL    HW230831   3.963   0.023   5.808
 9978SOL     OW30832   6.387   3.232   0.137
 9978SOL    HW130833   6.476   3.272   0.115
 9978SOL    HW230834   6.401   3.150   0.192
 9979SOL     OW30835   3.398   3.907   3.820
 9979SOL    HW130836   3.467   3.967   3.861
 9979SOL    HW230837   3.358   3.849   3.891
 9980SOL     OW30838   0.576   6.992   6.835
 9980SOL    HW130839   0.628   6.923   6.886
 9980SOL    HW230840   0.623   7.011   6.748
 9981SOL     OW30841   5.534   1.229   1.309
 9981SOL    HW130842   5.551   1.259   1.403
 9981SOL    HW230843   5.461   1.161   1.308
 9982SOL     OW30844   2.627   0.941   5.587
 9982SOL    HW130845   2.559   0.924   5.516
 9982SOL    HW230846   2.631   0.862   5.649
 9983SOL     OW30847   0.729   2.503   1.962
 9983SOL    HW130848   0.789   2.566   1.912
 9983SOL    HW230849   0.753   2.505   2.059
 9984SOL     OW30850   1.495   4.806   0.960
 9984SOL    HW130851   1.397   4.793   0.943
 9984SOL    HW230852   1.511   4.899   0.995
 9985SOL     OW30853   5.732   4.458   6.325
 9985SOL    HW130854   5.684   4.407   6.254
 9985SOL    HW230855   5.759   4.547   6.290
 9986SOL     OW30856   5.631   4.160   0.067
 9986SOL    HW130857   5.686   4.077   0.078
 9986SOL    HW230858   5.688   4.232   0.029
 9987SOL     OW30859   4.943   1.803   0.699
 9987SOL    HW130860   5.023   1.842   0.744
 9987SOL    HW230861   4.968   1.773   0.607
 9988SOL     OW30862   5.397   6.629   4.285
 9988SOL    HW130863   5.343   6.553   4.249
 9988SOL    HW230864   5.401   6.623   4.385
 9989SOL     OW30865   6.604   5.234   2.007
 9989SOL    HW130866   6.637   5.144   1.977
 9989SOL    HW230867   6.648   5.305   1.953
 9990SOL     OW30868   0.362   6.459   2.769
 9990SOL    HW130869   0.394   6.377   2.722
 9990SOL    HW230870   0.362   6.443   2.868
 9991SOL     OW30871   2.124   3.290   2.135
 9991SOL    HW130872   2.024   3.298   2.126
 9991SOL    HW230873   2.168   3.370   2.093
 9992SOL     OW30874   2.032   4.059   0.274
 9992SOL    HW130875   1.992   3.980   0.227
 9992SOL    HW230876   2.036   4.041   0.372
 9993SOL     OW30877   3.680   0.136   4.370
 9993SOL    HW130878   3.771   0.157   4.335
 9993SOL    HW230879   3.638   0.219   4.407
 9994SOL     OW30880   5.639   4.802   5.527
 9994SOL    HW130881   5.665   4.868   5.456
 9994SOL    HW230882   5.539   4.798   5.535
 9995SOL     OW30883   4.036   1.699   6.200
 9995SOL    HW130884   3.990   1.754   6.130
 9995SOL    HW230885   4.127   1.673   6.168
 9996SOL     OW30886   2.627   4.720   1.284
 9996SOL    HW130887   2.608   4.624   1.306
 9996SOL    HW230888   2.721   4.729   1.251
 9997SOL     OW30889   5.566   0.257   2.838
 9997SOL    HW130890   5.604   0.231   2.749
 9997SOL    HW230891   5.627   0.226   2.910
 9998SOL     OW30892   5.444   3.875   2.359
 9998SOL    HW130893   5.514   3.927   2.309
 9998SOL    HW230894   5.473   3.864   2.455
 9999SOL     OW30895   0.848   0.373   4.714
 9999SOL    HW130896   0.819   0.304   4.647
 9999SOL    HW230897   0.771   0.395   4.774
10000SOL     OW30898   4.585   3.421   1.671
10000SOL    HW130899   4.544   3.330   1.678
10000SOL    HW230900   4.516   3.490   1.691
10001SOL     OW30901   4.066   6.544   1.339
10001SOL    HW130902   4.002   6.620   1.325
10001SOL    HW230903   4.016   6.457   1.339
10002SOL     OW30904   2.378   6.712   2.677
10002SOL    HW130905   2.362   6.807   2.704
10002SOL    HW230906   2.324   6.692   2.595
10003SOL     OW30907   0.822   1.418   2.887
10003SOL    HW130908   0.904   1.378   2.844
10003SOL    HW230909   0.782   1.352   2.950
10004SOL     OW30910   0.032   2.418   3.332
10004SOL    HW130911   0.129   2.409   3.353
10004SOL    HW230912   0.010   2.366   3.249
10005SOL     OW30913   2.341   5.938   2.690
10005SOL    HW130914   2.288   5.857   2.715
10005SOL    HW230915   2.332   6.007   2.762
10006SOL     OW30916   5.492   1.894   6.487
10006SOL    HW130917   5.436   1.819   6.452
10006SOL    HW230918   5.485   1.898   6.587
10007SOL     OW30919   1.876   5.040   3.324
10007SOL    HW130920   1.811   5.054   3.399
10007SOL    HW230921   1.830   5.056   3.237
10008SOL     OW30922   3.555   0.303   5.986
10008SOL    HW130923   3.627   0.261   6.043
10008SOL    HW230924   3.598   0.352   5.910
10009SOL     OW30925   1.261   5.553   1.747
10009SOL    HW130926   1.332   5.617   1.775
10009SOL    HW230927   1.183   5.603   1.712
10010SOL     OW30928   2.379   5.180   0.715
10010SOL    HW130929   2.297   5.234   0.694
10010SOL    HW230930   2.355   5.083   0.721
10011SOL     OW30931   3.271   3.428   6.950
10011SOL    HW130932   3.232   3.519   6.944
10011SOL    HW230933   3.269   3.385   6.860
10012SOL     OW30934   5.555   2.026   3.082
10012SOL    HW130935   5.487   2.072   3.026
10012SOL    HW230936   5.642   2.024   3.033
10013SOL     OW30937   0.045   6.099   5.945
10013SOL    HW130938   0.008   6.007   5.936
10013SOL    HW230939   0.042   6.128   6.041
10014SOL     OW30940   1.292   1.298   2.730
10014SOL    HW130941   1.323   1.371   2.792
10014SOL    HW230942   1.369   1.240   2.705
10015SOL     OW30943   3.997   0.740   0.043
10015SOL    HW130944   3.973   0.762   0.137
10015SOL    HW230945   4.047   0.817   0.002
10016SOL     OW30946   2.579   1.308   5.042
10016SOL    HW130947   2.601   1.389   5.096
10016SOL    HW230948   2.638   1.305   4.962
10017SOL     OW30949   3.172   1.725   3.098
10017SOL    HW130950   3.149   1.694   3.190
10017SOL    HW230951   3.270   1.740   3.090
10018SOL     OW30952   0.070   4.437   5.403
10018SOL    HW130953   0.051   4.536   5.407
10018SOL    HW230954   0.076   4.401   5.496
10019SOL     OW30955   0.181   1.872   2.784
10019SOL    HW130956   0.208   1.862   2.879
10019SOL    HW230957   0.260   1.899   2.729
10020SOL     OW30958   6.591   1.251   2.954
10020SOL    HW130959   6.580   1.152   2.958
10020SOL    HW230960   6.579   1.282   2.860
10021SOL     OW30961   2.261   4.022   1.780
10021SOL    HW130962   2.182   4.054   1.832
10021SOL    HW230963   2.302   3.944   1.827
10022SOL     OW30964   0.736   6.712   5.831
10022SOL    HW130965   0.647   6.728   5.788
10022SOL    HW230966   0.724   6.663   5.917
10023SOL     OW30967   1.196   1.392   4.570
10023SOL    HW130968   1.163   1.335   4.494
10023SOL    HW230969   1.287   1.360   4.597
10024SOL     OW30970   1.924   3.887   3.201
10024SOL    HW130971   1.893   3.842   3.117
10024SOL    HW230972   1.987   3.962   3.177
10025SOL     OW30973   0.634   2.633   1.403
10025SOL    HW130974   0.617   2.543   1.442
10025SOL    HW230975   0.568   2.699   1.439
10026SOL     OW30976   6.652   1.487   4.610
10026SOL    HW130977   6.697   1.398   4.617
10026SOL    HW230978   6.678   1.531   4.524
10027SOL     OW30979   3.195   1.466   5.759
10027SOL    HW130980   3.251   1.390   5.725
10027SOL    HW230981   3.099   1.441   5.755
10028SOL     OW30982   3.935   6.250   1.986
10028SOL    HW130983   3.901   6.253   2.080
10028SOL    HW230984   3.908   6.334   1.938
10029SOL     OW30985   6.982   4.989   3.980
10029SOL    HW130986   0.024   5.061   3.946
10029SOL    HW230987   7.005   4.903   3.934
10030SOL     OW30988   2.760   6.729   4.130
10030SOL    HW130989   2.714   6.737   4.041
10030SOL    HW230990   2.831   6.659   4.124
10031SOL     OW30991   1.750   6.607   3.692
10031SOL    HW130992   1.694   6.545   3.638
10031SOL    HW230993   1.715   6.701   3.683
10032SOL     OW30994   2.340   5.437   4.909
10032SOL    HW130995   2.373   5.454   4.816
10032SOL    HW230996   2.418   5.430   4.971
10033SOL     OW30997   1.973   1.472   4.657
10033SOL    HW130998   1.946   1.375   4.655
10033SOL    HW230999   1.970   1.509   4.564
10034SOL     OW31000   2.240   1.105   1.992
10034SOL    HW131001   2.203   1.013   2.002
10034SOL    HW231002   2.331   1.101   1.951
10035SOL     OW31003   0.491   2.625   2.311
10035SOL    HW131004   0.489   2.725   2.303
10035SOL    HW231005   0.410   2.594   2.359
10036SOL     OW31006   0.630   1.617   0.275
10036SOL    HW131007   0.726   1.618   0.247
10036SOL    HW231008   0.572   1.641   0.197
10037SOL     OW31009   6.026   0.853   6.086
10037SOL    HW131010   6.066   0.761   6.085
10037SOL    HW231011   6.095   0.920   6.059
10038SOL     OW31012   4.550   0.226   6.974
10038SOL    HW131013   4.627   0.194   0.010
10038SOL    HW231014   4.465   0.216   0.008
10039SOL     OW31015   0.072   4.464   1.086
10039SOL    HW131016   0.073   4.564   1.075
10039SOL    HW231017   0.082   4.421   0.996
10040SOL     OW31018   2.922   0.489   0.577
10040SOL    HW131019   3.007   0.447   0.610
10040SOL    HW231020   2.926   0.497   0.477
10041SOL     OW31021   5.854   4.402   5.549
10041SOL    HW131022   5.853   4.434   5.454
10041SOL    HW231023   5.938   4.351   5.566
10042SOL     OW31024   6.066   0.400   5.149
10042SOL    HW131025   5.998   0.401   5.076
10042SOL    HW231026   6.030   0.449   5.229
10043SOL     OW31027   0.604   0.460   3.272
10043SOL    HW131028   0.581   0.540   3.327
10043SOL    HW231029   0.532   0.392   3.280
10044SOL     OW31030   3.073   1.993   6.587
10044SOL    HW131031   3.015   2.073   6.570
10044SOL    HW231032   3.168   2.015   6.562
10045SOL     OW31033   3.900   0.020   4.563
10045SOL    HW131034   3.907   0.098   4.502
10045SOL    HW231035   3.815   0.025   4.616
10046SOL     OW31036   6.730   2.158   0.929
10046SOL    HW131037   6.780   2.228   0.878
10046SOL    HW231038   6.689   2.199   1.011
10047SOL     OW31039   0.926   2.690   3.036
10047SOL    HW131040   0.890   2.717   2.947
10047SOL    HW231041   0.861   2.628   3.081
10048SOL     OW31042   3.311   2.294   1.687
10048SOL    HW131043   3.325   2.319   1.783
10048SOL    HW231044   3.387   2.327   1.632
10049SOL     OW31045   1.141   5.370   4.625
10049SOL    HW131046   1.194   5.287   4.609
10049SOL    HW231047   1.105   5.369   4.718
10050SOL     OW31048   5.817   1.431   5.118
10050SOL    HW131049   5.724   1.460   5.140
10050SOL    HW231050   5.876   1.450   5.197
10051SOL     OW31051   6.060   1.913   0.768
10051SOL    HW131052   6.126   1.963   0.711
10051SOL    HW231053   6.052   1.819   0.735
10052SOL     OW31054   2.020   5.429   1.072
10052SOL    HW131055   1.973   5.426   0.984
10052SOL    HW231056   2.119   5.434   1.056
10053SOL     OW31057   2.936   6.396   3.449
10053SOL    HW131058   3.007   6.404   3.518
10053SOL    HW231059   2.899   6.487   3.428
10054SOL     OW31060   5.049   4.331   3.933
10054SOL    HW131061   4.985   4.266   3.891
10054SOL    HW231062   5.041   4.325   4.032
10055SOL     OW31063   5.144   2.611   0.096
10055SOL    HW131064   5.221   2.636   0.155
10055SOL    HW231065   5.083   2.690   0.085
10056SOL     OW31066   5.009   3.805   3.008
10056SOL    HW131067   4.995   3.858   3.091
10056SOL    HW231068   4.931   3.744   2.993
10057SOL     OW31069   2.213   2.466   2.825
10057SOL    HW131070   2.138   2.414   2.865
10057SOL    HW231071   2.213   2.454   2.726
10058SOL     OW31072   0.938   4.781   3.908
10058SOL    HW131073   0.868   4.830   3.961
10058SOL    HW231074   0.998   4.847   3.864
10059SOL     OW31075   4.541   6.242   1.893
10059SOL    HW131076   4.448   6.273   1.876
10059SOL    HW231077   4.592   6.240   1.807
10060SOL     OW31078   2.325   2.345   2.217
10060SOL    HW131079   2.375   2.309   2.297
10060SOL    HW231080   2.287   2.268   2.165
10061SOL     OW31081   0.112   1.742   5.416
10061SOL    HW131082   0.094   1.675   5.344
10061SOL    HW231083   0.070   1.710   5.501
10062SOL     OW31084   5.376   5.886   3.170
10062SOL    HW131085   5.321   5.853   3.093
10062SOL    HW231086   5.432   5.811   3.206
10063SOL     OW31087   0.907   2.750   2.338
10063SOL    HW131088   0.889   2.805   2.419
10063SOL    HW231089   1.006   2.738   2.327
10064SOL     OW31090   4.996   4.952   5.683
10064SOL    HW131091   5.050   4.869   5.668
10064SOL    HW231092   5.005   4.981   5.778
10065SOL     OW31093   0.451   0.284   2.830
10065SOL    HW131094   0.430   0.343   2.751
10065SOL    HW231095   0.550   0.274   2.838
10066SOL     OW31096   6.721   0.429   4.239
10066SOL    HW131097   6.699   0.491   4.163
10066SOL    HW231098   6.650   0.434   4.308
10067SOL     OW31099   4.769   6.635   3.240
10067SOL    HW131100   4.794   6.723   3.279
10067SOL    HW231101   4.672   6.636   3.214
10068SOL     OW31102   5.225   3.226   5.519
10068SOL    HW131103   5.257   3.212   5.613
10068SOL    HW231104   5.194   3.320   5.508
10069SOL     OW31105   4.648   1.445   4.492
10069SOL    HW131106   4.701   1.500   4.427
10069SOL    HW231107   4.646   1.350   4.460
10070SOL     OW31108   1.246   6.925   4.342
10070SOL    HW131109   1.339   6.890   4.340
10070SOL    HW231110   1.208   6.913   4.434
10071SOL     OW31111   4.806   4.722   5.207
10071SOL    HW131112   4.751   4.643   5.178
10071SOL    HW231113   4.749   4.804   5.208
10072SOL     OW31114   0.586   6.196   4.309
10072SOL    HW131115   0.565   6.173   4.214
10072SOL    HW231116   0.502   6.222   4.357
10073SOL     OW31117   6.711   6.707   6.257
10073SOL    HW131118   6.760   6.794   6.266
10073SOL    HW231119   6.692   6.689   6.160
10074SOL     OW31120   2.142   6.596   4.782
10074SOL    HW131121   2.178   6.637   4.698
10074SOL    HW231122   2.116   6.501   4.765
10075SOL     OW31123   0.840   2.694   4.423
10075SOL    HW131124   0.758   2.746   4.403
10075SOL    HW231125   0.819   2.623   4.491
10076SOL     OW31126   5.651   6.933   3.616
10076SOL    HW131127   5.692   6.978   3.695
10076SOL    HW231128   5.688   6.972   3.532
10077SOL     OW31129   2.802   1.175   5.501
10077SOL    HW131130   2.765   1.260   5.463
10077SOL    HW231131   2.727   1.111   5.519
10078SOL     OW31132   5.207   6.447   5.326
10078SOL    HW131133   5.291   6.392   5.327
10078SOL    HW231134   5.161   6.435   5.238
10079SOL     OW31135   0.525   3.147   6.140
10079SOL    HW131136   0.534   3.222   6.075
10079SOL    HW231137   0.469   3.074   6.101
10080SOL     OW31138   1.341   2.611   5.365
10080SOL    HW131139   1.256   2.581   5.321
10080SOL    HW231140   1.391   2.671   5.303
10081SOL     OW31141   0.608   1.034   0.394
10081SOL    HW131142   0.682   1.100   0.409
10081SOL    HW231143   0.645   0.951   0.352
10082SOL     OW31144   6.774   0.802   0.231
10082SOL    HW131145   6.871   0.822   0.246
10082SOL    HW231146   6.723   0.888   0.228
10083SOL     OW31147   5.561   1.400   4.805
10083SOL    HW131148   5.539   1.414   4.902
10083SOL    HW231149   5.610   1.314   4.795
10084SOL     OW31150   2.984   0.824   6.391
10084SOL    HW131151   3.029   0.746   6.435
10084SOL    HW231152   2.927   0.872   6.457
10085SOL     OW31153   0.883   5.662   2.882
10085SOL    HW131154   0.824   5.743   2.888
10085SOL    HW231155   0.838   5.585   2.928
10086SOL     OW31156   6.841   2.392   2.695
10086SOL    HW131157   6.861   2.383   2.597
10086SOL    HW231158   6.886   2.318   2.745
10087SOL     OW31159   1.893   0.413   3.415
10087SOL    HW131160   1.809   0.425   3.362
10087SOL    HW231161   1.927   0.320   3.402
10088SOL     OW31162   5.568   0.221   4.387
10088SOL    HW131163   5.481   0.179   4.364
10088SOL    HW231164   5.564   0.320   4.371
10089SOL     OW31165   2.327   2.670   2.205
10089SOL    HW131166   2.407   2.620   2.171
10089SOL    HW231167   2.338   2.687   2.303
10090SOL     OW31168   0.492   5.481   2.176
10090SOL    HW131169   0.441   5.430   2.245
10090SOL    HW231170   0.447   5.568   2.159
10091SOL     OW31171   0.683   1.153   4.670
10091SOL    HW131172   0.655   1.240   4.631
10091SOL    HW231173   0.771   1.125   4.630
10092SOL     OW31174   2.229   2.425   5.792
10092SOL    HW131175   2.133   2.398   5.798
10092SOL    HW231176   2.235   2.516   5.751
10093SOL     OW31177   6.703   6.780   5.478
10093SOL    HW131178   6.706   6.880   5.484
10093SOL    HW231179   6.613   6.748   5.507
10094SOL     OW31180   1.609   0.543   1.730
10094SOL    HW131181   1.643   0.527   1.637
10094SOL    HW231182   1.518   0.503   1.739
10095SOL     OW31183   0.571   2.490   5.218
10095SOL    HW131184   0.543   2.516   5.126
10095SOL    HW231185   0.625   2.564   5.259
10096SOL     OW31186   5.946   5.594   2.812
10096SOL    HW131187   5.941   5.624   2.717
10096SOL    HW231188   5.928   5.496   2.817
10097SOL     OW31189   1.274   2.584   5.759
10097SOL    HW131190   1.303   2.652   5.692
10097SOL    HW231191   1.234   2.630   5.838
10098SOL     OW31192   3.711   5.305   6.246
10098SOL    HW131193   3.614   5.283   6.259
10098SOL    HW231194   3.767   5.247   6.305
10099SOL     OW31195   0.727   3.742   4.007
10099SOL    HW131196   0.661   3.784   4.068
10099SOL    HW231197   0.735   3.795   3.923
10100SOL     OW31198   4.557   0.357   5.821
10100SOL    HW131199   4.524   0.370   5.914
10100SOL    HW231200   4.497   0.295   5.771
10101SOL     OW31201   7.018   4.421   2.386
10101SOL    HW131202   6.943   4.457   2.441
10101SOL    HW231203   0.005   4.470   2.299
10102SOL     OW31204   4.245   0.511   4.236
10102SOL    HW131205   4.227   0.460   4.321
10102SOL    HW231206   4.162   0.560   4.209
10103SOL     OW31207   0.269   3.013   0.653
10103SOL    HW131208   0.243   2.936   0.711
10103SOL    HW231209   0.363   3.000   0.621
10104SOL     OW31210   2.125   5.397   5.691
10104SOL    HW131211   2.048   5.424   5.632
10104SOL    HW231212   2.114   5.302   5.717
10105SOL     OW31213   3.896   0.613   6.842
10105SOL    HW131214   3.935   0.649   6.927
10105SOL    HW231215   3.852   0.525   6.859
10106SOL     OW31216   4.851   5.674   0.903
10106SOL    HW131217   4.861   5.607   0.830
10106SOL    HW231218   4.786   5.641   0.971
10107SOL     OW31219   5.727   1.189   6.408
10107SOL    HW131220   5.758   1.269   6.356
10107SOL    HW231221   5.760   1.106   6.365
10108SOL     OW31222   4.937   6.153   5.967
10108SOL    HW131223   5.006   6.186   5.903
10108SOL    HW231224   4.864   6.106   5.917
10109SOL     OW31225   4.972   5.926   3.629
10109SOL    HW131226   5.059   5.931   3.580
10109SOL    HW231227   4.946   5.830   3.640
10110SOL     OW31228   3.399   2.328   5.786
10110SOL    HW131229   3.482   2.383   5.792
10110SOL    HW231230   3.423   2.234   5.760
10111SOL     OW31231   6.801   2.615   1.508
10111SOL    HW131232   6.868   2.629   1.581
10111SOL    HW231233   6.713   2.588   1.549
10112SOL     OW31234   4.787   3.970   5.632
10112SOL    HW131235   4.756   4.065   5.627
10112SOL    HW231236   4.769   3.933   5.723
10113SOL     OW31237   2.934   0.039   1.133
10113SOL    HW131238   2.858   6.993   1.136
10113SOL    HW231239   2.991   0.028   1.215
10114SOL     OW31240   4.624   1.637   1.431
10114SOL    HW131241   4.716   1.633   1.472
10114SOL    HW231242   4.578   1.549   1.443
10115SOL     OW31243   1.220   1.692   4.584
10115SOL    HW131244   1.191   1.606   4.541
10115SOL    HW231245   1.284   1.739   4.524
10116SOL     OW31246   0.288   0.462   0.706
10116SOL    HW131247   0.309   0.427   0.615
10116SOL    HW231248   0.362   0.523   0.736
10117SOL     OW31249   4.144   6.960   6.275
10117SOL    HW131250   4.055   6.993   6.244
10117SOL    HW231251   4.164   6.998   6.365
10118SOL     OW31252   5.294   5.260   2.551
10118SOL    HW131253   5.249   5.177   2.518
10118SOL    HW231254   5.376   5.235   2.603
10119SOL     OW31255   1.941   6.966   6.552
10119SOL    HW131256   1.899   6.877   6.572
10119SOL    HW231257   2.022   6.979   6.610
10120SOL     OW31258   5.903   3.309   3.626
10120SOL    HW131259   5.908   3.230   3.565
10120SOL    HW231260   5.980   3.307   3.691
10121SOL     OW31261   5.959   4.606   4.091
10121SOL    HW131262   5.945   4.554   4.175
10121SOL    HW231263   5.870   4.631   4.053
10122SOL     OW31264   5.149   2.469   1.088
10122SOL    HW131265   5.106   2.398   1.032
10122SOL    HW231266   5.247   2.471   1.070
10123SOL     OW31267   0.131   6.472   0.503
10123SOL    HW131268   0.055   6.419   0.540
10123SOL    HW231269   0.218   6.428   0.526
10124SOL     OW31270   3.710   4.583   0.681
10124SOL    HW131271   3.631   4.563   0.738
10124SOL    HW231272   3.761   4.660   0.721
10125SOL     OW31273   2.568   0.754   6.739
10125SOL    HW131274   2.654   0.751   6.790
10125SOL    HW231275   2.576   0.701   6.655
10126SOL     OW31276   5.641   4.988   5.894
10126SOL    HW131277   5.662   4.990   5.796
10126SOL    HW231278   5.598   4.901   5.918
10127SOL     OW31279   4.094   4.820   4.992
10127SOL    HW131280   4.096   4.781   5.084
10127SOL    HW231281   4.001   4.814   4.956
10128SOL     OW31282   0.995   0.841   1.016
10128SOL    HW131283   1.062   0.770   1.041
10128SOL    HW231284   1.029   0.892   0.937
10129SOL     OW31285   5.649   2.777   2.940
10129SOL    HW131286   5.717   2.789   2.867
10129SOL    HW231287   5.557   2.789   2.902
10130SOL     OW31288   5.959   5.382   1.011
10130SOL    HW131289   5.879   5.426   1.053
10130SOL    HW231290   6.003   5.447   0.948
10131SOL     OW31291   0.687   0.196   0.059
10131SOL    HW131292   0.603   0.244   0.085
10131SOL    HW231293   0.691   0.108   0.107
10132SOL     OW31294   2.668   6.723   2.623
10132SOL    HW131295   2.574   6.689   2.613
10132SOL    HW231296   2.684   6.748   2.719
10133SOL     OW31297   6.241   4.607   2.516
10133SOL    HW131298   6.315   4.578   2.577
10133SOL    HW231299   6.172   4.534   2.511
10134SOL     OW31300   0.669   1.646   1.592
10134SOL    HW131301   0.636   1.736   1.619
10134SOL    HW231302   0.709   1.600   1.671
10135SOL     OW31303   3.393   6.333   2.648
10135SOL    HW131304   3.333   6.266   2.693
10135SOL    HW231305   3.481   6.290   2.629
10136SOL     OW31306   6.217   6.556   2.841
10136SOL    HW131307   6.183   6.643   2.805
10136SOL    HW231308   6.204   6.485   2.772
10137SOL     OW31309   5.780   4.463   4.567
10137SOL    HW131310   5.837   4.457   4.485
10137SOL    HW231311   5.686   4.439   4.544
10138SOL     OW31312   5.541   3.018   5.871
10138SOL    HW131313   5.532   2.982   5.963
10138SOL    HW231314   5.498   2.955   5.806
10139SOL     OW31315   4.006   3.230   3.374
10139SOL    HW131316   4.042   3.221   3.467
10139SOL    HW231317   3.979   3.140   3.340
10140SOL     OW31318   1.020   4.693   4.202
10140SOL    HW131319   1.046   4.788   4.182
10140SOL    HW231320   0.940   4.669   4.147
10141SOL     OW31321   2.332   0.719   3.597
10141SOL    HW131322   2.290   0.795   3.547
10141SOL    HW231323   2.262   0.655   3.627
10142SOL     OW31324   5.515   5.539   4.262
10142SOL    HW131325   5.574   5.509   4.338
10142SOL    HW231326   5.479   5.629   4.283
10143SOL     OW31327   4.616   6.529   1.427
10143SOL    HW131328   4.525   6.490   1.443
10143SOL    HW231329   4.607   6.625   1.402
10144SOL     OW31330   3.159   4.912   2.807
10144SOL    HW131331   3.078   4.873   2.764
10144SOL    HW231332   3.208   4.970   2.742
10145SOL     OW31333   2.770   0.071   6.501
10145SOL    HW131334   2.705   0.129   6.452
10145SOL    HW231335   2.748   6.993   6.485
10146SOL     OW31336   4.470   4.642   3.740
10146SOL    HW131337   4.481   4.571   3.809
10146SOL    HW231338   4.392   4.700   3.764
10147SOL     OW31339   5.137   5.454   4.738
10147SOL    HW131340   5.167   5.530   4.796
10147SOL    HW231341   5.043   5.429   4.762
10148SOL     OW31342   6.108   5.575   0.878
10148SOL    HW131343   6.105   5.638   0.801
10148SOL    HW231344   6.141   5.623   0.959
10149SOL     OW31345   3.709   2.629   1.486
10149SOL    HW131346   3.718   2.726   1.466
10149SOL    HW231347   3.630   2.591   1.438
10150SOL     OW31348   5.472   4.142   0.979
10150SOL    HW131349   5.548   4.100   1.028
10150SOL    HW231350   5.390   4.087   0.990
10151SOL     OW31351   0.572   5.094   6.210
10151SOL    HW131352   0.640   5.080   6.282
10151SOL    HW231353   0.542   5.189   6.211
10152SOL     OW31354   0.438   5.539   4.030
10152SOL    HW131355   0.372   5.552   4.103
10152SOL    HW231356   0.523   5.503   4.067
10153SOL     OW31357   5.694   5.267   3.844
10153SOL    HW131358   5.711   5.286   3.941
10153SOL    HW231359   5.606   5.221   3.834
10154SOL     OW31360   6.474   5.692   5.558
10154SOL    HW131361   6.494   5.666   5.463
10154SOL    HW231362   6.378   5.720   5.565
10155SOL     OW31363   4.012   1.111   5.782
10155SOL    HW131364   4.003   1.021   5.739
10155SOL    HW231365   4.032   1.099   5.879
10156SOL     OW31366   5.934   0.245   2.262
10156SOL    HW131367   5.936   0.344   2.268
10156SOL    HW231368   5.997   0.214   2.191
10157SOL     OW31369   5.286   0.346   3.814
10157SOL    HW131370   5.243   0.258   3.831
10157SOL    HW231371   5.376   0.333   3.771
10158SOL     OW31372   4.890   3.187   5.944
10158SOL    HW131373   4.823   3.259   5.926
10158SOL    HW231374   4.974   3.205   5.893
10159SOL     OW31375   1.278   0.848   6.387
10159SOL    HW131376   1.290   0.879   6.481
10159SOL    HW231377   1.367   0.850   6.340
10160SOL     OW31378   0.339   6.705   3.917
10160SOL    HW131379   0.322   6.800   3.892
10160SOL    HW231380   0.305   6.645   3.844
10161SOL     OW31381   2.731   5.520   4.996
10161SOL    HW131382   2.784   5.525   4.911
10161SOL    HW231383   2.781   5.466   5.063
10162SOL     OW31384   2.526   2.042   6.044
10162SOL    HW131385   2.610   2.000   6.010
10162SOL    HW231386   2.498   2.116   5.982
10163SOL     OW31387   0.635   3.373   5.404
10163SOL    HW131388   0.558   3.359   5.341
10163SOL    HW231389   0.707   3.424   5.358
10164SOL     OW31390   1.718   2.395   6.272
10164SOL    HW131391   1.783   2.319   6.277
10164SOL    HW231392   1.672   2.406   6.359
10165SOL     OW31393   6.945   2.152   3.499
10165SOL    HW131394   0.019   2.179   3.473
10165SOL    HW231395   6.944   2.056   3.525
10166SOL     OW31396   0.608   0.907   2.242
10166SOL    HW131397   0.549   0.987   2.252
10166SOL    HW231398   0.598   0.847   2.322
10167SOL     OW31399   5.139   0.448   0.858
10167SOL    HW131400   5.072   0.380   0.888
10167SOL    HW231401   5.094   0.516   0.799
10168SOL     OW31402   6.858   4.337   5.242
10168SOL    HW131403   6.811   4.426   5.242
10168SOL    HW231404   6.930   4.337   5.311
10169SOL     OW31405   6.671   4.381   4.829
10169SOL    HW131406   6.578   4.417   4.838
10169SOL    HW231407   6.737   4.451   4.859
10170SOL     OW31408   1.514   4.399   4.876
10170SOL    HW131409   1.572   4.318   4.882
10170SOL    HW231410   1.554   4.463   4.811
10171SOL     OW31411   6.187   2.834   6.039
10171SOL    HW131412   6.285   2.821   6.053
10171SOL    HW231413   6.141   2.745   6.044
10172SOL     OW31414   5.158   0.533   4.873
10172SOL    HW131415   5.185   0.603   4.939
10172SOL    HW231416   5.112   0.458   4.920
10173SOL     OW31417   1.795   2.678   2.613
10173SOL    HW131418   1.859   2.612   2.652
10173SOL    HW231419   1.846   2.751   2.567
10174SOL     OW31420   6.552   4.503   1.511
10174SOL    HW131421   6.546   4.581   1.574
10174SOL    HW231422   6.646   4.471   1.507
10175SOL     OW31423   5.866   2.379   5.524
10175SOL    HW131424   5.887   2.349   5.617
10175SOL    HW231425   5.807   2.460   5.528
10176SOL     OW31426   3.087   2.956   0.833
10176SOL    HW131427   3.142   3.010   0.770
10176SOL    HW231428   2.995   2.996   0.839
10177SOL     OW31429   1.111   6.947   5.272
10177SOL    HW131430   1.012   6.956   5.274
10177SOL    HW231431   1.136   6.851   5.265
10178SOL     OW31432   5.443   2.957   4.972
10178SOL    HW131433   5.439   2.865   5.011
10178SOL    HW231434   5.532   2.971   4.929
10179SOL     OW31435   0.059   3.599   0.370
10179SOL    HW131436   0.072   3.625   0.274
10179SOL    HW231437   0.077   3.501   0.381
10180SOL     OW31438   1.742   6.453   6.158
10180SOL    HW131439   1.657   6.400   6.161
10180SOL    HW231440   1.765   6.485   6.250
10181SOL     OW31441   6.147   3.815   2.126
10181SOL    HW131442   6.181   3.721   2.127
10181SOL    HW231443   6.141   3.847   2.031
10182SOL     OW31444   4.072   1.476   1.047
10182SOL    HW131445   4.077   1.553   1.111
10182SOL    HW231446   4.034   1.397   1.095
10183SOL     OW31447   1.654   1.541   5.875
10183SOL    HW131448   1.746   1.568   5.846
10183SOL    HW231449   1.602   1.512   5.795
10184SOL     OW31450   4.671   6.914   6.936
10184SOL    HW131451   4.710   6.828   6.967
10184SOL    HW231452   4.743   6.970   6.895
10185SOL     OW31453   4.246   1.201   0.432
10185SOL    HW131454   4.165   1.199   0.373
10185SOL    HW231455   4.320   1.249   0.385
10186SOL     OW31456   4.833   2.319   2.719
10186SOL    HW131457   4.751   2.363   2.680
10186SOL    HW231458   4.834   2.222   2.694
10187SOL     OW31459   0.204   2.547   2.392
10187SOL    HW131460   0.172   2.573   2.483
10187SOL    HW231461   0.165   2.458   2.367
10188SOL     OW31462   4.147   5.633   0.220
10188SOL    HW131463   4.247   5.635   0.216
10188SOL    HW231464   4.111   5.716   0.177
10189SOL     OW31465   0.988   6.618   4.761
10189SOL    HW131466   0.929   6.546   4.723
10189SOL    HW231467   0.957   6.641   4.853
10190SOL     OW31468   5.658   3.049   0.059
10190SOL    HW131469   5.749   3.077   0.029
10190SOL    HW231470   5.621   2.980   7.015
10191SOL     OW31471   6.531   4.628   6.817
10191SOL    HW131472   6.563   4.622   6.722
10191SOL    HW231473   6.435   4.599   6.821
10192SOL     OW31474   3.489   1.835   0.295
10192SOL    HW131475   3.532   1.794   0.214
10192SOL    HW231476   3.549   1.821   0.374
10193SOL     OW31477   5.048   4.155   0.702
10193SOL    HW131478   5.021   4.210   0.781
10193SOL    HW231479   4.970   4.098   0.674
10194SOL     OW31480   5.063   2.461   4.770
10194SOL    HW131481   4.994   2.460   4.697
10194SOL    HW231482   5.022   2.495   4.854
10195SOL     OW31483   5.896   4.985   2.534
10195SOL    HW131484   5.913   4.946   2.443
10195SOL    HW231485   5.847   4.918   2.590
10196SOL     OW31486   0.908   1.344   4.706
10196SOL    HW131487   0.866   1.253   4.704
10196SOL    HW231488   1.005   1.337   4.683
10197SOL     OW31489   5.206   0.829   0.046
10197SOL    HW131490   5.302   0.854   0.053
10197SOL    HW231491   5.196   0.750   7.003
10198SOL     OW31492   4.438   6.979   2.490
10198SOL    HW131493   4.450   6.900   2.551
10198SOL    HW231494   4.379   6.952   2.413
10199SOL     OW31495   0.648   2.148   5.848
10199SOL    HW131496   0.738   2.127   5.809
10199SOL    HW231497   0.613   2.068   5.896
10200SOL     OW31498   5.494   2.484   2.207
10200SOL    HW131499   5.574   2.453   2.258
10200SOL    HW231500   5.522   2.553   2.141
10201SOL     OW31501   1.785   3.552   1.052
10201SOL    HW131502   1.883   3.534   1.058
10201SOL    HW231503   1.735   3.475   1.091
10202SOL     OW31504   5.370   0.119   3.393
10202SOL    HW131505   5.367   0.210   3.352
10202SOL    HW231506   5.390   0.126   3.490
10203SOL     OW31507   0.190   3.164   5.215
10203SOL    HW131508   0.106   3.217   5.225
10203SOL    HW231509   0.184   3.107   5.133
10204SOL     OW31510   4.915   4.325   6.402
10204SOL    HW131511   4.864   4.307   6.486
10204SOL    HW231512   4.858   4.303   6.323
10205SOL     OW31513   6.968   1.680   6.688
10205SOL    HW131514   6.881   1.726   6.703
10205SOL    HW231515   6.951   1.588   6.651
10206SOL     OW31516   2.099   2.106   4.547
10206SOL    HW131517   2.159   2.026   4.549
10206SOL    HW231518   2.067   2.121   4.453
10207SOL     OW31519   2.171   2.426   6.522
10207SOL    HW131520   2.158   2.397   6.617
10207SOL    HW231521   2.086   2.415   6.471
10208SOL     OW31522   6.559   0.158   5.798
10208SOL    HW131523   6.488   0.127   5.862
10208SOL    HW231524   6.524   0.234   5.743
10209SOL     OW31525   6.822   6.537   5.401
10209SOL    HW131526   6.798   6.452   5.449
10209SOL    HW231527   6.804   6.615   5.462
10210SOL     OW31528   3.400   0.450   1.532
10210SOL    HW131529   3.341   0.406   1.464
10210SOL    HW231530   3.438   0.382   1.593
10211SOL     OW31531   5.533   5.592   6.266
10211SOL    HW131532   5.464   5.529   6.301
10211SOL    HW231533   5.623   5.568   6.303
10212SOL     OW31534   0.429   0.271   0.152
10212SOL    HW131535   0.345   0.240   0.108
10212SOL    HW231536   0.406   0.321   0.236
10213SOL     OW31537   6.869   3.229   1.509
10213SOL    HW131538   6.885   3.278   1.595
10213SOL    HW231539   6.832   3.293   1.441
10214SOL     OW31540   1.315   2.493   0.686
10214SOL    HW131541   1.350   2.480   0.779
10214SOL    HW231542   1.350   2.579   0.649
10215SOL     OW31543   3.366   3.830   2.257
10215SOL    HW131544   3.297   3.774   2.301
10215SOL    HW231545   3.352   3.926   2.281
10216SOL     OW31546   0.579   6.157   1.822
10216SOL    HW131547   0.559   6.225   1.893
10216SOL    HW231548   0.677   6.157   1.802
10217SOL     OW31549   3.826   1.519   5.205
10217SOL    HW131550   3.788   1.512   5.297
10217SOL    HW231551   3.854   1.613   5.188
10218SOL     OW31552   1.105   2.858   2.633
10218SOL    HW131553   1.138   2.951   2.616
10218SOL    HW231554   1.161   2.793   2.581
10219SOL     OW31555   6.519   6.172   2.757
10219SOL    HW131556   6.556   6.188   2.849
10219SOL    HW231557   6.563   6.234   2.692
10220SOL     OW31558   3.390   3.267   0.125
10220SOL    HW131559   3.362   3.326   0.050
10220SOL    HW231560   3.319   3.198   0.142
10221SOL     OW31561   1.043   5.458   2.770
10221SOL    HW131562   1.025   5.549   2.807
10221SOL    HW231563   0.988   5.391   2.820
10222SOL     OW31564   2.894   3.497   3.463
10222SOL    HW131565   2.972   3.560   3.466
10222SOL    HW231566   2.830   3.519   3.537
10223SOL     OW31567   2.655   6.814   0.496
10223SOL    HW131568   2.621   6.851   0.582
10223SOL    HW231569   2.745   6.773   0.510
10224SOL     OW31570   6.935   3.163   3.500
10224SOL    HW131571   6.843   3.131   3.520
10224SOL    HW231572   7.002   3.097   3.534
10225SOL     OW31573   2.186   3.735   5.806
10225SOL    HW131574   2.249   3.793   5.754
10225SOL    HW231575   2.236   3.688   5.878
10226SOL     OW31576   4.515   4.373   6.259
10226SOL    HW131577   4.486   4.388   6.354
10226SOL    HW231578   4.455   4.426   6.198
10227SOL     OW31579   5.308   3.870   0.980
10227SOL    HW131580   5.296   3.895   0.883
10227SOL    HW231581   5.398   3.829   0.992
10228SOL     OW31582   5.540   0.090   0.216
10228SOL    HW131583   5.532   0.151   0.137
10228SOL    HW231584   5.557   7.015   0.184
10229SOL     OW31585   0.314   2.117   4.839
10229SOL    HW131586   0.338   2.213   4.825
10229SOL    HW231587   0.233   2.095   4.784
10230SOL     OW31588   5.860   5.966   1.621
10230SOL    HW131589   5.785   6.031   1.635
10230SOL    HW231590   5.858   5.896   1.692
10231SOL     OW31591   0.255   4.044   2.136
10231SOL    HW131592   0.182   4.062   2.070
10231SOL    HW231593   0.223   3.978   2.203
10232SOL     OW31594   4.592   4.780   2.439
10232SOL    HW131595   4.632   4.721   2.368
10232SOL    HW231596   4.651   4.859   2.454
10233SOL     OW31597   3.325   3.398   6.395
10233SOL    HW131598   3.371   3.451   6.466
10233SOL    HW231599   3.372   3.310   6.383
10234SOL     OW31600   0.880   0.875   2.185
10234SOL    HW131601   0.784   0.875   2.213
10234SOL    HW231602   0.894   0.942   2.112
10235SOL     OW31603   0.904   0.468   3.275
10235SOL    HW131604   0.805   0.484   3.276
10235SOL    HW231605   0.943   0.507   3.191
10236SOL     OW31606   0.919   0.209   2.893
10236SOL    HW131607   0.969   0.173   2.972
10236SOL    HW231608   0.821   0.195   2.907
10237SOL     OW31609   6.831   3.918   5.789
10237SOL    HW131610   6.852   3.851   5.718
10237SOL    HW231611   6.753   3.974   5.760
10238SOL     OW31612   2.862   0.033   0.721
10238SOL    HW131613   2.773   0.048   0.764
10238SOL    HW231614   2.907   6.974   0.764
10239SOL     OW31615   1.132   2.469   5.158
10239SOL    HW131616   1.072   2.420   5.095
10239SOL    HW231617   1.094   2.560   5.175
10240SOL     OW31618   1.806   6.250   1.409
10240SOL    HW131619   1.797   6.343   1.445
10240SOL    HW231620   1.735   6.191   1.448
10241SOL     OW31621   4.299   3.825   1.718
10241SOL    HW131622   4.211   3.858   1.753
10241SOL    HW231623   4.372   3.884   1.753
10242SOL     OW31624   0.772   3.825   1.559
10242SOL    HW131625   0.698   3.838   1.493
10242SOL    HW231626   0.850   3.780   1.513
10243SOL     OW31627   3.777   5.525   2.057
10243SOL    HW131628   3.830   5.460   2.003
10243SOL    HW231629   3.789   5.506   2.154
10244SOL     OW31630   1.962   5.774   1.318
10244SOL    HW131631   1.909   5.694   1.289
10244SOL    HW231632   1.902   5.835   1.370
10245SOL     OW31633   6.518   4.022   1.452
10245SOL    HW131634   6.468   3.936   1.458
10245SOL    HW231635   6.608   4.012   1.494
10246SOL     OW31636   3.749   3.181   3.548
10246SOL    HW131637   3.726   3.209   3.641
10246SOL    HW231638   3.841   3.213   3.526
10247SOL     OW31639   0.391   3.473   4.459
10247SOL    HW131640   0.419   3.516   4.373
10247SOL    HW231641   0.413   3.533   4.535
10248SOL     OW31642   0.941   1.110   4.523
10248SOL    HW131643   1.018   1.137   4.466
10248SOL    HW231644   0.876   1.057   4.470
10249SOL     OW31645   2.578   4.447   6.096
10249SOL    HW131646   2.530   4.359   6.095
10249SOL    HW231647   2.616   4.464   6.005
10250SOL     OW31648   3.110   2.713   0.208
10250SOL    HW131649   3.197   2.759   0.190
10250SOL    HW231650   3.038   2.782   0.220
10251SOL     OW31651   0.992   0.759   5.152
10251SOL    HW131652   1.091   0.758   5.168
10251SOL    HW231653   0.963   0.669   5.121
10252SOL     OW31654   5.302   3.601   6.018
10252SOL    HW131655   5.353   3.593   6.104
10252SOL    HW231656   5.349   3.666   5.958
10253SOL     OW31657   3.691   5.791   0.411
10253SOL    HW131658   3.643   5.873   0.380
10253SOL    HW231659   3.629   5.733   0.463
10254SOL     OW31660   6.643   1.514   6.747
10254SOL    HW131661   6.675   1.457   6.823
10254SOL    HW231662   6.655   1.464   6.661
10255SOL     OW31663   3.889   4.844   1.668
10255SOL    HW131664   3.946   4.868   1.590
10255SOL    HW231665   3.845   4.756   1.652
10256SOL     OW31666   2.385   1.359   4.701
10256SOL    HW131667   2.453   1.427   4.727
10256SOL    HW231668   2.320   1.346   4.776
10257SOL     OW31669   3.405   6.257   3.359
10257SOL    HW131670   3.407   6.159   3.378
10257SOL    HW231671   3.468   6.305   3.419
10258SOL     OW31672   3.029   1.639   2.220
10258SOL    HW131673   3.077   1.551   2.218
10258SOL    HW231674   3.096   1.712   2.234
10259SOL     OW31675   1.746   4.020   3.531
10259SOL    HW131676   1.731   3.974   3.443
10259SOL    HW231677   1.661   4.022   3.583
10260SOL     OW31678   0.381   0.194   3.763
10260SOL    HW131679   0.435   0.269   3.726
10260SOL    HW231680   0.411   0.175   3.857
10261SOL     OW31681   0.018   4.050   1.675
10261SOL    HW131682   6.955   4.103   1.654
10261SOL    HW231683   0.033   3.982   1.602
10262SOL     OW31684   4.516   0.952   6.439
10262SOL    HW131685   4.610   0.964   6.470
10262SOL    HW231686   4.486   0.859   6.459
10263SOL     OW31687   5.226   0.046   2.896
10263SOL    HW131688   5.300   0.057   2.963
10263SOL    HW231689   5.235   0.117   2.825
10264SOL     OW31690   6.528   1.076   6.102
10264SOL    HW131691   6.520   1.110   6.008
10264SOL    HW231692   6.558   0.981   6.100
10265SOL     OW31693   1.988   0.798   2.867
10265SOL    HW131694   1.964   0.826   2.774
10265SOL    HW231695   2.084   0.819   2.885
10266SOL     OW31696   2.605   3.749   1.484
10266SOL    HW131697   2.621   3.686   1.408
10266SOL    HW231698   2.652   3.836   1.466
10267SOL     OW31699   6.440   1.005   0.947
10267SOL    HW131700   6.443   0.951   0.862
10267SOL    HW231701   6.398   0.950   1.019
10268SOL     OW31702   3.425   5.728   2.648
10268SOL    HW131703   3.339   5.676   2.646
10268SOL    HW231704   3.452   5.752   2.555
10269SOL     OW31705   2.340   1.473   6.881
10269SOL    HW131706   2.437   1.464   6.857
10269SOL    HW231707   2.302   1.553   6.836
10270SOL     OW31708   2.697   0.368   3.615
10270SOL    HW131709   2.687   0.433   3.540
10270SOL    HW231710   2.636   0.394   3.690
10271SOL     OW31711   2.215   0.997   0.145
10271SOL    HW131712   2.197   1.094   0.158
10271SOL    HW231713   2.312   0.983   0.125
10272SOL     OW31714   5.784   6.763   5.283
10272SOL    HW131715   5.754   6.771   5.188
10272SOL    HW231716   5.789   6.667   5.309
10273SOL     OW31717   2.191   5.310   3.051
10273SOL    HW131718   2.242   5.313   3.137
10273SOL    HW231719   2.102   5.354   3.064
10274SOL     OW31720   0.926   4.053   5.167
10274SOL    HW131721   0.843   3.997   5.165
10274SOL    HW231722   0.902   4.146   5.197
10275SOL     OW31723   0.577   0.909   1.757
10275SOL    HW131724   0.640   0.975   1.717
10275SOL    HW231725   0.483   0.944   1.750
10276SOL     OW31726   3.365   4.743   5.304
10276SOL    HW131727   3.415   4.659   5.329
10276SOL    HW231728   3.275   4.719   5.268
10277SOL     OW31729   0.296   5.498   3.794
10277SOL    HW131730   0.337   5.428   3.736
10277SOL    HW231731   0.347   5.505   3.879
10278SOL     OW31732   5.974   0.108   4.229
10278SOL    HW131733   6.034   0.033   4.202
10278SOL    HW231734   6.012   0.154   4.309
10279SOL     OW31735   1.024   4.510   3.914
10279SOL    HW131736   1.113   4.498   3.869
10279SOL    HW231737   0.996   4.606   3.906
10280SOL     OW31738   6.444   5.561   1.001
10280SOL    HW131739   6.497   5.632   0.956
10280SOL    HW231740   6.401   5.503   0.931
10281SOL     OW31741   5.823   0.068   5.041
10281SOL    HW131742   5.874   0.017   4.971
10281SOL    HW231743   5.760   0.132   4.996
10282SOL     OW31744   4.986   2.415   3.051
10282SOL    HW131745   4.963   2.319   3.036
10282SOL    HW231746   5.085   2.427   3.044
10283SOL     OW31747   0.258   2.764   0.805
10283SOL    HW131748   0.245   2.745   0.903
10283SOL    HW231749   0.191   2.712   0.752
10284SOL     OW31750   0.941   5.000   5.253
10284SOL    HW131751   0.872   4.937   5.289
10284SOL    HW231752   1.032   4.970   5.283
10285SOL     OW31753   6.821   6.638   6.612
10285SOL    HW131754   6.769   6.587   6.680
10285SOL    HW231755   6.854   6.575   6.541
10286SOL     OW31756   2.908   0.937   1.626
10286SOL    HW131757   2.950   0.848   1.606
10286SOL    HW231758   2.829   0.951   1.566
10287SOL     OW31759   0.076   6.070   2.625
10287SOL    HW131760   7.013   6.025   2.586
10287SOL    HW231761   0.117   6.011   2.694
10288SOL     OW31762   3.796   6.065   4.416
10288SOL    HW131763   3.808   5.974   4.454
10288SOL    HW231764   3.698   6.088   4.415
10289SOL     OW31765   4.180   6.340   6.564
10289SOL    HW131766   4.204   6.390   6.647
10289SOL    HW231767   4.121   6.397   6.506
10290SOL     OW31768   3.467   3.211   2.400
10290SOL    HW131769   3.442   3.283   2.336
10290SOL    HW231770   3.418   3.127   2.376
10291SOL     OW31771   3.517   2.008   2.301
10291SOL    HW131772   3.507   2.009   2.202
10291SOL    HW231773   3.605   2.048   2.326
10292SOL     OW31774   0.118   0.230   5.626
10292SOL    HW131775   0.070   0.169   5.689
10292SOL    HW231776   0.209   0.193   5.607
10293SOL     OW31777   1.594   3.110   5.699
10293SOL    HW131778   1.601   3.030   5.639
10293SOL    HW231779   1.677   3.165   5.689
10294SOL     OW31780   1.142   6.753   1.617
10294SOL    HW131781   1.120   6.802   1.532
10294SOL    HW231782   1.217   6.799   1.664
10295SOL     OW31783   2.127   1.544   0.893
10295SOL    HW131784   2.132   1.610   0.968
10295SOL    HW231785   2.131   1.451   0.930
10296SOL     OW31786   6.652   2.865   4.943
10296SOL    HW131787   6.627   2.961   4.947
10296SOL    HW231788   6.654   2.834   4.848
10297SOL     OW31789   4.724   1.034   1.003
10297SOL    HW131790   4.646   1.097   1.004
10297SOL    HW231791   4.754   1.021   0.908
10298SOL     OW31792   1.223   1.445   1.954
10298SOL    HW131793   1.199   1.363   2.006
10298SOL    HW231794   1.322   1.447   1.940
10299SOL     OW31795   5.585   6.937   2.709
10299SOL    HW131796   5.605   7.015   2.767
10299SOL    HW231797   5.662   6.921   2.647
10300SOL     OW31798   1.317   3.382   0.687
10300SOL    HW131799   1.409   3.410   0.713
10300SOL    HW231800   1.259   3.378   0.769
10301SOL     OW31801   4.481   1.697   0.167
10301SOL    HW131802   4.528   1.609   0.168
10301SOL    HW231803   4.487   1.737   0.076
10302SOL     OW31804   3.333   5.760   5.635
10302SOL    HW131805   3.363   5.709   5.555
10302SOL    HW231806   3.238   5.739   5.656
10303SOL     OW31807   0.780   4.559   5.525
10303SOL    HW131808   0.706   4.553   5.592
10303SOL    HW231809   0.755   4.504   5.444
10304SOL     OW31810   5.168   5.616   0.990
10304SOL    HW131811   5.265   5.591   0.992
10304SOL    HW231812   5.113   5.533   0.995
10305SOL     OW31813   2.663   3.540   5.420
10305SOL    HW131814   2.720   3.468   5.382
10305SOL    HW231815   2.579   3.500   5.456
10306SOL     OW31816   4.005   0.877   1.389
10306SOL    HW131817   3.908   0.881   1.364
10306SOL    HW231818   4.029   0.785   1.417
10307SOL     OW31819   1.785   6.449   5.014
10307SOL    HW131820   1.877   6.412   5.000
10307SOL    HW231821   1.766   6.454   5.112
10308SOL     OW31822   2.700   4.620   1.684
10308SOL    HW131823   2.630   4.550   1.672
10308SOL    HW231824   2.781   4.580   1.726
10309SOL     OW31825   0.429   0.872   4.932
10309SOL    HW131826   0.509   0.849   4.876
10309SOL    HW231827   0.451   0.857   5.029
10310SOL     OW31828   3.184   4.137   6.082
10310SOL    HW131829   3.224   4.102   5.997
10310SOL    HW231830   3.115   4.206   6.060
10311SOL     OW31831   5.298   6.573   0.159
10311SOL    HW131832   5.272   6.661   0.199
10311SOL    HW231833   5.249   6.559   0.073
10312SOL     OW31834   2.707   6.997   2.233
10312SOL    HW131835   2.685   0.076   2.245
10312SOL    HW231836   2.802   6.981   2.257
10313SOL     OW31837   5.177   6.532   3.309
10313SOL    HW131838   5.196   6.630   3.312
10313SOL    HW231839   5.199   6.497   3.218
10314SOL     OW31840   0.733   6.722   0.793
10314SOL    HW131841   0.646   6.690   0.829
10314SOL    HW231842   0.756   6.672   0.710
10315SOL     OW31843   4.890   4.613   3.883
10315SOL    HW131844   4.949   4.620   3.963
10315SOL    HW231845   4.864   4.705   3.851
10316SOL     OW31846   1.334   2.201   0.181
10316SOL    HW131847   1.356   2.223   0.085
10316SOL    HW231848   1.248   2.244   0.206
10317SOL     OW31849   4.314   6.179   4.215
10317SOL    HW131850   4.364   6.111   4.269
10317SOL    HW231851   4.242   6.134   4.163
10318SOL     OW31852   6.116   0.082   6.993
10318SOL    HW131853   6.090   0.040   0.062
10318SOL    HW231854   6.100   0.180   6.997
10319SOL     OW31855   0.923   4.273   4.428
10319SOL    HW131856   0.966   4.360   4.451
10319SOL    HW231857   0.857   4.288   4.354
10320SOL     OW31858   6.751   6.879   3.043
10320SOL    HW131859   6.705   6.962   3.073
10320SOL    HW231860   6.759   6.879   2.944
10321SOL     OW31861   5.987   2.518   3.084
10321SOL    HW131862   5.942   2.442   3.037
10321SOL    HW231863   5.973   2.603   3.033
10322SOL     OW31864   4.657   4.529   5.053
10322SOL    HW131865   4.698   4.438   5.060
10322SOL    HW231866   4.566   4.521   5.013
10323SOL     OW31867   0.844   4.614   6.227
10323SOL    HW131868   0.923   4.675   6.240
10323SOL    HW231869   0.875   4.519   6.236
10324SOL     OW31870   3.058   3.500   2.851
10324SOL    HW131871   2.994   3.475   2.924
10324SOL    HW231872   3.145   3.453   2.866
10325SOL     OW31873   5.931   6.040   5.184
10325SOL    HW131874   5.974   6.130   5.175
10325SOL    HW231875   5.989   5.971   5.142
10326SOL     OW31876   5.395   3.856   6.851
10326SOL    HW131877   5.420   3.788   6.783
10326SOL    HW231878   5.463   3.930   6.851
10327SOL     OW31879   1.502   5.518   6.907
10327SOL    HW131880   1.572   5.590   6.899
10327SOL    HW231881   1.541   5.431   6.878
10328SOL     OW31882   5.969   2.333   2.851
10328SOL    HW131883   5.870   2.345   2.844
10328SOL    HW231884   5.989   2.265   2.921
10329SOL     OW31885   3.552   2.124   1.725
10329SOL    HW131886   3.602   2.183   1.789
10329SOL    HW231887   3.616   2.074   1.668
10330SOL     OW31888   4.920   6.650   2.061
10330SOL    HW131889   4.971   6.736   2.067
10330SOL    HW231890   4.897   6.617   2.153
10331SOL     OW31891   5.214   5.735   5.735
10331SOL    HW131892   5.241   5.640   5.723
10331SOL    HW231893   5.254   5.770   5.820
10332SOL     OW31894   2.040   1.523   6.704
10332SOL    HW131895   2.009   1.517   6.609
10332SOL    HW231896   2.118   1.585   6.709
10333SOL     OW31897   1.641   3.601   4.325
10333SOL    HW131898   1.586   3.650   4.393
10333SOL    HW231899   1.583   3.535   4.277
10334SOL     OW31900   3.641   1.387   4.088
10334SOL    HW131901   3.592   1.468   4.118
10334SOL    HW231902   3.737   1.395   4.114
10335SOL     OW31903   2.034   3.545   4.068
10335SOL    HW131904   1.989   3.461   4.036
10335SOL    HW231905   2.046   3.608   3.992
10336SOL     OW31906   5.998   6.766   3.320
10336SOL    HW131907   5.967   6.731   3.231
10336SOL    HW231908   6.089   6.730   3.340
10337SOL     OW31909   5.967   6.421   0.232
10337SOL    HW131910   5.910   6.476   0.170
10337SOL    HW231911   6.009   6.480   0.300
10338SOL     OW31912   0.642   6.373   1.588
10338SOL    HW131913   0.644   6.294   1.649
10338SOL    HW231914   0.722   6.431   1.606
10339SOL     OW31915   5.329   2.708   6.061
10339SOL    HW131916   5.272   2.642   6.011
10339SOL    HW231917   5.304   2.708   6.157
10340SOL     OW31918   3.114   3.968   6.498
10340SOL    HW131919   3.120   3.947   6.596
10340SOL    HW231920   3.191   3.926   6.450
10341SOL     OW31921   2.947   4.829   3.572
10341SOL    HW131922   2.883   4.777   3.516
10341SOL    HW231923   3.016   4.872   3.513
10342SOL     OW31924   0.771   1.390   3.622
10342SOL    HW131925   0.820   1.303   3.614
10342SOL    HW231926   0.831   1.464   3.593
10343SOL     OW31927   4.137   5.540   1.857
10343SOL    HW131928   4.077   5.580   1.787
10343SOL    HW231929   4.212   5.491   1.812
10344SOL     OW31930   4.688   6.753   6.625
10344SOL    HW131931   4.755   6.679   6.627
10344SOL    HW231932   4.707   6.817   6.699
10345SOL     OW31933   1.278   4.330   4.990
10345SOL    HW131934   1.360   4.373   4.954
10345SOL    HW231935   1.291   4.232   4.996
10346SOL     OW31936   0.778   5.728   0.494
10346SOL    HW131937   0.784   5.724   0.594
10346SOL    HW231938   0.828   5.807   0.460
10347SOL     OW31939   6.920   1.991   5.047
10347SOL    HW131940   6.834   2.009   5.093
10347SOL    HW231941   6.996   2.022   5.105
10348SOL     OW31942   0.316   5.077   1.479
10348SOL    HW131943   0.292   5.157   1.533
10348SOL    HW231944   0.414   5.077   1.460
10349SOL     OW31945   6.768   6.911   6.590
10349SOL    HW131946   6.836   6.964   6.641
10349SOL    HW231947   6.781   6.813   6.608
10350SOL     OW31948   3.880   0.521   6.003
10350SOL    HW131949   3.882   0.421   6.002
10350SOL    HW231950   3.786   0.552   6.018
10351SOL     OW31951   4.797   6.041   5.767
10351SOL    HW131952   4.839   5.953   5.746
10351SOL    HW231953   4.811   6.104   5.691
10352SOL     OW31954   4.779   5.085   6.123
10352SOL    HW131955   4.685   5.098   6.155
10352SOL    HW231956   4.780   5.020   6.048
10353SOL     OW31957   0.622   3.599   4.917
10353SOL    HW131958   0.717   3.599   4.884
10353SOL    HW231959   0.604   3.513   4.965
10354SOL     OW31960   5.246   1.353   1.144
10354SOL    HW131961   5.314   1.423   1.119
10354SOL    HW231962   5.171   1.354   1.078
10355SOL     OW31963   0.951   4.335   2.854
10355SOL    HW131964   1.024   4.266   2.856
10355SOL    HW231965   0.927   4.356   2.760
10356SOL     OW31966   0.549   2.932   5.243
10356SOL    HW131967   0.568   2.971   5.153
10356SOL    HW231968   0.533   3.006   5.309
10357SOL     OW31969   2.816   3.344   6.095
10357SOL    HW131970   2.796   3.303   6.006
10357SOL    HW231971   2.731   3.375   6.138
10358SOL     OW31972   0.968   0.663   2.413
10358SOL    HW131973   0.908   0.719   2.356
10358SOL    HW231974   0.956   0.566   2.390
10359SOL     OW31975   1.322   1.579   0.616
10359SOL    HW131976   1.250   1.527   0.571
10359SOL    HW231977   1.319   1.674   0.586
10360SOL     OW31978   0.054   4.398   3.949
10360SOL    HW131979   0.047   4.343   3.865
10360SOL    HW231980   0.062   4.337   4.028
10361SOL     OW31981   2.753   5.567   0.226
10361SOL    HW131982   2.695   5.575   0.145
10361SOL    HW231983   2.849   5.577   0.200
10362SOL     OW31984   0.989   4.316   5.869
10362SOL    HW131985   1.076   4.267   5.874
10362SOL    HW231986   1.004   4.413   5.891
10363SOL     OW31987   5.315   0.689   4.680
10363SOL    HW131988   5.246   0.627   4.716
10363SOL    HW231989   5.381   0.711   4.752
10364SOL     OW31990   1.390   4.029   0.598
10364SOL    HW131991   1.392   4.100   0.528
10364SOL    HW231992   1.421   3.942   0.559
10365SOL     OW31993   5.414   5.081   0.066
10365SOL    HW131994   5.425   5.180   0.058
10365SOL    HW231995   5.347   5.049   7.017
10366SOL     OW31996   4.475   7.006   3.773
10366SOL    HW131997   4.507   0.082   3.770
10366SOL    HW231998   4.378   7.003   3.796
10367SOL     OW31999   6.230   1.550   3.019
10367SOL    HW132000   6.277   1.591   2.941
10367SOL    HW232001   6.225   1.451   3.007
10368SOL     OW32002   2.332   0.267   1.184
10368SOL    HW132003   2.278   0.216   1.118
10368SOL    HW232004   2.395   0.329   1.137
10369SOL     OW32005   4.843   2.571   6.867
10369SOL    HW132006   4.767   2.519   6.904
10369SOL    HW232007   4.812   2.623   6.787
10370SOL     OW32008   2.391   0.633   5.075
10370SOL    HW132009   2.350   0.562   5.133
10370SOL    HW232010   2.485   0.649   5.105
10371SOL     OW32011   4.575   6.896   5.642
10371SOL    HW132012   4.495   6.934   5.595
10371SOL    HW232013   4.576   6.797   5.632
10372SOL     OW32014   0.303   0.724   3.952
10372SOL    HW132015   0.234   0.678   4.008
10372SOL    HW232016   0.269   0.735   3.859
10373SOL     OW32017   1.191   6.135   5.440
10373SOL    HW132018   1.262   6.084   5.489
10373SOL    HW232019   1.124   6.170   5.506
10374SOL     OW32020   3.414   1.306   3.047
10374SOL    HW132021   3.509   1.335   3.055
10374SOL    HW232022   3.378   1.331   2.957
10375SOL     OW32023   0.179   2.390   0.919
10375SOL    HW132024   0.117   2.460   0.884
10375SOL    HW232025   0.134   2.339   0.992
10376SOL     OW32026   6.063   0.350   4.072
10376SOL    HW132027   6.037   0.260   4.106
10376SOL    HW232028   5.981   0.406   4.060
10377SOL     OW32029   6.857   6.494   3.325
10377SOL    HW132030   6.772   6.518   3.371
10377SOL    HW232031   6.874   6.558   3.250
10378SOL     OW32032   6.157   6.424   5.708
10378SOL    HW132033   6.249   6.403   5.740
10378SOL    HW232034   6.117   6.343   5.665
10379SOL     OW32035   4.297   1.066   3.964
10379SOL    HW132036   4.276   1.077   4.061
10379SOL    HW232037   4.306   0.968   3.943
10380SOL     OW32038   3.267   0.871   4.497
10380SOL    HW132039   3.267   0.781   4.541
10380SOL    HW232040   3.257   0.860   4.398
10381SOL     OW32041   3.343   5.546   4.959
10381SOL    HW132042   3.282   5.512   4.888
10381SOL    HW232043   3.290   5.569   5.040
10382SOL     OW32044   6.797   5.111   1.829
10382SOL    HW132045   6.890   5.081   1.807
10382SOL    HW232046   6.795   5.211   1.837
10383SOL     OW32047   5.573   3.651   1.297
10383SOL    HW132048   5.532   3.713   1.365
10383SOL    HW232049   5.540   3.558   1.314
10384SOL     OW32050   5.070   1.421   6.645
10384SOL    HW132051   5.101   1.449   6.555
10384SOL    HW232052   5.148   1.386   6.698
10385SOL     OW32053   6.926   3.114   6.602
10385SOL    HW132054   0.006   3.129   6.610
10385SOL    HW232055   6.889   3.085   6.690
10386SOL     OW32056   0.272   2.068   6.187
10386SOL    HW132057   0.333   1.996   6.221
10386SOL    HW232058   0.227   2.035   6.104
10387SOL     OW32059   1.596   3.885   2.888
10387SOL    HW132060   1.656   3.954   2.848
10387SOL    HW232061   1.651   3.822   2.944
10388SOL     OW32062   1.527   4.517   2.115
10388SOL    HW132063   1.614   4.525   2.067
10388SOL    HW232064   1.505   4.603   2.160
10389SOL     OW32065   1.498   5.423   3.241
10389SOL    HW132066   1.498   5.482   3.322
10389SOL    HW232067   1.405   5.418   3.204
10390SOL     OW32068   2.151   3.276   3.339
10390SOL    HW132069   2.136   3.370   3.369
10390SOL    HW232070   2.136   3.270   3.240
10391SOL     OW32071   3.171   5.263   4.266
10391SOL    HW132072   3.264   5.246   4.300
10391SOL    HW232073   3.104   5.238   4.335
10392SOL     OW32074   0.087   5.628   6.022
10392SOL    HW132075   0.185   5.643   6.005
10392SOL    HW232076   0.074   5.597   6.117
10393SOL     OW32077   1.309   1.557   4.026
10393SOL    HW132078   1.317   1.656   4.015
10393SOL    HW232079   1.212   1.532   4.026
10394SOL     OW32080   3.187   6.889   1.042
10394SOL    HW132081   3.159   6.913   1.135
10394SOL    HW232082   3.217   6.972   0.994
10395SOL     OW32083   1.294   0.357   3.369
10395SOL    HW132084   1.217   0.304   3.406
10395SOL    HW232085   1.372   0.350   3.432
10396SOL     OW32086   0.455   0.656   4.716
10396SOL    HW132087   0.526   0.711   4.672
10396SOL    HW232088   0.397   0.614   4.646
10397SOL     OW32089   4.808   2.939   2.398
10397SOL    HW132090   4.828   2.977   2.489
10397SOL    HW232091   4.763   2.850   2.408
10398SOL     OW32092   6.926   2.365   2.436
10398SOL    HW132093   6.939   2.268   2.458
10398SOL    HW232094   6.915   2.375   2.337
10399SOL     OW32095   6.877   2.975   5.854
10399SOL    HW132096   6.892   2.877   5.842
10399SOL    HW232097   6.780   2.996   5.843
10400SOL     OW32098   1.937   5.187   2.445
10400SOL    HW132099   1.905   5.275   2.480
10400SOL    HW232100   1.885   5.113   2.487
10401SOL     OW32101   1.288   5.969   1.145
10401SOL    HW132102   1.227   5.943   1.220
10401SOL    HW232103   1.305   6.067   1.149
10402SOL     OW32104   1.286   2.574   4.345
10402SOL    HW132105   1.264   2.497   4.405
10402SOL    HW232106   1.345   2.639   4.394
10403SOL     OW32107   5.572   1.365   3.592
10403SOL    HW132108   5.479   1.397   3.571
10403SOL    HW232109   5.608   1.417   3.669
10404SOL     OW32110   6.438   0.217   4.690
10404SOL    HW132111   6.487   0.185   4.609
10404SOL    HW232112   6.340   0.206   4.676
10405SOL     OW32113   3.353   0.023   6.497
10405SOL    HW132114   3.309   6.956   6.469
10405SOL    HW232115   3.382   0.015   6.593
10406SOL     OW32116   1.244   6.244   4.725
10406SOL    HW132117   1.300   6.326   4.710
10406SOL    HW232118   1.303   6.170   4.757
10407SOL     OW32119   3.300   0.576   6.946
10407SOL    HW132120   3.226   0.515   6.918
10407SOL    HW232121   3.295   0.590   0.027
10408SOL     OW32122   3.052   0.552   2.768
10408SOL    HW132123   3.094   0.461   2.759
10408SOL    HW232124   2.960   0.542   2.805
10409SOL     OW32125   0.527   4.893   1.778
10409SOL    HW132126   0.511   4.978   1.828
10409SOL    HW232127   0.575   4.828   1.836
10410SOL     OW32128   5.291   5.521   0.313
10410SOL    HW132129   5.299   5.425   0.287
10410SOL    HW232130   5.378   5.568   0.296
10411SOL     OW32131   2.328   4.900   2.020
10411SOL    HW132132   2.268   4.902   2.100
10411SOL    HW232133   2.380   4.814   2.020
10412SOL     OW32134   0.702   3.875   6.468
10412SOL    HW132135   0.711   3.786   6.422
10412SOL    HW232136   0.790   3.900   6.508
10413SOL     OW32137   6.374   0.934   4.736
10413SOL    HW132138   6.281   0.909   4.761
10413SOL    HW232139   6.381   1.034   4.729
10414SOL     OW32140   5.742   5.454   5.341
10414SOL    HW132141   5.813   5.467   5.411
10414SOL    HW232142   5.653   5.443   5.384
10415SOL     OW32143   6.993   4.672   3.175
10415SOL    HW132144   0.046   4.707   3.115
10415SOL    HW232145   6.911   4.654   3.122
10416SOL     OW32146   5.121   0.363   0.328
10416SOL    HW132147   5.141   0.403   0.239
10416SOL    HW232148   5.084   0.271   0.316
10417SOL     OW32149   4.956   4.616   4.614
10417SOL    HW132150   4.936   4.534   4.562
10417SOL    HW232151   4.933   4.697   4.559
10418SOL     OW32152   5.630   2.932   0.320
10418SOL    HW132153   5.619   2.969   0.228
10418SOL    HW232154   5.566   2.977   0.382
10419SOL     OW32155   1.108   0.063   4.991
10419SOL    HW132156   1.185   0.042   4.930
10419SOL    HW232157   1.115   0.007   5.073
10420SOL     OW32158   6.272   4.203   4.026
10420SOL    HW132159   6.341   4.251   4.081
10420SOL    HW232160   6.234   4.266   3.958
10421SOL     OW32161   0.062   3.333   4.012
10421SOL    HW132162   6.985   3.325   4.039
10421SOL    HW232163   0.084   3.430   3.998
10422SOL     OW32164   5.724   3.219   5.879
10422SOL    HW132165   5.657   3.145   5.882
10422SOL    HW232166   5.779   3.218   5.962
10423SOL     OW32167   2.608   5.707   1.626
10423SOL    HW132168   2.570   5.724   1.717
10423SOL    HW232169   2.535   5.713   1.557
10424SOL     OW32170   4.614   0.758   2.477
10424SOL    HW132171   4.587   0.663   2.487
10424SOL    HW232172   4.586   0.791   2.387
10425SOL     OW32173   0.363   4.347   1.031
10425SOL    HW132174   0.275   4.317   0.995
10425SOL    HW232175   0.373   4.318   1.126
10426SOL     OW32176   6.566   2.556   0.195
10426SOL    HW132177   6.603   2.641   0.233
10426SOL    HW232178   6.493   2.522   0.255
10427SOL     OW32179   6.248   0.408   3.834
10427SOL    HW132180   6.305   0.482   3.799
10427SOL    HW232181   6.156   0.443   3.855
10428SOL     OW32182   1.772   0.739   5.148
10428SOL    HW132183   1.774   0.647   5.110
10428SOL    HW232184   1.757   0.734   5.247
10429SOL     OW32185   2.062   4.848   1.815
10429SOL    HW132186   2.078   4.911   1.891
10429SOL    HW232187   2.048   4.900   1.731
10430SOL     OW32188   3.513   1.381   4.425
10430SOL    HW132189   3.499   1.450   4.495
10430SOL    HW232190   3.496   1.290   4.463
10431SOL     OW32191   4.538   2.170   3.418
10431SOL    HW132192   4.573   2.230   3.490
10431SOL    HW232193   4.548   2.075   3.445
10432SOL     OW32194   1.915   4.507   1.068
10432SOL    HW132195   1.926   4.490   1.166
10432SOL    HW232196   1.819   4.495   1.043
10433SOL     OW32197   3.002   6.581   4.431
10433SOL    HW132198   2.981   6.671   4.470
10433SOL    HW232199   2.949   6.567   4.348
10434SOL     OW32200   4.239   1.738   0.705
10434SOL    HW132201   4.202   1.662   0.652
10434SOL    HW232202   4.187   1.821   0.686
10435SOL     OW32203   2.541   1.265   1.616
10435SOL    HW132204   2.543   1.182   1.560
10435SOL    HW232205   2.505   1.341   1.563
10436SOL     OW32206   1.565   3.874   4.973
10436SOL    HW132207   1.611   3.911   5.054
10436SOL    HW232208   1.633   3.842   4.908
10437SOL     OW32209   6.758   0.069   5.153
10437SOL    HW132210   6.807   0.081   5.239
10437SOL    HW232211   6.823   0.062   5.077
10438SOL     OW32212   6.785   6.253   6.564
10438SOL    HW132213   6.841   6.171   6.579
10438SOL    HW232214   6.836   6.319   6.510
10439SOL     OW32215   5.688   5.198   5.625
10439SOL    HW132216   5.726   5.106   5.627
10439SOL    HW232217   5.752   5.260   5.581
10440SOL     OW32218   6.010   2.364   1.530
10440SOL    HW132219   5.990   2.446   1.477
10440SOL    HW232220   5.973   2.375   1.623
10441SOL     OW32221   5.536   1.477   5.641
10441SOL    HW132222   5.635   1.488   5.635
10441SOL    HW232223   5.514   1.387   5.677
10442SOL     OW32224   2.741   0.652   5.926
10442SOL    HW132225   2.762   0.750   5.935
10442SOL    HW232226   2.740   0.610   6.017
10443SOL     OW32227   0.824   1.152   6.966
10443SOL    HW132228   0.834   1.247   6.997
10443SOL    HW232229   0.758   1.149   6.892
10444SOL     OW32230   4.489   5.780   3.432
10444SOL    HW132231   4.562   5.847   3.422
10444SOL    HW232232   4.528   5.689   3.442
10445SOL     OW32233   1.463   3.242   3.668
10445SOL    HW132234   1.474   3.168   3.735
10445SOL    HW232235   1.504   3.326   3.705
10446SOL     OW32236   3.092   4.734   5.207
10446SOL    HW132237   3.025   4.792   5.252
10446SOL    HW232238   3.046   4.656   5.165
10447SOL     OW32239   1.714   1.839   2.998
10447SOL    HW132240   1.776   1.766   2.970
10447SOL    HW232241   1.711   1.909   2.927
10448SOL     OW32242   0.671   5.239   2.284
10448SOL    HW132243   0.679   5.269   2.379
10448SOL    HW232244   0.630   5.311   2.229
10449SOL     OW32245   3.890   5.185   4.332
10449SOL    HW132246   3.873   5.168   4.235
10449SOL    HW232247   3.912   5.099   4.378
10450SOL     OW32248   0.515   2.432   4.408
10450SOL    HW132249   0.447   2.441   4.481
10450SOL    HW232250   0.520   2.518   4.358
10451SOL     OW32251   2.202   2.308   4.997
10451SOL    HW132252   2.111   2.336   5.027
10451SOL    HW232253   2.229   2.225   5.045
10452SOL     OW32254   6.825   2.560   4.337
10452SOL    HW132255   6.851   2.486   4.399
10452SOL    HW232256   6.907   2.603   4.299
10453SOL     OW32257   2.974   6.061   4.070
10453SOL    HW132258   3.027   5.976   4.073
10453SOL    HW232259   2.889   6.046   4.019
10454SOL     OW32260   6.680   2.048   6.896
10454SOL    HW132261   6.759   1.997   6.929
10454SOL    HW232262   6.704   2.094   6.810
10455SOL     OW32263   0.777   6.123   3.006
10455SOL    HW132264   0.806   6.217   2.989
10455SOL    HW232265   0.688   6.123   3.052
10456SOL     OW32266   1.176   5.478   6.300
10456SOL    HW132267   1.240   5.427   6.358
10456SOL    HW232268   1.195   5.458   6.204
10457SOL     OW32269   4.482   1.618   1.000
10457SOL    HW132270   4.554   1.632   0.932
10457SOL    HW232271   4.420   1.546   0.970
10458SOL     OW32272   1.890   0.033   6.887
10458SOL    HW132273   1.958   0.073   6.949
10458SOL    HW232274   1.854   0.103   6.826
10459SOL     OW32275   5.564   5.986   0.890
10459SOL    HW132276   5.540   5.913   0.826
10459SOL    HW232277   5.509   5.977   0.972
10460SOL     OW32278   6.641   1.308   6.953
10460SOL    HW132279   6.565   1.365   6.983
10460SOL    HW232280   6.615   1.258   6.870
10461SOL     OW32281   6.543   4.281   5.717
10461SOL    HW132282   6.565   4.183   5.716
10461SOL    HW232283   6.623   4.333   5.685
10462SOL     OW32284   4.364   3.716   7.006
10462SOL    HW132285   4.349   3.802   6.957
10462SOL    HW232286   4.366   3.735   0.086
10463SOL     OW32287   4.657   2.905   5.182
10463SOL    HW132288   4.621   2.990   5.221
10463SOL    HW232289   4.584   2.836   5.180
10464SOL     OW32290   6.120   4.788   1.914
10464SOL    HW132291   6.145   4.787   2.011
10464SOL    HW232292   6.195   4.825   1.860
10465SOL     OW32293   5.268   4.148   0.547
10465SOL    HW132294   5.180   4.152   0.595
10465SOL    HW232295   5.268   4.217   0.474
10466SOL     OW32296   6.480   3.769   5.679
10466SOL    HW132297   6.467   3.718   5.594
10466SOL    HW232298   6.403   3.754   5.740
10467SOL     OW32299   0.735   3.557   6.844
10467SOL    HW132300   0.695   3.507   6.921
10467SOL    HW232301   0.718   3.655   6.854
10468SOL     OW32302   1.543   4.045   3.832
10468SOL    HW132303   1.473   4.117   3.833
10468SOL    HW232304   1.499   3.957   3.814
10469SOL     OW32305   1.594   0.471   4.167
10469SOL    HW132306   1.513   0.412   4.172
10469SOL    HW232307   1.615   0.505   4.259
10470SOL     OW32308   2.769   3.939   1.407
10470SOL    HW132309   2.808   3.957   1.498
10470SOL    HW232310   2.810   4.002   1.341
10471SOL     OW32311   1.880   4.456   5.738
10471SOL    HW132312   1.860   4.483   5.644
10471SOL    HW232313   1.935   4.527   5.782
10472SOL     OW32314   4.042   5.432   5.691
10472SOL    HW132315   4.069   5.528   5.684
10472SOL    HW232316   3.966   5.414   5.627
10473SOL     OW32317   6.057   5.773   0.438
10473SOL    HW132318   6.041   5.760   0.340
10473SOL    HW232319   5.969   5.771   0.487
10474SOL     OW32320   6.143   5.673   4.903
10474SOL    HW132321   6.100   5.624   4.980
10474SOL    HW232322   6.118   5.769   4.907
10475SOL     OW32323   6.970   6.062   1.446
10475SOL    HW132324   7.001   6.157   1.444
10475SOL    HW232325   6.877   6.057   1.409
10476SOL     OW32326   5.284   6.336   1.395
10476SOL    HW132327   5.351   6.404   1.426
10476SOL    HW232328   5.298   6.251   1.445
10477SOL     OW32329   6.948   5.733   3.353
10477SOL    HW132330   6.873   5.788   3.390
10477SOL    HW232331   7.001   5.694   3.428
10478SOL     OW32332   0.037   1.614   0.266
10478SOL    HW132333   0.034   1.649   0.360
10478SOL    HW232334   0.034   1.514   0.268
10479SOL     OW32335   0.361   4.739   2.782
10479SOL    HW132336   0.416   4.666   2.823
10479SOL    HW232337   0.314   4.704   2.702
10480SOL     OW32338   2.496   1.295   3.446
10480SOL    HW132339   2.582   1.341   3.469
10480SOL    HW232340   2.509   1.196   3.450
10481SOL     OW32341   5.968   0.537   1.831
10481SOL    HW132342   6.037   0.556   1.901
10481SOL    HW232343   6.010   0.484   1.757
10482SOL     OW32344   4.623   4.318   4.442
10482SOL    HW132345   4.695   4.354   4.501
10482SOL    HW232346   4.638   4.221   4.425
10483SOL     OW32347   6.567   1.190   6.732
10483SOL    HW132348   6.504   1.251   6.684
10483SOL    HW232349   6.564   1.100   6.689
10484SOL     OW32350   6.119   0.433   1.631
10484SOL    HW132351   6.201   0.490   1.625
10484SOL    HW232352   6.062   0.447   1.551
10485SOL     OW32353   5.750   3.415   5.606
10485SOL    HW132354   5.695   3.438   5.686
10485SOL    HW232355   5.748   3.490   5.540
10486SOL     OW32356   6.342   2.764   2.853
10486SOL    HW132357   6.259   2.727   2.811
10486SOL    HW232358   6.397   2.810   2.783
10487SOL     OW32359   3.917   0.001   2.848
10487SOL    HW132360   3.982   6.986   2.780
10487SOL    HW232361   3.932   0.099   2.863
10488SOL     OW32362   4.019   3.889   6.965
10488SOL    HW132363   4.023   3.963   0.014
10488SOL    HW232364   3.941   3.903   6.905
10489SOL     OW32365   1.591   5.411   5.271
10489SOL    HW132366   1.569   5.337   5.209
10489SOL    HW232367   1.684   5.399   5.307
10490SOL     OW32368   5.945   0.395   4.694
10490SOL    HW132369   5.863   0.341   4.675
10490SOL    HW232370   5.963   0.395   4.792
10491SOL     OW32371   6.611   5.812   5.089
10491SOL    HW132372   6.703   5.845   5.107
10491SOL    HW232373   6.614   5.742   5.017
10492SOL     OW32374   4.573   3.697   5.929
10492SOL    HW132375   4.490   3.653   5.893
10492SOL    HW232376   4.619   3.634   5.992
10493SOL     OW32377   3.602   1.379   0.127
10493SOL    HW132378   3.637   1.449   0.190
10493SOL    HW232379   3.674   1.355   0.062
10494SOL     OW32380   5.575   1.311   5.346
10494SOL    HW132381   5.586   1.403   5.307
10494SOL    HW232382   5.477   1.288   5.348
10495SOL     OW32383   0.874   0.768   0.061
10495SOL    HW132384   0.914   0.688   0.104
10495SOL    HW232385   0.942   0.812   0.002
10496SOL     OW32386   6.991   0.116   5.331
10496SOL    HW132387   0.026   0.112   5.247
10496SOL    HW232388   0.019   0.173   5.398
10497SOL     OW32389   2.285   1.063   6.844
10497SOL    HW132390   2.247   1.154   6.825
10497SOL    HW232391   2.307   1.056   6.941
10498SOL     OW32392   3.182   5.342   5.509
10498SOL    HW132393   3.269   5.299   5.535
10498SOL    HW232394   3.108   5.275   5.517
10499SOL     OW32395   3.592   6.192   2.518
10499SOL    HW132396   3.679   6.144   2.514
10499SOL    HW232397   3.529   6.153   2.451
10500SOL     OW32398   2.305   1.577   6.500
10500SOL    HW132399   2.283   1.482   6.477
10500SOL    HW232400   2.235   1.637   6.464
10501SOL     OW32401   1.627   3.316   3.387
10501SOL    HW132402   1.605   3.411   3.409
10501SOL    HW232403   1.589   3.293   3.297
10502SOL     OW32404   2.970   6.533   5.353
10502SOL    HW132405   3.014   6.453   5.313
10502SOL    HW232406   2.883   6.551   5.306
10503SOL     OW32407   2.594   3.356   6.739
10503SOL    HW132408   2.498   3.365   6.766
10503SOL    HW232409   2.599   3.336   6.641
10504SOL     OW32410   1.976   3.018   0.569
10504SOL    HW132411   2.049   2.955   0.541
10504SOL    HW232412   1.977   3.028   0.668
10505SOL     OW32413   0.339   5.731   0.316
10505SOL    HW132414   0.268   5.686   0.263
10505SOL    HW232415   0.381   5.666   0.379
10506SOL     OW32416   6.641   5.478   6.049
10506SOL    HW132417   6.675   5.385   6.032
10506SOL    HW232418   6.567   5.475   6.116
10507SOL     OW32419   2.964   1.070   3.702
10507SOL    HW132420   2.876   1.044   3.743
10507SOL    HW232421   2.949   1.144   3.636
10508SOL     OW32422   5.225   5.543   3.411
10508SOL    HW132423   5.169   5.577   3.336
10508SOL    HW232424   5.318   5.526   3.379
10509SOL     OW32425   1.921   1.126   5.303
10509SOL    HW132426   1.970   1.132   5.216
10509SOL    HW232427   1.828   1.091   5.287
10510SOL     OW32428   5.598   0.780   6.190
10510SOL    HW132429   5.506   0.740   6.186
10510SOL    HW232430   5.612   0.841   6.113
10511SOL     OW32431   6.907   2.600   1.765
10511SOL    HW132432   6.996   2.560   1.743
10511SOL    HW232433   6.921   2.682   1.820
10512SOL     OW32434   2.187   6.967   6.725
10512SOL    HW132435   2.243   6.913   6.787
10512SOL    HW232436   2.198   0.046   6.746
10513SOL     OW32437   0.004   2.602   0.875
10513SOL    HW132438   6.984   2.621   0.965
10513SOL    HW232439   6.992   2.671   0.810
10514SOL     OW32440   1.891   2.990   1.566
10514SOL    HW132441   1.818   2.929   1.599
10514SOL    HW232442   1.914   3.056   1.638
10515SOL     OW32443   6.994   3.719   4.900
10515SOL    HW132444   0.053   3.660   4.878
10515SOL    HW232445   0.006   3.814   4.906
10516SOL     OW32446   2.688   6.857   0.227
10516SOL    HW132447   2.657   6.864   0.322
10516SOL    HW232448   2.690   6.761   0.200
10517SOL     OW32449   0.617   2.516   3.630
10517SOL    HW132450   0.558   2.514   3.711
10517SOL    HW232451   0.648   2.423   3.609
10518SOL     OW32452   0.574   6.495   3.115
10518SOL    HW132453   0.541   6.573   3.061
10518SOL    HW232454   0.512   6.418   3.103
10519SOL     OW32455   3.856   3.139   4.996
10519SOL    HW132456   3.951   3.138   5.027
10519SOL    HW232457   3.841   3.066   4.930
10520SOL     OW32458   3.093   4.735   6.806
10520SOL    HW132459   3.028   4.811   6.815
10520SOL    HW232460   3.110   4.696   6.897
10521SOL     OW32461   6.613   5.548   2.035
10521SOL    HW132462   6.527   5.592   2.060
10521SOL    HW232463   6.648   5.498   2.114
10522SOL     OW32464   6.125   6.797   2.751
10522SOL    HW132465   6.038   6.844   2.736
10522SOL    HW232466   6.198   6.865   2.760
10523SOL     OW32467   5.771   6.738   6.609
10523SOL    HW132468   5.723   6.811   6.659
10523SOL    HW232469   5.773   6.655   6.665
10524SOL     OW32470   4.785   1.492   4.713
10524SOL    HW132471   4.740   1.471   4.626
10524SOL    HW232472   4.743   1.439   4.786
10525SOL     OW32473   1.760   0.485   5.034
10525SOL    HW132474   1.680   0.428   5.056
10525SOL    HW232475   1.832   0.427   4.996
10526SOL     OW32476   4.402   5.170   2.685
10526SOL    HW132477   4.405   5.084   2.735
10526SOL    HW232478   4.451   5.161   2.598
10527SOL     OW32479   1.992   2.954   4.150
10527SOL    HW132480   2.013   2.908   4.064
10527SOL    HW232481   2.014   2.894   4.226
10528SOL     OW32482   5.550   4.096   6.393
10528SOL    HW132483   5.496   4.159   6.337
10528SOL    HW232484   5.555   4.007   6.349
10529SOL     OW32485   6.886   5.802   5.092
10529SOL    HW132486   6.911   5.724   5.034
10529SOL    HW232487   6.893   5.776   5.188
10530SOL     OW32488   1.308   1.702   4.867
10530SOL    HW132489   1.260   1.706   4.779
10530SOL    HW232490   1.317   1.607   4.896
10531SOL     OW32491   2.987   2.257   4.476
10531SOL    HW132492   2.930   2.333   4.445
10531SOL    HW232493   2.998   2.262   4.575
10532SOL     OW32494   3.592   3.550   4.816
10532SOL    HW132495   3.667   3.568   4.752
10532SOL    HW232496   3.629   3.530   4.906
10533SOL     OW32497   3.484   0.906   6.211
10533SOL    HW132498   3.497   0.839   6.284
10533SOL    HW232499   3.458   0.993   6.251
10534SOL     OW32500   5.708   4.289   2.085
10534SOL    HW132501   5.652   4.306   2.005
10534SOL    HW232502   5.791   4.344   2.079
10535SOL     OW32503   0.356   1.306   1.575
10535SOL    HW132504   0.371   1.208   1.557
10535SOL    HW232505   0.432   1.358   1.536
10536SOL     OW32506   5.858   5.916   2.675
10536SOL    HW132507   5.901   5.843   2.622
10536SOL    HW232508   5.903   6.003   2.655
10537SOL     OW32509   6.332   5.266   1.324
10537SOL    HW132510   6.334   5.297   1.419
10537SOL    HW232511   6.414   5.210   1.305
10538SOL     OW32512   4.250   3.438   6.672
10538SOL    HW132513   4.224   3.345   6.646
10538SOL    HW232514   4.261   3.444   6.771
10539SOL     OW32515   1.192   3.267   5.201
10539SOL    HW132516   1.235   3.233   5.118
10539SOL    HW232517   1.158   3.191   5.255
10540SOL     OW32518   3.361   1.160   0.964
10540SOL    HW132519   3.275   1.147   0.914
10540SOL    HW232520   3.382   1.078   1.018
10541SOL     OW32521   3.033   2.252   1.482
10541SOL    HW132522   3.116   2.204   1.452
10541SOL    HW232523   3.058   2.332   1.536
10542SOL     OW32524   2.114   2.474   0.325
10542SOL    HW132525   2.087   2.383   0.356
10542SOL    HW232526   2.139   2.470   0.228
10543SOL     OW32527   2.690   0.495   3.947
10543SOL    HW132528   2.761   0.438   3.988
10543SOL    HW232529   2.707   0.503   3.848
10544SOL     OW32530   0.355   1.919   1.148
10544SOL    HW132531   0.263   1.903   1.184
10544SOL    HW232532   0.376   2.016   1.151
10545SOL     OW32533   3.993   1.081   2.960
10545SOL    HW132534   4.083   1.123   2.971
10545SOL    HW232535   4.003   0.993   2.914
10546SOL     OW32536   4.525   0.731   4.932
10546SOL    HW132537   4.552   0.804   4.995
10546SOL    HW232538   4.466   0.667   4.980
10547SOL     OW32539   4.781   6.089   1.903
10547SOL    HW132540   4.816   6.069   1.994
10547SOL    HW232541   4.698   6.144   1.910
10548SOL     OW32542   4.490   4.306   5.457
10548SOL    HW132543   4.426   4.360   5.510
10548SOL    HW232544   4.518   4.357   5.376
10549SOL     OW32545   0.358   1.106   2.200
10549SOL    HW132546   0.294   1.039   2.165
10549SOL    HW232547   0.310   1.191   2.221
10550SOL     OW32548   4.522   7.000   5.215
10550SOL    HW132549   4.574   0.030   5.285
10550SOL    HW232550   4.585   6.948   5.157
10551SOL     OW32551   1.992   2.999   6.216
10551SOL    HW132552   1.902   2.964   6.192
10551SOL    HW232553   2.012   3.080   6.160
10552SOL     OW32554   3.184   1.008   5.648
10552SOL    HW132555   3.177   0.924   5.593
10552SOL    HW232556   3.097   1.024   5.695
10553SOL     OW32557   2.535   4.707   6.594
10553SOL    HW132558   2.449   4.658   6.612
10553SOL    HW232559   2.589   4.655   6.528
10554SOL     OW32560   6.216   3.690   6.032
10554SOL    HW132561   6.213   3.717   6.129
10554SOL    HW232562   6.304   3.646   6.013
10555SOL     OW32563   3.530   2.304   0.886
10555SOL    HW132564   3.524   2.402   0.868
10555SOL    HW232565   3.621   2.283   0.924
10556SOL     OW32566   2.198   5.129   4.175
10556SOL    HW132567   2.182   5.138   4.076
10556SOL    HW232568   2.273   5.065   4.190
10557SOL     OW32569   5.246   1.573   2.864
10557SOL    HW132570   5.170   1.637   2.878
10557SOL    HW232571   5.333   1.620   2.880
10558SOL     OW32572   6.185   5.892   6.230
10558SOL    HW132573   6.200   5.866   6.135
10558SOL    HW232574   6.157   5.988   6.235
10559SOL     OW32575   4.248   2.883   1.403
10559SOL    HW132576   4.265   2.789   1.373
10559SOL    HW232577   4.333   2.935   1.399
10560SOL     OW32578   0.047   2.052   4.224
10560SOL    HW132579   0.090   1.971   4.183
10560SOL    HW232580   6.977   2.068   4.182
10561SOL     OW32581   1.714   4.008   6.640
10561SOL    HW132582   1.647   4.038   6.572
10561SOL    HW232583   1.806   4.026   6.605
10562SOL     OW32584   4.725   1.842   0.853
10562SOL    HW132585   4.802   1.840   0.789
10562SOL    HW232586   4.639   1.847   0.802
10563SOL     OW32587   1.513   2.353   2.350
10563SOL    HW132588   1.517   2.427   2.417
10563SOL    HW232589   1.549   2.386   2.262
10564SOL     OW32590   0.123   1.639   2.455
10564SOL    HW132591   0.112   1.730   2.495
10564SOL    HW232592   0.096   1.570   2.521
10565SOL     OW32593   5.278   2.181   5.247
10565SOL    HW132594   5.347   2.179   5.320
10565SOL    HW232595   5.197   2.230   5.279
10566SOL     OW32596   5.123   5.560   6.958
10566SOL    HW132597   5.079   5.573   0.028
10566SOL    HW232598   5.073   5.491   6.906
10567SOL     OW32599   2.212   5.495   5.228
10567SOL    HW132600   2.149   5.530   5.159
10567SOL    HW232601   2.298   5.468   5.184
10568SOL     OW32602   3.784   0.336   3.945
10568SOL    HW132603   3.868   0.288   3.922
10568SOL    HW232604   3.708   0.270   3.950
10569SOL     OW32605   6.425   1.791   3.779
10569SOL    HW132606   6.498   1.743   3.828
10569SOL    HW232607   6.433   1.889   3.797
10570SOL     OW32608   0.988   3.073   1.680
10570SOL    HW132609   0.900   3.083   1.633
10570SOL    HW232610   1.050   3.019   1.624
10571SOL     OW32611   6.759   6.829   4.593
10571SOL    HW132612   6.727   6.924   4.585
10571SOL    HW232613   6.753   6.785   4.504
10572SOL     OW32614   6.427   3.813   2.665
10572SOL    HW132615   6.349   3.838   2.609
10572SOL    HW232616   6.427   3.714   2.681
10573SOL     OW32617   6.719   4.839   5.448
10573SOL    HW132618   6.627   4.810   5.423
10573SOL    HW232619   6.734   4.825   5.546
10574SOL     OW32620   0.686   2.258   2.651
10574SOL    HW132621   0.759   2.324   2.632
10574SOL    HW232622   0.598   2.304   2.648
10575SOL     OW32623   0.002   0.098   5.841
10575SOL    HW132624   6.950   0.168   5.827
10575SOL    HW232625   6.979   0.008   5.837
10576SOL     OW32626   0.497   5.836   3.692
10576SOL    HW132627   0.417   5.892   3.712
10576SOL    HW232628   0.468   5.749   3.654
10577SOL     OW32629   0.315   3.099   5.452
10577SOL    HW132630   0.294   3.178   5.510
10577SOL    HW232631   0.260   3.104   5.369
10578SOL     OW32632   5.176   0.904   5.026
10578SOL    HW132633   5.152   0.948   4.939
10578SOL    HW232634   5.232   0.823   5.007
10579SOL     OW32635   5.701   6.335   1.006
10579SOL    HW132636   5.720   6.257   0.946
10579SOL    HW232637   5.757   6.328   1.088
10580SOL     OW32638   0.871   5.596   0.206
10580SOL    HW132639   0.865   5.499   0.183
10580SOL    HW232640   0.787   5.625   0.251
10581SOL     OW32641   4.247   2.285   2.647
10581SOL    HW132642   4.300   2.359   2.605
10581SOL    HW232643   4.244   2.300   2.746
10582SOL     OW32644   3.462   3.970   6.971
10582SOL    HW132645   3.490   3.879   6.942
10582SOL    HW232646   3.377   3.963   0.006
10583SOL     OW32647   4.809   0.653   1.410
10583SOL    HW132648   4.769   0.707   1.484
10583SOL    HW232649   4.861   0.712   1.349
10584SOL     OW32650   5.243   6.668   1.537
10584SOL    HW132651   5.160   6.615   1.555
10584SOL    HW232652   5.323   6.615   1.566
10585SOL     OW32653   2.801   4.199   6.698
10585SOL    HW132654   2.783   4.286   6.745
10585SOL    HW232655   2.889   4.204   6.651
10586SOL     OW32656   5.072   2.127   1.642
10586SOL    HW132657   5.044   2.041   1.599
10586SOL    HW232658   5.105   2.108   1.735
10587SOL     OW32659   0.201   3.776   0.481
10587SOL    HW132660   0.137   3.715   0.434
10587SOL    HW232661   0.168   3.795   0.573
10588SOL     OW32662   1.894   5.304   3.626
10588SOL    HW132663   1.954   5.311   3.706
10588SOL    HW232664   1.817   5.368   3.636
10589SOL     OW32665   6.048   0.757   4.069
10589SOL    HW132666   5.992   0.839   4.069
10589SOL    HW232667   6.024   0.698   4.146
10590SOL     OW32668   0.832   0.124   4.219
10590SOL    HW132669   0.885   0.181   4.157
10590SOL    HW232670   0.850   0.028   4.200
10591SOL     OW32671   1.350   2.374   1.326
10591SOL    HW132672   1.418   2.445   1.305
10591SOL    HW232673   1.381   2.287   1.287
10592SOL     OW32674   5.127   1.694   5.959
10592SOL    HW132675   5.137   1.598   5.985
10592SOL    HW232676   5.048   1.705   5.899
10593SOL     OW32677   1.585   3.868   2.328
10593SOL    HW132678   1.517   3.798   2.304
10593SOL    HW232679   1.595   3.933   2.252
10594SOL     OW32680   1.449   1.317   4.638
10594SOL    HW132681   1.533   1.356   4.676
10594SOL    HW232682   1.472   1.256   4.562
10595SOL     OW32683   1.462   5.669   5.033
10595SOL    HW132684   1.559   5.685   5.052
10595SOL    HW232685   1.447   5.671   4.934
10596SOL     OW32686   2.658   1.091   1.170
10596SOL    HW132687   2.655   1.020   1.099
10596SOL    HW232688   2.680   1.179   1.128
10597SOL     OW32689   1.700   0.836   3.983
10597SOL    HW132690   1.717   0.747   4.026
10597SOL    HW232691   1.776   0.898   4.004
10598SOL     OW32692   2.978   0.756   0.632
10598SOL    HW132693   3.025   0.744   0.719
10598SOL    HW232694   2.932   0.671   0.606
10599SOL     OW32695   4.643   0.151   6.183
10599SOL    HW132696   4.556   0.132   6.228
10599SOL    HW232697   4.654   0.089   6.105
10600SOL     OW32698   1.789   2.995   5.235
10600SOL    HW132699   1.881   3.033   5.237
10600SOL    HW232700   1.793   2.897   5.214
10601SOL     OW32701   4.637   6.225   5.179
10601SOL    HW132702   4.644   6.159   5.104
10601SOL    HW232703   4.564   6.291   5.158
10602SOL     OW32704   4.968   2.462   2.071
10602SOL    HW132705   5.020   2.544   2.093
10602SOL    HW232706   4.974   2.444   1.973
10603SOL     OW32707   0.625   5.452   5.071
10603SOL    HW132708   0.598   5.385   5.140
10603SOL    HW232709   0.577   5.538   5.087
10604SOL     OW32710   0.293   4.479   6.519
10604SOL    HW132711   0.250   4.389   6.523
10604SOL    HW232712   0.272   4.530   6.602
10605SOL     OW32713   1.190   4.738   0.452
10605SOL    HW132714   1.125   4.740   0.528
10605SOL    HW232715   1.158   4.673   0.383
10606SOL     OW32716   1.476   1.221   2.065
10606SOL    HW132717   1.557   1.162   2.062
10606SOL    HW232718   1.394   1.166   2.050
10607SOL     OW32719   5.324   3.958   0.132
10607SOL    HW132720   5.398   4.024   0.136
10607SOL    HW232721   5.267   3.976   0.052
10608SOL     OW32722   5.574   5.892   2.707
10608SOL    HW132723   5.538   5.825   2.642
10608SOL    HW232724   5.674   5.886   2.707
10609SOL     OW32725   3.897   6.723   3.326
10609SOL    HW132726   3.889   6.765   3.235
10609SOL    HW232727   3.940   6.633   3.317
10610SOL     OW32728   2.382   4.709   5.196
10610SOL    HW132729   2.440   4.645   5.145
10610SOL    HW232730   2.289   4.672   5.202
10611SOL     OW32731   4.601   2.184   6.060
10611SOL    HW132732   4.505   2.213   6.065
10611SOL    HW232733   4.648   2.212   6.143
10612SOL     OW32734   2.114   0.142   1.522
10612SOL    HW132735   2.202   0.153   1.476
10612SOL    HW232736   2.121   0.174   1.617
10613SOL     OW32737   1.230   6.661   0.179
10613SOL    HW132738   1.162   6.590   0.164
10613SOL    HW232739   1.284   6.673   0.096
10614SOL     OW32740   0.559   0.900   2.752
10614SOL    HW132741   0.504   0.857   2.824
10614SOL    HW232742   0.504   0.971   2.707
10615SOL     OW32743   0.313   6.066   5.892
10615SOL    HW132744   0.221   6.103   5.878
10615SOL    HW232745   0.321   6.031   5.985
10616SOL     OW32746   3.579   5.566   1.596
10616SOL    HW132747   3.587   5.529   1.688
10616SOL    HW232748   3.540   5.658   1.600
10617SOL     OW32749   6.350   2.251   6.724
10617SOL    HW132750   6.372   2.303   6.807
10617SOL    HW232751   6.435   2.214   6.685
10618SOL     OW32752   6.814   4.167   0.986
10618SOL    HW132753   6.753   4.246   0.977
10618SOL    HW232754   6.843   4.158   1.082
10619SOL     OW32755   0.408   3.515   3.920
10619SOL    HW132756   0.462   3.431   3.928
10619SOL    HW232757   0.391   3.535   3.823
10620SOL     OW32758   1.516   5.073   3.875
10620SOL    HW132759   1.479   5.105   3.788
10620SOL    HW232760   1.492   4.976   3.887
10621SOL     OW32761   3.633   1.027   0.636
10621SOL    HW132762   3.610   0.930   0.624
10621SOL    HW232763   3.626   1.074   0.548
10622SOL     OW32764   4.131   2.231   0.539
10622SOL    HW132765   4.222   2.239   0.579
10622SOL    HW232766   4.138   2.228   0.439
10623SOL     OW32767   6.981   1.482   4.127
10623SOL    HW132768   0.062   1.476   4.123
10623SOL    HW232769   6.953   1.525   4.212
10624SOL     OW32770   2.425   1.631   3.840
10624SOL    HW132771   2.466   1.660   3.927
10624SOL    HW232772   2.365   1.704   3.806
10625SOL     OW32773   0.850   2.813   1.391
10625SOL    HW132774   0.944   2.781   1.387
10625SOL    HW232775   0.787   2.735   1.391
10626SOL     OW32776   0.636   2.110   3.190
10626SOL    HW132777   0.563   2.139   3.128
10626SOL    HW232778   0.691   2.039   3.146
10627SOL     OW32779   3.463   5.623   4.452
10627SOL    HW132780   3.462   5.524   4.437
10627SOL    HW232781   3.547   5.661   4.414
10628SOL     OW32782   0.264   6.837   5.350
10628SOL    HW132783   0.206   6.763   5.384
10628SOL    HW232784   0.334   6.858   5.418
10629SOL     OW32785   3.242   4.400   6.859
10629SOL    HW132786   3.160   4.366   6.813
10629SOL    HW232787   3.215   4.459   6.935
10630SOL     OW32788   5.715   1.495   1.488
10630SOL    HW132789   5.704   1.416   1.548
10630SOL    HW232790   5.735   1.464   1.395
10631SOL     OW32791   1.560   6.869   4.123
10631SOL    HW132792   1.623   6.836   4.193
10631SOL    HW232793   1.532   6.963   4.145
10632SOL     OW32794   6.847   3.028   0.404
10632SOL    HW132795   6.939   2.992   0.421
10632SOL    HW232796   6.850   3.089   0.325
10633SOL     OW32797   1.701   4.842   6.725
10633SOL    HW132798   1.778   4.907   6.728
10633SOL    HW232799   1.724   4.762   6.781
10634SOL     OW32800   3.253   6.293   2.134
10634SOL    HW132801   3.192   6.325   2.061
10634SOL    HW232802   3.207   6.303   2.222
10635SOL     OW32803   0.865   0.573   1.360
10635SOL    HW132804   0.911   0.659   1.343
10635SOL    HW232805   0.931   0.498   1.360
10636SOL     OW32806   5.141   1.913   6.924
10636SOL    HW132807   5.188   2.001   6.925
10636SOL    HW232808   5.092   1.900   7.011
10637SOL     OW32809   3.419   3.523   6.657
10637SOL    HW132810   3.493   3.549   6.718
10637SOL    HW232811   3.338   3.580   6.676
10638SOL     OW32812   6.836   1.234   5.211
10638SOL    HW132813   6.848   1.296   5.134
10638SOL    HW232814   6.854   1.140   5.181
10639SOL     OW32815   3.443   1.984   4.550
10639SOL    HW132816   3.539   2.010   4.561
10639SOL    HW232817   3.415   1.999   4.455
10640SOL     OW32818   4.885   6.373   0.804
10640SOL    HW132819   4.952   6.318   0.853
10640SOL    HW232820   4.899   6.470   0.827
10641SOL     OW32821   3.568   6.576   6.885
10641SOL    HW132822   3.527   6.666   6.901
10641SOL    HW232823   3.553   6.549   6.789
10642SOL     OW32824   0.379   6.080   2.136
10642SOL    HW132825   0.322   6.001   2.160
10642SOL    HW232826   0.406   6.128   2.220
10643SOL     OW32827   3.524   3.587   6.213
10643SOL    HW132828   3.584   3.651   6.165
10643SOL    HW232829   3.429   3.613   6.196
10644SOL     OW32830   4.136   1.274   5.393
10644SOL    HW132831   4.162   1.369   5.415
10644SOL    HW232832   4.040   1.260   5.415
10645SOL     OW32833   1.708   0.748   3.299
10645SOL    HW132834   1.794   0.762   3.251
10645SOL    HW232835   1.648   0.691   3.243
10646SOL     OW32836   6.676   4.798   6.601
10646SOL    HW132837   6.628   4.871   6.649
10646SOL    HW232838   6.765   4.783   6.643
10647SOL     OW32839   6.490   5.895   1.245
10647SOL    HW132840   6.413   5.856   1.294
10647SOL    HW232841   6.466   5.905   1.148
10648SOL     OW32842   4.672   3.727   6.338
10648SOL    HW132843   4.574   3.742   6.350
10648SOL    HW232844   4.705   3.662   6.407
10649SOL     OW32845   6.471   4.912   6.097
10649SOL    HW132846   6.451   4.991   6.039
10649SOL    HW232847   6.420   4.920   6.183
10650SOL     OW32848   1.982   0.272   5.679
10650SOL    HW132849   2.009   0.177   5.668
10650SOL    HW232850   1.922   0.281   5.759
10651SOL     OW32851   1.422   0.356   5.745
10651SOL    HW132852   1.486   0.427   5.714
10651SOL    HW232853   1.329   0.382   5.718
10652SOL     OW32854   4.924   6.867   0.377
10652SOL    HW132855   4.835   6.842   0.338
10652SOL    HW232856   4.918   6.862   0.477
10653SOL     OW32857   6.118   4.258   3.603
10653SOL    HW132858   6.146   4.340   3.554
10653SOL    HW232859   6.194   4.193   3.606
10654SOL     OW32860   5.061   0.174   1.658
10654SOL    HW132861   5.031   0.086   1.620
10654SOL    HW232862   5.045   0.247   1.592
10655SOL     OW32863   3.006   5.856   0.801
10655SOL    HW132864   2.929   5.826   0.744
10655SOL    HW232865   2.974   5.870   0.895
10656SOL     OW32866   0.168   3.258   5.964
10656SOL    HW132867   0.144   3.350   5.933
10656SOL    HW232868   0.224   3.265   6.046
10657SOL     OW32869   5.975   0.331   0.206
10657SOL    HW132870   5.987   0.388   0.286
10657SOL    HW232871   5.925   0.248   0.230
10658SOL     OW32872   0.104   6.250   4.059
10658SOL    HW132873   0.156   6.321   4.106
10658SOL    HW232874   0.161   6.170   4.044
10659SOL     OW32875   5.743   1.373   1.216
10659SOL    HW132876   5.825   1.319   1.197
10659SOL    HW232877   5.667   1.311   1.235
10660SOL     OW32878   4.127   5.102   5.052
10660SOL    HW132879   4.133   5.011   5.011
10660SOL    HW232880   4.210   5.154   5.030
10661SOL     OW32881   0.124   0.655   2.051
10661SOL    HW132882   0.076   0.729   2.005
10661SOL    HW232883   0.088   0.567   2.021
10662SOL     OW32884   0.647   2.627   0.488
10662SOL    HW132885   0.706   2.703   0.463
10662SOL    HW232886   0.703   2.545   0.502
10663SOL     OW32887   0.997   2.342   2.604
10663SOL    HW132888   0.914   2.395   2.585
10663SOL    HW232889   0.976   2.244   2.598
10664SOL     OW32890   2.242   5.326   6.423
10664SOL    HW132891   2.315   5.394   6.434
10664SOL    HW232892   2.237   5.298   6.327
10665SOL     OW32893   5.776   1.918   6.561
10665SOL    HW132894   5.698   1.891   6.504
10665SOL    HW232895   5.750   1.998   6.616
10666SOL     OW32896   0.345   6.309   0.494
10666SOL    HW132897   0.417   6.324   0.562
10666SOL    HW232898   0.370   6.232   0.435
10667SOL     OW32899   3.488   2.141   5.504
10667SOL    HW132900   3.457   2.102   5.591
10667SOL    HW232901   3.412   2.143   5.440
10668SOL     OW32902   1.302   6.923   6.372
10668SOL    HW132903   1.320   7.009   6.420
10668SOL    HW232904   1.289   6.850   6.439
10669SOL     OW32905   2.124   5.627   6.346
10669SOL    HW132906   2.181   5.680   6.284
10669SOL    HW232907   2.078   5.554   6.295
10670SOL     OW32908   5.742   4.086   5.350
10670SOL    HW132909   5.727   4.121   5.442
10670SOL    HW232910   5.758   4.161   5.287
10671SOL     OW32911   2.347   2.820   3.505
10671SOL    HW132912   2.297   2.898   3.466
10671SOL    HW232913   2.283   2.745   3.522
10672SOL     OW32914   6.895   2.770   0.685
10672SOL    HW132915   6.798   2.789   0.705
10672SOL    HW232916   6.929   2.838   0.620
10673SOL     OW32917   3.114   4.016   3.505
10673SOL    HW132918   3.032   4.071   3.484
10673SOL    HW232919   3.090   3.945   3.571
10674SOL     OW32920   3.815   1.481   2.789
10674SOL    HW132921   3.896   1.435   2.825
10674SOL    HW232922   3.833   1.579   2.783
10675SOL     OW32923   1.463   1.902   5.355
10675SOL    HW132924   1.507   1.983   5.394
10675SOL    HW232925   1.420   1.849   5.429
10676SOL     OW32926   6.270   0.978   6.841
10676SOL    HW132927   6.275   0.879   6.828
10676SOL    HW232928   6.174   1.006   6.845
10677SOL     OW32929   4.980   0.757   6.502
10677SOL    HW132930   4.942   0.718   6.419
10677SOL    HW232931   5.074   0.727   6.514
10678SOL     OW32932   2.258   5.684   4.179
10678SOL    HW132933   2.175   5.680   4.123
10678SOL    HW232934   2.292   5.591   4.194
10679SOL     OW32935   6.060   5.263   4.103
10679SOL    HW132936   6.067   5.357   4.137
10679SOL    HW232937   6.012   5.263   4.015
10680SOL     OW32938   0.283   2.511   3.433
10680SOL    HW132939   0.361   2.560   3.394
10680SOL    HW232940   0.242   2.566   3.506
10681SOL     OW32941   0.629   3.172   6.818
10681SOL    HW132942   0.669   3.225   6.743
10681SOL    HW232943   0.630   3.226   6.902
10682SOL     OW32944   6.174   2.204   3.690
10682SOL    HW132945   6.245   2.133   3.688
10682SOL    HW232946   6.173   2.252   3.602
10683SOL     OW32947   0.542   0.255   4.283
10683SOL    HW132948   0.641   0.237   4.276
10683SOL    HW232949   0.527   0.354   4.283
10684SOL     OW32950   5.160   6.201   0.713
10684SOL    HW132951   5.132   6.292   0.681
10684SOL    HW232952   5.080   6.144   0.728
10685SOL     OW32953   6.699   2.243   3.469
10685SOL    HW132954   6.799   2.230   3.467
10685SOL    HW232955   6.667   2.271   3.379
10686SOL     OW32956   5.790   4.433   1.307
10686SOL    HW132957   5.692   4.427   1.328
10686SOL    HW232958   5.819   4.528   1.312
10687SOL     OW32959   0.429   5.107   1.092
10687SOL    HW132960   0.505   5.115   1.027
10687SOL    HW232961   0.466   5.104   1.185
10688SOL     OW32962   1.760   5.173   1.294
10688SOL    HW132963   1.761   5.074   1.282
10688SOL    HW232964   1.744   5.217   1.205
10689SOL     OW32965   6.893   0.715   1.578
10689SOL    HW132966   6.911   0.782   1.650
10689SOL    HW232967   6.979   0.669   1.553
10690SOL     OW32968   3.564   0.514   2.812
10690SOL    HW132969   3.650   0.522   2.762
10690SOL    HW232970   3.521   0.603   2.821
10691SOL     OW32971   5.258   1.809   1.571
10691SOL    HW132972   5.284   1.778   1.662
10691SOL    HW232973   5.159   1.822   1.567
10692SOL     OW32974   5.719   6.477   4.163
10692SOL    HW132975   5.672   6.565   4.153
10692SOL    HW232976   5.654   6.403   4.148
10693SOL     OW32977   4.357   2.287   4.401
10693SOL    HW132978   4.262   2.259   4.409
10693SOL    HW232979   4.394   2.256   4.313
10694SOL     OW32980   2.904   6.403   0.328
10694SOL    HW132981   2.902   6.312   0.286
10694SOL    HW232982   2.996   6.442   0.321
10695SOL     OW32983   5.957   2.969   5.750
10695SOL    HW132984   5.907   2.882   5.750
10695SOL    HW232985   5.971   2.998   5.845
10696SOL     OW32986   6.788   0.693   1.081
10696SOL    HW132987   6.689   0.695   1.064
10696SOL    HW232988   6.829   0.776   1.043
10697SOL     OW32989   3.295   6.158   2.819
10697SOL    HW132990   3.291   6.234   2.884
10697SOL    HW232991   3.375   6.102   2.838
10698SOL     OW32992   3.893   6.762   3.702
10698SOL    HW132993   3.816   6.762   3.639
10698SOL    HW232994   3.953   6.684   3.682
10699SOL     OW32995   6.951   3.956   3.119
10699SOL    HW132996   6.875   4.000   3.071
10699SOL    HW232997   6.915   3.890   3.185
10700SOL     OW32998   0.696   2.997   3.125
10700SOL    HW132999   0.782   3.035   3.091
10700SOL    HW233000   0.712   2.950   3.212
10701SOL     OW33001   2.555   6.627   1.578
10701SOL    HW133002   2.543   6.557   1.508
10701SOL    HW233003   2.475   6.629   1.638
10702SOL     OW33004   4.846   1.652   1.025
10702SOL    HW133005   4.932   1.687   1.061
10702SOL    HW233006   4.806   1.719   0.962
10703SOL     OW33007   3.338   4.111   4.343
10703SOL    HW133008   3.242   4.139   4.336
10703SOL    HW233009   3.343   4.018   4.378
10704SOL     OW33010   5.207   5.077   1.328
10704SOL    HW133011   5.126   5.125   1.294
10704SOL    HW233012   5.220   5.098   1.425
10705SOL     OW33013   1.230   3.029   0.071
10705SOL    HW133014   1.265   3.011   0.163
10705SOL    HW233015   1.159   2.962   0.048
10706SOL     OW33016   2.992   3.627   0.514
10706SOL    HW133017   3.077   3.669   0.544
10706SOL    HW233018   2.993   3.530   0.538
10707SOL     OW33019   6.308   0.711   6.793
10707SOL    HW133020   6.364   0.639   6.835
10707SOL    HW233021   6.270   0.677   6.708
10708SOL     OW33022   4.463   3.148   1.379
10708SOL    HW133023   4.431   3.188   1.465
10708SOL    HW233024   4.523   3.070   1.399
10709SOL     OW33025   0.960   1.201   5.674
10709SOL    HW133026   1.045   1.148   5.674
10709SOL    HW233027   0.952   1.252   5.759
10710SOL     OW33028   6.786   6.712   3.597
10710SOL    HW133029   6.753   6.639   3.537
10710SOL    HW233030   6.785   6.680   3.692
10711SOL     OW33031   1.931   4.165   5.400
10711SOL    HW133032   1.996   4.238   5.384
10711SOL    HW233033   1.914   4.156   5.499
10712SOL     OW33034   3.825   2.159   5.668
10712SOL    HW133035   3.763   2.103   5.723
10712SOL    HW233036   3.778   2.241   5.637
10713SOL     OW33037   2.788   0.260   0.259
10713SOL    HW133038   2.800   0.194   0.334
10713SOL    HW233039   2.757   0.347   0.297
10714SOL     OW33040   5.117   5.433   4.458
10714SOL    HW133041   5.130   5.399   4.552
10714SOL    HW233042   5.049   5.506   4.459
10715SOL     OW33043   5.833   6.946   2.553
10715SOL    HW133044   5.889   0.007   2.575
10715SOL    HW233045   5.832   6.932   2.454
10716SOL     OW33046   6.418   1.899   2.587
10716SOL    HW133047   6.386   1.873   2.496
10716SOL    HW233048   6.449   1.994   2.586
10717SOL     OW33049   0.167   6.693   0.906
10717SOL    HW133050   0.199   6.772   0.959
10717SOL    HW233051   0.071   6.705   0.882
10718SOL     OW33052   0.800   4.796   5.346
10718SOL    HW133053   0.860   4.727   5.307
10718SOL    HW233054   0.793   4.783   5.445
10719SOL     OW33055   3.598   6.384   3.483
10719SOL    HW133056   3.558   6.474   3.465
10719SOL    HW233057   3.682   6.374   3.429
10720SOL     OW33058   1.397   3.103   5.900
10720SOL    HW133059   1.481   3.140   5.859
10720SOL    HW233060   1.352   3.042   5.835
10721SOL     OW33061   5.464   1.022   4.263
10721SOL    HW133062   5.434   0.952   4.329
10721SOL    HW233063   5.406   1.018   4.182
10722SOL     OW33064   0.617   4.898   0.549
10722SOL    HW133065   0.600   4.801   0.533
10722SOL    HW233066   0.588   4.922   0.642
10723SOL     OW33067   0.119   4.772   6.051
10723SOL    HW133068   0.082   4.750   6.141
10723SOL    HW233069   0.110   4.692   5.991
10724SOL     OW33070   3.887   6.428   5.710
10724SOL    HW133071   3.881   6.469   5.619
10724SOL    HW233072   3.927   6.494   5.774
10725SOL     OW33073   6.336   0.438   5.159
10725SOL    HW133074   6.358   0.372   5.087
10725SOL    HW233075   6.245   0.419   5.195
10726SOL     OW33076   7.016   0.485   3.599
10726SOL    HW133077   0.086   0.477   3.644
10726SOL    HW233078   6.943   0.465   3.664
10727SOL     OW33079   5.522   5.918   5.918
10727SOL    HW133080   5.430   5.923   5.956
10727SOL    HW233081   5.548   5.822   5.907
10728SOL     OW33082   5.049   5.967   4.722
10728SOL    HW133083   5.078   6.045   4.667
10728SOL    HW233084   5.129   5.925   4.766
10729SOL     OW33085   6.740   3.298   4.405
10729SOL    HW133086   6.728   3.280   4.503
10729SOL    HW233087   6.652   3.294   4.359
10730SOL     OW33088   1.066   6.119   4.086
10730SOL    HW133089   1.115   6.093   4.168
10730SOL    HW233090   1.007   6.197   4.106
10731SOL     OW33091   4.856   4.038   5.355
10731SOL    HW133092   4.875   4.135   5.343
10731SOL    HW233093   4.800   4.025   5.436
10732SOL     OW33094   5.675   5.928   2.253
10732SOL    HW133095   5.608   6.002   2.253
10732SOL    HW233096   5.692   5.900   2.158
10733SOL     OW33097   0.639   1.564   5.801
10733SOL    HW133098   0.541   1.587   5.804
10733SOL    HW233099   0.692   1.640   5.840
10734SOL     OW33100   0.456   0.788   4.312
10734SOL    HW133101   0.493   0.821   4.225
10734SOL    HW233102   0.423   0.865   4.366
10735SOL     OW33103   0.614   0.741   2.016
10735SOL    HW133104   0.609   0.802   1.936
10735SOL    HW233105   0.599   0.795   2.099
10736SOL     OW33106   5.546   5.901   4.439
10736SOL    HW133107   5.602   5.874   4.518
10736SOL    HW233108   5.472   5.835   4.427
10737SOL     OW33109   5.887   0.978   0.350
10737SOL    HW133110   5.968   0.954   0.296
10737SOL    HW233111   5.913   0.989   0.446
10738SOL     OW33112   0.738   6.399   2.547
10738SOL    HW133113   0.748   6.327   2.478
10738SOL    HW233114   0.827   6.442   2.563
10739SOL     OW33115   5.186   2.763   3.899
10739SOL    HW133116   5.192   2.741   3.997
10739SOL    HW233117   5.272   2.805   3.869
10740SOL     OW33118   3.134   1.159   6.348
10740SOL    HW133119   3.179   1.088   6.294
10740SOL    HW233120   3.168   1.155   6.442
10741SOL     OW33121   2.292   2.806   4.019
10741SOL    HW133122   2.375   2.768   3.979
10741SOL    HW233123   2.306   2.903   4.039
10742SOL     OW33124   6.850   0.225   2.518
10742SOL    HW133125   6.761   0.266   2.539
10742SOL    HW233126   6.907   0.225   2.600
10743SOL     OW33127   3.933   2.530   5.886
10743SOL    HW133128   4.004   2.478   5.839
10743SOL    HW233129   3.855   2.542   5.825
10744SOL     OW33130   1.682   1.259   0.785
10744SOL    HW133131   1.636   1.346   0.766
10744SOL    HW233132   1.781   1.270   0.774
10745SOL     OW33133   3.869   5.479   2.319
10745SOL    HW133134   3.933   5.403   2.326
10745SOL    HW233135   3.920   5.565   2.308
10746SOL     OW33136   2.828   5.354   5.433
10746SOL    HW133137   2.818   5.254   5.434
10746SOL    HW233138   2.854   5.383   5.341
10747SOL     OW33139   6.743   0.259   4.898
10747SOL    HW133140   6.776   0.276   4.805
10747SOL    HW233141   6.817   0.275   4.962
10748SOL     OW33142   3.728   6.084   2.170
10748SOL    HW133143   3.668   6.146   2.120
10748SOL    HW233144   3.751   6.006   2.112
10749SOL     OW33145   5.200   2.475   2.292
10749SOL    HW133146   5.205   2.447   2.196
10749SOL    HW233147   5.155   2.564   2.298
10750SOL     OW33148   3.602   1.760   4.159
10750SOL    HW133149   3.512   1.728   4.187
10750SOL    HW233150   3.604   1.774   4.060
10751SOL     OW33151   5.757   6.210   3.834
10751SOL    HW133152   5.669   6.184   3.795
10751SOL    HW233153   5.804   6.272   3.771
10752SOL     OW33154   6.930   6.434   6.402
10752SOL    HW133155   6.860   6.439   6.330
10752SOL    HW233156   0.001   6.422   6.361
10753SOL     OW33157   4.689   6.882   5.048
10753SOL    HW133158   4.712   6.942   4.972
10753SOL    HW233159   4.670   6.790   5.014
10754SOL     OW33160   6.312   5.647   1.825
10754SOL    HW133161   6.398   5.655   1.774
10754SOL    HW233162   6.265   5.563   1.799
10755SOL     OW33163   0.676   1.481   2.415
10755SOL    HW133164   0.752   1.546   2.426
10755SOL    HW233165   0.623   1.477   2.499
10756SOL     OW33166   0.960   6.780   0.020
10756SOL    HW133167   0.870   6.794   6.998
10756SOL    HW233168   1.010   6.867   0.021
10757SOL     OW33169   6.861   2.387   2.154
10757SOL    HW133170   6.944   2.381   2.098
10757SOL    HW233171   6.789   2.434   2.102
10758SOL     OW33172   0.167   1.510   1.082
10758SOL    HW133173   0.262   1.509   1.049
10758SOL    HW233174   0.167   1.497   1.182
10759SOL     OW33175   3.563   5.376   5.464
10759SOL    HW133176   3.512   5.295   5.493
10759SOL    HW233177   3.548   5.392   5.367
10760SOL     OW33178   1.141   4.646   6.595
10760SOL    HW133179   1.051   4.685   6.612
10760SOL    HW233180   1.190   4.703   6.529
10761SOL     OW33181   1.865   1.086   6.570
10761SOL    HW133182   1.813   1.171   6.556
10761SOL    HW233183   1.805   1.008   6.552
10762SOL     OW33184   1.477   5.412   1.029
10762SOL    HW133185   1.401   5.379   1.085
10762SOL    HW233186   1.551   5.345   1.030
10763SOL     OW33187   5.317   1.355   2.026
10763SOL    HW133188   5.285   1.383   1.936
10763SOL    HW233189   5.394   1.412   2.053
10764SOL     OW33190   5.207   6.860   4.040
10764SOL    HW133191   5.119   6.896   4.010
10764SOL    HW233192   5.242   6.798   3.970
10765SOL     OW33193   0.146   2.745   2.172
10765SOL    HW133194   0.179   2.836   2.195
10765SOL    HW233195   0.169   2.682   2.247
10766SOL     OW33196   3.656   5.535   6.816
10766SOL    HW133197   3.609   5.623   6.829
10766SOL    HW233198   3.589   5.461   6.823
10767SOL     OW33199   1.066   5.688   6.706
10767SOL    HW133200   1.159   5.723   6.716
10767SOL    HW233201   1.002   5.765   6.700
10768SOL     OW33202   6.233   6.479   6.905
10768SOL    HW133203   6.151   6.530   6.878
10768SOL    HW233204   6.219   6.381   6.890
10769SOL     OW33205   3.023   3.872   4.869
10769SOL    HW133206   2.948   3.938   4.870
10769SOL    HW233207   3.004   3.798   4.934
10770SOL     OW33208   4.446   0.678   4.604
10770SOL    HW133209   4.533   0.666   4.652
10770SOL    HW233210   4.424   0.776   4.601
10771SOL     OW33211   5.136   6.456   5.605
10771SOL    HW133212   5.211   6.515   5.633
10771SOL    HW233213   5.138   6.444   5.506
10772SOL     OW33214   4.908   3.375   3.952
10772SOL    HW133215   4.971   3.330   4.015
10772SOL    HW233216   4.818   3.382   3.995
10773SOL     OW33217   0.792   3.671   0.214
10773SOL    HW133218   0.865   3.659   0.147
10773SOL    HW233219   0.821   3.634   0.302
10774SOL     OW33220   6.669   2.871   1.232
10774SOL    HW133221   6.710   2.926   1.304
10774SOL    HW233222   6.634   2.930   1.160
10775SOL     OW33223   1.978   4.424   6.116
10775SOL    HW133224   1.988   4.359   6.041
10775SOL    HW233225   1.991   4.377   6.203
10776SOL     OW33226   0.231   3.588   3.404
10776SOL    HW133227   0.143   3.635   3.405
10776SOL    HW233228   0.226   3.510   3.342
10777SOL     OW33229   0.846   6.418   2.104
10777SOL    HW133230   0.879   6.325   2.087
10777SOL    HW233231   0.752   6.426   2.069
10778SOL     OW33232   4.812   6.830   3.408
10778SOL    HW133233   4.911   6.842   3.396
10778SOL    HW233234   4.788   6.848   3.503
10779SOL     OW33235   5.597   2.705   5.241
10779SOL    HW133236   5.654   2.786   5.258
10779SOL    HW233237   5.606   2.678   5.145
10780SOL     OW33238   1.146   5.848   4.839
10780SOL    HW133239   1.211   5.921   4.855
10780SOL    HW233240   1.193   5.768   4.800
10781SOL     OW33241   6.120   2.961   5.516
10781SOL    HW133242   6.082   3.010   5.437
10781SOL    HW233243   6.066   2.982   5.598
10782SOL     OW33244   1.804   3.313   4.744
10782SOL    HW133245   1.753   3.244   4.693
10782SOL    HW233246   1.745   3.355   4.813
10783SOL     OW33247   1.499   3.899   4.196
10783SOL    HW133248   1.435   3.919   4.122
10783SOL    HW233249   1.511   3.981   4.253
10784SOL     OW33250   4.666   5.910   3.645
10784SOL    HW133251   4.711   5.995   3.619
10784SOL    HW233252   4.727   5.833   3.625
10785SOL     OW33253   1.492   5.701   1.855
10785SOL    HW133254   1.564   5.698   1.785
10785SOL    HW233255   1.510   5.633   1.925
10786SOL     OW33256   4.903   1.473   2.306
10786SOL    HW133257   4.818   1.497   2.352
10786SOL    HW233258   4.973   1.453   2.374
10787SOL     OW33259   3.173   1.319   3.763
10787SOL    HW133260   3.197   1.328   3.666
10787SOL    HW233261   3.251   1.279   3.812
10788SOL     OW33262   1.439   2.706   6.529
10788SOL    HW133263   1.353   2.744   6.495
10788SOL    HW233264   1.506   2.779   6.540
10789SOL     OW33265   0.042   2.478   2.933
10789SOL    HW133266   6.992   2.459   3.003
10789SOL    HW233267   0.089   2.394   2.908
10790SOL     OW33268   6.843   3.182   4.944
10790SOL    HW133269   6.865   3.155   5.038
10790SOL    HW233270   6.749   3.155   4.922
10791SOL     OW33271   2.337   2.832   2.999
10791SOL    HW133272   2.315   2.922   3.036
10791SOL    HW233273   2.255   2.792   2.958
10792SOL     OW33274   3.314   1.077   1.935
10792SOL    HW133275   3.411   1.099   1.943
10792SOL    HW233276   3.282   1.097   1.842
10793SOL     OW33277   3.699   2.115   3.743
10793SOL    HW133278   3.788   2.142   3.778
10793SOL    HW233279   3.707   2.027   3.696
10794SOL     OW33280   4.979   2.727   0.448
10794SOL    HW133281   4.969   2.652   0.383
10794SOL    HW233282   5.031   2.696   0.527
10795SOL     OW33283   6.144   2.407   3.513
10795SOL    HW133284   6.049   2.416   3.542
10795SOL    HW233285   6.149   2.414   3.413
10796SOL     OW33286   6.790   2.173   6.683
10796SOL    HW133287   6.733   2.188   6.602
10796SOL    HW233288   6.880   2.215   6.668
10797SOL     OW33289   5.572   4.766   6.815
10797SOL    HW133290   5.614   4.676   6.814
10797SOL    HW233291   5.640   4.835   6.839
10798SOL     OW33292   2.797   5.874   0.413
10798SOL    HW133293   2.842   5.881   0.502
10798SOL    HW233294   2.746   5.788   0.408
10799SOL     OW33295   1.941   0.770   3.151
10799SOL    HW133296   2.028   0.743   3.193
10799SOL    HW233297   1.953   0.778   3.052
10800SOL     OW33298   0.755   0.084   5.525
10800SOL    HW133299   0.851   0.061   5.541
10800SOL    HW233300   0.746   0.131   5.437
10801SOL     OW33301   2.543   6.137   6.901
10801SOL    HW133302   2.509   6.229   6.920
10801SOL    HW233303   2.482   6.070   6.943
10802SOL     OW33304   1.081   4.932   3.496
10802SOL    HW133305   1.175   4.941   3.529
10802SOL    HW233306   1.026   4.885   3.565
10803SOL     OW33307   0.430   4.258   4.429
10803SOL    HW133308   0.373   4.336   4.457
10803SOL    HW233309   0.523   4.270   4.465
10804SOL     OW33310   5.214   5.210   6.185
10804SOL    HW133311   5.278   5.257   6.123
10804SOL    HW233312   5.220   5.111   6.171
10805SOL     OW33313   5.905   5.986   6.526
10805SOL    HW133314   5.874   5.984   6.431
10805SOL    HW233315   5.827   5.984   6.587
10806SOL     OW33316   6.458   3.178   5.149
10806SOL    HW133317   6.430   3.125   5.229
10806SOL    HW233318   6.435   3.274   5.163
10807SOL     OW33319   4.485   2.677   5.167
10807SOL    HW133320   4.404   2.624   5.189
10807SOL    HW233321   4.532   2.635   5.089
10808SOL     OW33322   0.650   2.594   1.096
10808SOL    HW133323   0.564   2.571   1.050
10808SOL    HW233324   0.634   2.609   1.193
10809SOL     OW33325   0.835   0.801   2.991
10809SOL    HW133326   0.815   0.703   2.987
10809SOL    HW233327   0.753   0.850   3.021
10810SOL     OW33328   2.072   1.689   6.423
10810SOL    HW133329   2.014   1.764   6.454
10810SOL    HW233330   2.020   1.630   6.361
10811SOL     OW33331   4.490   5.311   6.312
10811SOL    HW133332   4.500   5.212   6.299
10811SOL    HW233333   4.405   5.342   6.270
10812SOL     OW33334   6.503   3.199   2.421
10812SOL    HW133335   6.589   3.222   2.375
10812SOL    HW233336   6.470   3.112   2.386
10813SOL     OW33337   2.820   6.142   2.533
10813SOL    HW133338   2.901   6.151   2.591
10813SOL    HW233339   2.751   6.088   2.580
10814SOL     OW33340   1.911   5.996   4.336
10814SOL    HW133341   1.953   5.921   4.388
10814SOL    HW233342   1.859   5.957   4.260
10815SOL     OW33343   5.557   2.887   6.127
10815SOL    HW133344   5.478   2.834   6.096
10815SOL    HW233345   5.569   2.874   6.225
10816SOL     OW33346   2.190   2.592   1.192
10816SOL    HW133347   2.167   2.581   1.289
10816SOL    HW233348   2.121   2.547   1.136
10817SOL     OW33349   3.848   1.270   1.843
10817SOL    HW133350   3.902   1.334   1.787
10817SOL    HW233351   3.755   1.306   1.852
10818SOL     OW33352   4.678   3.353   5.614
10818SOL    HW133353   4.603   3.289   5.631
10818SOL    HW233354   4.704   3.349   5.518
10819SOL     OW33355   2.065   3.423   4.767
10819SOL    HW133356   2.133   3.379   4.710
10819SOL    HW233357   1.975   3.383   4.750
10820SOL     OW33358   0.583   6.331   5.007
10820SOL    HW133359   0.516   6.390   5.051
10820SOL    HW233360   0.585   6.242   5.052
10821SOL     OW33361   6.888   0.560   6.414
10821SOL    HW133362   6.800   0.530   6.378
10821SOL    HW233363   6.956   0.487   6.400
10822SOL     OW33364   0.068   5.399   5.857
10822SOL    HW133365   0.135   5.326   5.871
10822SOL    HW233366   0.085   5.473   5.922
10823SOL     OW33367   2.827   2.383   0.143
10823SOL    HW133368   2.734   2.395   0.107
10823SOL    HW233369   2.861   2.292   0.117
10824SOL     OW33370   5.060   1.477   4.789
10824SOL    HW133371   5.082   1.568   4.823
10824SOL    HW233372   4.962   1.471   4.771
10825SOL     OW33373   4.220   1.796   2.207
10825SOL    HW133374   4.308   1.841   2.222
10825SOL    HW233375   4.149   1.866   2.200
10826SOL     OW33376   0.240   3.512   0.686
10826SOL    HW133377   0.241   3.488   0.589
10826SOL    HW233378   0.176   3.587   0.701
10827SOL     OW33379   6.882   2.990   4.742
10827SOL    HW133380   6.974   2.951   4.739
10827SOL    HW233381   6.825   2.936   4.804
10828SOL     OW33382   3.116   4.521   0.040
10828SOL    HW133383   3.158   4.566   0.119
10828SOL    HW233384   3.028   4.565   0.020
10829SOL     OW33385   1.667   3.707   1.259
10829SOL    HW133386   1.740   3.768   1.290
10829SOL    HW233387   1.707   3.622   1.223
10830SOL     OW33388   6.379   0.624   3.612
10830SOL    HW133389   6.475   0.607   3.632
10830SOL    HW233390   6.371   0.679   3.529
10831SOL     OW33391   5.135   3.028   2.324
10831SOL    HW133392   5.056   3.063   2.273
10831SOL    HW233393   5.183   2.961   2.268
10832SOL     OW33394   1.563   2.860   2.364
10832SOL    HW133395   1.655   2.897   2.354
10832SOL    HW233396   1.520   2.852   2.274
10833SOL     OW33397   3.178   0.470   4.873
10833SOL    HW133398   3.179   0.382   4.919
10833SOL    HW233399   3.087   0.511   4.881
10834SOL     OW33400   6.463   2.496   5.513
10834SOL    HW133401   6.560   2.514   5.497
10834SOL    HW233402   6.418   2.579   5.546
10835SOL     OW33403   0.559   0.906   0.626
10835SOL    HW133404   0.609   0.950   0.701
10835SOL    HW233405   0.578   0.955   0.541
10836SOL     OW33406   0.190   1.109   1.051
10836SOL    HW133407   0.156   1.102   0.958
10836SOL    HW233408   0.289   1.106   1.051
10837SOL     OW33409   1.620   5.138   0.575
10837SOL    HW133410   1.566   5.141   0.660
10837SOL    HW233411   1.679   5.057   0.576
10838SOL     OW33412   6.367   6.445   1.240
10838SOL    HW133413   6.344   6.356   1.278
10838SOL    HW233414   6.380   6.511   1.314
10839SOL     OW33415   2.542   1.215   6.499
10839SOL    HW133416   2.522   1.182   6.591
10839SOL    HW233417   2.583   1.306   6.504
10840SOL     OW33418   0.912   0.470   3.562
10840SOL    HW133419   0.927   0.436   3.469
10840SOL    HW233420   0.968   0.551   3.578
10841SOL     OW33421   4.321   4.303   0.034
10841SOL    HW133422   4.415   4.313   0.003
10841SOL    HW233423   4.306   4.361   0.114
10842SOL     OW33424   5.872   1.682   2.205
10842SOL    HW133425   5.808   1.757   2.223
10842SOL    HW233426   5.854   1.607   2.268
10843SOL     OW33427   1.286   1.965   1.420
10843SOL    HW133428   1.326   2.004   1.338
10843SOL    HW233429   1.208   2.021   1.450
10844SOL     OW33430   4.398   6.363   3.194
10844SOL    HW133431   4.391   6.272   3.233
10844SOL    HW233432   4.413   6.430   3.267
10845SOL     OW33433   2.431   3.364   1.125
10845SOL    HW133434   2.480   3.434   1.179
10845SOL    HW233435   2.372   3.311   1.186
10846SOL     OW33436   3.154   1.827   1.910
10846SOL    HW133437   3.218   1.884   1.858
10846SOL    HW233438   3.072   1.879   1.931
10847SOL     OW33439   5.200   2.086   4.922
10847SOL    HW133440   5.298   2.084   4.942
10847SOL    HW233441   5.149   2.090   5.007
10848SOL     OW33442   2.627   0.248   6.386
10848SOL    HW133443   2.560   0.276   6.454
10848SOL    HW233444   2.600   0.284   6.296
10849SOL     OW33445   0.350   4.577   4.993
10849SOL    HW133446   0.442   4.568   4.957
10849SOL    HW233447   0.347   4.651   5.061
10850SOL     OW33448   6.198   0.985   3.312
10850SOL    HW133449   6.156   0.953   3.228
10850SOL    HW233450   6.245   1.072   3.296
10851SOL     OW33451   5.006   2.959   0.634
10851SOL    HW133452   5.008   2.943   0.733
10851SOL    HW233453   5.029   2.874   0.586
10852SOL     OW33454   6.004   1.633   5.740
10852SOL    HW133455   5.942   1.709   5.721
10852SOL    HW233456   6.098   1.667   5.743
10853SOL     OW33457   1.437   6.483   5.587
10853SOL    HW133458   1.462   6.476   5.683
10853SOL    HW233459   1.454   6.575   5.554
10854SOL     OW33460   5.783   6.544   0.079
10854SOL    HW133461   5.707   6.527   0.142
10854SOL    HW233462   5.809   6.641   0.084
10855SOL     OW33463   0.642   5.718   6.829
10855SOL    HW133464   0.657   5.625   6.862
10855SOL    HW233465   0.577   5.716   6.753
10856SOL     OW33466   4.138   0.016   6.541
10856SOL    HW133467   4.238   0.011   6.554
10856SOL    HW233468   4.093   7.003   6.625
10857SOL     OW33469   6.184   6.856   4.819
10857SOL    HW133470   6.160   6.771   4.867
10857SOL    HW233471   6.229   6.833   4.733
10858SOL     OW33472   1.671   2.812   1.581
10858SOL    HW133473   1.739   2.751   1.541
10858SOL    HW233474   1.619   2.762   1.650
10859SOL     OW33475   2.181   4.877   2.257
10859SOL    HW133476   2.165   4.952   2.321
10859SOL    HW233477   2.101   4.817   2.256
10860SOL     OW33478   5.676   1.349   2.527
10860SOL    HW133479   5.754   1.384   2.475
10860SOL    HW233480   5.612   1.304   2.465
10861SOL     OW33481   2.490   4.896   1.458
10861SOL    HW133482   2.542   4.820   1.418
10861SOL    HW233483   2.511   4.903   1.556
10862SOL     OW33484   3.657   4.704   5.544
10862SOL    HW133485   3.675   4.777   5.478
10862SOL    HW233486   3.596   4.637   5.503
10863SOL     OW33487   0.200   0.464   4.394
10863SOL    HW133488   0.203   0.371   4.429
10863SOL    HW233489   0.112   0.506   4.418
10864SOL     OW33490   2.907   3.706   2.558
10864SOL    HW133491   2.965   3.769   2.506
10864SOL    HW233492   2.896   3.740   2.651
10865SOL     OW33493   3.760   2.111   2.289
10865SOL    HW133494   3.714   2.173   2.226
10865SOL    HW233495   3.845   2.079   2.248
10866SOL     OW33496   0.504   3.363   5.028
10866SOL    HW133497   0.464   3.393   5.115
10866SOL    HW233498   0.431   3.329   4.969
10867SOL     OW33499   5.241   3.077   0.498
10867SOL    HW133500   5.263   3.162   0.544
10867SOL    HW233501   5.166   3.031   0.546
10868SOL     OW33502   6.676   0.572   6.162
10868SOL    HW133503   6.615   0.501   6.126
10868SOL    HW233504   6.769   0.555   6.130
10869NA      NA33505   6.836   1.633   0.153
10870NA      NA33506   5.038   4.614   4.833
10871NA      NA33507   1.149   4.718   2.865
10872NA      NA33508   6.620   3.493   3.593
10873NA      NA33509   4.293   2.327   5.218
10874NA      NA33510   2.660   3.571   6.837
10875NA      NA33511   1.523   5.269   0.385
10876NA      NA33512   4.200   4.831   2.018
10877NA      NA33513   5.712   3.712   1.101
10878NA      NA33514   3.619   1.895   0.753
10879NA      NA33515   4.903   6.115   1.263
10880NA      NA33516   2.549   6.340   4.251
10881NA      NA33517   3.486   5.793   2.879
10882NA      NA33518   4.738   5.019   5.651
   7.01854   7.01854   7.01854
