Generated by trjconv : CNT in water t= 179.00000
33518
    1C        C    1   2.846   2.771   4.746
    1C        C    2   2.897   2.717   4.866
    1C        C    3   2.845   2.778   4.981
    1C        C    4   2.849   2.772   4.258
    1C        C    5   2.903   2.729   4.381
    1C        C    6   2.849   2.772   4.504
    1C        C    7   3.012   2.638   4.626
    1C        C    8   2.895   2.718   4.626
    1C        C    9   3.076   2.600   4.746
    1C        C   10   3.009   2.631   4.866
    1C        C   11   3.179   2.495   4.980
    1C        C   12   3.053   2.557   4.976
    1C        C   13   2.847   2.768   3.770
    1C        C   14   2.900   2.722   3.892
    1C        C   15   2.847   2.772   4.013
    1C        C   16   3.020   2.651   4.139
    1C        C   17   2.901   2.726   4.136
    1C        C   18   3.083   2.618   4.262
    1C        C   19   3.018   2.646   4.384
    1C        C   20   3.209   2.556   4.504
    1C        C   21   3.077   2.604   4.505
    1C        C   22   3.278   2.534   4.626
    1C        C   23   3.207   2.543   4.748
    1C        C   24   3.410   2.476   4.865
    1C        C   25   3.268   2.496   4.868
    1C        C   26   3.490   2.477   4.980
    1C        C   27   2.850   2.771   3.280
    1C        C   28   2.903   2.724   3.403
    1C        C   29   2.853   2.769   3.527
    1C        C   30   3.019   2.640   3.650
    1C        C   31   2.903   2.721   3.650
    1C        C   32   3.077   2.603   3.773
    1C        C   33   3.016   2.640   3.895
    1C        C   34   3.208   2.553   4.017
    1C        C   35   3.078   2.609   4.018
    1C        C   36   3.277   2.533   4.138
    1C        C   37   3.212   2.561   4.261
    1C        C   38   3.415   2.501   4.382
    1C        C   39   3.278   2.532   4.383
    1C        C   40   3.485   2.500   4.504
    1C        C   41   3.417   2.510   4.627
    1C        C   42   3.629   2.482   4.745
    1C        C   43   3.487   2.478   4.746
    1C        C   44   3.705   2.486   4.864
    1C        C   45   3.629   2.476   4.981
    1C        C   46   2.840   2.752   2.791
    1C        C   47   2.890   2.707   2.916
    1C        C   48   2.840   2.758   3.037
    1C        C   49   3.013   2.633   3.160
    1C        C   50   2.900   2.717   3.159
    1C        C   51   3.078   2.601   3.282
    1C        C   52   3.018   2.643   3.403
    1C        C   53   3.205   2.546   3.531
    1C        C   54   3.078   2.607   3.526
    1C        C   55   3.274   2.522   3.652
    1C        C   56   3.205   2.543   3.773
    1C        C   57   3.415   2.504   3.892
    1C        C   58   3.275   2.527   3.895
    1C        C   59   3.483   2.498   4.016
    1C        C   60   3.415   2.501   4.139
    1C        C   61   3.627   2.498   4.261
    1C        C   62   3.486   2.488   4.260
    1C        C   63   3.699   2.504   4.382
    1C        C   64   3.627   2.498   4.503
    1C        C   65   3.835   2.542   4.622
    1C        C   66   3.699   2.503   4.624
    1C        C   67   3.905   2.556   4.743
    1C        C   68   3.842   2.521   4.865
    1C        C   69   4.051   2.585   4.974
    1C        C   70   3.923   2.528   4.979
    1C        C   71   2.822   2.735   2.307
    1C        C   72   2.877   2.683   2.427
    1C        C   73   2.832   2.743   2.547
    1C        C   74   3.009   2.626   2.672
    1C        C   75   2.892   2.705   2.669
    1C        C   76   3.071   2.592   2.794
    1C        C   77   3.009   2.630   2.915
    1C        C   78   3.202   2.542   3.039
    1C        C   79   3.072   2.597   3.037
    1C        C   80   3.270   2.523   3.161
    1C        C   81   3.208   2.546   3.286
    1C        C   82   3.413   2.505   3.402
    1C        C   83   3.274   2.525   3.409
    1C        C   84   3.484   2.501   3.525
    1C        C   85   3.415   2.507   3.648
    1C        C   86   3.627   2.498   3.769
    1C        C   87   3.485   2.498   3.770
    1C        C   88   3.693   2.510   3.893
    1C        C   89   3.624   2.501   4.016
    1C        C   90   3.832   2.543   4.137
    1C        C   91   3.696   2.507   4.138
    1C        C   92   3.902   2.564   4.258
    1C        C   93   3.835   2.543   4.380
    1C        C   94   4.031   2.629   4.499
    1C        C   95   3.902   2.571   4.501
    1C        C   96   4.092   2.668   4.620
    1C        C   97   4.029   2.626   4.739
    1C        C   98   4.185   2.770   4.863
    1C        C   99   4.098   2.657   4.860
    1C        C  100   4.211   2.846   4.978
    1C        C  101   2.824   2.735   2.073
    1C        C  102   2.992   2.592   2.188
    1C        C  103   2.877   2.677   2.189
    1C        C  104   3.062   2.570   2.310
    1C        C  105   2.999   2.613   2.429
    1C        C  106   3.201   2.540   2.549
    1C        C  107   3.069   2.590   2.549
    1C        C  108   3.271   2.522   2.671
    1C        C  109   3.202   2.537   2.793
    1C        C  110   3.408   2.499   2.916
    1C        C  111   3.269   2.522   2.916
    1C        C  112   3.481   2.496   3.037
    1C        C  113   3.410   2.501   3.159
    1C        C  114   3.624   2.497   3.278
    1C        C  115   3.483   2.494   3.279
    1C        C  116   3.692   2.510   3.401
    1C        C  117   3.625   2.502   3.525
    1C        C  118   3.833   2.541   3.647
    1C        C  119   3.697   2.503   3.646
    1C        C  120   3.898   2.564   3.770
    1C        C  121   3.830   2.544   3.892
    1C        C  122   4.024   2.632   4.013
    1C        C  123   3.897   2.570   4.014
    1C        C  124   4.088   2.669   4.134
    1C        C  125   4.031   2.624   4.254
    1C        C  126   4.193   2.762   4.377
    1C        C  127   4.089   2.666   4.376
    1C        C  128   4.242   2.818   4.497
    1C        C  129   4.196   2.764   4.619
    1C        C  130   4.321   2.936   4.739
    1C        C  131   4.238   2.820   4.741
    1C        C  132   4.353   3.003   4.859
    1C        C  133   4.294   2.958   4.977
    1C        C  134   3.176   2.467   2.082
    1C        C  135   3.042   2.509   2.083
    1C        C  136   3.262   2.481   2.191
    1C        C  137   3.196   2.523   2.309
    1C        C  138   3.405   2.476   2.428
    1C        C  139   3.266   2.502   2.429
    1C        C  140   3.479   2.477   2.549
    1C        C  141   3.410   2.497   2.670
    1C        C  142   3.620   2.491   2.787
    1C        C  143   3.479   2.490   2.793
    1C        C  144   3.690   2.501   2.909
    1C        C  145   3.622   2.495   3.033
    1C        C  146   3.830   2.533   3.154
    1C        C  147   3.694   2.497   3.155
    1C        C  148   3.896   2.557   3.277
    1C        C  149   3.831   2.536   3.400
    1C        C  150   4.024   2.623   3.523
    1C        C  151   3.896   2.563   3.523
    1C        C  152   4.084   2.662   3.645
    1C        C  153   4.023   2.631   3.768
    1C        C  154   4.191   2.760   3.889
    1C        C  155   4.083   2.669   3.890
    1C        C  156   4.239   2.814   4.010
    1C        C  157   4.195   2.762   4.133
    1C        C  158   4.333   2.923   4.253
    1C        C  159   4.246   2.811   4.255
    1C        C  160   4.372   2.984   4.374
    1C        C  161   4.330   2.929   4.497
    1C        C  162   4.433   3.117   4.617
    1C        C  163   4.364   2.994   4.618
    1C        C  164   4.464   3.185   4.737
    1C        C  165   4.435   3.118   4.858
    1C        C  166   4.514   3.319   4.971
    1C        C  167   4.481   3.184   4.973
    1C        C  168   3.478   2.436   2.073
    1C        C  169   3.401   2.456   2.189
    1C        C  170   3.619   2.458   2.308
    1C        C  171   3.476   2.458   2.308
    1C        C  172   3.695   2.475   2.425
    1C        C  173   3.620   2.476   2.545
    1C        C  174   3.828   2.532   2.667
    1C        C  175   3.691   2.496   2.665
    1C        C  176   3.895   2.556   2.789
    1C        C  177   3.828   2.534   2.911
    1C        C  178   4.024   2.619   3.032
    1C        C  179   3.898   2.556   3.032
    1C        C  180   4.081   2.660   3.154
    1C        C  181   4.020   2.625   3.277
    1C        C  182   4.191   2.749   3.399
    1C        C  183   4.080   2.662   3.399
    1C        C  184   4.242   2.802   3.520
    1C        C  185   4.189   2.757   3.643
    1C        C  186   4.329   2.916   3.764
    1C        C  187   4.238   2.809   3.765
    1C        C  188   4.379   2.973   3.884
    1C        C  189   4.333   2.920   4.006
    1C        C  190   4.436   3.104   4.128
    1C        C  191   4.374   2.977   4.129
    1C        C  192   4.466   3.171   4.248
    1C        C  193   4.437   3.109   4.372
    1C        C  194   4.500   3.314   4.489
    1C        C  195   4.462   3.178   4.493
    1C        C  196   4.520   3.387   4.608
    1C        C  197   4.506   3.320   4.732
    1C        C  198   4.560   3.532   4.849
    1C        C  199   4.528   3.392   4.852
    1C        C  200   4.586   3.618   4.960
    1C        C  201   3.617   2.422   2.073
    1C        C  202   3.827   2.512   2.183
    1C        C  203   3.695   2.458   2.188
    1C        C  204   3.901   2.533   2.303
    1C        C  205   3.832   2.512   2.424
    1C        C  206   4.017   2.621   2.542
    1C        C  207   3.897   2.547   2.545
    1C        C  208   4.076   2.659   2.665
    1C        C  209   4.020   2.621   2.789
    1C        C  210   4.196   2.743   2.908
    1C        C  211   4.084   2.656   2.910
    1C        C  212   4.245   2.796   3.030
    1C        C  213   4.192   2.748   3.152
    1C        C  214   4.324   2.911   3.272
    1C        C  215   4.239   2.798   3.276
    1C        C  216   4.360   2.973   3.394
    1C        C  217   4.324   2.917   3.518
    1C        C  218   4.422   3.105   3.639
    1C        C  219   4.363   2.977   3.641
    1C        C  220   4.452   3.171   3.761
    1C        C  221   4.437   3.102   3.883
    1C        C  222   4.500   3.305   4.002
    1C        C  223   4.463   3.168   4.005
    1C        C  224   4.509   3.378   4.122
    1C        C  225   4.501   3.308   4.244
    1C        C  226   4.514   3.522   4.365
    1C        C  227   4.513   3.381   4.365
    1C        C  228   4.510   3.596   4.485
    1C        C  229   4.524   3.528   4.609
    1C        C  230   4.508   3.742   4.723
    1C        C  231   4.539   3.603   4.727
    1C        C  232   4.497   3.816   4.843
    1C        C  233   4.547   3.753   4.957
    1C        C  234   4.015   2.612   2.061
    1C        C  235   3.891   2.550   2.064
    1C        C  236   4.082   2.650   2.178
    1C        C  237   4.021   2.609   2.299
    1C        C  238   4.196   2.734   2.420
    1C        C  239   4.080   2.653   2.419
    1C        C  240   4.251   2.781   2.541
    1C        C  241   4.193   2.738   2.663
    1C        C  242   4.328   2.904   2.783
    1C        C  243   4.243   2.792   2.784
    1C        C  244   4.371   2.963   2.904
    1C        C  245   4.336   2.904   3.027
    1C        C  246   4.428   3.093   3.149
    1C        C  247   4.371   2.964   3.150
    1C        C  248   4.452   3.161   3.270
    1C        C  249   4.425   3.099   3.394
    1C        C  250   4.487   3.303   3.513
    1C        C  251   4.449   3.167   3.515
    1C        C  252   4.499   3.375   3.634
    1C        C  253   4.488   3.308   3.758
    1C        C  254   4.520   3.516   3.876
    1C        C  255   4.512   3.375   3.880
    1C        C  256   4.516   3.589   3.997
    1C        C  257   4.514   3.520   4.120
    1C        C  258   4.496   3.732   4.241
    1C        C  259   4.509   3.591   4.242
    1C        C  260   4.475   3.804   4.361
    1C        C  261   4.487   3.735   4.484
    1C        C  262   4.427   3.942   4.604
    1C        C  263   4.475   3.809   4.604
    1C        C  264   4.398   4.010   4.725
    1C        C  265   4.432   3.942   4.843
    1C        C  266   4.324   4.131   4.960
    1C        C  267   4.390   4.009   4.959
    1C        C  268   4.263   2.770   2.060
    1C        C  269   4.194   2.736   2.177
    1C        C  270   4.345   2.888   2.298
    1C        C  271   4.250   2.782   2.298
    1C        C  272   4.378   2.953   2.419
    1C        C  273   4.337   2.893   2.540
    1C        C  274   4.440   3.083   2.659
    1C        C  275   4.372   2.959   2.660
    1C        C  276   4.467   3.151   2.780
    1C        C  277   4.439   3.087   2.903
    1C        C  278   4.499   3.290   3.022
    1C        C  279   4.461   3.154   3.026
    1C        C  280   4.507   3.362   3.144
    1C        C  281   4.490   3.298   3.268
    1C        C  282   4.511   3.511   3.388
    1C        C  283   4.501   3.370   3.389
    1C        C  284   4.513   3.583   3.510
    1C        C  285   4.512   3.516   3.634
    1C        C  286   4.494   3.728   3.752
    1C        C  287   4.515   3.589   3.755
    1C        C  288   4.477   3.796   3.875
    1C        C  289   4.493   3.728   3.998
    1C        C  290   4.428   3.932   4.118
    1C        C  291   4.480   3.800   4.119
    1C        C  292   4.396   3.997   4.239
    1C        C  293   4.429   3.937   4.362
    1C        C  294   4.323   4.126   4.480
    1C        C  295   4.395   4.005   4.482
    1C        C  296   4.285   4.190   4.599
    1C        C  297   4.325   4.132   4.722
    1C        C  298   4.198   4.310   4.838
    1C        C  299   4.287   4.198   4.842
    1C        C  300   4.171   4.403   4.943
    1C        C  301   4.350   2.879   2.064
    1C        C  302   4.470   3.068   2.175
    1C        C  303   4.396   2.946   2.178
    1C        C  304   4.481   3.143   2.296
    1C        C  305   4.443   3.078   2.415
    1C        C  306   4.507   3.282   2.536
    1C        C  307   4.470   3.146   2.536
    1C        C  308   4.514   3.355   2.657
    1C        C  309   4.506   3.286   2.780
    1C        C  310   4.523   3.501   2.898
    1C        C  311   4.510   3.361   2.900
    1C        C  312   4.516   3.574   3.019
    1C        C  313   4.508   3.503   3.141
    1C        C  314   4.486   3.715   3.262
    1C        C  315   4.507   3.576   3.263
    1C        C  316   4.472   3.787   3.383
    1C        C  317   4.492   3.723   3.508
    1C        C  318   4.431   3.928   3.627
    1C        C  319   4.479   3.795   3.628
    1C        C  320   4.400   3.991   3.750
    1C        C  321   4.430   3.929   3.873
    1C        C  322   4.325   4.113   3.989
    1C        C  323   4.401   3.995   3.994
    1C        C  324   4.280   4.169   4.110
    1C        C  325   4.321   4.117   4.235
    1C        C  326   4.183   4.281   4.352
    1C        C  327   4.282   4.179   4.356
    1C        C  328   4.137   4.339   4.473
    1C        C  329   4.191   4.296   4.596
    1C        C  330   4.026   4.436   4.712
    1C        C  331   4.142   4.353   4.715
    1C        C  332   3.971   4.491   4.830
    1C        C  333   4.052   4.477   4.943
    1C        C  334   4.550   3.264   2.062
    1C        C  335   4.538   3.125   2.063
    1C        C  336   4.534   3.350   2.171
    1C        C  337   4.512   3.282   2.293
    1C        C  338   4.524   3.495   2.412
    1C        C  339   4.519   3.354   2.415
    1C        C  340   4.521   3.569   2.532
    1C        C  341   4.520   3.496   2.654
    1C        C  342   4.498   3.709   2.774
    1C        C  343   4.518   3.569   2.775
    1C        C  344   4.483   3.781   2.895
    1C        C  345   4.499   3.714   3.018
    1C        C  346   4.429   3.916   3.138
    1C        C  347   4.481   3.785   3.139
    1C        C  348   4.396   3.980   3.259
    1C        C  349   4.431   3.922   3.384
    1C        C  350   4.322   4.106   3.500
    1C        C  351   4.405   3.992   3.504
    1C        C  352   4.277   4.165   3.621
    1C        C  353   4.322   4.109   3.743
    1C        C  354   4.175   4.261   3.866
    1C        C  355   4.277   4.163   3.865
    1C        C  356   4.123   4.312   3.987
    1C        C  357   4.181   4.270   4.109
    1C        C  358   4.009   4.400   4.231
    1C        C  359   4.126   4.321   4.229
    1C        C  360   3.950   4.443   4.352
    1C        C  361   4.018   4.416   4.473
    1C        C  362   3.827   4.516   4.592
    1C        C  363   3.956   4.460   4.592
    1C        C  364   3.759   4.542   4.713
    1C        C  365   3.837   4.535   4.830
    1C        C  366   3.629   4.592   4.947
    1C        C  367   3.766   4.570   4.946
    1C        C  368   4.502   3.563   2.053
    1C        C  369   4.523   3.491   2.171
    1C        C  370   4.506   3.706   2.288
    1C        C  371   4.528   3.567   2.290
    1C        C  372   4.490   3.778   2.408
    1C        C  373   4.507   3.709   2.530
    1C        C  374   4.430   3.908   2.649
    1C        C  375   4.488   3.779   2.652
    1C        C  376   4.397   3.972   2.770
    1C        C  377   4.435   3.914   2.893
    1C        C  378   4.327   4.099   3.009
    1C        C  379   4.402   3.979   3.014
    1C        C  380   4.277   4.150   3.130
    1C        C  381   4.316   4.096   3.255
    1C        C  382   4.174   4.254   3.377
    1C        C  383   4.275   4.156   3.377
    1C        C  384   4.121   4.306   3.498
    1C        C  385   4.176   4.264   3.621
    1C        C  386   4.006   4.388   3.742
    1C        C  387   4.124   4.309   3.744
    1C        C  388   3.947   4.427   3.864
    1C        C  389   4.007   4.392   3.987
    1C        C  390   3.816   4.485   4.108
    1C        C  391   3.946   4.431   4.109
    1C        C  392   3.748   4.511   4.229
    1C        C  393   3.820   4.499   4.350
    1C        C  394   3.617   4.556   4.472
    1C        C  395   3.756   4.535   4.471
    1C        C  396   3.545   4.564   4.594
    1C        C  397   3.619   4.564   4.713
    1C        C  398   3.410   4.545   4.836
    1C        C  399   3.547   4.579   4.834
    1C        C  400   3.344   4.501   4.951
    1C        C  401   4.501   3.702   2.052
    1C        C  402   4.451   3.915   2.167
    1C        C  403   4.493   3.780   2.168
    1C        C  404   4.410   3.977   2.287
    1C        C  405   4.439   3.910   2.408
    1C        C  406   4.327   4.095   2.525
    1C        C  407   4.402   3.975   2.528
    1C        C  408   4.275   4.147   2.645
    1C        C  409   4.316   4.087   2.766
    1C        C  410   4.172   4.246   2.888
    1C        C  411   4.275   4.149   2.887
    1C        C  412   4.121   4.293   3.011
    1C        C  413   4.176   4.249   3.133
    1C        C  414   4.004   4.377   3.252
    1C        C  415   4.122   4.299   3.254
    1C        C  416   3.941   4.409   3.375
    1C        C  417   4.002   4.381   3.499
    1C        C  418   3.810   4.472   3.618
    1C        C  419   3.940   4.417   3.621
    1C        C  420   3.747   4.503   3.740
    1C        C  421   3.815   4.479   3.862
    1C        C  422   3.610   4.526   3.984
    1C        C  423   3.748   4.498   3.985
    1C        C  424   3.540   4.536   4.106
    1C        C  425   3.609   4.537   4.230
    1C        C  426   3.401   4.549   4.354
    1C        C  427   3.542   4.558   4.352
    1C        C  428   3.329   4.543   4.476
    1C        C  429   3.404   4.554   4.595
    1C        C  430   3.193   4.517   4.719
    1C        C  431   3.333   4.543   4.717
    1C        C  432   3.124   4.491   4.840
    1C        C  433   3.206   4.483   4.954
    1C        C  434   4.387   4.127   2.052
    1C        C  435   4.439   3.997   2.053
    1C        C  436   4.309   4.169   2.164
    1C        C  437   4.336   4.098   2.285
    1C        C  438   4.180   4.249   2.402
    1C        C  439   4.285   4.154   2.404
    1C        C  440   4.125   4.297   2.523
    1C        C  441   4.180   4.251   2.645
    1C        C  442   4.006   4.375   2.766
    1C        C  443   4.125   4.299   2.766
    1C        C  444   3.942   4.410   2.888
    1C        C  445   4.003   4.372   3.009
    1C        C  446   3.811   4.465   3.126
    1C        C  447   3.941   4.410   3.130
    1C        C  448   3.744   4.486   3.249
    1C        C  449   3.811   4.466   3.371
    1C        C  450   3.607   4.520   3.495
    1C        C  451   3.744   4.488   3.494
    1C        C  452   3.538   4.531   3.618
    1C        C  453   3.608   4.526   3.740
    1C        C  454   3.397   4.537   3.865
    1C        C  455   3.538   4.536   3.863
    1C        C  456   3.328   4.531   3.988
    1C        C  457   3.399   4.534   4.111
    1C        C  458   3.191   4.504   4.235
    1C        C  459   3.330   4.533   4.234
    1C        C  460   3.123   4.488   4.357
    1C        C  461   3.191   4.514   4.478
    1C        C  462   2.995   4.433   4.601
    1C        C  463   3.122   4.496   4.600
    1C        C  464   2.932   4.397   4.722
    1C        C  465   2.989   4.444   4.844
    1C        C  466   2.793   4.343   4.957
    1C        C  467   2.908   4.425   4.960
    1C        C  468   4.124   4.289   2.043
    1C        C  469   4.193   4.253   2.160
    1C        C  470   4.008   4.372   2.278
    1C        C  471   4.125   4.291   2.279
    1C        C  472   3.940   4.402   2.398
    1C        C  473   4.005   4.371   2.520
    1C        C  474   3.811   4.454   2.642
    1C        C  475   3.943   4.401   2.643
    1C        C  476   3.744   4.484   2.762
    1C        C  477   3.813   4.467   2.884
    1C        C  478   3.604   4.516   3.008
    1C        C  479   3.743   4.490   3.005
    1C        C  480   3.532   4.521   3.129
    1C        C  481   3.605   4.509   3.250
    1C        C  482   3.395   4.527   3.375
    1C        C  483   3.536   4.523   3.372
    1C        C  484   3.326   4.525   3.498
    1C        C  485   3.397   4.535   3.620
    1C        C  486   3.189   4.498   3.742
    1C        C  487   3.326   4.532   3.742
    1C        C  488   3.125   4.476   3.866
    1C        C  489   3.191   4.499   3.988
    1C        C  490   3.001   4.413   4.113
    1C        C  491   3.126   4.478   4.112
    1C        C  492   2.938   4.384   4.236
    1C        C  493   2.995   4.427   4.358
    1C        C  494   2.824   4.303   4.482
    1C        C  495   2.935   4.391   4.480
    1C        C  496   2.767   4.257   4.602
    1C        C  497   2.818   4.312   4.722
    1C        C  498   2.663   4.166   4.843
    1C        C  499   2.752   4.276   4.841
    1C        C  500   2.595   4.115   4.955
    1C        C  501   4.001   4.354   2.041
    1C        C  502   3.812   4.456   2.153
    1C        C  503   3.945   4.407   2.157
    1C        C  504   3.742   4.475   2.274
    1C        C  505   3.807   4.451   2.397
    1C        C  506   3.605   4.507   2.518
    1C        C  507   3.743   4.474   2.520
    1C        C  508   3.535   4.513   2.640
    1C        C  509   3.605   4.509   2.763
    1C        C  510   3.394   4.520   2.884
    1C        C  511   3.535   4.523   2.885
    1C        C  512   3.321   4.516   3.004
    1C        C  513   3.391   4.525   3.127
    1C        C  514   3.187   4.496   3.255
    1C        C  515   3.326   4.523   3.252
    1C        C  516   3.119   4.473   3.377
    1C        C  517   3.187   4.500   3.498
    1C        C  518   2.993   4.415   3.623
    1C        C  519   3.119   4.479   3.620
    1C        C  520   2.935   4.378   3.746
    1C        C  521   2.998   4.413   3.868
    1C        C  522   2.830   4.287   3.995
    1C        C  523   2.940   4.376   3.991
    1C        C  524   2.782   4.237   4.118
    1C        C  525   2.827   4.297   4.238
    1C        C  526   2.688   4.138   4.361
    1C        C  527   2.774   4.251   4.361
    1C        C  528   2.644   4.080   4.482
    1C        C  529   2.679   4.146   4.602
    1C        C  530   2.579   3.963   4.728
    1C        C  531   2.634   4.094   4.725
    1C        C  532   2.546   3.902   4.852
    1C        C  533   2.524   3.994   4.959
    1C        C  534   3.616   4.560   2.036
    1C        C  535   3.745   4.505   2.040
    1C        C  536   3.536   4.533   2.152
    1C        C  537   3.604   4.508   2.274
    1C        C  538   3.392   4.510   2.399
    1C        C  539   3.534   4.514   2.397
    1C        C  540   3.321   4.509   2.521
    1C        C  541   3.393   4.515   2.642
    1C        C  542   3.181   4.485   2.764
    1C        C  543   3.320   4.511   2.763
    1C        C  544   3.115   4.469   2.888
    1C        C  545   3.181   4.494   3.010
    1C        C  546   2.992   4.408   3.132
    1C        C  547   3.118   4.472   3.134
    1C        C  548   2.939   4.365   3.256
    1C        C  549   2.995   4.407   3.379
    1C        C  550   2.826   4.285   3.503
    1C        C  551   2.931   4.380   3.502
    1C        C  552   2.780   4.234   3.626
    1C        C  553   2.827   4.287   3.749
    1C        C  554   2.696   4.124   3.872
    1C        C  555   2.779   4.239   3.872
    1C        C  556   2.661   4.062   3.994
    1C        C  557   2.696   4.126   4.116
    1C        C  558   2.596   3.945   4.242
    1C        C  559   2.654   4.073   4.240
    1C        C  560   2.572   3.879   4.365
    1C        C  561   2.585   3.952   4.485
    1C        C  562   2.530   3.751   4.613
    1C        C  563   2.563   3.888   4.609
    1C        C  564   2.516   3.681   4.735
    1C        C  565   2.529   3.759   4.852
    1C        C  566   2.538   3.545   4.976
    1C        C  567   2.528   3.683   4.970
    1C        C  568   3.327   4.476   2.038
    1C        C  569   3.395   4.515   2.154
    1C        C  570   3.185   4.469   2.282
    1C        C  571   3.323   4.503   2.276
    1C        C  572   3.112   4.455   2.402
    1C        C  573   3.183   4.481   2.521
    1C        C  574   2.985   4.402   2.644
    1C        C  575   3.113   4.464   2.642
    1C        C  576   2.929   4.362   2.767
    1C        C  577   2.992   4.400   2.888
    1C        C  578   2.822   4.278   3.012
    1C        C  579   2.932   4.367   3.011
    1C        C  580   2.775   4.228   3.136
    1C        C  581   2.829   4.276   3.257
    1C        C  582   2.693   4.119   3.385
    1C        C  583   2.776   4.233   3.381
    1C        C  584   2.655   4.060   3.507
    1C        C  585   2.692   4.123   3.628
    1C        C  586   2.596   3.936   3.755
    1C        C  587   2.656   4.064   3.751
    1C        C  588   2.568   3.871   3.877
    1C        C  589   2.599   3.936   3.998
    1C        C  590   2.538   3.736   4.124
    1C        C  591   2.574   3.873   4.122
    1C        C  592   2.521   3.672   4.249
    1C        C  593   2.536   3.743   4.370
    1C        C  594   2.516   3.535   4.497
    1C        C  595   2.521   3.676   4.494
    1C        C  596   2.527   3.465   4.619
    1C        C  597   2.519   3.538   4.739
    1C        C  598   2.537   3.325   4.861
    1C        C  599   2.529   3.466   4.860
    1C        C  600   2.534   3.249   4.979
    1C        C  601   3.195   4.435   2.043
    1C        C  602   2.986   4.386   2.156
    1C        C  603   3.119   4.437   2.161
    1C        C  604   2.924   4.352   2.280
    1C        C  605   2.985   4.392   2.400
    1C        C  606   2.813   4.274   2.526
    1C        C  607   2.924   4.360   2.524
    1C        C  608   2.764   4.225   2.650
    1C        C  609   2.820   4.272   2.770
    1C        C  610   2.682   4.113   2.895
    1C        C  611   2.767   4.225   2.893
    1C        C  612   2.646   4.057   3.020
    1C        C  613   2.690   4.116   3.141
    1C        C  614   2.593   3.929   3.265
    1C        C  615   2.655   4.056   3.264
    1C        C  616   2.573   3.865   3.389
    1C        C  617   2.597   3.931   3.511
    1C        C  618   2.531   3.731   3.634
    1C        C  619   2.571   3.867   3.634
    1C        C  620   2.522   3.663   3.758
    1C        C  621   2.537   3.733   3.880
    1C        C  622   2.509   3.524   4.009
    1C        C  623   2.526   3.665   4.003
    1C        C  624   2.515   3.456   4.133
    1C        C  625   2.511   3.531   4.253
    1C        C  626   2.538   3.322   4.377
    1C        C  627   2.517   3.462   4.376
    1C        C  628   2.556   3.252   4.498
    1C        C  629   2.549   3.325   4.619
    1C        C  630   2.600   3.120   4.742
    1C        C  631   2.555   3.254   4.741
    1C        C  632   2.620   3.053   4.866
    1C        C  633   2.565   3.113   4.983
    1C        C  634   2.783   4.305   2.050
    1C        C  635   2.890   4.395   2.050
    1C        C  636   2.749   4.227   2.161
    1C        C  637   2.806   4.273   2.282
    1C        C  638   2.675   4.110   2.408
    1C        C  639   2.761   4.221   2.406
    1C        C  640   2.638   4.051   2.532
    1C        C  641   2.677   4.114   2.652
    1C        C  642   2.589   3.921   2.777
    1C        C  643   2.643   4.051   2.774
    1C        C  644   2.562   3.859   2.902
    1C        C  645   2.584   3.930   3.022
    1C        C  646   2.529   3.725   3.148
    1C        C  647   2.562   3.862   3.144
    1C        C  648   2.513   3.656   3.270
    1C        C  649   2.536   3.728   3.390
    1C        C  650   2.518   3.519   3.518
    1C        C  651   2.524   3.660   3.513
    1C        C  652   2.520   3.452   3.642
    1C        C  653   2.519   3.522   3.765
    1C        C  654   2.537   3.313   3.888
    1C        C  655   2.512   3.452   3.888
    1C        C  656   2.553   3.247   4.012
    1C        C  657   2.536   3.317   4.133
    1C        C  658   2.610   3.120   4.256
    1C        C  659   2.553   3.250   4.257
    1C        C  660   2.636   3.055   4.378
    1C        C  661   2.598   3.117   4.499
    1C        C  662   2.709   2.936   4.622
    1C        C  663   2.630   3.053   4.621
    1C        C  664   2.753   2.879   4.744
    1C        C  665   2.700   2.934   4.864
    1C        C  666   2.738   2.868   4.981
    1C        C  667   2.678   4.020   2.053
    1C        C  668   2.686   4.101   2.167
    1C        C  669   2.587   3.913   2.290
    1C        C  670   2.637   4.046   2.288
    1C        C  671   2.562   3.848   2.413
    1C        C  672   2.583   3.921   2.532
    1C        C  673   2.527   3.718   2.660
    1C        C  674   2.565   3.854   2.655
    1C        C  675   2.513   3.650   2.783
    1C        C  676   2.529   3.722   2.903
    1C        C  677   2.506   3.513   3.029
    1C        C  678   2.517   3.654   3.027
    1C        C  679   2.506   3.443   3.152
    1C        C  680   2.508   3.515   3.273
    1C        C  681   2.532   3.306   3.400
    1C        C  682   2.515   3.447   3.396
    1C        C  683   2.553   3.241   3.523
    1C        C  684   2.537   3.312   3.645
    1C        C  685   2.599   3.109   3.767
    1C        C  686   2.554   3.243   3.767
    1C        C  687   2.634   3.051   3.891
    1C        C  688   2.601   3.114   4.013
    1C        C  689   2.712   2.933   4.137
    1C        C  690   2.635   3.052   4.135
    1C        C  691   2.751   2.874   4.259
    1C        C  692   2.714   2.937   4.380
    1C        C  693   2.758   2.881   4.502
    1C        C  694   2.618   3.894   2.050
    1C        C  695   2.518   3.709   2.175
    1C        C  696   2.570   3.840   2.170
    1C        C  697   2.509   3.639   2.297
    1C        C  698   2.526   3.712   2.417
    1C        C  699   2.500   3.504   2.540
    1C        C  700   2.511   3.645   2.540
    1C        C  701   2.506   3.436   2.664
    1C        C  702   2.500   3.509   2.785
    1C        C  703   2.530   3.301   2.912
    1C        C  704   2.508   3.440   2.908
    1C        C  705   2.544   3.230   3.033
    1C        C  706   2.531   3.304   3.153
    1C        C  707   2.603   3.108   3.277
    1C        C  708   2.548   3.238   3.277
    1C        C  709   2.630   3.044   3.400
    1C        C  710   2.602   3.108   3.523
    1C        C  711   2.706   2.925   3.645
    1C        C  712   2.631   3.045   3.646
    1C        C  713   2.755   2.876   3.769
    1C        C  714   2.711   2.932   3.891
    1C        C  715   2.752   2.877   4.014
    1C        C  716   2.448   3.498   2.062
    1C        C  717   2.486   3.633   2.061
    1C        C  718   2.465   3.423   2.182
    1C        C  719   2.486   3.499   2.301
    1C        C  720   2.516   3.288   2.422
    1C        C  721   2.492   3.427   2.422
    1C        C  722   2.536   3.222   2.545
    1C        C  723   2.531   3.297   2.665
    1C        C  724   2.596   3.100   2.789
    1C        C  725   2.549   3.233   2.789
    1C        C  726   2.627   3.036   2.911
    1C        C  727   2.592   3.097   3.033
    1C        C  728   2.699   2.916   3.157
    1C        C  729   2.626   3.037   3.157
    1C        C  730   2.751   2.871   3.280
    1C        C  731   2.712   2.929   3.403
    1C        C  732   2.756   2.872   3.524
    1C        C  733   2.490   3.199   2.072
    1C        C  734   2.486   3.282   2.185
    1C        C  735   2.572   3.078   2.308
    1C        C  736   2.517   3.210   2.304
    1C        C  737   2.600   3.013   2.430
    1C        C  738   2.584   3.089   2.547
    1C        C  739   2.698   2.909   2.670
    1C        C  740   2.623   3.029   2.669
    1C        C  741   2.742   2.854   2.792
    1C        C  742   2.699   2.914   2.912
    1C        C  743   2.744   2.861   3.035
    1C        C  744   2.542   3.071   2.075
    1C        C  745   2.680   2.894   2.186
    1C        C  746   2.600   3.011   2.187
    1C        C  747   2.727   2.840   2.308
    1C        C  748   2.682   2.898   2.429
    1C        C  749   2.736   2.847   2.549
    1C        C  750   2.733   2.840   2.068
    1C        C  751   3.662   2.322   1.973
    1C        O  752   3.714   2.211   1.999
    1C        O  753   3.664   2.355   1.837
    1C        C  754   4.637   3.050   1.982
    1C        O  755   4.618   3.034   1.858
    1C        O  756   4.753   2.980   2.017
    1C        C  757   4.450   4.227   1.963
    1C        O  758   4.576   4.233   1.961
    1C        O  759   4.403   4.228   1.831
    1C        C  760   3.594   4.690   1.968
    1C        O  761   3.670   4.789   1.984
    1C        O  762   3.506   4.695   1.859
    1C        C  763   2.850   4.523   1.987
    1C        O  764   2.871   4.556   1.868
    1C        O  765   2.839   4.641   2.062
    1C        C  766   2.335   3.480   1.968
    1C        O  767   2.355   3.471   1.844
    1C        O  768   2.211   3.541   1.990
    1C        C  769   4.688   3.590   5.063
    1C        O  770   4.646   3.536   5.169
    1C        O  771   4.816   3.648   5.062
    1C        C  772   4.282   4.461   5.021
    1C        O  773   4.296   4.435   5.144
    1C        O  774   4.358   4.574   4.986
    1C        C  775   4.146   2.513   5.063
    1C        O  776   4.233   2.426   5.035
    1C        O  777   4.185   2.572   5.184
    1C        C  778   2.900   4.532   5.062
    1C        O  779   2.899   4.653   5.029
    1C        O  780   2.924   4.515   5.199
    1C        C  781   2.474   3.033   5.069
    1C        O  782   2.358   3.001   5.032
    1C        O  783   2.457   3.070   5.202
    1C        C  784   2.394   3.995   5.028
    1C        O  785   2.291   4.054   4.987
    1C        O  786   2.363   3.952   5.158
    1C        C  787   2.947   2.440   1.993
    1C        O  788   2.978   2.422   1.872
    1C        O  789   2.892   2.322   2.041
    1C        C  790   3.205   2.415   5.102
    1C        O  791   3.211   2.289   5.105
    1C        O  792   3.198   2.470   5.230
    1C        H  793   4.289   3.023   5.062
    1C        H  794   4.200   2.795   5.071
    1C        H  795   4.534   3.122   5.042
    1C        H  796   4.492   3.376   5.058
    1C        H  797   4.603   3.814   5.025
    1C        H  798   4.357   3.945   5.038
    1C        H  799   4.321   4.182   5.054
    1C        H  800   4.031   4.535   5.031
    1C        H  801   3.817   4.583   5.039
    1C        H  802   3.589   4.616   5.043
    1C        H  803   3.390   4.500   5.048
    1C        H  804   3.158   4.463   5.047
    1C        H  805   3.882   2.526   5.078
    1C        H  806   3.670   2.459   5.078
    1C        H  807   2.989   2.534   5.059
    1C        H  808   3.449   2.491   5.079
    1C        H  809   2.891   2.766   5.076
    1C        H  810   2.659   2.849   5.052
    1C        H  811   2.514   3.298   5.072
    1C        H  812   2.572   3.499   5.066
    1C        H  813   2.490   3.725   5.061
    1C        H  814   2.589   4.170   5.047
    1C        H  815   2.739   4.325   5.047
    1C        H  816   2.705   2.876   1.971
    1C        H  817   2.869   2.706   1.980
    1C        H  818   3.214   2.467   1.981
    1C        H  819   3.429   2.427   1.978
    1C        H  820   3.844   2.524   1.971
    1C        H  821   4.062   2.625   1.966
    1C        H  822   4.272   2.698   1.982
    1C        H  823   4.408   2.894   1.975
    1C        H  824   4.602   3.304   1.977
    1C        H  825   4.475   3.512   1.963
    1C        H  826   4.555   3.741   1.968
    1C        H  827   3.804   4.526   1.953
    1C        H  828   3.941   4.342   1.954
    1C        H  829   4.180   4.280   1.952
    1C        H  830   4.485   3.956   1.965
    1C        H  831   2.665   3.831   1.977
    1C        H  832   2.747   4.041   1.974
    1C        H  833   2.737   4.288   1.955
    1C        H  834   3.366   4.505   1.943
    1C        H  835   3.149   4.403   1.951
    1C        H  836   2.518   3.006   1.993
    1C        H  837   2.490   3.241   1.973
    1C        H  838   2.514   3.670   1.965
    2V3OU   H29  839   2.805   3.544   1.919
    2V3OU   C27  840   2.780   3.498   2.018
    2V3OU   H27  841   2.724   3.572   2.081
    2V3OU   H28  842   2.724   3.401   2.018
    2V3OU   O11  843   2.905   3.478   2.084
    2V3OU   C15  844   2.920   3.393   2.192
    2V3OU   C13  845   3.051   3.374   2.240
    2V3OU   C14  846   3.076   3.273   2.333
    2V3OU   C16  847   2.975   3.191   2.384
    2V3OU    H6  848   2.992   3.095   2.435
    2V3OU   C12  849   3.216   3.230   2.354
    2V3OU    O2  850   3.238   3.123   2.414
    2V3OU   C10  851   3.328   3.302   2.291
    2V3OU    C8  852   3.461   3.265   2.309
    2V3OU   O10  853   3.489   3.151   2.378
    2V3OU   H26  854   3.403   3.106   2.379
    2V3OU    C6  855   3.565   3.350   2.260
    2V3OU    C5  856   3.535   3.465   2.187
    2V3OU    C4  857   3.703   3.294   2.261
    2V3OU    H4  858   3.720   3.232   2.354
    2V3OU    H5  859   3.710   3.226   2.171
    2V3OU    C2  860   3.818   3.395   2.253
    2V3OU    O6  861   3.812   3.475   2.371
    2V3OU   H21  862   3.763   3.552   2.339
    2V3OU    C3  863   3.780   3.494   2.143
    2V3OU    H2  864   3.859   3.572   2.130
    2V3OU    H3  865   3.774   3.440   2.045
    2V3OU   C25  866   3.953   3.325   2.236
    2V3OU    O7  867   4.003   3.293   2.128
    2V3OU   C26  868   4.030   3.288   2.362
    2V3OU   H22  869   4.071   3.383   2.406
    2V3OU   H23  870   4.117   3.222   2.336
    2V3OU    O8  871   3.964   3.209   2.458
    2V3OU   H24  872   3.919   3.263   2.525
    2V3OU    C1  873   3.645   3.563   2.159
    2V3OU    H1  874   3.622   3.617   2.063
    2V3OU    O3  875   3.658   3.654   2.268
    2V3OU   C19  876   3.618   3.790   2.247
    2V3OU    H9  877   3.518   3.794   2.194
    2V3OU    O4  878   3.710   3.848   2.159
    2V3OU   C20  879   3.844   3.868   2.206
    2V3OU   H10  880   3.898   3.772   2.228
    2V3OU   C24  881   3.609   3.857   2.384
    2V3OU   H16  882   3.537   3.800   2.448
    2V3OU   H17  883   3.566   3.959   2.366
    2V3OU   C23  884   3.749   3.875   2.442
    2V3OU   H15  885   3.789   3.769   2.454
    2V3OU    N1  886   3.733   3.950   2.565
    2V3OU   H19  887   3.804   3.925   2.631
    2V3OU   H20  888   3.650   3.934   2.618
    2V3OU   C21  889   3.846   3.942   2.340
    2V3OU   H11  890   3.948   3.926   2.386
    2V3OU    O5  891   3.820   4.082   2.336
    2V3OU   H18  892   3.779   4.096   2.423
    2V3OU   C22  893   3.911   3.945   2.093
    2V3OU   H12  894   3.862   4.045   2.083
    2V3OU   H13  895   3.901   3.890   1.996
    2V3OU   H14  896   4.018   3.965   2.120
    2V3OU   C11  897   3.159   3.473   2.223
    2V3OU    O1  898   3.132   3.589   2.186
    2V3OU    C9  899   3.298   3.424   2.224
    2V3OU    C7  900   3.399   3.502   2.168
    2V3OU    O9  901   3.385   3.623   2.102
    2V3OU   H25  902   3.288   3.633   2.108
    2V3OU   C17  903   2.818   3.314   2.249
    2V3OU    H7  904   2.718   3.338   2.214
    2V3OU   C18  905   2.844   3.215   2.344
    2V3OU    H8  906   2.771   3.162   2.407
    3SOL     OW  907   2.924   4.039   0.540
    3SOL    HW1  908   2.916   3.992   0.452
    3SOL    HW2  909   2.976   4.123   0.528
    4SOL     OW  910   6.181   5.748   1.727
    4SOL    HW1  911   6.205   5.653   1.705
    4SOL    HW2  912   6.099   5.774   1.675
    5SOL     OW  913   3.803   1.362   2.939
    5SOL    HW1  914   3.705   1.351   2.921
    5SOL    HW2  915   3.817   1.429   3.012
    6SOL     OW  916   4.490   1.340   1.608
    6SOL    HW1  917   4.401   1.303   1.635
    6SOL    HW2  918   4.530   1.283   1.536
    7SOL     OW  919   6.178   3.331   2.404
    7SOL    HW1  920   6.097   3.375   2.365
    7SOL    HW2  921   6.205   3.253   2.347
    8SOL     OW  922   2.856   0.305   5.701
    8SOL    HW1  923   2.835   0.254   5.617
    8SOL    HW2  924   2.931   0.260   5.750
    9SOL     OW  925   6.931   5.442   5.644
    9SOL    HW1  926   6.860   5.478   5.705
    9SOL    HW2  927   7.020   5.477   5.672
   10SOL     OW  928   0.918   4.619   5.908
   10SOL    HW1  929   0.886   4.683   5.839
   10SOL    HW2  930   0.846   4.606   5.977
   11SOL     OW  931   3.010   0.212   0.234
   11SOL    HW1  932   3.065   0.132   0.257
   11SOL    HW2  933   3.061   0.271   0.171
   12SOL     OW  934   4.174   6.146   3.978
   12SOL    HW1  935   4.119   6.117   4.057
   12SOL    HW2  936   4.163   6.245   3.964
   13SOL     OW  937   3.146   5.502   4.017
   13SOL    HW1  938   3.191   5.592   4.027
   13SOL    HW2  939   3.124   5.466   4.107
   14SOL     OW  940   4.798   5.908   6.300
   14SOL    HW1  941   4.751   5.956   6.374
   14SOL    HW2  942   4.735   5.894   6.224
   15SOL     OW  943   0.925   5.522   0.704
   15SOL    HW1  944   0.886   5.562   0.787
   15SOL    HW2  945   0.851   5.496   0.641
   16SOL     OW  946   5.561   2.760   5.578
   16SOL    HW1  947   5.629   2.804   5.519
   16SOL    HW2  948   5.537   2.671   5.540
   17SOL     OW  949   5.075   6.003   5.346
   17SOL    HW1  950   5.127   6.073   5.394
   17SOL    HW2  951   5.073   6.025   5.248
   18SOL     OW  952   2.872   1.194   6.311
   18SOL    HW1  953   2.916   1.272   6.355
   18SOL    HW2  954   2.939   1.120   6.299
   19SOL     OW  955   0.206   6.903   3.193
   19SOL    HW1  956   0.141   6.833   3.222
   19SOL    HW2  957   0.287   6.898   3.251
   20SOL     OW  958   4.890   1.751   4.088
   20SOL    HW1  959   4.905   1.714   4.180
   20SOL    HW2  960   4.882   1.851   4.094
   21SOL     OW  961   2.971   2.049   2.547
   21SOL    HW1  962   2.936   2.126   2.492
   21SOL    HW2  963   2.908   2.032   2.623
   22SOL     OW  964   2.655   6.861   0.509
   22SOL    HW1  965   2.646   6.774   0.558
   22SOL    HW2  966   2.736   6.858   0.451
   23SOL     OW  967   4.627   6.752   3.497
   23SOL    HW1  968   4.546   6.708   3.459
   23SOL    HW2  969   4.696   6.683   3.517
   24SOL     OW  970   5.117   1.142   2.599
   24SOL    HW1  971   5.137   1.132   2.696
   24SOL    HW2  972   5.194   1.185   2.553
   25SOL     OW  973   3.635   6.411   5.902
   25SOL    HW1  974   3.701   6.353   5.855
   25SOL    HW2  975   3.677   6.452   5.983
   26SOL     OW  976   6.003   1.050   0.475
   26SOL    HW1  977   6.085   1.101   0.448
   26SOL    HW2  978   5.991   1.058   0.574
   27SOL     OW  979   0.357   1.666   1.374
   27SOL    HW1  980   0.435   1.728   1.384
   27SOL    HW2  981   0.309   1.658   1.461
   28SOL     OW  982   3.711   1.577   0.184
   28SOL    HW1  983   3.727   1.615   0.276
   28SOL    HW2  984   3.613   1.570   0.168
   29SOL     OW  985   5.388   3.092   2.248
   29SOL    HW1  986   5.344   3.064   2.163
   29SOL    HW2  987   5.449   3.020   2.280
   30SOL     OW  988   3.484   0.816   5.029
   30SOL    HW1  989   3.432   0.795   5.112
   30SOL    HW2  990   3.577   0.842   5.053
   31SOL     OW  991   0.773   1.777   5.634
   31SOL    HW1  992   0.706   1.844   5.666
   31SOL    HW2  993   0.790   1.791   5.536
   32SOL     OW  994   6.923   1.562   2.908
   32SOL    HW1  995   6.902   1.659   2.923
   32SOL    HW2  996   7.005   1.537   2.960
   33SOL     OW  997   2.643   3.719   0.053
   33SOL    HW1  998   2.730   3.677   0.028
   33SOL    HW2  999   2.623   3.793   7.010
   34SOL     OW 1000   2.196   1.645   3.417
   34SOL    HW1 1001   2.137   1.614   3.342
   34SOL    HW2 1002   2.180   1.742   3.434
   35SOL     OW 1003   3.234   2.483   0.087
   35SOL    HW1 1004   3.293   2.549   0.134
   35SOL    HW2 1005   3.153   2.465   0.144
   36SOL     OW 1006   0.261   0.899   6.259
   36SOL    HW1 1007   0.308   0.961   6.196
   36SOL    HW2 1008   0.165   0.926   6.265
   37SOL     OW 1009   1.496   7.022   0.482
   37SOL    HW1 1010   1.421   0.064   0.494
   37SOL    HW2 1011   1.577   0.049   0.450
   38SOL     OW 1012   0.127   4.519   2.083
   38SOL    HW1 1013   0.031   4.491   2.081
   38SOL    HW2 1014   0.145   4.570   2.168
   39SOL     OW 1015   6.746   5.018   6.339
   39SOL    HW1 1016   6.716   5.094   6.397
   39SOL    HW2 1017   6.710   5.030   6.247
   40SOL     OW 1018   5.724   2.632   1.455
   40SOL    HW1 1019   5.796   2.572   1.421
   40SOL    HW2 1020   5.753   2.673   1.541
   41SOL     OW 1021   0.248   6.836   4.223
   41SOL    HW1 1022   0.179   6.770   4.253
   41SOL    HW2 1023   0.270   6.899   4.298
   42SOL     OW 1024   2.303   5.667   5.700
   42SOL    HW1 1025   2.341   5.584   5.741
   42SOL    HW2 1026   2.204   5.656   5.686
   43SOL     OW 1027   5.389   6.542   4.905
   43SOL    HW1 1028   5.408   6.639   4.892
   43SOL    HW2 1029   5.472   6.489   4.888
   44SOL     OW 1030   5.789   2.081   6.117
   44SOL    HW1 1031   5.763   2.134   6.198
   44SOL    HW2 1032   5.867   2.125   6.073
   45SOL     OW 1033   3.483   6.630   3.222
   45SOL    HW1 1034   3.445   6.604   3.311
   45SOL    HW2 1035   3.524   6.550   3.179
   46SOL     OW 1036   1.385   3.506   3.855
   46SOL    HW1 1037   1.286   3.491   3.859
   46SOL    HW2 1038   1.405   3.601   3.878
   47SOL     OW 1039   4.927   4.471   1.523
   47SOL    HW1 1040   4.943   4.496   1.428
   47SOL    HW2 1041   4.833   4.437   1.533
   48SOL     OW 1042   6.795   3.218   6.251
   48SOL    HW1 1043   6.847   3.168   6.320
   48SOL    HW2 1044   6.701   3.186   6.250
   49SOL     OW 1045   4.567   4.051   1.673
   49SOL    HW1 1046   4.528   4.108   1.746
   49SOL    HW2 1047   4.554   4.095   1.585
   50SOL     OW 1048   6.815   2.681   5.693
   50SOL    HW1 1049   6.853   2.604   5.640
   50SOL    HW2 1050   6.716   2.678   5.689
   51SOL     OW 1051   2.794   6.377   2.365
   51SOL    HW1 1052   2.785   6.333   2.455
   51SOL    HW2 1053   2.864   6.330   2.312
   52SOL     OW 1054   5.266   2.800   3.295
   52SOL    HW1 1055   5.198   2.868   3.322
   52SOL    HW2 1056   5.298   2.751   3.376
   53SOL     OW 1057   3.904   0.118   4.891
   53SOL    HW1 1058   3.895   0.141   4.795
   53SOL    HW2 1059   3.821   0.072   4.923
   54SOL     OW 1060   3.853   4.461   0.640
   54SOL    HW1 1061   3.934   4.427   0.591
   54SOL    HW2 1062   3.771   4.437   0.588
   55SOL     OW 1063   3.477   1.580   6.520
   55SOL    HW1 1064   3.555   1.605   6.461
   55SOL    HW2 1065   3.394   1.624   6.486
   56SOL     OW 1066   0.377   6.872   0.951
   56SOL    HW1 1067   0.429   6.821   1.020
   56SOL    HW2 1068   0.293   6.908   0.993
   57SOL     OW 1069   5.257   0.508   0.692
   57SOL    HW1 1070   5.173   0.518   0.747
   57SOL    HW2 1071   5.265   0.584   0.628
   58SOL     OW 1072   6.326   6.913   5.566
   58SOL    HW1 1073   6.241   6.902   5.617
   58SOL    HW2 1074   6.380   6.829   5.571
   59SOL     OW 1075   1.548   1.196   6.048
   59SOL    HW1 1076   1.587   1.105   6.037
   59SOL    HW2 1077   1.514   1.229   5.960
   60SOL     OW 1078   5.749   1.016   6.255
   60SOL    HW1 1079   5.679   1.074   6.296
   60SOL    HW2 1080   5.741   0.923   6.291
   61SOL     OW 1081   5.367   1.790   5.293
   61SOL    HW1 1082   5.396   1.883   5.270
   61SOL    HW2 1083   5.443   1.741   5.335
   62SOL     OW 1084   0.203   0.872   3.267
   62SOL    HW1 1085   0.258   0.861   3.350
   62SOL    HW2 1086   0.222   0.797   3.204
   63SOL     OW 1087   5.949   1.814   3.717
   63SOL    HW1 1088   5.885   1.809   3.640
   63SOL    HW2 1089   5.897   1.817   3.803
   64SOL     OW 1090   0.280   4.219   6.158
   64SOL    HW1 1091   0.286   4.222   6.058
   64SOL    HW2 1092   0.370   4.237   6.197
   65SOL     OW 1093   6.901   4.648   5.172
   65SOL    HW1 1094   6.967   4.716   5.140
   65SOL    HW2 1095   6.886   4.660   5.270
   66SOL     OW 1096   3.659   0.934   6.542
   66SOL    HW1 1097   3.583   0.874   6.565
   66SOL    HW2 1098   3.736   0.916   6.603
   67SOL     OW 1099   5.226   4.226   5.748
   67SOL    HW1 1100   5.298   4.295   5.741
   67SOL    HW2 1101   5.137   4.269   5.739
   68SOL     OW 1102   5.681   0.438   6.755
   68SOL    HW1 1103   5.597   0.490   6.767
   68SOL    HW2 1104   5.751   0.496   6.713
   69SOL     OW 1105   0.495   3.523   6.647
   69SOL    HW1 1106   0.499   3.540   6.548
   69SOL    HW2 1107   0.571   3.464   6.673
   70SOL     OW 1108   5.885   4.700   3.953
   70SOL    HW1 1109   5.930   4.788   3.969
   70SOL    HW2 1110   5.927   4.630   4.010
   71SOL     OW 1111   4.220   1.461   2.361
   71SOL    HW1 1112   4.273   1.542   2.335
   71SOL    HW2 1113   4.211   1.401   2.282
   72SOL     OW 1114   2.900   6.051   4.933
   72SOL    HW1 1115   2.979   5.991   4.921
   72SOL    HW2 1116   2.883   6.100   4.848
   73SOL     OW 1117   3.568   0.755   0.858
   73SOL    HW1 1118   3.608   0.719   0.774
   73SOL    HW2 1119   3.549   0.680   0.921
   74SOL     OW 1120   4.985   6.181   5.721
   74SOL    HW1 1121   5.067   6.124   5.716
   74SOL    HW2 1122   5.002   6.269   5.677
   75SOL     OW 1123   4.045   0.431   6.530
   75SOL    HW1 1124   4.020   0.340   6.497
   75SOL    HW2 1125   3.972   0.467   6.587
   76SOL     OW 1126   2.474   2.698   1.235
   76SOL    HW1 1127   2.478   2.739   1.144
   76SOL    HW2 1128   2.484   2.599   1.228
   77SOL     OW 1129   6.127   6.556   4.035
   77SOL    HW1 1130   6.090   6.474   4.079
   77SOL    HW2 1131   6.088   6.637   4.078
   78SOL     OW 1132   5.667   0.894   5.798
   78SOL    HW1 1133   5.612   0.955   5.856
   78SOL    HW2 1134   5.736   0.848   5.855
   79SOL     OW 1135   3.206   6.825   0.292
   79SOL    HW1 1136   3.225   6.866   0.381
   79SOL    HW2 1137   3.121   6.864   0.255
   80SOL     OW 1138   5.239   1.792   4.247
   80SOL    HW1 1139   5.226   1.810   4.344
   80SOL    HW2 1140   5.325   1.742   4.234
   81SOL     OW 1141   1.700   0.478   3.017
   81SOL    HW1 1142   1.800   0.470   3.019
   81SOL    HW2 1143   1.664   0.426   2.941
   82SOL     OW 1144   6.261   4.987   0.863
   82SOL    HW1 1145   6.344   4.983   0.919
   82SOL    HW2 1146   6.284   5.013   0.770
   83SOL     OW 1147   0.217   0.522   0.803
   83SOL    HW1 1148   0.119   0.541   0.812
   83SOL    HW2 1149   0.230   0.436   0.754
   84SOL     OW 1150   5.147   3.273   3.604
   84SOL    HW1 1151   5.208   3.216   3.549
   84SOL    HW2 1152   5.053   3.242   3.593
   85SOL     OW 1153   1.987   1.736   5.097
   85SOL    HW1 1154   1.941   1.691   5.174
   85SOL    HW2 1155   1.924   1.800   5.053
   86SOL     OW 1156   0.443   0.520   5.670
   86SOL    HW1 1157   0.499   0.453   5.621
   86SOL    HW2 1158   0.429   0.489   5.764
   87SOL     OW 1159   5.191   3.508   0.434
   87SOL    HW1 1160   5.242   3.578   0.384
   87SOL    HW2 1161   5.248   3.471   0.507
   88SOL     OW 1162   3.818   1.928   6.435
   88SOL    HW1 1163   3.750   1.929   6.362
   88SOL    HW2 1164   3.823   2.018   6.478
   89SOL     OW 1165   0.801   2.636   5.895
   89SOL    HW1 1166   0.854   2.719   5.873
   89SOL    HW2 1167   0.712   2.662   5.931
   90SOL     OW 1168   4.147   6.275   2.940
   90SOL    HW1 1169   4.141   6.302   2.844
   90SOL    HW2 1170   4.243   6.266   2.967
   91SOL     OW 1171   4.653   4.330   4.902
   91SOL    HW1 1172   4.629   4.247   4.852
   91SOL    HW2 1173   4.599   4.406   4.868
   92SOL     OW 1174   3.265   3.836   0.384
   92SOL    HW1 1175   3.269   3.811   0.480
   92SOL    HW2 1176   3.271   3.935   0.375
   93SOL     OW 1177   2.657   3.673   6.308
   93SOL    HW1 1178   2.596   3.604   6.270
   93SOL    HW2 1179   2.608   3.727   6.377
   94SOL     OW 1180   2.452   5.914   5.929
   94SOL    HW1 1181   2.364   5.952   5.957
   94SOL    HW2 1182   2.520   5.986   5.925
   95SOL     OW 1183   1.238   0.661   3.313
   95SOL    HW1 1184   1.168   0.625   3.374
   95SOL    HW2 1185   1.328   0.649   3.354
   96SOL     OW 1186   3.638   0.524   5.038
   96SOL    HW1 1187   3.587   0.487   5.115
   96SOL    HW2 1188   3.575   0.546   4.963
   97SOL     OW 1189   1.883   3.616   6.150
   97SOL    HW1 1190   1.799   3.619   6.095
   97SOL    HW2 1191   1.878   3.539   6.213
   98SOL     OW 1192   6.247   4.114   0.521
   98SOL    HW1 1193   6.188   4.158   0.589
   98SOL    HW2 1194   6.339   4.154   0.526
   99SOL     OW 1195   4.878   3.650   1.334
   99SOL    HW1 1196   4.866   3.605   1.246
   99SOL    HW2 1197   4.953   3.716   1.328
  100SOL     OW 1198   0.142   0.353   5.202
  100SOL    HW1 1199   0.208   0.404   5.256
  100SOL    HW2 1200   0.185   0.269   5.168
  101SOL     OW 1201   1.652   5.612   2.295
  101SOL    HW1 1202   1.678   5.708   2.291
  101SOL    HW2 1203   1.599   5.594   2.378
  102SOL     OW 1204   4.320   0.049   2.541
  102SOL    HW1 1205   4.380   0.099   2.604
  102SOL    HW2 1206   4.348   6.974   2.539
  103SOL     OW 1207   3.392   1.193   2.309
  103SOL    HW1 1208   3.463   1.222   2.373
  103SOL    HW2 1209   3.308   1.245   2.328
  104SOL     OW 1210   0.234   5.085   2.279
  104SOL    HW1 1211   0.212   5.153   2.349
  104SOL    HW2 1212   0.157   5.022   2.268
  105SOL     OW 1213   7.009   2.803   6.568
  105SOL    HW1 1214   6.998   2.706   6.589
  105SOL    HW2 1215   0.078   2.819   6.530
  106SOL     OW 1216   3.725   5.886   4.599
  106SOL    HW1 1217   3.794   5.820   4.628
  106SOL    HW2 1218   3.771   5.967   4.562
  107SOL     OW 1219   2.024   1.454   2.070
  107SOL    HW1 1220   2.076   1.455   1.985
  107SOL    HW2 1221   1.974   1.368   2.078
  108SOL     OW 1222   3.796   4.985   5.784
  108SOL    HW1 1223   3.766   4.923   5.711
  108SOL    HW2 1224   3.745   5.071   5.778
  109SOL     OW 1225   0.082   0.612   1.351
  109SOL    HW1 1226   0.181   0.622   1.366
  109SOL    HW2 1227   0.064   0.524   1.307
  110SOL     OW 1228   3.474   5.911   5.529
  110SOL    HW1 1229   3.514   5.947   5.614
  110SOL    HW2 1230   3.387   5.956   5.512
  111SOL     OW 1231   3.215   0.875   4.356
  111SOL    HW1 1232   3.195   0.902   4.262
  111SOL    HW2 1233   3.161   0.795   4.380
  112SOL     OW 1234   5.399   6.870   5.648
  112SOL    HW1 1235   5.376   6.823   5.733
  112SOL    HW2 1236   5.405   6.803   5.573
  113SOL     OW 1237   6.284   4.976   3.284
  113SOL    HW1 1238   6.370   5.014   3.318
  113SOL    HW2 1239   6.245   5.039   3.217
  114SOL     OW 1240   0.846   0.346   0.987
  114SOL    HW1 1241   0.766   0.299   0.951
  114SOL    HW2 1242   0.929   0.300   0.956
  115SOL     OW 1243   3.850   1.498   3.190
  115SOL    HW1 1244   3.919   1.571   3.194
  115SOL    HW2 1245   3.871   1.430   3.260
  116SOL     OW 1246   5.921   5.208   1.936
  116SOL    HW1 1247   6.017   5.230   1.920
  116SOL    HW2 1248   5.908   5.109   1.927
  117SOL     OW 1249   1.462   1.411   0.386
  117SOL    HW1 1250   1.435   1.336   0.446
  117SOL    HW2 1251   1.497   1.374   0.300
  118SOL     OW 1252   1.611   1.239   3.295
  118SOL    HW1 1253   1.620   1.335   3.267
  118SOL    HW2 1254   1.609   1.180   3.215
  119SOL     OW 1255   0.983   1.430   6.689
  119SOL    HW1 1256   0.993   1.336   6.722
  119SOL    HW2 1257   0.968   1.429   6.590
  120SOL     OW 1258   6.393   6.655   0.176
  120SOL    HW1 1259   6.458   6.607   0.117
  120SOL    HW2 1260   6.340   6.588   0.228
  121SOL     OW 1261   2.452   3.544   6.143
  121SOL    HW1 1262   2.449   3.470   6.210
  121SOL    HW2 1263   2.461   3.506   6.051
  122SOL     OW 1264   1.957   4.548   6.619
  122SOL    HW1 1265   1.937   4.570   6.714
  122SOL    HW2 1266   2.049   4.508   6.613
  123SOL     OW 1267   0.210   1.545   1.633
  123SOL    HW1 1268   0.115   1.545   1.605
  123SOL    HW2 1269   0.216   1.547   1.733
  124SOL     OW 1270   5.055   3.152   0.667
  124SOL    HW1 1271   5.048   3.208   0.585
  124SOL    HW2 1272   5.107   3.201   0.736
  125SOL     OW 1273   3.129   1.448   2.053
  125SOL    HW1 1274   3.187   1.502   1.991
  125SOL    HW2 1275   3.112   1.501   2.136
  126SOL     OW 1276   2.627   3.784   1.427
  126SOL    HW1 1277   2.632   3.719   1.351
  126SOL    HW2 1278   2.685   3.752   1.502
  127SOL     OW 1279   0.332   5.650   6.049
  127SOL    HW1 1280   0.292   5.615   5.964
  127SOL    HW2 1281   0.279   5.729   6.080
  128SOL     OW 1282   4.833   2.706   1.058
  128SOL    HW1 1283   4.842   2.655   0.973
  128SOL    HW2 1284   4.920   2.752   1.079
  129SOL     OW 1285   3.005   2.751   6.191
  129SOL    HW1 1286   3.082   2.808   6.219
  129SOL    HW2 1287   2.929   2.808   6.163
  130SOL     OW 1288   0.637   1.211   3.949
  130SOL    HW1 1289   0.676   1.285   3.894
  130SOL    HW2 1290   0.703   1.184   4.019
  131SOL     OW 1291   5.106   1.780   3.582
  131SOL    HW1 1292   5.036   1.788   3.652
  131SOL    HW2 1293   5.064   1.755   3.495
  132SOL     OW 1294   2.412   2.441   1.133
  132SOL    HW1 1295   2.326   2.487   1.156
  132SOL    HW2 1296   2.395   2.367   1.068
  133SOL     OW 1297   5.083   6.264   4.243
  133SOL    HW1 1298   4.994   6.277   4.198
  133SOL    HW2 1299   5.069   6.244   4.340
  134SOL     OW 1300   6.541   1.459   2.620
  134SOL    HW1 1301   6.568   1.535   2.561
  134SOL    HW2 1302   6.493   1.390   2.565
  135SOL     OW 1303   5.417   3.657   3.178
  135SOL    HW1 1304   5.490   3.657   3.247
  135SOL    HW2 1305   5.456   3.678   3.088
  136SOL     OW 1306   3.155   3.720   6.339
  136SOL    HW1 1307   3.224   3.654   6.366
  136SOL    HW2 1308   3.143   3.718   6.239
  137SOL     OW 1309   5.310   1.560   5.017
  137SOL    HW1 1310   5.212   1.578   5.005
  137SOL    HW2 1311   5.326   1.461   5.010
  138SOL     OW 1312   0.876   4.643   2.924
  138SOL    HW1 1313   0.902   4.703   2.849
  138SOL    HW2 1314   0.785   4.605   2.906
  139SOL     OW 1315   2.197   6.578   5.004
  139SOL    HW1 1316   2.164   6.650   4.942
  139SOL    HW2 1317   2.269   6.526   4.959
  140SOL     OW 1318   0.713   5.825   3.480
  140SOL    HW1 1319   0.703   5.730   3.451
  140SOL    HW2 1320   0.802   5.838   3.524
  141SOL     OW 1321   6.006   3.750   4.795
  141SOL    HW1 1322   6.062   3.667   4.792
  141SOL    HW2 1323   6.026   3.807   4.716
  142SOL     OW 1324   2.022   4.099   0.523
  142SOL    HW1 1325   1.935   4.109   0.572
  142SOL    HW2 1326   2.007   4.121   0.426
  143SOL     OW 1327   5.885   4.581   1.229
  143SOL    HW1 1328   5.948   4.637   1.282
  143SOL    HW2 1329   5.801   4.633   1.213
  144SOL     OW 1330   1.085   6.381   6.186
  144SOL    HW1 1331   1.097   6.456   6.252
  144SOL    HW2 1332   1.157   6.313   6.199
  145SOL     OW 1333   6.850   5.664   0.137
  145SOL    HW1 1334   6.807   5.730   0.076
  145SOL    HW2 1335   6.907   5.712   0.204
  146SOL     OW 1336   5.155   0.557   6.394
  146SOL    HW1 1337   5.223   0.583   6.326
  146SOL    HW2 1338   5.084   0.502   6.350
  147SOL     OW 1339   6.175   3.899   6.437
  147SOL    HW1 1340   6.133   3.903   6.527
  147SOL    HW2 1341   6.182   3.992   6.400
  148SOL     OW 1342   0.180   5.609   6.338
  148SOL    HW1 1343   0.148   5.515   6.355
  148SOL    HW2 1344   0.269   5.606   6.294
  149SOL     OW 1345   2.933   1.937   4.855
  149SOL    HW1 1346   3.007   2.003   4.869
  149SOL    HW2 1347   2.970   1.854   4.813
  150SOL     OW 1348   5.789   6.082   5.995
  150SOL    HW1 1349   5.724   6.006   5.985
  150SOL    HW2 1350   5.850   6.064   6.073
  151SOL     OW 1351   3.420   2.420   1.168
  151SOL    HW1 1352   3.404   2.389   1.262
  151SOL    HW2 1353   3.364   2.366   1.105
  152SOL     OW 1354   1.436   1.039   3.153
  152SOL    HW1 1355   1.363   1.074   3.211
  152SOL    HW2 1356   1.435   1.088   3.066
  153SOL     OW 1357   3.337   0.606   1.963
  153SOL    HW1 1358   3.380   0.630   2.050
  153SOL    HW2 1359   3.401   0.625   1.889
  154SOL     OW 1360   0.761   2.035   2.854
  154SOL    HW1 1361   0.673   2.049   2.809
  154SOL    HW2 1362   0.763   2.085   2.940
  155SOL     OW 1363   6.396   1.730   3.537
  155SOL    HW1 1364   6.313   1.681   3.509
  155SOL    HW2 1365   6.395   1.822   3.498
  156SOL     OW 1366   0.106   2.223   0.410
  156SOL    HW1 1367   0.087   2.188   0.318
  156SOL    HW2 1368   0.150   2.151   0.464
  157SOL     OW 1369   5.810   3.269   1.144
  157SOL    HW1 1370   5.801   3.216   1.228
  157SOL    HW2 1371   5.817   3.366   1.166
  158SOL     OW 1372   2.174   6.186   2.296
  158SOL    HW1 1373   2.125   6.262   2.253
  158SOL    HW2 1374   2.145   6.176   2.391
  159SOL     OW 1375   4.176   4.634   1.990
  159SOL    HW1 1376   4.140   4.546   2.020
  159SOL    HW2 1377   4.276   4.634   2.001
  160SOL     OW 1378   6.260   5.599   0.394
  160SOL    HW1 1379   6.183   5.601   0.330
  160SOL    HW2 1380   6.331   5.539   0.358
  161SOL     OW 1381   2.099   5.766   4.552
  161SOL    HW1 1382   2.021   5.704   4.539
  161SOL    HW2 1383   2.069   5.847   4.602
  162SOL     OW 1384   3.912   6.744   6.791
  162SOL    HW1 1385   3.923   6.789   6.879
  162SOL    HW2 1386   4.002   6.730   6.750
  163SOL     OW 1387   5.514   5.840   0.743
  163SOL    HW1 1388   5.428   5.819   0.697
  163SOL    HW2 1389   5.587   5.785   0.703
  164SOL     OW 1390   6.331   4.249   0.109
  164SOL    HW1 1391   6.316   4.306   0.029
  164SOL    HW2 1392   6.268   4.171   0.105
  165SOL     OW 1393   5.279   3.004   1.997
  165SOL    HW1 1394   5.340   2.927   1.981
  165SOL    HW2 1395   5.276   3.062   1.915
  166SOL     OW 1396   6.979   5.059   3.580
  166SOL    HW1 1397   6.933   5.143   3.609
  166SOL    HW2 1398   6.957   5.041   3.484
  167SOL     OW 1399   5.814   2.694   0.200
  167SOL    HW1 1400   5.715   2.706   0.206
  167SOL    HW2 1401   5.858   2.783   0.189
  168SOL     OW 1402   2.299   3.290   1.338
  168SOL    HW1 1403   2.240   3.232   1.394
  168SOL    HW2 1404   2.336   3.364   1.395
  169SOL     OW 1405   4.500   0.498   1.826
  169SOL    HW1 1406   4.599   0.487   1.820
  169SOL    HW2 1407   4.466   0.447   1.905
  170SOL     OW 1408   1.022   1.112   3.764
  170SOL    HW1 1409   0.953   1.065   3.709
  170SOL    HW2 1410   1.050   1.054   3.840
  171SOL     OW 1411   3.622   4.556   0.092
  171SOL    HW1 1412   3.565   4.478   0.065
  171SOL    HW2 1413   3.708   4.523   0.129
  172SOL     OW 1414   5.519   2.066   4.277
  172SOL    HW1 1415   5.593   2.048   4.212
  172SOL    HW2 1416   5.431   2.047   4.232
  173SOL     OW 1417   6.600   2.224   4.544
  173SOL    HW1 1418   6.552   2.280   4.612
  173SOL    HW2 1419   6.699   2.235   4.555
  174SOL     OW 1420   3.368   5.278   4.705
  174SOL    HW1 1421   3.401   5.281   4.611
  174SOL    HW2 1422   3.379   5.186   4.742
  175SOL     OW 1423   2.681   6.875   1.947
  175SOL    HW1 1424   2.761   6.854   2.002
  175SOL    HW2 1425   2.703   6.948   1.882
  176SOL     OW 1426   1.138   4.420   1.068
  176SOL    HW1 1427   1.047   4.392   1.100
  176SOL    HW2 1428   1.198   4.340   1.064
  177SOL     OW 1429   5.684   3.475   2.412
  177SOL    HW1 1430   5.616   3.436   2.350
  177SOL    HW2 1431   5.756   3.520   2.359
  178SOL     OW 1432   2.707   2.684   6.617
  178SOL    HW1 1433   2.660   2.596   6.628
  178SOL    HW2 1434   2.752   2.686   6.528
  179SOL     OW 1435   2.425   1.241   6.551
  179SOL    HW1 1436   2.333   1.257   6.514
  179SOL    HW2 1437   2.493   1.255   6.479
  180SOL     OW 1438   1.519   6.892   6.737
  180SOL    HW1 1439   1.597   6.833   6.757
  180SOL    HW2 1440   1.509   6.901   6.638
  181SOL     OW 1441   3.078   2.220   6.261
  181SOL    HW1 1442   3.014   2.170   6.320
  181SOL    HW2 1443   3.052   2.208   6.166
  182SOL     OW 1444   3.488   1.293   3.975
  182SOL    HW1 1445   3.414   1.265   3.914
  182SOL    HW2 1446   3.468   1.261   4.068
  183SOL     OW 1447   3.456   2.095   3.537
  183SOL    HW1 1448   3.401   2.124   3.615
  183SOL    HW2 1449   3.540   2.150   3.533
  184SOL     OW 1450   2.045   6.164   3.884
  184SOL    HW1 1451   2.073   6.156   3.979
  184SOL    HW2 1452   1.949   6.192   3.879
  185SOL     OW 1453   0.167   1.644   6.284
  185SOL    HW1 1454   0.265   1.626   6.277
  185SOL    HW2 1455   0.127   1.587   6.356
  186SOL     OW 1456   5.634   1.377   3.939
  186SOL    HW1 1457   5.640   1.321   3.857
  186SOL    HW2 1458   5.541   1.374   3.975
  187SOL     OW 1459   4.353   0.428   3.083
  187SOL    HW1 1460   4.369   0.340   3.127
  187SOL    HW2 1461   4.399   0.430   2.995
  188SOL     OW 1462   6.832   2.115   2.733
  188SOL    HW1 1463   6.765   2.052   2.693
  188SOL    HW2 1464   6.913   2.064   2.762
  189SOL     OW 1465   2.340   5.445   1.378
  189SOL    HW1 1466   2.384   5.534   1.389
  189SOL    HW2 1467   2.409   5.373   1.378
  190SOL     OW 1468   4.550   1.528   4.614
  190SOL    HW1 1469   4.588   1.608   4.567
  190SOL    HW2 1470   4.622   1.460   4.628
  191SOL     OW 1471   5.477   6.013   6.207
  191SOL    HW1 1472   5.510   6.052   6.121
  191SOL    HW2 1473   5.535   5.936   6.233
  192SOL     OW 1474   0.387   5.334   1.898
  192SOL    HW1 1475   0.311   5.272   1.918
  192SOL    HW2 1476   0.471   5.297   1.938
  193SOL     OW 1477   4.738   2.866   5.430
  193SOL    HW1 1478   4.663   2.820   5.478
  193SOL    HW2 1479   4.726   2.965   5.436
  194SOL     OW 1480   4.133   0.601   2.709
  194SOL    HW1 1481   4.052   0.586   2.653
  194SOL    HW2 1482   4.199   0.657   2.658
  195SOL     OW 1483   1.839   0.113   4.985
  195SOL    HW1 1484   1.867   0.022   5.017
  195SOL    HW2 1485   1.919   0.163   4.951
  196SOL     OW 1486   2.566   0.920   6.876
  196SOL    HW1 1487   2.583   1.018   6.877
  196SOL    HW2 1488   2.468   0.903   6.885
  197SOL     OW 1489   2.514   0.292   0.990
  197SOL    HW1 1490   2.551   0.202   0.964
  197SOL    HW2 1491   2.473   0.335   0.910
  198SOL     OW 1492   4.473   0.760   2.869
  198SOL    HW1 1493   4.498   0.690   2.936
  198SOL    HW2 1494   4.527   0.747   2.786
  199SOL     OW 1495   0.609   2.277   4.033
  199SOL    HW1 1496   0.610   2.326   4.120
  199SOL    HW2 1497   0.701   2.245   4.012
  200SOL     OW 1498   1.558   3.516   0.737
  200SOL    HW1 1499   1.635   3.533   0.798
  200SOL    HW2 1500   1.472   3.529   0.787
  201SOL     OW 1501   0.377   6.915   6.246
  201SOL    HW1 1502   0.378   6.842   6.313
  201SOL    HW2 1503   0.437   6.891   6.169
  202SOL     OW 1504   3.606   1.593   6.868
  202SOL    HW1 1505   3.692   1.636   6.898
  202SOL    HW2 1506   3.553   1.659   6.816
  203SOL     OW 1507   6.070   2.483   5.549
  203SOL    HW1 1508   6.162   2.521   5.541
  203SOL    HW2 1509   6.073   2.399   5.603
  204SOL     OW 1510   0.966   0.125   4.477
  204SOL    HW1 1511   1.061   0.128   4.509
  204SOL    HW2 1512   0.965   0.107   4.379
  205SOL     OW 1513   0.886   2.536   2.933
  205SOL    HW1 1514   0.826   2.609   2.964
  205SOL    HW2 1515   0.978   2.552   2.967
  206SOL     OW 1516   0.501   4.068   1.016
  206SOL    HW1 1517   0.478   4.131   0.942
  206SOL    HW2 1518   0.552   3.991   0.980
  207SOL     OW 1519   6.090   1.501   4.202
  207SOL    HW1 1520   6.106   1.409   4.236
  207SOL    HW2 1521   6.159   1.563   4.240
  208SOL     OW 1522   0.108   4.520   5.516
  208SOL    HW1 1523   0.031   4.467   5.550
  208SOL    HW2 1524   0.171   4.540   5.591
  209SOL     OW 1525   0.495   5.195   3.654
  209SOL    HW1 1526   0.410   5.248   3.649
  209SOL    HW2 1527   0.481   5.114   3.711
  210SOL     OW 1528   4.509   1.392   0.525
  210SOL    HW1 1529   4.459   1.383   0.439
  210SOL    HW2 1530   4.607   1.383   0.508
  211SOL     OW 1531   1.183   6.211   1.866
  211SOL    HW1 1532   1.130   6.241   1.946
  211SOL    HW2 1533   1.280   6.204   1.891
  212SOL     OW 1534   1.421   3.740   2.030
  212SOL    HW1 1535   1.393   3.782   1.944
  212SOL    HW2 1536   1.486   3.800   2.077
  213SOL     OW 1537   3.019   6.946   0.586
  213SOL    HW1 1538   3.119   6.954   0.588
  213SOL    HW2 1539   2.994   6.850   0.576
  214SOL     OW 1540   3.437   5.632   3.100
  214SOL    HW1 1541   3.428   5.539   3.135
  214SOL    HW2 1542   3.378   5.643   3.019
  215SOL     OW 1543   2.943   3.682   0.568
  215SOL    HW1 1544   2.978   3.760   0.620
  215SOL    HW2 1545   2.997   3.601   0.590
  216SOL     OW 1546   0.822   5.534   2.913
  216SOL    HW1 1547   0.920   5.555   2.909
  216SOL    HW2 1548   0.770   5.616   2.936
  217SOL     OW 1549   1.525   2.634   4.436
  217SOL    HW1 1550   1.517   2.708   4.503
  217SOL    HW2 1551   1.617   2.634   4.397
  218SOL     OW 1552   0.991   2.725   4.232
  218SOL    HW1 1553   0.912   2.762   4.183
  218SOL    HW2 1554   1.029   2.796   4.292
  219SOL     OW 1555   4.194   6.708   7.006
  219SOL    HW1 1556   4.251   6.709   0.067
  219SOL    HW2 1557   4.179   6.613   6.977
  220SOL     OW 1558   2.834   6.675   1.444
  220SOL    HW1 1559   2.871   6.590   1.482
  220SOL    HW2 1560   2.859   6.752   1.503
  221SOL     OW 1561   5.798   4.149   0.988
  221SOL    HW1 1562   5.783   4.194   1.076
  221SOL    HW2 1563   5.802   4.050   1.002
  222SOL     OW 1564   1.365   5.293   5.571
  222SOL    HW1 1565   1.300   5.221   5.547
  222SOL    HW2 1566   1.358   5.314   5.668
  223SOL     OW 1567   6.766   3.482   6.189
  223SOL    HW1 1568   6.677   3.487   6.143
  223SOL    HW2 1569   6.786   3.387   6.213
  224SOL     OW 1570   3.033   1.924   5.988
  224SOL    HW1 1571   3.075   1.866   5.918
  224SOL    HW2 1572   3.053   2.020   5.969
  225SOL     OW 1573   4.924   3.922   6.551
  225SOL    HW1 1574   4.919   4.008   6.501
  225SOL    HW2 1575   5.018   3.888   6.551
  226SOL     OW 1576   0.741   1.199   5.736
  226SOL    HW1 1577   0.810   1.164   5.673
  226SOL    HW2 1578   0.749   1.151   5.823
  227SOL     OW 1579   0.911   3.753   2.128
  227SOL    HW1 1580   0.838   3.713   2.073
  227SOL    HW2 1581   0.893   3.736   2.224
  228SOL     OW 1582   2.011   0.187   2.859
  228SOL    HW1 1583   1.921   0.154   2.830
  228SOL    HW2 1584   2.082   0.147   2.800
  229SOL     OW 1585   6.069   6.215   5.892
  229SOL    HW1 1586   6.004   6.290   5.900
  229SOL    HW2 1587   6.020   6.128   5.903
  230SOL     OW 1588   3.818   5.504   4.054
  230SOL    HW1 1589   3.907   5.508   4.008
  230SOL    HW2 1590   3.828   5.454   4.140
  231SOL     OW 1591   5.947   1.214   6.936
  231SOL    HW1 1592   5.937   1.146   7.009
  231SOL    HW2 1593   6.018   1.184   6.872
  232SOL     OW 1594   0.063   3.418   6.875
  232SOL    HW1 1595   7.001   3.473   6.870
  232SOL    HW2 1596   0.131   3.454   6.811
  233SOL     OW 1597   3.483   0.968   2.932
  233SOL    HW1 1598   3.447   0.981   2.840
  233SOL    HW2 1599   3.489   1.057   2.978
  234SOL     OW 1600   5.103   1.061   6.355
  234SOL    HW1 1601   5.025   1.006   6.383
  234SOL    HW2 1602   5.136   1.029   6.266
  235SOL     OW 1603   4.807   2.721   1.993
  235SOL    HW1 1604   4.729   2.698   1.934
  235SOL    HW2 1605   4.808   2.819   2.010
  236SOL     OW 1606   5.505   3.072   6.757
  236SOL    HW1 1607   5.567   3.143   6.791
  236SOL    HW2 1608   5.542   3.032   6.673
  237SOL     OW 1609   0.391   4.481   2.069
  237SOL    HW1 1610   0.406   4.422   1.989
  237SOL    HW2 1611   0.294   4.507   2.073
  238SOL     OW 1612   5.667   1.057   0.480
  238SOL    HW1 1613   5.600   1.044   0.408
  238SOL    HW2 1614   5.714   0.971   0.499
  239SOL     OW 1615   0.911   4.409   6.628
  239SOL    HW1 1616   0.909   4.508   6.633
  239SOL    HW2 1617   0.835   4.371   6.680
  240SOL     OW 1618   0.330   2.853   3.299
  240SOL    HW1 1619   0.253   2.900   3.343
  240SOL    HW2 1620   0.303   2.760   3.275
  241SOL     OW 1621   2.823   2.292   4.669
  241SOL    HW1 1622   2.754   2.331   4.608
  241SOL    HW2 1623   2.807   2.325   4.762
  242SOL     OW 1624   3.383   4.172   4.578
  242SOL    HW1 1625   3.356   4.252   4.525
  242SOL    HW2 1626   3.467   4.192   4.628
  243SOL     OW 1627   4.862   0.870   6.928
  243SOL    HW1 1628   4.768   0.902   6.922
  243SOL    HW2 1629   4.908   0.884   6.840
  244SOL     OW 1630   6.403   3.829   5.496
  244SOL    HW1 1631   6.440   3.848   5.405
  244SOL    HW2 1632   6.352   3.743   5.494
  245SOL     OW 1633   4.968   2.187   4.375
  245SOL    HW1 1634   5.017   2.185   4.463
  245SOL    HW2 1635   4.925   2.276   4.363
  246SOL     OW 1636   4.871   2.080   3.366
  246SOL    HW1 1637   4.854   2.101   3.462
  246SOL    HW2 1638   4.927   2.152   3.325
  247SOL     OW 1639   2.584   1.897   0.545
  247SOL    HW1 1640   2.560   1.802   0.562
  247SOL    HW2 1641   2.539   1.928   0.461
  248SOL     OW 1642   3.775   1.100   2.715
  248SOL    HW1 1643   3.859   1.152   2.729
  248SOL    HW2 1644   3.743   1.113   2.621
  249SOL     OW 1645   5.128   0.255   5.012
  249SOL    HW1 1646   5.089   0.307   5.088
  249SOL    HW2 1647   5.208   0.204   5.044
  250SOL     OW 1648   4.871   3.473   0.031
  250SOL    HW1 1649   4.947   3.503   0.088
  250SOL    HW2 1650   4.862   3.534   6.974
  251SOL     OW 1651   4.693   3.306   5.268
  251SOL    HW1 1652   4.741   3.316   5.355
  251SOL    HW2 1653   4.690   3.394   5.221
  252SOL     OW 1654   6.871   6.547   5.488
  252SOL    HW1 1655   6.965   6.563   5.518
  252SOL    HW2 1656   6.864   6.568   5.390
  253SOL     OW 1657   2.700   5.003   6.117
  253SOL    HW1 1658   2.750   4.972   6.036
  253SOL    HW2 1659   2.752   5.075   6.163
  254SOL     OW 1660   6.147   2.643   4.133
  254SOL    HW1 1661   6.178   2.556   4.171
  254SOL    HW2 1662   6.050   2.655   4.154
  255SOL     OW 1663   2.058   4.900   5.770
  255SOL    HW1 1664   2.122   4.937   5.836
  255SOL    HW2 1665   1.976   4.957   5.766
  256SOL     OW 1666   6.170   3.906   6.088
  256SOL    HW1 1667   6.074   3.891   6.110
  256SOL    HW2 1668   6.179   3.991   6.035
  257SOL     OW 1669   4.880   0.482   3.618
  257SOL    HW1 1670   4.960   0.425   3.596
  257SOL    HW2 1671   4.812   0.473   3.546
  258SOL     OW 1672   2.220   5.036   5.400
  258SOL    HW1 1673   2.280   4.992   5.468
  258SOL    HW2 1674   2.165   4.966   5.355
  259SOL     OW 1675   6.698   1.820   3.036
  259SOL    HW1 1676   6.690   1.808   3.135
  259SOL    HW2 1677   6.608   1.808   2.994
  260SOL     OW 1678   4.118   6.508   2.079
  260SOL    HW1 1679   4.213   6.527   2.106
  260SOL    HW2 1680   4.064   6.591   2.088
  261SOL     OW 1681   6.083   2.945   0.822
  261SOL    HW1 1682   6.125   3.000   0.749
  261SOL    HW2 1683   6.137   2.861   0.835
  262SOL     OW 1684   0.690   3.889   7.007
  262SOL    HW1 1685   0.664   3.827   0.059
  262SOL    HW2 1686   0.616   3.955   6.992
  263SOL     OW 1687   2.457   0.359   4.675
  263SOL    HW1 1688   2.541   0.309   4.693
  263SOL    HW2 1689   2.442   0.426   4.748
  264SOL     OW 1690   5.910   2.938   6.801
  264SOL    HW1 1691   5.895   3.010   6.734
  264SOL    HW2 1692   5.996   2.954   6.849
  265SOL     OW 1693   5.564   6.402   2.737
  265SOL    HW1 1694   5.525   6.422   2.826
  265SOL    HW2 1695   5.595   6.487   2.694
  266SOL     OW 1696   3.356   2.841   5.956
  266SOL    HW1 1697   3.385   2.822   5.863
  266SOL    HW2 1698   3.386   2.766   6.016
  267SOL     OW 1699   0.741   1.391   6.253
  267SOL    HW1 1700   0.784   1.437   6.175
  267SOL    HW2 1701   0.671   1.451   6.292
  268SOL     OW 1702   3.243   1.379   6.401
  268SOL    HW1 1703   3.149   1.413   6.401
  268SOL    HW2 1704   3.289   1.406   6.316
  269SOL     OW 1705   1.401   3.717   1.408
  269SOL    HW1 1706   1.476   3.728   1.473
  269SOL    HW2 1707   1.385   3.620   1.390
  270SOL     OW 1708   1.419   6.081   0.431
  270SOL    HW1 1709   1.435   6.090   0.333
  270SOL    HW2 1710   1.460   6.158   0.479
  271SOL     OW 1711   0.001   1.684   6.952
  271SOL    HW1 1712   0.062   1.764   6.942
  271SOL    HW2 1713   0.018   1.641   0.019
  272SOL     OW 1714   3.619   5.501   3.856
  272SOL    HW1 1715   3.527   5.476   3.886
  272SOL    HW2 1716   3.682   5.495   3.933
  273SOL     OW 1717   2.593   4.554   4.397
  273SOL    HW1 1718   2.557   4.461   4.405
  273SOL    HW2 1719   2.547   4.613   4.463
  274SOL     OW 1720   4.008   1.709   3.138
  274SOL    HW1 1721   3.987   1.806   3.156
  274SOL    HW2 1722   4.082   1.703   3.071
  275SOL     OW 1723   6.687   5.271   3.606
  275SOL    HW1 1724   6.730   5.310   3.688
  275SOL    HW2 1725   6.749   5.282   3.528
  276SOL     OW 1726   6.772   6.223   2.418
  276SOL    HW1 1727   6.792   6.135   2.376
  276SOL    HW2 1728   6.833   6.293   2.379
  277SOL     OW 1729   1.626   4.302   0.314
  277SOL    HW1 1730   1.612   4.387   0.365
  277SOL    HW2 1731   1.559   4.296   0.240
  278SOL     OW 1732   0.235   4.598   1.828
  278SOL    HW1 1733   0.295   4.523   1.798
  278SOL    HW2 1734   0.179   4.567   1.905
  279SOL     OW 1735   5.833   3.224   4.421
  279SOL    HW1 1736   5.908   3.232   4.356
  279SOL    HW2 1737   5.815   3.128   4.439
  280SOL     OW 1738   3.009   6.298   3.273
  280SOL    HW1 1739   3.109   6.295   3.274
  280SOL    HW2 1740   2.973   6.206   3.254
  281SOL     OW 1741   2.373   4.292   1.515
  281SOL    HW1 1742   2.388   4.279   1.417
  281SOL    HW2 1743   2.298   4.234   1.545
  282SOL     OW 1744   3.185   1.201   5.960
  282SOL    HW1 1745   3.085   1.208   5.965
  282SOL    HW2 1746   3.221   1.276   5.905
  283SOL     OW 1747   5.809   2.236   6.348
  283SOL    HW1 1748   5.762   2.320   6.322
  283SOL    HW2 1749   5.839   2.243   6.443
  284SOL     OW 1750   1.148   3.922   3.739
  284SOL    HW1 1751   1.109   3.851   3.680
  284SOL    HW2 1752   1.104   3.919   3.829
  285SOL     OW 1753   5.851   4.865   4.460
  285SOL    HW1 1754   5.783   4.795   4.441
  285SOL    HW2 1755   5.917   4.869   4.385
  286SOL     OW 1756   3.502   5.206   6.513
  286SOL    HW1 1757   3.413   5.192   6.469
  286SOL    HW2 1758   3.501   5.166   6.604
  287SOL     OW 1759   0.723   3.776   1.351
  287SOL    HW1 1760   0.721   3.676   1.353
  287SOL    HW2 1761   0.757   3.807   1.263
  288SOL     OW 1762   3.287   1.509   6.969
  288SOL    HW1 1763   3.280   1.608   6.963
  288SOL    HW2 1764   3.383   1.482   6.968
  289SOL     OW 1765   1.660   4.509   5.725
  289SOL    HW1 1766   1.628   4.415   5.738
  289SOL    HW2 1767   1.602   4.572   5.775
  290SOL     OW 1768   6.166   2.111   4.644
  290SOL    HW1 1769   6.180   2.182   4.712
  290SOL    HW2 1770   6.165   2.021   4.688
  291SOL     OW 1771   1.254   2.352   4.624
  291SOL    HW1 1772   1.248   2.363   4.723
  291SOL    HW2 1773   1.343   2.386   4.592
  292SOL     OW 1774   1.827   2.319   3.170
  292SOL    HW1 1775   1.797   2.278   3.084
  292SOL    HW2 1776   1.914   2.279   3.198
  293SOL     OW 1777   4.152   6.297   2.677
  293SOL    HW1 1778   4.250   6.309   2.692
  293SOL    HW2 1779   4.130   6.319   2.582
  294SOL     OW 1780   0.772   6.188   6.586
  294SOL    HW1 1781   0.679   6.202   6.551
  294SOL    HW2 1782   0.769   6.135   6.670
  295SOL     OW 1783   3.769   1.184   3.647
  295SOL    HW1 1784   3.733   1.269   3.608
  295SOL    HW2 1785   3.862   1.168   3.614
  296SOL     OW 1786   3.569   2.160   2.941
  296SOL    HW1 1787   3.479   2.168   2.984
  296SOL    HW2 1788   3.559   2.169   2.842
  297SOL     OW 1789   2.720   4.799   3.633
  297SOL    HW1 1790   2.746   4.892   3.607
  297SOL    HW2 1791   2.801   4.739   3.627
  298SOL     OW 1792   3.319   5.587   1.667
  298SOL    HW1 1793   3.260   5.655   1.710
  298SOL    HW2 1794   3.406   5.630   1.642
  299SOL     OW 1795   5.537   3.213   6.210
  299SOL    HW1 1796   5.461   3.272   6.182
  299SOL    HW2 1797   5.588   3.184   6.129
  300SOL     OW 1798   6.320   0.612   2.682
  300SOL    HW1 1799   6.245   0.576   2.626
  300SOL    HW2 1800   6.332   0.709   2.661
  301SOL     OW 1801   4.835   3.283   1.267
  301SOL    HW1 1802   4.853   3.361   1.206
  301SOL    HW2 1803   4.896   3.207   1.244
  302SOL     OW 1804   1.208   0.306   3.569
  302SOL    HW1 1805   1.236   0.322   3.475
  302SOL    HW2 1806   1.256   0.370   3.629
  303SOL     OW 1807   5.730   0.789   1.917
  303SOL    HW1 1808   5.721   0.877   1.963
  303SOL    HW2 1809   5.715   0.801   1.819
  304SOL     OW 1810   2.406   0.279   3.336
  304SOL    HW1 1811   2.445   0.249   3.422
  304SOL    HW2 1812   2.328   0.339   3.353
  305SOL     OW 1813   0.263   3.480   0.319
  305SOL    HW1 1814   0.312   3.401   0.355
  305SOL    HW2 1815   0.169   3.453   0.297
  306SOL     OW 1816   1.549   0.648   3.712
  306SOL    HW1 1817   1.558   0.746   3.695
  306SOL    HW2 1818   1.638   0.611   3.738
  307SOL     OW 1819   4.492   6.656   0.784
  307SOL    HW1 1820   4.470   6.739   0.836
  307SOL    HW2 1821   4.418   6.636   0.720
  308SOL     OW 1822   6.280   4.247   4.882
  308SOL    HW1 1823   6.269   4.188   4.802
  308SOL    HW2 1824   6.240   4.203   4.962
  309SOL     OW 1825   4.264   3.899   6.105
  309SOL    HW1 1826   4.361   3.924   6.104
  309SOL    HW2 1827   4.215   3.952   6.035
  310SOL     OW 1828   6.768   6.745   5.987
  310SOL    HW1 1829   6.697   6.674   5.989
  310SOL    HW2 1830   6.800   6.757   5.894
  311SOL     OW 1831   6.690   5.217   1.817
  311SOL    HW1 1832   6.780   5.198   1.777
  311SOL    HW2 1833   6.666   5.144   1.881
  312SOL     OW 1834   4.438   2.246   5.854
  312SOL    HW1 1835   4.358   2.208   5.807
  312SOL    HW2 1836   4.471   2.182   5.923
  313SOL     OW 1837   2.892   4.393   1.650
  313SOL    HW1 1838   2.878   4.428   1.743
  313SOL    HW2 1839   2.871   4.465   1.584
  314SOL     OW 1840   2.884   5.716   6.879
  314SOL    HW1 1841   2.913   5.727   6.974
  314SOL    HW2 1842   2.855   5.622   6.864
  315SOL     OW 1843   1.077   2.707   3.540
  315SOL    HW1 1844   1.093   2.688   3.637
  315SOL    HW2 1845   1.074   2.806   3.526
  316SOL     OW 1846   2.269   2.478   4.197
  316SOL    HW1 1847   2.263   2.450   4.102
  316SOL    HW2 1848   2.362   2.508   4.218
  317SOL     OW 1849   0.885   0.843   1.165
  317SOL    HW1 1850   0.819   0.917   1.153
  317SOL    HW2 1851   0.849   0.777   1.232
  318SOL     OW 1852   1.032   5.857   0.406
  318SOL    HW1 1853   1.002   5.892   0.318
  318SOL    HW2 1854   1.065   5.763   0.394
  319SOL     OW 1855   0.136   0.556   2.649
  319SOL    HW1 1856   0.100   0.535   2.740
  319SOL    HW2 1857   0.076   0.517   2.579
  320SOL     OW 1858   5.296   2.525   6.580
  320SOL    HW1 1859   5.249   2.488   6.660
  320SOL    HW2 1860   5.347   2.607   6.606
  321SOL     OW 1861   2.903   1.163   2.304
  321SOL    HW1 1862   2.866   1.151   2.396
  321SOL    HW2 1863   2.991   1.210   2.310
  322SOL     OW 1864   3.248   3.312   4.524
  322SOL    HW1 1865   3.208   3.391   4.478
  322SOL    HW2 1866   3.176   3.261   4.571
  323SOL     OW 1867   0.454   4.008   6.952
  323SOL    HW1 1868   0.454   3.949   6.871
  323SOL    HW2 1869   0.407   3.962   0.005
  324SOL     OW 1870   2.054   2.857   3.806
  324SOL    HW1 1871   2.100   2.834   3.892
  324SOL    HW2 1872   2.122   2.889   3.739
  325SOL     OW 1873   1.895   2.952   1.634
  325SOL    HW1 1874   1.958   2.874   1.629
  325SOL    HW2 1875   1.929   3.026   1.575
  326SOL     OW 1876   2.114   5.485   6.858
  326SOL    HW1 1877   2.163   5.403   6.827
  326SOL    HW2 1878   2.180   5.558   6.876
  327SOL     OW 1879   1.292   5.418   3.756
  327SOL    HW1 1880   1.299   5.319   3.762
  327SOL    HW2 1881   1.211   5.449   3.805
  328SOL     OW 1882   3.148   4.883   2.594
  328SOL    HW1 1883   3.133   4.867   2.497
  328SOL    HW2 1884   3.246   4.881   2.615
  329SOL     OW 1885   3.381   4.048   3.977
  329SOL    HW1 1886   3.355   3.952   3.978
  329SOL    HW2 1887   3.443   4.065   3.901
  330SOL     OW 1888   3.450   5.821   2.174
  330SOL    HW1 1889   3.469   5.765   2.093
  330SOL    HW2 1890   3.413   5.909   2.146
  331SOL     OW 1891   4.591   5.189   6.653
  331SOL    HW1 1892   4.682   5.228   6.668
  331SOL    HW2 1893   4.595   5.119   6.582
  332SOL     OW 1894   3.706   2.047   4.348
  332SOL    HW1 1895   3.779   2.103   4.389
  332SOL    HW2 1896   3.737   1.953   4.340
  333SOL     OW 1897   3.670   6.997   6.834
  333SOL    HW1 1898   3.655   0.069   6.801
  333SOL    HW2 1899   3.752   6.995   6.891
  334SOL     OW 1900   2.846   6.759   1.195
  334SOL    HW1 1901   2.796   6.692   1.141
  334SOL    HW2 1902   2.848   6.730   1.291
  335SOL     OW 1903   3.323   6.945   3.883
  335SOL    HW1 1904   3.223   6.944   3.889
  335SOL    HW2 1905   3.359   7.007   3.952
  336SOL     OW 1906   2.290   0.460   3.708
  336SOL    HW1 1907   2.385   0.471   3.736
  336SOL    HW2 1908   2.269   0.524   3.634
  337SOL     OW 1909   0.112   3.583   0.718
  337SOL    HW1 1910   0.154   3.623   0.636
  337SOL    HW2 1911   0.075   3.493   0.696
  338SOL     OW 1912   2.645   2.597   0.932
  338SOL    HW1 1913   2.593   2.549   0.862
  338SOL    HW2 1914   2.674   2.533   1.002
  339SOL     OW 1915   3.844   6.732   3.995
  339SOL    HW1 1916   3.836   6.761   3.900
  339SOL    HW2 1917   3.859   6.633   3.999
  340SOL     OW 1918   5.392   4.118   5.004
  340SOL    HW1 1919   5.458   4.087   5.072
  340SOL    HW2 1920   5.434   4.187   4.946
  341SOL     OW 1921   6.544   6.997   3.992
  341SOL    HW1 1922   6.608   0.048   3.969
  341SOL    HW2 1923   6.453   7.020   3.957
  342SOL     OW 1924   5.912   4.098   6.814
  342SOL    HW1 1925   5.819   4.068   6.832
  342SOL    HW2 1926   5.930   4.182   6.866
  343SOL     OW 1927   2.270   5.672   0.883
  343SOL    HW1 1928   2.358   5.628   0.904
  343SOL    HW2 1929   2.249   5.659   0.786
  344SOL     OW 1930   1.942   5.602   1.517
  344SOL    HW1 1931   2.000   5.523   1.536
  344SOL    HW2 1932   1.979   5.683   1.563
  345SOL     OW 1933   6.683   0.888   5.833
  345SOL    HW1 1934   6.716   0.848   5.748
  345SOL    HW2 1935   6.721   0.838   5.911
  346SOL     OW 1936   2.321   0.217   1.687
  346SOL    HW1 1937   2.275   0.143   1.736
  346SOL    HW2 1938   2.396   0.253   1.743
  347SOL     OW 1939   4.850   0.041   6.444
  347SOL    HW1 1940   4.893   0.039   6.354
  347SOL    HW2 1941   4.874   6.980   6.495
  348SOL     OW 1942   4.771   5.078   1.506
  348SOL    HW1 1943   4.699   5.009   1.519
  348SOL    HW2 1944   4.798   5.080   1.409
  349SOL     OW 1945   6.883   4.520   2.117
  349SOL    HW1 1946   6.827   4.557   2.043
  349SOL    HW2 1947   6.861   4.568   2.202
  350SOL     OW 1948   3.642   3.608   1.726
  350SOL    HW1 1949   3.579   3.583   1.800
  350SOL    HW2 1950   3.589   3.641   1.647
  351SOL     OW 1951   2.365   2.631   0.699
  351SOL    HW1 1952   2.318   2.634   0.610
  351SOL    HW2 1953   2.327   2.557   0.754
  352SOL     OW 1954   3.628   6.776   4.887
  352SOL    HW1 1955   3.632   6.783   4.787
  352SOL    HW2 1956   3.685   6.701   4.918
  353SOL     OW 1957   3.026   0.053   0.834
  353SOL    HW1 1958   3.021   0.011   0.743
  353SOL    HW2 1959   2.951   0.118   0.844
  354SOL     OW 1960   4.205   2.486   0.319
  354SOL    HW1 1961   4.166   2.562   0.267
  354SOL    HW2 1962   4.292   2.515   0.361
  355SOL     OW 1963   6.493   2.845   2.926
  355SOL    HW1 1964   6.507   2.747   2.942
  355SOL    HW2 1965   6.552   2.875   2.851
  356SOL     OW 1966   4.358   5.423   4.397
  356SOL    HW1 1967   4.296   5.351   4.368
  356SOL    HW2 1968   4.408   5.394   4.479
  357SOL     OW 1969   6.855   6.887   5.324
  357SOL    HW1 1970   6.872   6.918   5.418
  357SOL    HW2 1971   6.759   6.859   5.315
  358SOL     OW 1972   6.244   0.310   1.387
  358SOL    HW1 1973   6.177   0.236   1.384
  358SOL    HW2 1974   6.196   0.398   1.391
  359SOL     OW 1975   1.597   2.389   2.319
  359SOL    HW1 1976   1.574   2.419   2.411
  359SOL    HW2 1977   1.683   2.338   2.321
  360SOL     OW 1978   2.500   6.230   6.477
  360SOL    HW1 1979   2.593   6.209   6.508
  360SOL    HW2 1980   2.501   6.244   6.378
  361SOL     OW 1981   5.390   5.559   2.779
  361SOL    HW1 1982   5.453   5.486   2.756
  361SOL    HW2 1983   5.409   5.591   2.872
  362SOL     OW 1984   3.544   3.499   0.735
  362SOL    HW1 1985   3.533   3.598   0.726
  362SOL    HW2 1986   3.469   3.462   0.791
  363SOL     OW 1987   3.511   4.963   3.603
  363SOL    HW1 1988   3.464   4.948   3.690
  363SOL    HW2 1989   3.597   4.912   3.602
  364SOL     OW 1990   0.693   5.534   5.361
  364SOL    HW1 1991   0.645   5.477   5.295
  364SOL    HW2 1992   0.727   5.478   5.437
  365SOL     OW 1993   4.719   6.366   2.669
  365SOL    HW1 1994   4.701   6.268   2.668
  365SOL    HW2 1995   4.776   6.389   2.747
  366SOL     OW 1996   5.477   0.715   0.273
  366SOL    HW1 1997   5.536   0.669   0.339
  366SOL    HW2 1998   5.507   0.810   0.262
  367SOL     OW 1999   5.239   2.719   0.836
  367SOL    HW1 2000   5.251   2.767   0.749
  367SOL    HW2 2001   5.211   2.625   0.818
  368SOL     OW 2002   1.016   3.997   5.322
  368SOL    HW1 2003   1.060   4.065   5.263
  368SOL    HW2 2004   1.086   3.937   5.361
  369SOL     OW 2005   6.415   4.326   1.833
  369SOL    HW1 2006   6.508   4.356   1.857
  369SOL    HW2 2007   6.358   4.326   1.915
  370SOL     OW 2008   2.936   1.539   5.318
  370SOL    HW1 2009   2.861   1.474   5.324
  370SOL    HW2 2010   2.962   1.551   5.223
  371SOL     OW 2011   2.204   3.941   6.547
  371SOL    HW1 2012   2.138   3.869   6.529
  371SOL    HW2 2013   2.225   3.989   6.461
  372SOL     OW 2014   7.004   0.531   5.133
  372SOL    HW1 2015   0.041   0.456   5.164
  372SOL    HW2 2016   6.967   0.578   5.213
  373SOL     OW 2017   0.119   6.618   5.619
  373SOL    HW1 2018   0.147   6.531   5.661
  373SOL    HW2 2019   0.182   6.690   5.648
  374SOL     OW 2020   4.482   6.882   2.450
  374SOL    HW1 2021   4.510   6.862   2.356
  374SOL    HW2 2022   4.559   6.920   2.501
  375SOL     OW 2023   7.018   4.614   3.562
  375SOL    HW1 2024   7.000   4.523   3.600
  375SOL    HW2 2025   6.957   4.631   3.485
  376SOL     OW 2026   1.828   3.622   3.613
  376SOL    HW1 2027   1.807   3.595   3.518
  376SOL    HW2 2028   1.912   3.577   3.642
  377SOL     OW 2029   6.250   3.065   2.403
  377SOL    HW1 2030   6.309   3.023   2.471
  377SOL    HW2 2031   6.166   3.096   2.447
  378SOL     OW 2032   3.746   2.831   5.579
  378SOL    HW1 2033   3.762   2.917   5.531
  378SOL    HW2 2034   3.651   2.828   5.609
  379SOL     OW 2035   5.760   3.769   1.410
  379SOL    HW1 2036   5.803   3.692   1.363
  379SOL    HW2 2037   5.661   3.765   1.397
  380SOL     OW 2038   2.396   1.712   1.798
  380SOL    HW1 2039   2.347   1.663   1.725
  380SOL    HW2 2040   2.489   1.676   1.806
  381SOL     OW 2041   1.690   4.764   1.424
  381SOL    HW1 2042   1.631   4.754   1.505
  381SOL    HW2 2043   1.689   4.679   1.372
  382SOL     OW 2044   3.977   5.884   6.795
  382SOL    HW1 2045   4.071   5.850   6.795
  382SOL    HW2 2046   3.939   5.876   6.887
  383SOL     OW 2047   6.399   2.957   6.081
  383SOL    HW1 2048   6.321   2.895   6.092
  383SOL    HW2 2049   6.476   2.907   6.043
  384SOL     OW 2050   1.088   3.837   4.863
  384SOL    HW1 2051   1.085   3.808   4.958
  384SOL    HW2 2052   1.161   3.787   4.815
  385SOL     OW 2053   5.108   6.434   0.275
  385SOL    HW1 2054   5.014   6.465   0.290
  385SOL    HW2 2055   5.146   6.477   0.193
  386SOL     OW 2056   4.090   6.825   5.068
  386SOL    HW1 2057   4.068   6.811   4.971
  386SOL    HW2 2058   4.162   6.893   5.076
  387SOL     OW 2059   0.411   6.714   4.033
  387SOL    HW1 2060   0.384   6.712   3.936
  387SOL    HW2 2061   0.344   6.768   4.084
  388SOL     OW 2062   0.194   1.941   4.960
  388SOL    HW1 2063   0.190   1.843   4.978
  388SOL    HW2 2064   0.281   1.978   4.993
  389SOL     OW 2065   4.247   4.044   1.688
  389SOL    HW1 2066   4.250   3.944   1.701
  389SOL    HW2 2067   4.302   4.088   1.759
  390SOL     OW 2068   3.649   1.277   0.387
  390SOL    HW1 2069   3.609   1.291   0.477
  390SOL    HW2 2070   3.576   1.269   0.319
  391SOL     OW 2071   2.851   4.114   5.385
  391SOL    HW1 2072   2.915   4.072   5.321
  391SOL    HW2 2073   2.802   4.042   5.434
  392SOL     OW 2074   1.378   3.226   2.245
  392SOL    HW1 2075   1.463   3.249   2.292
  392SOL    HW2 2076   1.317   3.305   2.245
  393SOL     OW 2077   1.312   4.547   0.696
  393SOL    HW1 2078   1.389   4.602   0.727
  393SOL    HW2 2079   1.253   4.525   0.774
  394SOL     OW 2080   0.251   3.163   0.180
  394SOL    HW1 2081   0.261   3.220   0.098
  394SOL    HW2 2082   0.341   3.139   0.215
  395SOL     OW 2083   5.543   4.016   2.088
  395SOL    HW1 2084   5.553   4.002   2.187
  395SOL    HW2 2085   5.628   4.052   2.050
  396SOL     OW 2086   2.609   2.082   2.466
  396SOL    HW1 2087   2.693   2.119   2.427
  396SOL    HW2 2088   2.541   2.070   2.394
  397SOL     OW 2089   4.758   1.358   5.733
  397SOL    HW1 2090   4.752   1.406   5.820
  397SOL    HW2 2091   4.854   1.347   5.707
  398SOL     OW 2092   1.258   6.363   4.473
  398SOL    HW1 2093   1.330   6.382   4.406
  398SOL    HW2 2094   1.171   6.355   4.425
  399SOL     OW 2095   6.204   6.195   4.185
  399SOL    HW1 2096   6.107   6.172   4.172
  399SOL    HW2 2097   6.212   6.272   4.248
  400SOL     OW 2098   6.657   0.056   4.873
  400SOL    HW1 2099   6.741   0.015   4.838
  400SOL    HW2 2100   6.601   7.007   4.915
  401SOL     OW 2101   6.363   0.985   6.322
  401SOL    HW1 2102   6.431   0.954   6.256
  401SOL    HW2 2103   6.394   0.963   6.414
  402SOL     OW 2104   6.280   0.583   2.250
  402SOL    HW1 2105   6.329   0.670   2.243
  402SOL    HW2 2106   6.319   0.517   2.185
  403SOL     OW 2107   3.111   0.223   5.774
  403SOL    HW1 2108   3.094   0.142   5.830
  403SOL    HW2 2109   3.205   0.255   5.788
  404SOL     OW 2110   3.731   6.135   5.486
  404SOL    HW1 2111   3.770   6.218   5.525
  404SOL    HW2 2112   3.758   6.057   5.542
  405SOL     OW 2113   1.568   4.170   3.243
  405SOL    HW1 2114   1.600   4.125   3.160
  405SOL    HW2 2115   1.505   4.110   3.292
  406SOL     OW 2116   1.001   4.737   5.263
  406SOL    HW1 2117   0.967   4.746   5.356
  406SOL    HW2 2118   1.004   4.640   5.238
  407SOL     OW 2119   1.984   3.297   3.844
  407SOL    HW1 2120   1.917   3.288   3.918
  407SOL    HW2 2121   1.953   3.245   3.764
  408SOL     OW 2122   3.875   2.111   2.732
  408SOL    HW1 2123   3.860   2.053   2.651
  408SOL    HW2 2124   3.887   2.206   2.703
  409SOL     OW 2125   0.328   3.578   1.885
  409SOL    HW1 2126   0.256   3.580   1.955
  409SOL    HW2 2127   0.289   3.604   1.797
  410SOL     OW 2128   1.585   2.357   1.261
  410SOL    HW1 2129   1.493   2.322   1.242
  410SOL    HW2 2130   1.631   2.377   1.175
  411SOL     OW 2131   0.297   1.882   1.648
  411SOL    HW1 2132   0.296   1.782   1.659
  411SOL    HW2 2133   0.381   1.919   1.687
  412SOL     OW 2134   2.660   4.628   2.956
  412SOL    HW1 2135   2.679   4.615   2.859
  412SOL    HW2 2136   2.729   4.688   2.997
  413SOL     OW 2137   3.402   4.922   2.461
  413SOL    HW1 2138   3.392   5.021   2.473
  413SOL    HW2 2139   3.337   4.890   2.392
  414SOL     OW 2140   3.316   0.150   4.101
  414SOL    HW1 2141   3.396   0.145   4.041
  414SOL    HW2 2142   3.251   0.218   4.065
  415SOL     OW 2143   6.862   1.580   0.332
  415SOL    HW1 2144   6.767   1.599   0.307
  415SOL    HW2 2145   6.891   1.645   0.403
  416SOL     OW 2146   5.420   3.740   4.926
  416SOL    HW1 2147   5.324   3.740   4.898
  416SOL    HW2 2148   5.478   3.764   4.848
  417SOL     OW 2149   2.309   1.275   6.788
  417SOL    HW1 2150   2.255   1.358   6.777
  417SOL    HW2 2151   2.330   1.236   6.698
  418SOL     OW 2152   3.296   6.658   4.600
  418SOL    HW1 2153   3.272   6.754   4.609
  418SOL    HW2 2154   3.339   6.642   4.511
  419SOL     OW 2155   6.838   6.846   1.766
  419SOL    HW1 2156   6.840   6.768   1.703
  419SOL    HW2 2157   6.834   6.931   1.714
  420SOL     OW 2158   5.294   0.793   6.635
  420SOL    HW1 2159   5.216   0.738   6.663
  420SOL    HW2 2160   5.370   0.777   6.698
  421SOL     OW 2161   4.936   4.315   4.892
  421SOL    HW1 2162   4.837   4.312   4.905
  421SOL    HW2 2163   4.966   4.410   4.885
  422SOL     OW 2164   4.906   2.011   1.116
  422SOL    HW1 2165   4.852   2.095   1.103
  422SOL    HW2 2166   4.885   1.971   1.205
  423SOL     OW 2167   3.051   0.889   6.545
  423SOL    HW1 2168   3.077   0.870   6.640
  423SOL    HW2 2169   3.026   0.985   6.535
  424SOL     OW 2170   1.513   5.167   2.783
  424SOL    HW1 2171   1.582   5.187   2.713
  424SOL    HW2 2172   1.472   5.078   2.765
  425SOL     OW 2173   4.584   1.076   5.033
  425SOL    HW1 2174   4.505   1.069   4.973
  425SOL    HW2 2175   4.639   1.155   5.006
  426SOL     OW 2176   2.448   2.446   4.808
  426SOL    HW1 2177   2.447   2.541   4.778
  426SOL    HW2 2178   2.380   2.393   4.757
  427SOL     OW 2179   4.545   1.526   3.660
  427SOL    HW1 2180   4.580   1.448   3.713
  427SOL    HW2 2181   4.614   1.553   3.593
  428SOL     OW 2182   2.685   0.793   4.842
  428SOL    HW1 2183   2.695   0.892   4.834
  428SOL    HW2 2184   2.730   0.762   4.926
  429SOL     OW 2185   0.775   6.069   4.025
  429SOL    HW1 2186   0.783   6.084   4.124
  429SOL    HW2 2187   0.849   6.009   3.995
  430SOL     OW 2188   1.618   6.993   3.840
  430SOL    HW1 2189   1.654   6.900   3.845
  430SOL    HW2 2190   1.674   0.033   3.896
  431SOL     OW 2191   3.129   1.956   1.184
  431SOL    HW1 2192   3.226   1.957   1.210
  431SOL    HW2 2193   3.122   1.963   1.084
  432SOL     OW 2194   5.187   2.049   1.132
  432SOL    HW1 2195   5.087   2.040   1.131
  432SOL    HW2 2196   5.214   2.120   1.067
  433SOL     OW 2197   3.385   6.377   6.452
  433SOL    HW1 2198   3.479   6.375   6.487
  433SOL    HW2 2199   3.369   6.464   6.405
  434SOL     OW 2200   3.578   6.236   3.782
  434SOL    HW1 2201   3.481   6.214   3.772
  434SOL    HW2 2202   3.591   6.334   3.772
  435SOL     OW 2203   3.425   1.775   5.780
  435SOL    HW1 2204   3.512   1.746   5.819
  435SOL    HW2 2205   3.440   1.849   5.714
  436SOL     OW 2206   3.528   5.884   3.462
  436SOL    HW1 2207   3.484   5.795   3.469
  436SOL    HW2 2208   3.514   5.936   3.546
  437SOL     OW 2209   0.019   1.249   4.543
  437SOL    HW1 2210   7.012   1.197   4.463
  437SOL    HW2 2211   0.118   1.262   4.540
  438SOL     OW 2212   0.852   5.047   3.580
  438SOL    HW1 2213   0.902   5.126   3.544
  438SOL    HW2 2214   0.874   4.966   3.527
  439SOL     OW 2215   5.953   0.563   2.626
  439SOL    HW1 2216   5.939   0.661   2.643
  439SOL    HW2 2217   6.026   0.551   2.560
  440SOL     OW 2218   3.722   0.824   0.133
  440SOL    HW1 2219   3.714   0.795   0.037
  440SOL    HW2 2220   3.656   0.897   0.151
  441SOL     OW 2221   6.344   4.333   2.900
  441SOL    HW1 2222   6.358   4.314   2.998
  441SOL    HW2 2223   6.431   4.327   2.852
  442SOL     OW 2224   4.824   4.151   5.908
  442SOL    HW1 2225   4.870   4.066   5.882
  442SOL    HW2 2226   4.892   4.223   5.918
  443SOL     OW 2227   4.620   4.336   3.003
  443SOL    HW1 2228   4.637   4.251   3.053
  443SOL    HW2 2229   4.604   4.316   2.907
  444SOL     OW 2230   3.921   0.908   0.688
  444SOL    HW1 2231   3.924   0.834   0.621
  444SOL    HW2 2232   3.998   0.899   0.751
  445SOL     OW 2233   2.476   5.838   2.919
  445SOL    HW1 2234   2.549   5.889   2.874
  445SOL    HW2 2235   2.407   5.812   2.851
  446SOL     OW 2236   5.410   5.653   3.020
  446SOL    HW1 2237   5.447   5.630   3.110
  446SOL    HW2 2238   5.358   5.738   3.026
  447SOL     OW 2239   5.770   4.241   6.222
  447SOL    HW1 2240   5.687   4.273   6.267
  447SOL    HW2 2241   5.749   4.217   6.127
  448SOL     OW 2242   3.195   1.548   2.600
  448SOL    HW1 2243   3.137   1.629   2.610
  448SOL    HW2 2244   3.231   1.522   2.689
  449SOL     OW 2245   1.874   2.647   3.760
  449SOL    HW1 2246   1.827   2.636   3.673
  449SOL    HW2 2247   1.925   2.733   3.760
  450SOL     OW 2248   0.595   4.816   3.043
  450SOL    HW1 2249   0.633   4.725   3.025
  450SOL    HW2 2250   0.647   4.884   2.990
  451SOL     OW 2251   0.205   2.273   3.800
  451SOL    HW1 2252   0.168   2.202   3.739
  451SOL    HW2 2253   0.285   2.314   3.758
  452SOL     OW 2254   3.791   6.344   2.992
  452SOL    HW1 2255   3.856   6.419   3.002
  452SOL    HW2 2256   3.699   6.377   3.012
  453SOL     OW 2257   4.147   0.091   0.021
  453SOL    HW1 2258   4.214   0.150   6.998
  453SOL    HW2 2259   4.191   0.007   0.052
  454SOL     OW 2260   6.774   4.465   5.733
  454SOL    HW1 2261   6.708   4.430   5.799
  454SOL    HW2 2262   6.798   4.393   5.668
  455SOL     OW 2263   6.942   4.065   6.217
  455SOL    HW1 2264   6.945   4.141   6.153
  455SOL    HW2 2265   6.991   3.986   6.178
  456SOL     OW 2266   1.987   0.933   3.092
  456SOL    HW1 2267   1.922   0.876   3.042
  456SOL    HW2 2268   1.996   0.899   3.185
  457SOL     OW 2269   1.688   5.996   6.117
  457SOL    HW1 2270   1.700   5.900   6.142
  457SOL    HW2 2271   1.642   6.002   6.029
  458SOL     OW 2272   2.518   1.568   3.760
  458SOL    HW1 2273   2.615   1.547   3.751
  458SOL    HW2 2274   2.465   1.506   3.701
  459SOL     OW 2275   1.995   0.257   5.291
  459SOL    HW1 2276   2.026   0.263   5.386
  459SOL    HW2 2277   2.070   0.228   5.233
  460SOL     OW 2278   1.115   1.706   5.092
  460SOL    HW1 2279   1.180   1.761   5.040
  460SOL    HW2 2280   1.152   1.614   5.106
  461SOL     OW 2281   0.174   4.542   5.249
  461SOL    HW1 2282   0.123   4.535   5.334
  461SOL    HW2 2283   0.163   4.634   5.210
  462SOL     OW 2284   3.561   3.698   4.129
  462SOL    HW1 2285   3.529   3.756   4.054
  462SOL    HW2 2286   3.491   3.696   4.201
  463SOL     OW 2287   6.157   6.922   2.788
  463SOL    HW1 2288   6.247   6.962   2.807
  463SOL    HW2 2289   6.090   6.995   2.777
  464SOL     OW 2290   3.335   6.167   5.864
  464SOL    HW1 2291   3.419   6.125   5.831
  464SOL    HW2 2292   3.260   6.100   5.860
  465SOL     OW 2293   1.302   2.179   0.708
  465SOL    HW1 2294   1.327   2.170   0.612
  465SOL    HW2 2295   1.213   2.135   0.724
  466SOL     OW 2296   3.283   6.218   5.234
  466SOL    HW1 2297   3.318   6.291   5.176
  466SOL    HW2 2298   3.358   6.182   5.290
  467SOL     OW 2299   0.120   1.930   2.508
  467SOL    HW1 2300   0.142   1.875   2.428
  467SOL    HW2 2301   0.097   2.023   2.479
  468SOL     OW 2302   4.097   0.694   6.441
  468SOL    HW1 2303   4.195   0.712   6.449
  468SOL    HW2 2304   4.079   0.598   6.460
  469SOL     OW 2305   2.769   4.718   6.086
  469SOL    HW1 2306   2.752   4.622   6.110
  469SOL    HW2 2307   2.712   4.743   6.008
  470SOL     OW 2308   2.427   5.273   3.292
  470SOL    HW1 2309   2.510   5.299   3.340
  470SOL    HW2 2310   2.406   5.342   3.222
  471SOL     OW 2311   2.827   2.227   3.987
  471SOL    HW1 2312   2.736   2.205   4.022
  471SOL    HW2 2313   2.826   2.225   3.887
  472SOL     OW 2314   6.135   4.357   6.193
  472SOL    HW1 2315   6.170   4.333   6.284
  472SOL    HW2 2316   6.040   4.387   6.201
  473SOL     OW 2317   6.732   2.489   2.801
  473SOL    HW1 2318   6.759   2.426   2.873
  473SOL    HW2 2319   6.634   2.481   2.784
  474SOL     OW 2320   6.449   6.061   4.842
  474SOL    HW1 2321   6.389   5.998   4.791
  474SOL    HW2 2322   6.458   6.028   4.936
  475SOL     OW 2323   5.647   2.020   0.392
  475SOL    HW1 2324   5.710   1.987   0.322
  475SOL    HW2 2325   5.554   1.988   0.371
  476SOL     OW 2326   0.966   4.166   2.076
  476SOL    HW1 2327   0.963   4.072   2.041
  476SOL    HW2 2328   1.017   4.167   2.162
  477SOL     OW 2329   2.774   6.182   3.769
  477SOL    HW1 2330   2.674   6.188   3.770
  477SOL    HW2 2331   2.803   6.100   3.819
  478SOL     OW 2332   4.390   5.824   2.684
  478SOL    HW1 2333   4.476   5.858   2.722
  478SOL    HW2 2334   4.321   5.820   2.757
  479SOL     OW 2335   4.157   3.491   3.757
  479SOL    HW1 2336   4.150   3.399   3.796
  479SOL    HW2 2337   4.252   3.522   3.764
  480SOL     OW 2338   1.471   6.871   2.656
  480SOL    HW1 2339   1.504   6.831   2.741
  480SOL    HW2 2340   1.549   6.895   2.598
  481SOL     OW 2341   0.479   6.262   0.429
  481SOL    HW1 2342   0.552   6.313   0.474
  481SOL    HW2 2343   0.466   6.297   0.336
  482SOL     OW 2344   5.243   4.514   2.369
  482SOL    HW1 2345   5.206   4.425   2.341
  482SOL    HW2 2346   5.343   4.510   2.371
  483SOL     OW 2347   5.483   2.159   3.205
  483SOL    HW1 2348   5.451   2.064   3.203
  483SOL    HW2 2349   5.564   2.166   3.263
  484SOL     OW 2350   2.386   4.456   4.630
  484SOL    HW1 2351   2.384   4.416   4.722
  484SOL    HW2 2352   2.433   4.545   4.633
  485SOL     OW 2353   5.696   3.496   2.944
  485SOL    HW1 2354   5.680   3.415   2.888
  485SOL    HW2 2355   5.661   3.480   3.036
  486SOL     OW 2356   6.062   6.595   6.014
  486SOL    HW1 2357   6.077   6.567   6.109
  486SOL    HW2 2358   6.130   6.665   5.990
  487SOL     OW 2359   0.240   6.517   4.102
  487SOL    HW1 2360   0.151   6.563   4.104
  487SOL    HW2 2361   0.313   6.584   4.089
  488SOL     OW 2362   1.998   6.521   3.661
  488SOL    HW1 2363   2.051   6.442   3.630
  488SOL    HW2 2364   2.014   6.598   3.600
  489SOL     OW 2365   6.837   6.024   4.974
  489SOL    HW1 2366   6.785   5.953   5.020
  489SOL    HW2 2367   6.786   6.110   4.976
  490SOL     OW 2368   1.381   5.152   5.844
  490SOL    HW1 2369   1.473   5.151   5.884
  490SOL    HW2 2370   1.317   5.193   5.909
  491SOL     OW 2371   0.152   2.957   0.712
  491SOL    HW1 2372   0.184   2.888   0.777
  491SOL    HW2 2373   0.137   2.915   0.623
  492SOL     OW 2374   1.142   1.623   5.723
  492SOL    HW1 2375   1.122   1.632   5.625
  492SOL    HW2 2376   1.240   1.611   5.736
  493SOL     OW 2377   2.595   6.228   4.964
  493SOL    HW1 2378   2.549   6.139   4.957
  493SOL    HW2 2379   2.684   6.223   4.919
  494SOL     OW 2380   2.271   0.654   5.531
  494SOL    HW1 2381   2.262   0.609   5.442
  494SOL    HW2 2382   2.224   0.742   5.528
  495SOL     OW 2383   4.068   6.270   5.399
  495SOL    HW1 2384   4.115   6.205   5.339
  495SOL    HW2 2385   4.045   6.353   5.348
  496SOL     OW 2386   5.911   2.146   2.599
  496SOL    HW1 2387   5.963   2.225   2.630
  496SOL    HW2 2388   5.958   2.062   2.628
  497SOL     OW 2389   3.352   1.127   6.649
  497SOL    HW1 2390   3.398   1.069   6.716
  497SOL    HW2 2391   3.345   1.078   6.562
  498SOL     OW 2392   0.544   5.439   2.261
  498SOL    HW1 2393   0.446   5.434   2.240
  498SOL    HW2 2394   0.576   5.533   2.249
  499SOL     OW 2395   3.473   5.023   6.729
  499SOL    HW1 2396   3.537   4.976   6.669
  499SOL    HW2 2397   3.404   4.959   6.762
  500SOL     OW 2398   6.048   2.432   6.752
  500SOL    HW1 2399   6.095   2.431   6.839
  500SOL    HW2 2400   5.999   2.519   6.741
  501SOL     OW 2401   1.236   6.976   2.826
  501SOL    HW1 2402   1.152   6.999   2.778
  501SOL    HW2 2403   1.290   6.912   2.772
  502SOL     OW 2404   2.208   4.417   6.643
  502SOL    HW1 2405   2.168   4.326   6.649
  502SOL    HW2 2406   2.307   4.410   6.627
  503SOL     OW 2407   3.708   4.870   6.611
  503SOL    HW1 2408   3.759   4.882   6.526
  503SOL    HW2 2409   3.758   4.808   6.671
  504SOL     OW 2410   6.432   5.997   2.017
  504SOL    HW1 2411   6.357   6.062   2.034
  504SOL    HW2 2412   6.480   6.023   1.933
  505SOL     OW 2413   4.984   6.649   5.058
  505SOL    HW1 2414   4.930   6.618   5.136
  505SOL    HW2 2415   4.979   6.749   5.051
  506SOL     OW 2416   3.039   5.729   3.266
  506SOL    HW1 2417   3.110   5.767   3.206
  506SOL    HW2 2418   2.965   5.691   3.211
  507SOL     OW 2419   4.121   0.887   1.832
  507SOL    HW1 2420   4.207   0.904   1.880
  507SOL    HW2 2421   4.045   0.905   1.895
  508SOL     OW 2422   0.149   4.492   4.682
  508SOL    HW1 2423   0.088   4.568   4.704
  508SOL    HW2 2424   0.120   4.410   4.732
  509SOL     OW 2425   4.567   0.906   6.587
  509SOL    HW1 2426   4.662   0.930   6.569
  509SOL    HW2 2427   4.517   0.901   6.501
  510SOL     OW 2428   6.237   4.596   6.121
  510SOL    HW1 2429   6.331   4.595   6.087
  510SOL    HW2 2430   6.214   4.506   6.159
  511SOL     OW 2431   1.596   1.381   0.165
  511SOL    HW1 2432   1.680   1.426   0.197
  511SOL    HW2 2433   1.609   1.281   0.168
  512SOL     OW 2434   5.574   2.657   0.266
  512SOL    HW1 2435   5.550   2.730   0.330
  512SOL    HW2 2436   5.492   2.625   0.219
  513SOL     OW 2437   5.692   0.737   2.765
  513SOL    HW1 2438   5.754   0.815   2.753
  513SOL    HW2 2439   5.606   0.770   2.803
  514SOL     OW 2440   7.019   0.016   4.209
  514SOL    HW1 2441   0.051   7.019   4.127
  514SOL    HW2 2442   0.050   7.013   4.290
  515SOL     OW 2443   3.092   0.536   6.741
  515SOL    HW1 2444   3.005   0.550   6.694
  515SOL    HW2 2445   3.118   0.440   6.735
  516SOL     OW 2446   2.730   4.675   1.289
  516SOL    HW1 2447   2.708   4.579   1.271
  516SOL    HW2 2448   2.693   4.732   1.215
  517SOL     OW 2449   2.801   5.025   2.563
  517SOL    HW1 2450   2.856   5.072   2.495
  517SOL    HW2 2451   2.829   4.930   2.569
  518SOL     OW 2452   2.137   3.328   3.522
  518SOL    HW1 2453   2.145   3.419   3.562
  518SOL    HW2 2454   2.076   3.272   3.579
  519SOL     OW 2455   6.626   6.472   3.535
  519SOL    HW1 2456   6.552   6.521   3.580
  519SOL    HW2 2457   6.651   6.391   3.588
  520SOL     OW 2458   1.074   3.328   0.189
  520SOL    HW1 2459   1.169   3.319   0.220
  520SOL    HW2 2460   1.053   3.254   0.125
  521SOL     OW 2461   4.974   4.967   4.578
  521SOL    HW1 2462   5.011   5.018   4.655
  521SOL    HW2 2463   4.991   4.870   4.591
  522SOL     OW 2464   4.548   3.430   0.999
  522SOL    HW1 2465   4.478   3.359   1.011
  522SOL    HW2 2466   4.504   3.518   0.982
  523SOL     OW 2467   0.094   6.282   1.717
  523SOL    HW1 2468   0.169   6.224   1.686
  523SOL    HW2 2469   0.129   6.374   1.736
  524SOL     OW 2470   0.580   2.561   1.986
  524SOL    HW1 2471   0.642   2.519   2.053
  524SOL    HW2 2472   0.547   2.649   2.022
  525SOL     OW 2473   0.967   3.720   0.102
  525SOL    HW1 2474   0.908   3.776   0.160
  525SOL    HW2 2475   1.005   3.776   0.029
  526SOL     OW 2476   3.700   6.830   4.578
  526SOL    HW1 2477   3.706   6.930   4.575
  526SOL    HW2 2478   3.788   6.791   4.548
  527SOL     OW 2479   1.213   1.918   0.119
  527SOL    HW1 2480   1.180   1.914   0.214
  527SOL    HW2 2481   1.179   2.001   0.075
  528SOL     OW 2482   0.189   3.961   3.888
  528SOL    HW1 2483   0.251   4.021   3.939
  528SOL    HW2 2484   0.151   3.893   3.950
  529SOL     OW 2485   2.613   6.759   5.527
  529SOL    HW1 2486   2.645   6.756   5.432
  529SOL    HW2 2487   2.563   6.675   5.548
  530SOL     OW 2488   3.788   3.337   1.616
  530SOL    HW1 2489   3.721   3.396   1.662
  530SOL    HW2 2490   3.761   3.241   1.627
  531SOL     OW 2491   2.615   0.741   2.355
  531SOL    HW1 2492   2.524   0.703   2.342
  531SOL    HW2 2493   2.653   0.769   2.266
  532SOL     OW 2494   2.277   3.319   6.990
  532SOL    HW1 2495   2.235   3.240   0.012
  532SOL    HW2 2496   2.372   3.328   0.000
  533SOL     OW 2497   4.404   0.091   3.460
  533SOL    HW1 2498   4.491   0.042   3.461
  533SOL    HW2 2499   4.375   0.111   3.553
  534SOL     OW 2500   1.020   5.563   1.007
  534SOL    HW1 2501   1.071   5.560   0.921
  534SOL    HW2 2502   1.073   5.516   1.078
  535SOL     OW 2503   5.710   3.790   3.148
  535SOL    HW1 2504   5.793   3.746   3.112
  535SOL    HW2 2505   5.646   3.807   3.074
  536SOL     OW 2506   6.786   6.068   3.038
  536SOL    HW1 2507   6.813   5.975   3.063
  536SOL    HW2 2508   6.703   6.094   3.088
  537SOL     OW 2509   3.499   6.839   4.343
  537SOL    HW1 2510   3.576   6.839   4.407
  537SOL    HW2 2511   3.534   6.831   4.249
  538SOL     OW 2512   2.509   4.772   5.631
  538SOL    HW1 2513   2.512   4.710   5.709
  538SOL    HW2 2514   2.449   4.734   5.560
  539SOL     OW 2515   1.370   5.724   0.864
  539SOL    HW1 2516   1.400   5.640   0.909
  539SOL    HW2 2517   1.297   5.703   0.799
  540SOL     OW 2518   1.968   1.041   4.152
  540SOL    HW1 2519   1.870   1.036   4.132
  540SOL    HW2 2520   2.001   0.951   4.180
  541SOL     OW 2521   4.466   6.086   4.123
  541SOL    HW1 2522   4.495   6.122   4.211
  541SOL    HW2 2523   4.411   6.154   4.075
  542SOL     OW 2524   3.603   5.830   6.593
  542SOL    HW1 2525   3.546   5.911   6.594
  542SOL    HW2 2526   3.642   5.817   6.501
  543SOL     OW 2527   5.836   3.557   4.116
  543SOL    HW1 2528   5.775   3.619   4.066
  543SOL    HW2 2529   5.823   3.464   4.083
  544SOL     OW 2530   0.182   4.835   0.003
  544SOL    HW1 2531   0.238   4.780   0.064
  544SOL    HW2 2532   0.168   4.926   0.044
  545SOL     OW 2533   5.285   1.465   1.178
  545SOL    HW1 2534   5.200   1.460   1.127
  545SOL    HW2 2535   5.361   1.479   1.115
  546SOL     OW 2536   0.559   4.670   2.136
  546SOL    HW1 2537   0.534   4.682   2.232
  546SOL    HW2 2538   0.501   4.600   2.094
  547SOL     OW 2539   3.318   1.989   0.617
  547SOL    HW1 2540   3.394   2.042   0.655
  547SOL    HW2 2541   3.318   1.897   0.657
  548SOL     OW 2542   3.487   3.120   0.546
  548SOL    HW1 2543   3.498   3.180   0.467
  548SOL    HW2 2544   3.525   3.165   0.628
  549SOL     OW 2545   5.737   2.552   0.564
  549SOL    HW1 2546   5.647   2.575   0.600
  549SOL    HW2 2547   5.727   2.498   0.481
  550SOL     OW 2548   6.850   4.387   3.003
  550SOL    HW1 2549   6.935   4.423   3.040
  550SOL    HW2 2550   6.776   4.454   3.018
  551SOL     OW 2551   0.185   0.968   0.653
  551SOL    HW1 2552   0.178   1.055   0.605
  551SOL    HW2 2553   0.281   0.951   0.676
  552SOL     OW 2554   5.384   5.339   5.265
  552SOL    HW1 2555   5.470   5.362   5.219
  552SOL    HW2 2556   5.401   5.327   5.363
  553SOL     OW 2557   3.093   0.781   4.668
  553SOL    HW1 2558   3.159   0.796   4.741
  553SOL    HW2 2559   3.137   0.734   4.592
  554SOL     OW 2560   5.826   5.672   0.244
  554SOL    HW1 2561   5.778   5.737   0.184
  554SOL    HW2 2562   5.761   5.636   0.311
  555SOL     OW 2563   3.378   5.652   5.583
  555SOL    HW1 2564   3.410   5.746   5.596
  555SOL    HW2 2565   3.282   5.653   5.557
  556SOL     OW 2566   5.215   2.195   4.249
  556SOL    HW1 2567   5.255   2.158   4.333
  556SOL    HW2 2568   5.120   2.220   4.266
  557SOL     OW 2569   7.003   4.586   5.834
  557SOL    HW1 2570   7.002   4.502   5.888
  557SOL    HW2 2571   6.920   4.590   5.778
  558SOL     OW 2572   4.166   3.455   2.917
  558SOL    HW1 2573   4.185   3.544   2.958
  558SOL    HW2 2574   4.140   3.467   2.821
  559SOL     OW 2575   6.195   6.074   5.106
  559SOL    HW1 2576   6.158   6.016   5.033
  559SOL    HW2 2577   6.119   6.109   5.161
  560SOL     OW 2578   6.552   3.393   4.109
  560SOL    HW1 2579   6.626   3.326   4.111
  560SOL    HW2 2580   6.590   3.484   4.094
  561SOL     OW 2581   6.857   3.568   6.728
  561SOL    HW1 2582   6.800   3.542   6.650
  561SOL    HW2 2583   6.811   3.545   6.813
  562SOL     OW 2584   4.975   6.710   5.557
  562SOL    HW1 2585   4.953   6.700   5.461
  562SOL    HW2 2586   5.035   6.790   5.570
  563SOL     OW 2587   1.577   1.640   3.992
  563SOL    HW1 2588   1.493   1.677   4.031
  563SOL    HW2 2589   1.629   1.713   3.947
  564SOL     OW 2590   0.215   1.238   6.458
  564SOL    HW1 2591   0.314   1.238   6.476
  564SOL    HW2 2592   0.191   1.158   6.403
  565SOL     OW 2593   3.252   2.949   3.854
  565SOL    HW1 2594   3.281   2.960   3.759
  565SOL    HW2 2595   3.251   2.851   3.877
  566SOL     OW 2596   2.732   5.235   2.707
  566SOL    HW1 2597   2.744   5.152   2.652
  566SOL    HW2 2598   2.665   5.294   2.664
  567SOL     OW 2599   2.593   2.864   0.678
  567SOL    HW1 2600   2.683   2.854   0.719
  567SOL    HW2 2601   2.526   2.813   0.731
  568SOL     OW 2602   5.563   6.890   0.458
  568SOL    HW1 2603   5.563   6.988   0.441
  568SOL    HW2 2604   5.597   6.872   0.551
  569SOL     OW 2605   0.661   2.569   0.222
  569SOL    HW1 2606   0.636   2.640   0.287
  569SOL    HW2 2607   0.757   2.578   0.197
  570SOL     OW 2608   2.753   0.413   6.099
  570SOL    HW1 2609   2.828   0.348   6.112
  570SOL    HW2 2610   2.723   0.411   6.004
  571SOL     OW 2611   2.395   5.039   3.733
  571SOL    HW1 2612   2.306   5.014   3.698
  571SOL    HW2 2613   2.453   4.957   3.741
  572SOL     OW 2614   1.844   5.675   5.040
  572SOL    HW1 2615   1.898   5.650   5.121
  572SOL    HW2 2616   1.747   5.660   5.060
  573SOL     OW 2617   6.398   1.861   5.759
  573SOL    HW1 2618   6.394   1.773   5.710
  573SOL    HW2 2619   6.491   1.876   5.793
  574SOL     OW 2620   3.405   1.084   5.159
  574SOL    HW1 2621   3.400   1.121   5.066
  574SOL    HW2 2622   3.463   1.003   5.160
  575SOL     OW 2623   4.075   2.741   0.952
  575SOL    HW1 2624   4.016   2.678   1.003
  575SOL    HW2 2625   4.019   2.808   0.904
  576SOL     OW 2626   1.959   2.827   2.686
  576SOL    HW1 2627   2.052   2.843   2.720
  576SOL    HW2 2628   1.957   2.743   2.633
  577SOL     OW 2629   0.764   0.404   2.136
  577SOL    HW1 2630   0.850   0.400   2.187
  577SOL    HW2 2631   0.731   0.498   2.135
  578SOL     OW 2632   1.184   5.625   0.413
  578SOL    HW1 2633   1.265   5.672   0.378
  578SOL    HW2 2634   1.211   5.558   0.481
  579SOL     OW 2635   2.323   4.745   2.360
  579SOL    HW1 2636   2.388   4.806   2.314
  579SOL    HW2 2637   2.346   4.739   2.457
  580SOL     OW 2638   4.303   5.070   5.025
  580SOL    HW1 2639   4.289   5.160   5.067
  580SOL    HW2 2640   4.306   5.079   4.926
  581SOL     OW 2641   0.663   3.116   3.811
  581SOL    HW1 2642   0.652   3.019   3.787
  581SOL    HW2 2643   0.742   3.153   3.764
  582SOL     OW 2644   4.873   5.847   3.511
  582SOL    HW1 2645   4.810   5.772   3.531
  582SOL    HW2 2646   4.849   5.889   3.423
  583SOL     OW 2647   2.674   5.513   5.534
  583SOL    HW1 2648   2.642   5.478   5.622
  583SOL    HW2 2649   2.694   5.610   5.542
  584SOL     OW 2650   3.183   0.075   6.582
  584SOL    HW1 2651   3.134   0.086   6.495
  584SOL    HW2 2652   3.195   6.999   6.600
  585SOL     OW 2653   3.905   6.756   1.413
  585SOL    HW1 2654   3.936   6.731   1.505
  585SOL    HW2 2655   3.975   6.733   1.346
  586SOL     OW 2656   3.955   0.190   1.124
  586SOL    HW1 2657   3.982   0.104   1.168
  586SOL    HW2 2658   4.022   0.213   1.052
  587SOL     OW 2659   5.492   2.114   1.697
  587SOL    HW1 2660   5.411   2.083   1.649
  587SOL    HW2 2661   5.555   2.038   1.709
  588SOL     OW 2662   1.618   5.121   0.853
  588SOL    HW1 2663   1.682   5.062   0.804
  588SOL    HW2 2664   1.538   5.067   0.882
  589SOL     OW 2665   3.273   5.623   1.359
  589SOL    HW1 2666   3.274   5.606   1.457
  589SOL    HW2 2667   3.367   5.629   1.325
  590SOL     OW 2668   5.709   1.325   0.628
  590SOL    HW1 2669   5.694   1.229   0.604
  590SOL    HW2 2670   5.797   1.355   0.592
  591SOL     OW 2671   4.465   5.934   3.770
  591SOL    HW1 2672   4.384   5.969   3.724
  591SOL    HW2 2673   4.450   5.932   3.868
  592SOL     OW 2674   5.102   1.031   3.692
  592SOL    HW1 2675   5.130   0.935   3.686
  592SOL    HW2 2676   5.144   1.082   3.618
  593SOL     OW 2677   4.106   2.047   4.739
  593SOL    HW1 2678   4.127   1.950   4.751
  593SOL    HW2 2679   4.186   2.102   4.764
  594SOL     OW 2680   6.074   1.871   1.047
  594SOL    HW1 2681   6.087   1.807   1.123
  594SOL    HW2 2682   5.979   1.900   1.044
  595SOL     OW 2683   5.385   6.631   3.221
  595SOL    HW1 2684   5.370   6.629   3.320
  595SOL    HW2 2685   5.413   6.723   3.193
  596SOL     OW 2686   0.156   4.815   3.418
  596SOL    HW1 2687   0.105   4.762   3.486
  596SOL    HW2 2688   0.174   4.907   3.455
  597SOL     OW 2689   3.525   7.012   6.101
  597SOL    HW1 2690   3.563   0.065   6.047
  597SOL    HW2 2691   3.426   0.003   6.112
  598SOL     OW 2692   3.027   3.997   4.874
  598SOL    HW1 2693   3.117   4.024   4.840
  598SOL    HW2 2694   3.021   4.015   4.972
  599SOL     OW 2695   1.890   6.505   1.795
  599SOL    HW1 2696   1.926   6.438   1.731
  599SOL    HW2 2697   1.804   6.471   1.834
  600SOL     OW 2698   0.207   3.520   5.722
  600SOL    HW1 2699   0.213   3.601   5.663
  600SOL    HW2 2700   0.232   3.546   5.815
  601SOL     OW 2701   2.064   0.912   5.411
  601SOL    HW1 2702   2.018   0.956   5.488
  601SOL    HW2 2703   2.000   0.850   5.365
  602SOL     OW 2704   3.083   0.088   5.555
  602SOL    HW1 2705   2.996   0.040   5.567
  602SOL    HW2 2706   3.095   0.154   5.630
  603SOL     OW 2707   1.937   1.269   6.102
  603SOL    HW1 2708   2.014   1.301   6.048
  603SOL    HW2 2709   1.878   1.347   6.125
  604SOL     OW 2710   0.292   2.252   1.693
  604SOL    HW1 2711   0.291   2.160   1.731
  604SOL    HW2 2712   0.385   2.276   1.664
  605SOL     OW 2713   0.039   4.887   2.213
  605SOL    HW1 2714   0.092   4.888   2.128
  605SOL    HW2 2715   6.965   4.868   2.192
  606SOL     OW 2716   4.831   6.602   5.285
  606SOL    HW1 2717   4.808   6.507   5.265
  606SOL    HW2 2718   4.747   6.656   5.290
  607SOL     OW 2719   0.819   5.078   5.597
  607SOL    HW1 2720   0.775   5.166   5.582
  607SOL    HW2 2721   0.784   5.011   5.531
  608SOL     OW 2722   3.931   0.181   6.459
  608SOL    HW1 2723   3.910   0.142   6.369
  608SOL    HW2 2724   3.922   0.109   6.529
  609SOL     OW 2725   3.851   2.426   1.653
  609SOL    HW1 2726   3.853   2.523   1.630
  609SOL    HW2 2727   3.801   2.413   1.738
  610SOL     OW 2728   4.458   1.981   0.311
  610SOL    HW1 2729   4.486   2.075   0.292
  610SOL    HW2 2730   4.362   1.980   0.337
  611SOL     OW 2731   4.170   6.785   2.709
  611SOL    HW1 2732   4.096   6.850   2.724
  611SOL    HW2 2733   4.158   6.741   2.620
  612SOL     OW 2734   2.717   4.580   5.606
  612SOL    HW1 2735   2.637   4.619   5.562
  612SOL    HW2 2736   2.765   4.520   5.542
  613SOL     OW 2737   5.554   4.934   4.995
  613SOL    HW1 2738   5.527   4.890   4.909
  613SOL    HW2 2739   5.508   5.022   5.004
  614SOL     OW 2740   5.046   5.146   5.291
  614SOL    HW1 2741   4.961   5.109   5.329
  614SOL    HW2 2742   5.087   5.209   5.357
  615SOL     OW 2743   6.994   4.350   0.477
  615SOL    HW1 2744   0.002   4.345   0.572
  615SOL    HW2 2745   0.010   4.432   0.435
  616SOL     OW 2746   6.320   3.222   3.486
  616SOL    HW1 2747   6.366   3.215   3.398
  616SOL    HW2 2748   6.261   3.303   3.487
  617SOL     OW 2749   1.348   5.104   6.501
  617SOL    HW1 2750   1.280   5.074   6.433
  617SOL    HW2 2751   1.357   5.204   6.496
  618SOL     OW 2752   1.691   2.222   1.714
  618SOL    HW1 2753   1.593   2.240   1.701
  618SOL    HW2 2754   1.735   2.216   1.624
  619SOL     OW 2755   1.739   2.111   0.900
  619SOL    HW1 2756   1.759   2.083   0.806
  619SOL    HW2 2757   1.641   2.132   0.908
  620SOL     OW 2758   4.544   1.735   0.426
  620SOL    HW1 2759   4.484   1.749   0.505
  620SOL    HW2 2760   4.526   1.805   0.357
  621SOL     OW 2761   6.081   5.308   6.404
  621SOL    HW1 2762   6.156   5.371   6.423
  621SOL    HW2 2763   6.118   5.218   6.381
  622SOL     OW 2764   1.812   0.926   0.318
  622SOL    HW1 2765   1.853   0.862   0.253
  622SOL    HW2 2766   1.876   1.001   0.335
  623SOL     OW 2767   0.638   5.780   5.659
  623SOL    HW1 2768   0.726   5.740   5.633
  623SOL    HW2 2769   0.614   5.753   5.752
  624SOL     OW 2770   0.494   2.721   2.260
  624SOL    HW1 2771   0.480   2.820   2.260
  624SOL    HW2 2772   0.419   2.677   2.309
  625SOL     OW 2773   3.203   1.517   1.359
  625SOL    HW1 2774   3.199   1.524   1.458
  625SOL    HW2 2775   3.286   1.562   1.325
  626SOL     OW 2776   1.907   6.009   3.506
  626SOL    HW1 2777   2.000   5.973   3.507
  626SOL    HW2 2778   1.856   5.966   3.432
  627SOL     OW 2779   5.392   0.375   0.471
  627SOL    HW1 2780   5.417   0.295   0.526
  627SOL    HW2 2781   5.317   0.424   0.516
  628SOL     OW 2782   4.796   4.764   4.834
  628SOL    HW1 2783   4.765   4.857   4.815
  628SOL    HW2 2784   4.870   4.767   4.902
  629SOL     OW 2785   0.566   6.883   1.402
  629SOL    HW1 2786   0.528   6.975   1.394
  629SOL    HW2 2787   0.509   6.827   1.462
  630SOL     OW 2788   4.973   2.331   1.996
  630SOL    HW1 2789   4.879   2.301   1.979
  630SOL    HW2 2790   5.030   2.251   2.014
  631SOL     OW 2791   3.244   0.608   5.107
  631SOL    HW1 2792   3.186   0.548   5.052
  631SOL    HW2 2793   3.250   0.572   5.200
  632SOL     OW 2794   2.448   1.006   0.416
  632SOL    HW1 2795   2.499   1.071   0.472
  632SOL    HW2 2796   2.512   0.954   0.359
  633SOL     OW 2797   3.292   5.275   0.507
  633SOL    HW1 2798   3.252   5.349   0.454
  633SOL    HW2 2799   3.232   5.250   0.582
  634SOL     OW 2800   4.318   4.745   1.701
  634SOL    HW1 2801   4.303   4.734   1.602
  634SOL    HW2 2802   4.253   4.688   1.751
  635SOL     OW 2803   4.373   6.656   3.384
  635SOL    HW1 2804   4.315   6.736   3.368
  635SOL    HW2 2805   4.374   6.599   3.303
  636SOL     OW 2806   5.056   5.425   6.336
  636SOL    HW1 2807   5.062   5.443   6.238
  636SOL    HW2 2808   5.063   5.512   6.386
  637SOL     OW 2809   5.310   4.890   2.065
  637SOL    HW1 2810   5.213   4.878   2.085
  637SOL    HW2 2811   5.335   4.833   1.987
  638SOL     OW 2812   5.154   1.314   2.174
  638SOL    HW1 2813   5.106   1.285   2.257
  638SOL    HW2 2814   5.118   1.262   2.096
  639SOL     OW 2815   4.681   5.047   2.243
  639SOL    HW1 2816   4.744   5.084   2.175
  639SOL    HW2 2817   4.733   4.996   2.312
  640SOL     OW 2818   2.727   4.387   5.831
  640SOL    HW1 2819   2.680   4.318   5.777
  640SOL    HW2 2820   2.705   4.478   5.796
  641SOL     OW 2821   0.600   5.371   4.289
  641SOL    HW1 2822   0.625   5.276   4.267
  641SOL    HW2 2823   0.532   5.370   4.362
  642SOL     OW 2824   0.459   4.793   4.345
  642SOL    HW1 2825   0.533   4.836   4.396
  642SOL    HW2 2826   0.479   4.696   4.333
  643SOL     OW 2827   6.064   5.772   4.673
  643SOL    HW1 2828   5.980   5.719   4.664
  643SOL    HW2 2829   6.102   5.790   4.583
  644SOL     OW 2830   0.825   6.223   2.842
  644SOL    HW1 2831   0.863   6.244   2.752
  644SOL    HW2 2832   0.896   6.234   2.911
  645SOL     OW 2833   4.588   2.569   4.366
  645SOL    HW1 2834   4.629   2.646   4.317
  645SOL    HW2 2835   4.566   2.597   4.459
  646SOL     OW 2836   1.905   1.877   3.347
  646SOL    HW1 2837   1.875   1.805   3.284
  646SOL    HW2 2838   1.970   1.839   3.413
  647SOL     OW 2839   6.126   2.770   6.629
  647SOL    HW1 2840   6.071   2.821   6.564
  647SOL    HW2 2841   6.158   2.831   6.702
  648SOL     OW 2842   5.902   3.658   3.017
  648SOL    HW1 2843   5.998   3.651   2.991
  648SOL    HW2 2844   5.856   3.572   2.996
  649SOL     OW 2845   4.268   4.177   0.477
  649SOL    HW1 2846   4.215   4.126   0.545
  649SOL    HW2 2847   4.226   4.266   0.463
  650SOL     OW 2848   4.720   4.535   0.654
  650SOL    HW1 2849   4.797   4.484   0.617
  650SOL    HW2 2850   4.734   4.633   0.640
  651SOL     OW 2851   0.397   6.108   0.802
  651SOL    HW1 2852   0.305   6.145   0.809
  651SOL    HW2 2853   0.439   6.107   0.893
  652SOL     OW 2854   4.922   6.769   3.374
  652SOL    HW1 2855   4.891   6.694   3.431
  652SOL    HW2 2856   4.979   6.733   3.299
  653SOL     OW 2857   3.264   5.351   5.238
  653SOL    HW1 2858   3.232   5.444   5.257
  653SOL    HW2 2859   3.353   5.337   5.280
  654SOL     OW 2860   6.986   5.048   5.762
  654SOL    HW1 2861   6.981   5.048   5.662
  654SOL    HW2 2862   6.961   5.139   5.796
  655SOL     OW 2863   0.754   6.924   1.991
  655SOL    HW1 2864   0.765   6.942   2.088
  655SOL    HW2 2865   0.786   6.831   1.970
  656SOL     OW 2866   1.811   6.023   2.079
  656SOL    HW1 2867   1.896   5.993   2.123
  656SOL    HW2 2868   1.806   6.123   2.083
  657SOL     OW 2869   2.085   1.981   1.699
  657SOL    HW1 2870   2.113   1.924   1.621
  657SOL    HW2 2871   1.987   1.969   1.716
  658SOL     OW 2872   3.373   3.473   0.030
  658SOL    HW1 2873   3.398   3.554   0.083
  658SOL    HW2 2874   3.295   3.428   0.073
  659SOL     OW 2875   3.152   6.530   6.320
  659SOL    HW1 2876   3.090   6.587   6.266
  659SOL    HW2 2877   3.102   6.488   6.396
  660SOL     OW 2878   3.995   5.898   1.791
  660SOL    HW1 2879   3.931   5.863   1.723
  660SOL    HW2 2880   3.988   5.843   1.875
  661SOL     OW 2881   4.263   6.252   3.596
  661SOL    HW1 2882   4.180   6.265   3.650
  661SOL    HW2 2883   4.254   6.301   3.509
  662SOL     OW 2884   3.421   0.796   5.310
  662SOL    HW1 2885   3.482   0.787   5.389
  662SOL    HW2 2886   3.339   0.741   5.325
  663SOL     OW 2887   1.819   3.800   4.974
  663SOL    HW1 2888   1.893   3.811   4.908
  663SOL    HW2 2889   1.733   3.781   4.927
  664SOL     OW 2890   0.158   6.556   5.937
  664SOL    HW1 2891   0.164   6.478   5.875
  664SOL    HW2 2892   0.170   6.641   5.885
  665SOL     OW 2893   3.789   5.255   3.274
  665SOL    HW1 2894   3.735   5.284   3.194
  665SOL    HW2 2895   3.742   5.285   3.358
  666SOL     OW 2896   4.276   0.427   1.684
  666SOL    HW1 2897   4.360   0.478   1.703
  666SOL    HW2 2898   4.277   0.340   1.733
  667SOL     OW 2899   0.725   5.212   1.794
  667SOL    HW1 2900   0.696   5.223   1.889
  667SOL    HW2 2901   0.646   5.193   1.736
  668SOL     OW 2902   5.339   5.635   6.227
  668SOL    HW1 2903   5.352   5.696   6.306
  668SOL    HW2 2904   5.343   5.540   6.258
  669SOL     OW 2905   5.858   0.991   2.739
  669SOL    HW1 2906   5.873   1.018   2.834
  669SOL    HW2 2907   5.792   1.053   2.696
  670SOL     OW 2908   2.423   1.646   2.337
  670SOL    HW1 2909   2.465   1.725   2.294
  670SOL    HW2 2910   2.405   1.576   2.268
  671SOL     OW 2911   3.574   5.813   1.471
  671SOL    HW1 2912   3.484   5.843   1.504
  671SOL    HW2 2913   3.584   5.838   1.375
  672SOL     OW 2914   6.829   5.145   2.083
  672SOL    HW1 2915   6.817   5.244   2.071
  672SOL    HW2 2916   6.857   5.127   2.178
  673SOL     OW 2917   5.507   0.026   1.249
  673SOL    HW1 2918   5.516   0.125   1.234
  673SOL    HW2 2919   5.590   7.002   1.217
  674SOL     OW 2920   0.690   2.045   4.818
  674SOL    HW1 2921   0.720   2.062   4.911
  674SOL    HW2 2922   0.761   1.993   4.769
  675SOL     OW 2923   6.015   2.646   2.433
  675SOL    HW1 2924   6.081   2.721   2.435
  675SOL    HW2 2925   5.996   2.616   2.526
  676SOL     OW 2926   2.534   4.717   4.613
  676SOL    HW1 2927   2.619   4.766   4.591
  676SOL    HW2 2928   2.460   4.782   4.624
  677SOL     OW 2929   5.218   1.144   1.343
  677SOL    HW1 2930   5.153   1.220   1.345
  677SOL    HW2 2931   5.222   1.102   1.433
  678SOL     OW 2932   2.513   4.546   4.936
  678SOL    HW1 2933   2.599   4.515   4.896
  678SOL    HW2 2934   2.522   4.641   4.965
  679SOL     OW 2935   5.246   1.826   4.973
  679SOL    HW1 2936   5.255   1.740   5.022
  679SOL    HW2 2937   5.276   1.901   5.032
  680SOL     OW 2938   4.998   6.251   4.519
  680SOL    HW1 2939   4.920   6.238   4.580
  680SOL    HW2 2940   5.039   6.340   4.536
  681SOL     OW 2941   4.525   5.869   2.182
  681SOL    HW1 2942   4.469   5.905   2.257
  681SOL    HW2 2943   4.564   5.781   2.209
  682SOL     OW 2944   6.734   1.577   1.610
  682SOL    HW1 2945   6.754   1.573   1.708
  682SOL    HW2 2946   6.666   1.508   1.586
  683SOL     OW 2947   4.716   2.997   1.014
  683SOL    HW1 2948   4.660   3.065   1.061
  683SOL    HW2 2949   4.812   3.026   1.019
  684SOL     OW 2950   6.132   0.639   6.795
  684SOL    HW1 2951   6.167   0.578   6.725
  684SOL    HW2 2952   6.057   0.694   6.758
  685SOL     OW 2953   3.027   1.849   3.936
  685SOL    HW1 2954   3.120   1.814   3.949
  685SOL    HW2 2955   3.014   1.928   3.997
  686SOL     OW 2956   4.353   1.093   4.074
  686SOL    HW1 2957   4.274   1.154   4.063
  686SOL    HW2 2958   4.426   1.142   4.120
  687SOL     OW 2959   0.855   1.855   4.494
  687SOL    HW1 2960   0.834   1.868   4.397
  687SOL    HW2 2961   0.817   1.768   4.526
  688SOL     OW 2962   0.015   1.049   5.656
  688SOL    HW1 2963   6.977   1.076   5.580
  688SOL    HW2 2964   0.004   0.951   5.674
  689SOL     OW 2965   2.100   4.246   6.234
  689SOL    HW1 2966   2.160   4.312   6.280
  689SOL    HW2 2967   2.130   4.153   6.256
  690SOL     OW 2968   0.006   4.021   3.392
  690SOL    HW1 2969   0.072   4.017   3.317
  690SOL    HW2 2970   6.982   4.109   3.392
  691SOL     OW 2971   3.595   1.616   0.655
  691SOL    HW1 2972   3.550   1.530   0.628
  691SOL    HW2 2973   3.665   1.597   0.723
  692SOL     OW 2974   3.537   1.591   5.444
  692SOL    HW1 2975   3.541   1.537   5.529
  692SOL    HW2 2976   3.452   1.644   5.443
  693SOL     OW 2977   4.975   6.236   3.876
  693SOL    HW1 2978   4.961   6.177   3.956
  693SOL    HW2 2979   4.887   6.258   3.835
  694SOL     OW 2980   4.418   5.841   4.048
  694SOL    HW1 2981   4.425   5.938   4.072
  694SOL    HW2 2982   4.422   5.787   4.132
  695SOL     OW 2983   3.327   5.672   4.890
  695SOL    HW1 2984   3.352   5.686   4.794
  695SOL    HW2 2985   3.302   5.576   4.904
  696SOL     OW 2986   4.832   3.944   3.349
  696SOL    HW1 2987   4.839   3.848   3.325
  696SOL    HW2 2988   4.903   3.996   3.301
  697SOL     OW 2989   1.199   3.038   2.456
  697SOL    HW1 2990   1.132   3.049   2.382
  697SOL    HW2 2991   1.289   3.067   2.423
  698SOL     OW 2992   5.044   6.487   1.272
  698SOL    HW1 2993   5.055   6.430   1.191
  698SOL    HW2 2994   5.134   6.510   1.309
  699SOL     OW 2995   2.157   3.097   6.492
  699SOL    HW1 2996   2.224   3.118   6.563
  699SOL    HW2 2997   2.112   3.182   6.463
  700SOL     OW 2998   3.092   0.194   2.112
  700SOL    HW1 2999   3.002   0.166   2.077
  700SOL    HW2 3000   3.125   0.273   2.060
  701SOL     OW 3001   6.790   4.630   0.968
  701SOL    HW1 3002   6.733   4.656   1.046
  701SOL    HW2 3003   6.745   4.558   0.916
  702SOL     OW 3004   2.229   0.184   4.587
  702SOL    HW1 3005   2.211   0.261   4.525
  702SOL    HW2 3006   2.323   0.153   4.575
  703SOL     OW 3007   2.992   3.388   5.498
  703SOL    HW1 3008   3.091   3.379   5.487
  703SOL    HW2 3009   2.946   3.357   5.414
  704SOL     OW 3010   2.220   2.669   6.018
  704SOL    HW1 3011   2.313   2.651   5.983
  704SOL    HW2 3012   2.212   2.635   6.111
  705SOL     OW 3013   6.757   5.882   3.355
  705SOL    HW1 3014   6.802   5.862   3.442
  705SOL    HW2 3015   6.827   5.888   3.283
  706SOL     OW 3016   4.247   1.708   5.210
  706SOL    HW1 3017   4.287   1.626   5.168
  706SOL    HW2 3018   4.161   1.730   5.163
  707SOL     OW 3019   3.977   5.554   3.144
  707SOL    HW1 3020   3.886   5.571   3.183
  707SOL    HW2 3021   4.010   5.465   3.174
  708SOL     OW 3022   2.635   1.888   3.851
  708SOL    HW1 3023   2.708   1.905   3.784
  708SOL    HW2 3024   2.593   1.799   3.832
  709SOL     OW 3025   1.235   6.701   1.575
  709SOL    HW1 3026   1.231   6.610   1.614
  709SOL    HW2 3027   1.328   6.718   1.541
  710SOL     OW 3028   5.030   2.596   1.914
  710SOL    HW1 3029   5.017   2.500   1.941
  710SOL    HW2 3030   4.943   2.644   1.918
  711SOL     OW 3031   6.843   3.004   6.490
  711SOL    HW1 3032   6.916   2.955   6.536
  711SOL    HW2 3033   6.800   2.944   6.422
  712SOL     OW 3034   4.806   2.371   0.921
  712SOL    HW1 3035   4.831   2.408   1.010
  712SOL    HW2 3036   4.748   2.290   0.932
  713SOL     OW 3037   4.339   2.713   5.345
  713SOL    HW1 3038   4.291   2.799   5.363
  713SOL    HW2 3039   4.287   2.660   5.278
  714SOL     OW 3040   5.790   5.391   4.035
  714SOL    HW1 3041   5.787   5.421   4.131
  714SOL    HW2 3042   5.844   5.456   3.982
  715SOL     OW 3043   6.733   5.338   5.459
  715SOL    HW1 3044   6.741   5.239   5.471
  715SOL    HW2 3045   6.813   5.383   5.499
  716SOL     OW 3046   2.015   0.981   3.443
  716SOL    HW1 3047   2.031   0.893   3.399
  716SOL    HW2 3048   2.087   1.045   3.418
  717SOL     OW 3049   6.296   4.593   4.023
  717SOL    HW1 3050   6.394   4.580   4.008
  717SOL    HW2 3051   6.281   4.682   4.066
  718SOL     OW 3052   4.836   3.027   4.903
  718SOL    HW1 3053   4.805   3.088   4.977
  718SOL    HW2 3054   4.892   2.954   4.942
  719SOL     OW 3055   5.770   0.518   2.310
  719SOL    HW1 3056   5.858   0.472   2.318
  719SOL    HW2 3057   5.740   0.549   2.400
  720SOL     OW 3058   2.615   0.374   5.854
  720SOL    HW1 3059   2.697   0.350   5.802
  720SOL    HW2 3060   2.548   0.417   5.794
  721SOL     OW 3061   0.855   1.563   1.950
  721SOL    HW1 3062   0.862   1.494   1.878
  721SOL    HW2 3063   0.914   1.640   1.929
  722SOL     OW 3064   3.430   0.778   6.607
  722SOL    HW1 3065   3.391   0.833   6.533
  722SOL    HW2 3066   3.387   0.687   6.606
  723SOL     OW 3067   1.755   6.252   3.884
  723SOL    HW1 3068   1.732   6.182   3.817
  723SOL    HW2 3069   1.713   6.229   3.972
  724SOL     OW 3070   0.070   1.168   3.579
  724SOL    HW1 3071   0.137   1.208   3.641
  724SOL    HW2 3072   0.112   1.155   3.489
  725SOL     OW 3073   2.066   4.621   2.311
  725SOL    HW1 3074   2.067   4.534   2.360
  725SOL    HW2 3075   2.156   4.664   2.316
  726SOL     OW 3076   2.392   5.064   1.028
  726SOL    HW1 3077   2.428   5.147   1.071
  726SOL    HW2 3078   2.396   4.988   1.093
  727SOL     OW 3079   4.802   5.275   5.722
  727SOL    HW1 3080   4.883   5.217   5.709
  727SOL    HW2 3081   4.811   5.357   5.666
  728SOL     OW 3082   6.868   3.184   4.410
  728SOL    HW1 3083   6.833   3.101   4.452
  728SOL    HW2 3084   6.968   3.180   4.405
  729SOL     OW 3085   0.584   2.776   1.245
  729SOL    HW1 3086   0.681   2.764   1.263
  729SOL    HW2 3087   0.551   2.859   1.290
  730SOL     OW 3088   5.360   0.974   3.159
  730SOL    HW1 3089   5.407   1.043   3.213
  730SOL    HW2 3090   5.363   0.886   3.207
  731SOL     OW 3091   4.675   4.583   6.386
  731SOL    HW1 3092   4.617   4.572   6.466
  731SOL    HW2 3093   4.675   4.679   6.357
  732SOL     OW 3094   5.403   2.190   2.203
  732SOL    HW1 3095   5.493   2.214   2.168
  732SOL    HW2 3096   5.332   2.221   2.139
  733SOL     OW 3097   5.875   0.485   4.147
  733SOL    HW1 3098   5.950   0.546   4.172
  733SOL    HW2 3099   5.877   0.404   4.206
  734SOL     OW 3100   6.213   4.472   2.653
  734SOL    HW1 3101   6.256   4.383   2.643
  734SOL    HW2 3102   6.159   4.473   2.737
  735SOL     OW 3103   4.826   0.473   1.342
  735SOL    HW1 3104   4.764   0.431   1.409
  735SOL    HW2 3105   4.892   0.531   1.389
  736SOL     OW 3106   1.020   1.852   3.806
  736SOL    HW1 3107   1.077   1.819   3.882
  736SOL    HW2 3108   1.079   1.886   3.733
  737SOL     OW 3109   5.920   1.823   6.099
  737SOL    HW1 3110   5.990   1.809   6.169
  737SOL    HW2 3111   5.857   1.895   6.130
  738SOL     OW 3112   2.458   4.011   1.407
  738SOL    HW1 3113   2.371   3.984   1.367
  738SOL    HW2 3114   2.516   3.930   1.419
  739SOL     OW 3115   3.831   0.337   5.332
  739SOL    HW1 3116   3.887   0.338   5.249
  739SOL    HW2 3117   3.779   0.422   5.338
  740SOL     OW 3118   6.020   1.846   2.655
  740SOL    HW1 3119   6.008   1.885   2.746
  740SOL    HW2 3120   5.937   1.799   2.627
  741SOL     OW 3121   1.805   1.076   5.041
  741SOL    HW1 3122   1.891   1.118   5.068
  741SOL    HW2 3123   1.813   1.038   4.949
  742SOL     OW 3124   2.172   5.762   1.279
  742SOL    HW1 3125   2.114   5.828   1.232
  742SOL    HW2 3126   2.173   5.676   1.227
  743SOL     OW 3127   0.555   6.343   3.173
  743SOL    HW1 3128   0.495   6.421   3.191
  743SOL    HW2 3129   0.637   6.351   3.230
  744SOL     OW 3130   6.497   0.832   0.229
  744SOL    HW1 3131   6.452   0.836   0.140
  744SOL    HW2 3132   6.451   0.765   0.287
  745SOL     OW 3133   2.234   6.174   5.647
  745SOL    HW1 3134   2.138   6.150   5.659
  745SOL    HW2 3135   2.242   6.248   5.580
  746SOL     OW 3136   6.001   4.300   5.226
  746SOL    HW1 3137   6.015   4.213   5.177
  746SOL    HW2 3138   6.089   4.335   5.257
  747SOL     OW 3139   5.535   5.779   4.174
  747SOL    HW1 3140   5.536   5.697   4.117
  747SOL    HW2 3141   5.440   5.806   4.192
  748SOL     OW 3142   4.992   4.914   2.589
  748SOL    HW1 3143   5.024   5.008   2.599
  748SOL    HW2 3144   5.030   4.875   2.505
  749SOL     OW 3145   5.129   3.754   3.639
  749SOL    HW1 3146   5.201   3.729   3.574
  749SOL    HW2 3147   5.150   3.843   3.679
  750SOL     OW 3148   3.530   0.736   1.193
  750SOL    HW1 3149   3.537   0.672   1.117
  750SOL    HW2 3150   3.548   0.688   1.279
  751SOL     OW 3151   5.077   1.766   1.148
  751SOL    HW1 3152   5.071   1.764   1.248
  751SOL    HW2 3153   5.070   1.861   1.117
  752SOL     OW 3154   3.256   2.797   6.490
  752SOL    HW1 3155   3.195   2.724   6.520
  752SOL    HW2 3156   3.348   2.761   6.480
  753SOL     OW 3157   2.834   3.340   5.243
  753SOL    HW1 3158   2.856   3.435   5.223
  753SOL    HW2 3159   2.735   3.327   5.242
  754SOL     OW 3160   4.906   0.952   0.180
  754SOL    HW1 3161   4.906   0.873   0.242
  754SOL    HW2 3162   4.875   0.925   0.090
  755SOL     OW 3163   3.081   4.325   5.267
  755SOL    HW1 3164   3.090   4.332   5.366
  755SOL    HW2 3165   3.014   4.391   5.235
  756SOL     OW 3166   3.109   4.899   6.881
  756SOL    HW1 3167   3.138   4.995   6.879
  756SOL    HW2 3168   3.183   4.841   6.850
  757SOL     OW 3169   2.421   6.834   2.472
  757SOL    HW1 3170   2.424   6.871   2.379
  757SOL    HW2 3171   2.362   6.753   2.473
  758SOL     OW 3172   3.394   1.121   3.506
  758SOL    HW1 3173   3.440   1.196   3.459
  758SOL    HW2 3174   3.460   1.070   3.561
  759SOL     OW 3175   0.428   2.425   2.950
  759SOL    HW1 3176   0.438   2.523   2.934
  759SOL    HW2 3177   0.507   2.392   3.001
  760SOL     OW 3178   6.474   6.858   3.757
  760SOL    HW1 3179   6.546   6.926   3.768
  760SOL    HW2 3180   6.414   6.861   3.837
  761SOL     OW 3181   5.801   4.591   5.579
  761SOL    HW1 3182   5.873   4.561   5.641
  761SOL    HW2 3183   5.840   4.648   5.507
  762SOL     OW 3184   2.891   6.419   5.931
  762SOL    HW1 3185   2.988   6.414   5.909
  762SOL    HW2 3186   2.873   6.373   6.018
  763SOL     OW 3187   5.007   0.379   6.252
  763SOL    HW1 3188   5.024   0.435   6.171
  763SOL    HW2 3189   5.063   0.297   6.248
  764SOL     OW 3190   6.079   1.561   5.340
  764SOL    HW1 3191   6.026   1.538   5.259
  764SOL    HW2 3192   6.065   1.491   5.411
  765SOL     OW 3193   1.400   6.525   0.679
  765SOL    HW1 3194   1.332   6.507   0.608
  765SOL    HW2 3195   1.354   6.549   0.764
  766SOL     OW 3196   2.618   1.871   5.373
  766SOL    HW1 3197   2.717   1.866   5.361
  766SOL    HW2 3198   2.596   1.865   5.470
  767SOL     OW 3199   6.611   6.555   3.855
  767SOL    HW1 3200   6.536   6.556   3.789
  767SOL    HW2 3201   6.575   6.531   3.946
  768SOL     OW 3202   2.138   6.807   3.237
  768SOL    HW1 3203   2.054   6.834   3.189
  768SOL    HW2 3204   2.213   6.865   3.207
  769SOL     OW 3205   3.896   1.629   5.203
  769SOL    HW1 3206   3.925   1.573   5.125
  769SOL    HW2 3207   3.957   1.708   5.212
  770SOL     OW 3208   1.892   4.670   4.601
  770SOL    HW1 3209   1.902   4.674   4.502
  770SOL    HW2 3210   1.977   4.635   4.641
  771SOL     OW 3211   1.181   5.564   3.235
  771SOL    HW1 3212   1.179   5.663   3.225
  771SOL    HW2 3213   1.250   5.539   3.303
  772SOL     OW 3214   5.410   4.767   6.498
  772SOL    HW1 3215   5.495   4.818   6.514
  772SOL    HW2 3216   5.427   4.669   6.510
  773SOL     OW 3217   1.554   3.506   2.676
  773SOL    HW1 3218   1.522   3.481   2.768
  773SOL    HW2 3219   1.615   3.435   2.641
  774SOL     OW 3220   2.409   1.490   3.255
  774SOL    HW1 3221   2.322   1.528   3.285
  774SOL    HW2 3222   2.483   1.552   3.281
  775SOL     OW 3223   1.903   2.882   4.194
  775SOL    HW1 3224   1.957   2.966   4.190
  775SOL    HW2 3225   1.964   2.804   4.209
  776SOL     OW 3226   6.659   0.020   6.586
  776SOL    HW1 3227   6.589   7.021   6.517
  776SOL    HW2 3228   6.744   6.995   6.562
  777SOL     OW 3229   1.584   3.282   0.595
  777SOL    HW1 3230   1.568   3.248   0.687
  777SOL    HW2 3231   1.569   3.381   0.593
  778SOL     OW 3232   2.643   6.671   1.721
  778SOL    HW1 3233   2.585   6.643   1.644
  778SOL    HW2 3234   2.590   6.728   1.783
  779SOL     OW 3235   0.495   2.639   1.729
  779SOL    HW1 3236   0.396   2.637   1.713
  779SOL    HW2 3237   0.515   2.597   1.817
  780SOL     OW 3238   1.454   2.560   4.167
  780SOL    HW1 3239   1.464   2.462   4.180
  780SOL    HW2 3240   1.481   2.608   4.251
  781SOL     OW 3241   6.600   5.208   6.462
  781SOL    HW1 3242   6.589   5.189   6.559
  781SOL    HW2 3243   6.510   5.209   6.417
  782SOL     OW 3244   2.211   4.103   5.520
  782SOL    HW1 3245   2.219   4.105   5.421
  782SOL    HW2 3246   2.159   4.184   5.551
  783SOL     OW 3247   5.308   5.301   6.939
  783SOL    HW1 3248   5.307   5.388   6.987
  783SOL    HW2 3249   5.301   5.226   7.004
  784SOL     OW 3250   2.389   5.678   2.292
  784SOL    HW1 3251   2.422   5.584   2.283
  784SOL    HW2 3252   2.467   5.741   2.296
  785SOL     OW 3253   6.988   0.969   3.756
  785SOL    HW1 3254   7.007   0.967   3.854
  785SOL    HW2 3255   7.012   1.058   3.718
  786SOL     OW 3256   6.527   0.834   3.336
  786SOL    HW1 3257   6.441   0.815   3.288
  786SOL    HW2 3258   6.531   0.931   3.360
  787SOL     OW 3259   2.268   0.201   6.997
  787SOL    HW1 3260   2.240   0.142   0.052
  787SOL    HW2 3261   2.368   0.207   6.996
  788SOL     OW 3262   3.948   2.712   1.581
  788SOL    HW1 3263   4.038   2.754   1.592
  788SOL    HW2 3264   3.880   2.765   1.632
  789SOL     OW 3265   4.244   5.577   1.962
  789SOL    HW1 3266   4.272   5.523   2.041
  789SOL    HW2 3267   4.230   5.672   1.991
  790SOL     OW 3268   1.510   1.902   1.971
  790SOL    HW1 3269   1.442   1.972   1.946
  790SOL    HW2 3270   1.542   1.857   1.888
  791SOL     OW 3271   2.617   6.121   5.909
  791SOL    HW1 3272   2.696   6.105   5.968
  791SOL    HW2 3273   2.621   6.213   5.871
  792SOL     OW 3274   0.867   1.242   1.109
  792SOL    HW1 3275   0.801   1.265   1.038
  792SOL    HW2 3276   0.870   1.143   1.122
  793SOL     OW 3277   4.896   5.665   4.714
  793SOL    HW1 3278   4.825   5.690   4.648
  793SOL    HW2 3279   4.900   5.566   4.724
  794SOL     OW 3280   3.499   3.493   5.034
  794SOL    HW1 3281   3.581   3.456   5.077
  794SOL    HW2 3282   3.473   3.436   4.957
  795SOL     OW 3283   4.322   0.516   5.658
  795SOL    HW1 3284   4.284   0.606   5.677
  795SOL    HW2 3285   4.355   0.512   5.563
  796SOL     OW 3286   1.713   2.939   6.629
  796SOL    HW1 3287   1.676   3.011   6.570
  796SOL    HW2 3288   1.668   2.943   6.718
  797SOL     OW 3289   4.013   0.021   0.829
  797SOL    HW1 3290   4.064   0.107   0.839
  797SOL    HW2 3291   3.915   0.040   0.830
  798SOL     OW 3292   3.121   6.037   1.401
  798SOL    HW1 3293   3.140   6.104   1.473
  798SOL    HW2 3294   3.101   6.085   1.316
  799SOL     OW 3295   0.095   1.886   6.186
  799SOL    HW1 3296   0.016   1.913   6.241
  799SOL    HW2 3297   0.120   1.791   6.206
  800SOL     OW 3298   6.870   1.570   2.610
  800SOL    HW1 3299   6.874   1.487   2.556
  800SOL    HW2 3300   6.924   1.558   2.693
  801SOL     OW 3301   2.516   4.944   5.311
  801SOL    HW1 3302   2.564   4.859   5.331
  801SOL    HW2 3303   2.489   4.988   5.397
  802SOL     OW 3304   4.662   2.190   6.597
  802SOL    HW1 3305   4.721   2.247   6.655
  802SOL    HW2 3306   4.569   2.225   6.601
  803SOL     OW 3307   2.430   0.136   5.787
  803SOL    HW1 3308   2.496   0.202   5.824
  803SOL    HW2 3309   2.337   0.168   5.806
  804SOL     OW 3310   6.390   6.769   1.471
  804SOL    HW1 3311   6.400   6.718   1.556
  804SOL    HW2 3312   6.407   6.866   1.488
  805SOL     OW 3313   2.097   6.999   3.884
  805SOL    HW1 3314   2.155   0.058   3.876
  805SOL    HW2 3315   2.153   6.920   3.909
  806SOL     OW 3316   0.461   0.346   5.896
  806SOL    HW1 3317   0.398   0.294   5.954
  806SOL    HW2 3318   0.547   0.296   5.885
  807SOL     OW 3319   0.663   0.095   4.507
  807SOL    HW1 3320   0.627   0.069   4.417
  807SOL    HW2 3321   0.763   0.105   4.501
  808SOL     OW 3322   6.012   3.176   0.430
  808SOL    HW1 3323   6.070   3.099   0.403
  808SOL    HW2 3324   5.938   3.186   0.362
  809SOL     OW 3325   0.453   5.614   6.897
  809SOL    HW1 3326   0.360   5.638   6.927
  809SOL    HW2 3327   0.450   5.531   6.842
  810SOL     OW 3328   2.948   3.547   0.847
  810SOL    HW1 3329   2.904   3.617   0.791
  810SOL    HW2 3330   2.910   3.458   0.824
  811SOL     OW 3331   5.561   5.192   4.415
  811SOL    HW1 3332   5.658   5.215   4.414
  811SOL    HW2 3333   5.507   5.276   4.408
  812SOL     OW 3334   0.316   2.350   2.540
  812SOL    HW1 3335   0.299   2.435   2.590
  812SOL    HW2 3336   0.239   2.287   2.555
  813SOL     OW 3337   2.547   0.480   3.806
  813SOL    HW1 3338   2.589   0.553   3.859
  813SOL    HW2 3339   2.536   0.399   3.864
  814SOL     OW 3340   6.554   5.845   2.206
  814SOL    HW1 3341   6.502   5.772   2.249
  814SOL    HW2 3342   6.494   5.898   2.146
  815SOL     OW 3343   4.794   2.799   3.842
  815SOL    HW1 3344   4.839   2.728   3.896
  815SOL    HW2 3345   4.744   2.861   3.903
  816SOL     OW 3346   4.878   4.208   0.650
  816SOL    HW1 3347   4.855   4.136   0.586
  816SOL    HW2 3348   4.894   4.294   0.600
  817SOL     OW 3349   1.440   5.255   1.132
  817SOL    HW1 3350   1.382   5.176   1.151
  817SOL    HW2 3351   1.502   5.271   1.209
  818SOL     OW 3352   5.311   2.701   3.821
  818SOL    HW1 3353   5.290   2.700   3.723
  818SOL    HW2 3354   5.267   2.623   3.866
  819SOL     OW 3355   5.499   2.806   1.665
  819SOL    HW1 3356   5.470   2.789   1.759
  819SOL    HW2 3357   5.436   2.760   1.602
  820SOL     OW 3358   3.065   2.147   4.601
  820SOL    HW1 3359   3.134   2.205   4.645
  820SOL    HW2 3360   2.978   2.197   4.598
  821SOL     OW 3361   5.773   5.124   4.802
  821SOL    HW1 3362   5.795   5.097   4.895
  821SOL    HW2 3363   5.808   5.056   4.738
  822SOL     OW 3364   0.244   4.406   3.334
  822SOL    HW1 3365   0.282   4.496   3.311
  822SOL    HW2 3366   0.188   4.373   3.258
  823SOL     OW 3367   6.939   3.963   5.881
  823SOL    HW1 3368   0.011   3.934   5.901
  823SOL    HW2 3369   6.923   4.054   5.921
  824SOL     OW 3370   5.548   1.365   5.436
  824SOL    HW1 3371   5.555   1.284   5.495
  824SOL    HW2 3372   5.459   1.366   5.390
  825SOL     OW 3373   6.237   5.943   1.089
  825SOL    HW1 3374   6.270   6.032   1.121
  825SOL    HW2 3375   6.154   5.918   1.139
  826SOL     OW 3376   3.863   2.262   6.299
  826SOL    HW1 3377   3.832   2.213   6.218
  826SOL    HW2 3378   3.930   2.205   6.348
  827SOL     OW 3379   3.399   4.144   5.084
  827SOL    HW1 3380   3.385   4.061   5.137
  827SOL    HW2 3381   3.361   4.132   4.993
  828SOL     OW 3382   6.276   5.688   5.098
  828SOL    HW1 3383   6.329   5.605   5.115
  828SOL    HW2 3384   6.259   5.736   5.184
  829SOL     OW 3385   3.489   2.880   2.237
  829SOL    HW1 3386   3.473   2.803   2.298
  829SOL    HW2 3387   3.561   2.938   2.275
  830SOL     OW 3388   5.879   5.030   6.361
  830SOL    HW1 3389   5.959   5.090   6.360
  830SOL    HW2 3390   5.870   4.983   6.273
  831SOL     OW 3391   5.937   6.795   1.261
  831SOL    HW1 3392   5.902   6.882   1.296
  831SOL    HW2 3393   5.989   6.811   1.178
  832SOL     OW 3394   4.421   1.068   4.488
  832SOL    HW1 3395   4.331   1.074   4.530
  832SOL    HW2 3396   4.441   0.972   4.466
  833SOL     OW 3397   0.955   3.972   6.551
  833SOL    HW1 3398   0.872   3.942   6.598
  833SOL    HW2 3399   1.017   4.014   6.617
  834SOL     OW 3400   4.784   3.379   6.727
  834SOL    HW1 3401   4.867   3.326   6.746
  834SOL    HW2 3402   4.785   3.463   6.781
  835SOL     OW 3403   1.989   0.646   5.003
  835SOL    HW1 3404   1.934   0.727   5.026
  835SOL    HW2 3405   2.073   0.647   5.058
  836SOL     OW 3406   3.199   1.525   6.090
  836SOL    HW1 3407   3.225   1.509   5.995
  836SOL    HW2 3408   3.109   1.569   6.093
  837SOL     OW 3409   1.213   0.133   1.723
  837SOL    HW1 3410   1.170   0.043   1.719
  837SOL    HW2 3411   1.269   0.146   1.641
  838SOL     OW 3412   1.885   6.128   4.430
  838SOL    HW1 3413   1.945   6.191   4.381
  838SOL    HW2 3414   1.930   6.095   4.512
  839SOL     OW 3415   2.723   1.611   1.582
  839SOL    HW1 3416   2.706   1.666   1.664
  839SOL    HW2 3417   2.805   1.645   1.536
  840SOL     OW 3418   6.063   5.579   0.215
  840SOL    HW1 3419   5.983   5.635   0.237
  840SOL    HW2 3420   6.039   5.483   0.224
  841SOL     OW 3421   4.177   5.692   5.635
  841SOL    HW1 3422   4.245   5.740   5.579
  841SOL    HW2 3423   4.222   5.618   5.685
  842SOL     OW 3424   3.307   6.434   0.045
  842SOL    HW1 3425   3.380   6.366   0.044
  842SOL    HW2 3426   3.343   6.523   0.020
  843SOL     OW 3427   2.500   2.094   2.193
  843SOL    HW1 3428   2.408   2.073   2.161
  843SOL    HW2 3429   2.536   2.173   2.144
  844SOL     OW 3430   6.950   6.407   1.486
  844SOL    HW1 3431   6.965   6.451   1.574
  844SOL    HW2 3432   6.955   6.308   1.496
  845SOL     OW 3433   4.637   2.123   3.045
  845SOL    HW1 3434   4.598   2.039   3.006
  845SOL    HW2 3435   4.574   2.199   3.029
  846SOL     OW 3436   2.901   1.540   6.116
  846SOL    HW1 3437   2.916   1.441   6.112
  846SOL    HW2 3438   2.905   1.578   6.023
  847SOL     OW 3439   2.205   3.246   1.726
  847SOL    HW1 3440   2.267   3.305   1.676
  847SOL    HW2 3441   2.137   3.301   1.774
  848SOL     OW 3442   6.484   7.013   5.798
  848SOL    HW1 3443   6.404   6.986   5.744
  848SOL    HW2 3444   6.530   6.931   5.832
  849SOL     OW 3445   5.975   3.501   0.398
  849SOL    HW1 3446   5.920   3.455   0.467
  849SOL    HW2 3447   5.950   3.468   0.307
  850SOL     OW 3448   0.505   0.678   4.963
  850SOL    HW1 3449   0.434   0.652   5.028
  850SOL    HW2 3450   0.500   0.777   4.947
  851SOL     OW 3451   6.752   3.428   7.008
  851SOL    HW1 3452   6.733   3.340   6.965
  851SOL    HW2 3453   6.721   3.426   0.081
  852SOL     OW 3454   0.197   5.099   0.821
  852SOL    HW1 3455   0.258   5.129   0.894
  852SOL    HW2 3456   0.248   5.095   0.735
  853SOL     OW 3457   2.305   4.049   6.294
  853SOL    HW1 3458   2.344   4.118   6.233
  853SOL    HW2 3459   2.307   3.959   6.250
  854SOL     OW 3460   5.745   6.506   0.154
  854SOL    HW1 3461   5.825   6.484   0.211
  854SOL    HW2 3462   5.722   6.603   0.165
  855SOL     OW 3463   6.462   0.501   6.879
  855SOL    HW1 3464   6.502   0.418   6.919
  855SOL    HW2 3465   6.391   0.475   6.813
  856SOL     OW 3466   1.305   6.557   5.980
  856SOL    HW1 3467   1.226   6.499   5.961
  856SOL    HW2 3468   1.377   6.502   6.023
  857SOL     OW 3469   6.895   4.622   2.517
  857SOL    HW1 3470   6.806   4.652   2.485
  857SOL    HW2 3471   6.900   4.522   2.514
  858SOL     OW 3472   3.191   3.627   1.142
  858SOL    HW1 3473   3.269   3.608   1.083
  858SOL    HW2 3474   3.109   3.583   1.104
  859SOL     OW 3475   4.756   5.965   5.550
  859SOL    HW1 3476   4.782   5.881   5.502
  859SOL    HW2 3477   4.695   5.943   5.626
  860SOL     OW 3478   5.574   2.701   6.141
  860SOL    HW1 3479   5.518   2.710   6.059
  860SOL    HW2 3480   5.516   2.677   6.219
  861SOL     OW 3481   1.915   5.501   3.092
  861SOL    HW1 3482   2.004   5.526   3.131
  861SOL    HW2 3483   1.853   5.474   3.165
  862SOL     OW 3484   2.010   5.056   3.857
  862SOL    HW1 3485   2.012   5.098   3.948
  862SOL    HW2 3486   1.931   5.090   3.806
  863SOL     OW 3487   5.948   1.024   6.074
  863SOL    HW1 3488   5.942   1.088   5.997
  863SOL    HW2 3489   5.865   1.029   6.129
  864SOL     OW 3490   4.994   0.009   5.300
  864SOL    HW1 3491   5.087   0.044   5.310
  864SOL    HW2 3492   4.986   6.984   5.212
  865SOL     OW 3493   1.834   0.107   5.677
  865SOL    HW1 3494   1.931   0.117   5.656
  865SOL    HW2 3495   1.783   0.185   5.640
  866SOL     OW 3496   3.639   6.509   0.746
  866SOL    HW1 3497   3.565   6.455   0.704
  866SOL    HW2 3498   3.644   6.598   0.702
  867SOL     OW 3499   5.655   2.935   0.331
  867SOL    HW1 3500   5.605   2.975   0.408
  867SOL    HW2 3501   5.604   2.950   0.246
  868SOL     OW 3502   0.046   2.240   2.587
  868SOL    HW1 3503   0.021   2.333   2.560
  868SOL    HW2 3504   7.009   2.211   2.664
  869SOL     OW 3505   6.853   4.000   3.781
  869SOL    HW1 3506   6.835   4.081   3.838
  869SOL    HW2 3507   6.942   4.010   3.737
  870SOL     OW 3508   4.233   4.519   1.178
  870SOL    HW1 3509   4.307   4.542   1.116
  870SOL    HW2 3510   4.270   4.483   1.263
  871SOL     OW 3511   4.893   2.029   4.135
  871SOL    HW1 3512   4.990   2.021   4.115
  871SOL    HW2 3513   4.880   2.073   4.224
  872SOL     OW 3514   0.092   2.195   4.749
  872SOL    HW1 3515   0.171   2.256   4.739
  872SOL    HW2 3516   0.120   2.101   4.734
  873SOL     OW 3517   4.345   6.547   5.681
  873SOL    HW1 3518   4.335   6.498   5.768
  873SOL    HW2 3519   4.398   6.491   5.618
  874SOL     OW 3520   6.079   4.405   6.708
  874SOL    HW1 3521   6.064   4.503   6.724
  874SOL    HW2 3522   6.002   4.353   6.746
  875SOL     OW 3523   5.150   5.958   0.578
  875SOL    HW1 3524   5.167   5.860   0.593
  875SOL    HW2 3525   5.236   6.003   0.554
  876SOL     OW 3526   0.597   5.250   2.056
  876SOL    HW1 3527   0.613   5.156   2.086
  876SOL    HW2 3528   0.585   5.309   2.136
  877SOL     OW 3529   3.234   4.081   6.122
  877SOL    HW1 3530   3.290   4.010   6.165
  877SOL    HW2 3531   3.137   4.057   6.131
  878SOL     OW 3532   4.932   6.879   4.038
  878SOL    HW1 3533   4.929   6.810   3.966
  878SOL    HW2 3534   5.026   6.888   4.071
  879SOL     OW 3535   3.522   0.317   1.289
  879SOL    HW1 3536   3.491   0.412   1.292
  879SOL    HW2 3537   3.446   0.257   1.265
  880SOL     OW 3538   4.015   3.875   3.989
  880SOL    HW1 3539   4.045   3.780   3.989
  880SOL    HW2 3540   3.994   3.904   3.896
  881SOL     OW 3541   4.933   3.260   4.741
  881SOL    HW1 3542   4.930   3.329   4.814
  881SOL    HW2 3543   4.944   3.169   4.781
  882SOL     OW 3544   0.930   3.072   3.972
  882SOL    HW1 3545   1.026   3.089   3.995
  882SOL    HW2 3546   0.917   3.085   3.874
  883SOL     OW 3547   3.536   1.010   1.303
  883SOL    HW1 3548   3.548   0.923   1.255
  883SOL    HW2 3549   3.440   1.036   1.303
  884SOL     OW 3550   5.327   3.423   6.154
  884SOL    HW1 3551   5.267   3.343   6.157
  884SOL    HW2 3552   5.282   3.496   6.102
  885SOL     OW 3553   3.600   1.351   5.146
  885SOL    HW1 3554   3.530   1.289   5.182
  885SOL    HW2 3555   3.659   1.381   5.220
  886SOL     OW 3556   3.898   6.973   6.991
  886SOL    HW1 3557   3.981   0.006   6.995
  886SOL    HW2 3558   3.894   6.913   0.049
  887SOL     OW 3559   4.138   6.894   3.684
  887SOL    HW1 3560   4.192   6.811   3.700
  887SOL    HW2 3561   4.175   6.970   3.737
  888SOL     OW 3562   6.985   6.483   3.353
  888SOL    HW1 3563   6.986   6.406   3.417
  888SOL    HW2 3564   7.014   6.451   3.263
  889SOL     OW 3565   0.010   3.805   0.857
  889SOL    HW1 3566   0.055   3.732   0.805
  889SOL    HW2 3567   6.999   3.768   0.944
  890SOL     OW 3568   1.212   5.756   2.899
  890SOL    HW1 3569   1.306   5.779   2.922
  890SOL    HW2 3570   1.169   5.834   2.852
  891SOL     OW 3571   5.693   5.164   0.402
  891SOL    HW1 3572   5.763   5.093   0.412
  891SOL    HW2 3573   5.602   5.123   0.414
  892SOL     OW 3574   2.344   3.660   5.323
  892SOL    HW1 3575   2.309   3.709   5.243
  892SOL    HW2 3576   2.401   3.722   5.377
  893SOL     OW 3577   2.239   6.237   2.737
  893SOL    HW1 3578   2.323   6.214   2.687
  893SOL    HW2 3579   2.247   6.330   2.772
  894SOL     OW 3580   0.806   3.289   2.159
  894SOL    HW1 3581   0.905   3.304   2.161
  894SOL    HW2 3582   0.785   3.199   2.198
  895SOL     OW 3583   0.369   4.729   3.688
  895SOL    HW1 3584   0.342   4.788   3.612
  895SOL    HW2 3585   0.293   4.723   3.754
  896SOL     OW 3586   5.390   5.072   0.871
  896SOL    HW1 3587   5.297   5.108   0.858
  896SOL    HW2 3588   5.456   5.146   0.865
  897SOL     OW 3589   3.945   1.625   6.731
  897SOL    HW1 3590   3.902   1.679   6.804
  897SOL    HW2 3591   4.003   1.554   6.771
  898SOL     OW 3592   2.826   6.153   2.863
  898SOL    HW1 3593   2.869   6.063   2.856
  898SOL    HW2 3594   2.808   6.174   2.959
  899SOL     OW 3595   0.047   6.303   6.727
  899SOL    HW1 3596   6.978   6.339   6.749
  899SOL    HW2 3597   0.066   6.224   6.785
  900SOL     OW 3598   5.659   6.863   0.686
  900SOL    HW1 3599   5.648   6.872   0.785
  900SOL    HW2 3600   5.756   6.870   0.663
  901SOL     OW 3601   2.509   6.731   3.173
  901SOL    HW1 3602   2.526   6.714   3.076
  901SOL    HW2 3603   2.442   6.665   3.207
  902SOL     OW 3604   0.759   2.500   0.609
  902SOL    HW1 3605   0.737   2.407   0.579
  902SOL    HW2 3606   0.781   2.499   0.706
  903SOL     OW 3607   6.861   2.256   0.313
  903SOL    HW1 3608   6.845   2.159   0.292
  903SOL    HW2 3609   6.945   2.265   0.367
  904SOL     OW 3610   2.528   2.032   2.970
  904SOL    HW1 3611   2.453   2.006   2.909
  904SOL    HW2 3612   2.534   2.131   2.975
  905SOL     OW 3613   5.067   2.023   0.135
  905SOL    HW1 3614   5.025   1.956   0.073
  905SOL    HW2 3615   5.010   2.031   0.217
  906SOL     OW 3616   6.872   1.965   6.318
  906SOL    HW1 3617   6.826   2.051   6.296
  906SOL    HW2 3618   6.848   1.937   6.411
  907SOL     OW 3619   5.370   3.363   0.620
  907SOL    HW1 3620   5.443   3.415   0.664
  907SOL    HW2 3621   5.319   3.311   0.690
  908SOL     OW 3622   2.646   4.577   2.435
  908SOL    HW1 3623   2.727   4.534   2.395
  908SOL    HW2 3624   2.564   4.545   2.388
  909SOL     OW 3625   4.612   5.571   0.899
  909SOL    HW1 3626   4.673   5.638   0.940
  909SOL    HW2 3627   4.517   5.599   0.912
  910SOL     OW 3628   2.922   2.225   0.838
  910SOL    HW1 3629   2.843   2.183   0.883
  910SOL    HW2 3630   2.891   2.279   0.760
  911SOL     OW 3631   0.848   6.185   6.336
  911SOL    HW1 3632   0.762   6.207   6.291
  911SOL    HW2 3633   0.837   6.193   6.435
  912SOL     OW 3634   6.338   2.099   2.904
  912SOL    HW1 3635   6.391   2.143   2.832
  912SOL    HW2 3636   6.367   2.004   2.914
  913SOL     OW 3637   4.714   6.699   3.073
  913SOL    HW1 3638   4.632   6.743   3.110
  913SOL    HW2 3639   4.787   6.767   3.064
  914SOL     OW 3640   2.531   6.782   6.636
  914SOL    HW1 3641   2.454   6.721   6.656
  914SOL    HW2 3642   2.515   6.871   6.678
  915SOL     OW 3643   5.969   4.680   6.715
  915SOL    HW1 3644   5.957   4.774   6.681
  915SOL    HW2 3645   5.936   4.675   6.809
  916SOL     OW 3646   1.978   2.580   1.867
  916SOL    HW1 3647   1.991   2.645   1.942
  916SOL    HW2 3648   1.965   2.488   1.904
  917SOL     OW 3649   0.376   6.450   0.713
  917SOL    HW1 3650   0.307   6.391   0.756
  917SOL    HW2 3651   0.441   6.394   0.663
  918SOL     OW 3652   3.210   0.162   0.552
  918SOL    HW1 3653   3.254   0.238   0.503
  918SOL    HW2 3654   3.256   0.077   0.530
  919SOL     OW 3655   5.409   1.670   2.788
  919SOL    HW1 3656   5.359   1.752   2.762
  919SOL    HW2 3657   5.447   1.626   2.706
  920SOL     OW 3658   2.604   4.050   1.674
  920SOL    HW1 3659   2.591   4.149   1.672
  920SOL    HW2 3660   2.545   4.007   1.606
  921SOL     OW 3661   4.809   5.818   3.921
  921SOL    HW1 3662   4.903   5.807   3.953
  921SOL    HW2 3663   4.777   5.911   3.942
  922SOL     OW 3664   3.946   3.581   4.367
  922SOL    HW1 3665   3.921   3.611   4.274
  922SOL    HW2 3666   3.867   3.538   4.410
  923SOL     OW 3667   2.582   3.225   6.792
  923SOL    HW1 3668   2.483   3.216   6.791
  923SOL    HW2 3669   2.614   3.228   6.887
  924SOL     OW 3670   6.153   4.087   1.761
  924SOL    HW1 3671   6.055   4.074   1.747
  924SOL    HW2 3672   6.174   4.184   1.762
  925SOL     OW 3673   7.016   2.668   0.004
  925SOL    HW1 3674   0.021   2.641   6.933
  925SOL    HW2 3675   0.008   2.767   0.015
  926SOL     OW 3676   6.920   0.776   0.992
  926SOL    HW1 3677   6.979   0.743   1.066
  926SOL    HW2 3678   6.831   0.800   1.030
  927SOL     OW 3679   5.362   3.812   3.926
  927SOL    HW1 3680   5.277   3.837   3.878
  927SOL    HW2 3681   5.405   3.895   3.962
  928SOL     OW 3682   2.708   5.585   0.720
  928SOL    HW1 3683   2.744   5.662   0.773
  928SOL    HW2 3684   2.619   5.611   0.681
  929SOL     OW 3685   0.045   0.658   0.006
  929SOL    HW1 3686   6.995   0.589   0.017
  929SOL    HW2 3687   0.027   0.735   0.067
  930SOL     OW 3688   4.533   5.725   6.384
  930SOL    HW1 3689   4.520   5.798   6.317
  930SOL    HW2 3690   4.620   5.740   6.433
  931SOL     OW 3691   6.426   1.707   4.571
  931SOL    HW1 3692   6.481   1.624   4.567
  931SOL    HW2 3693   6.482   1.784   4.600
  932SOL     OW 3694   2.647   1.634   3.286
  932SOL    HW1 3695   2.599   1.675   3.208
  932SOL    HW2 3696   2.743   1.619   3.262
  933SOL     OW 3697   1.518   5.764   2.941
  933SOL    HW1 3698   1.545   5.736   2.849
  933SOL    HW2 3699   1.507   5.683   2.999
  934SOL     OW 3700   2.422   5.681   6.130
  934SOL    HW1 3701   2.439   5.769   6.086
  934SOL    HW2 3702   2.426   5.608   6.062
  935SOL     OW 3703   4.904   4.345   3.929
  935SOL    HW1 3704   4.836   4.391   3.986
  935SOL    HW2 3705   4.857   4.283   3.866
  936SOL     OW 3706   1.241   6.799   6.167
  936SOL    HW1 3707   1.147   6.797   6.203
  936SOL    HW2 3708   1.268   6.707   6.139
  937SOL     OW 3709   5.155   1.881   5.541
  937SOL    HW1 3710   5.065   1.844   5.516
  937SOL    HW2 3711   5.208   1.811   5.588
  938SOL     OW 3712   6.177   5.466   4.542
  938SOL    HW1 3713   6.143   5.434   4.630
  938SOL    HW2 3714   6.277   5.459   4.541
  939SOL     OW 3715   0.552   0.071   4.267
  939SOL    HW1 3716   0.559   0.139   4.193
  939SOL    HW2 3717   0.581   7.004   4.232
  940SOL     OW 3718   0.609   4.128   0.558
  940SOL    HW1 3719   0.664   4.177   0.490
  940SOL    HW2 3720   0.668   4.064   0.608
  941SOL     OW 3721   5.076   0.648   6.677
  941SOL    HW1 3722   5.034   0.572   6.727
  941SOL    HW2 3723   5.087   0.622   6.581
  942SOL     OW 3724   6.040   6.416   1.590
  942SOL    HW1 3725   6.019   6.502   1.543
  942SOL    HW2 3726   5.977   6.345   1.561
  943SOL     OW 3727   2.134   5.075   2.584
  943SOL    HW1 3728   2.078   5.057   2.665
  943SOL    HW2 3729   2.104   5.015   2.509
  944SOL     OW 3730   0.611   5.244   4.597
  944SOL    HW1 3731   0.540   5.308   4.566
  944SOL    HW2 3732   0.700   5.290   4.597
  945SOL     OW 3733   0.466   4.914   5.290
  945SOL    HW1 3734   0.394   4.894   5.357
  945SOL    HW2 3735   0.481   4.833   5.232
  946SOL     OW 3736   4.706   4.869   4.395
  946SOL    HW1 3737   4.669   4.909   4.479
  946SOL    HW2 3738   4.665   4.914   4.316
  947SOL     OW 3739   3.589   3.346   3.711
  947SOL    HW1 3740   3.525   3.423   3.699
  947SOL    HW2 3741   3.682   3.379   3.696
  948SOL     OW 3742   4.850   1.290   2.697
  948SOL    HW1 3743   4.935   1.249   2.730
  948SOL    HW2 3744   4.788   1.305   2.774
  949SOL     OW 3745   3.286   6.149   0.001
  949SOL    HW1 3746   3.356   6.183   6.960
  949SOL    HW2 3747   3.208   6.115   6.972
  950SOL     OW 3748   5.500   5.729   2.565
  950SOL    HW1 3749   5.460   5.681   2.643
  950SOL    HW2 3750   5.554   5.806   2.597
  951SOL     OW 3751   0.988   0.221   3.769
  951SOL    HW1 3752   1.023   0.189   3.857
  951SOL    HW2 3753   1.063   0.225   3.703
  952SOL     OW 3754   4.266   2.010   2.781
  952SOL    HW1 3755   4.216   2.027   2.696
  952SOL    HW2 3756   4.270   2.094   2.835
  953SOL     OW 3757   5.894   6.135   4.880
  953SOL    HW1 3758   5.966   6.201   4.859
  953SOL    HW2 3759   5.891   6.119   4.978
  954SOL     OW 3760   4.050   6.349   2.409
  954SOL    HW1 3761   4.075   6.307   2.322
  954SOL    HW2 3762   3.955   6.329   2.431
  955SOL     OW 3763   1.799   4.308   6.996
  955SOL    HW1 3764   1.890   4.343   6.972
  955SOL    HW2 3765   1.806   4.213   0.004
  956SOL     OW 3766   6.915   0.319   1.569
  956SOL    HW1 3767   6.970   0.400   1.590
  956SOL    HW2 3768   6.818   0.344   1.566
  957SOL     OW 3769   5.966   1.338   1.669
  957SOL    HW1 3770   6.038   1.287   1.717
  957SOL    HW2 3771   6.001   1.369   1.581
  958SOL     OW 3772   4.725   6.165   2.137
  958SOL    HW1 3773   4.672   6.133   2.215
  958SOL    HW2 3774   4.686   6.250   2.102
  959SOL     OW 3775   3.615   6.564   4.504
  959SOL    HW1 3776   3.647   6.640   4.561
  959SOL    HW2 3777   3.627   6.478   4.554
  960SOL     OW 3778   1.510   0.735   0.980
  960SOL    HW1 3779   1.439   0.665   0.991
  960SOL    HW2 3780   1.564   0.715   0.898
  961SOL     OW 3781   3.990   6.585   3.360
  961SOL    HW1 3782   4.024   6.678   3.342
  961SOL    HW2 3783   3.930   6.557   3.285
  962SOL     OW 3784   6.235   1.057   4.174
  962SOL    HW1 3785   6.283   1.131   4.128
  962SOL    HW2 3786   6.138   1.079   4.182
  963SOL     OW 3787   4.412   0.994   0.843
  963SOL    HW1 3788   4.503   1.024   0.813
  963SOL    HW2 3789   4.407   0.997   0.943
  964SOL     OW 3790   4.557   5.149   5.489
  964SOL    HW1 3791   4.580   5.231   5.541
  964SOL    HW2 3792   4.501   5.088   5.545
  965SOL     OW 3793   6.170   1.737   2.053
  965SOL    HW1 3794   6.099   1.790   2.099
  965SOL    HW2 3795   6.128   1.657   2.009
  966SOL     OW 3796   4.843   2.545   3.563
  966SOL    HW1 3797   4.906   2.585   3.497
  966SOL    HW2 3798   4.895   2.502   3.637
  967SOL     OW 3799   2.809   5.279   7.004
  967SOL    HW1 3800   2.854   5.190   7.008
  967SOL    HW2 3801   2.851   5.334   6.931
  968SOL     OW 3802   3.747   6.728   1.655
  968SOL    HW1 3803   3.680   6.734   1.729
  968SOL    HW2 3804   3.778   6.820   1.632
  969SOL     OW 3805   2.394   5.484   5.922
  969SOL    HW1 3806   2.324   5.413   5.928
  969SOL    HW2 3807   2.479   5.445   5.889
  970SOL     OW 3808   5.476   1.024   5.964
  970SOL    HW1 3809   5.396   0.983   5.921
  970SOL    HW2 3810   5.448   1.107   6.013
  971SOL     OW 3811   7.016   3.236   2.882
  971SOL    HW1 3812   0.079   3.199   2.844
  971SOL    HW2 3813   7.017   3.336   2.876
  972SOL     OW 3814   6.994   2.557   1.850
  972SOL    HW1 3815   6.942   2.602   1.777
  972SOL    HW2 3816   6.963   2.592   1.938
  973SOL     OW 3817   0.353   4.690   6.348
  973SOL    HW1 3818   0.298   4.646   6.419
  973SOL    HW2 3819   0.295   4.710   6.269
  974SOL     OW 3820   0.678   5.097   2.509
  974SOL    HW1 3821   0.654   5.082   2.413
  974SOL    HW2 3822   0.634   5.181   2.541
  975SOL     OW 3823   2.851   7.011   0.345
  975SOL    HW1 3824   2.883   7.017   0.439
  975SOL    HW2 3825   2.835   0.082   0.310
  976SOL     OW 3826   6.656   3.704   1.437
  976SOL    HW1 3827   6.678   3.727   1.342
  976SOL    HW2 3828   6.584   3.635   1.439
  977SOL     OW 3829   0.617   0.959   2.293
  977SOL    HW1 3830   0.691   1.026   2.285
  977SOL    HW2 3831   0.546   0.980   2.226
  978SOL     OW 3832   5.659   1.717   1.086
  978SOL    HW1 3833   5.568   1.735   1.123
  978SOL    HW2 3834   5.652   1.658   1.006
  979SOL     OW 3835   0.410   2.931   6.297
  979SOL    HW1 3836   0.376   2.975   6.214
  979SOL    HW2 3837   0.491   2.979   6.330
  980SOL     OW 3838   4.041   0.832   4.568
  980SOL    HW1 3839   4.035   0.776   4.486
  980SOL    HW2 3840   4.009   0.925   4.547
  981SOL     OW 3841   0.835   0.244   5.155
  981SOL    HW1 3842   0.751   0.229   5.206
  981SOL    HW2 3843   0.912   0.255   5.219
  982SOL     OW 3844   0.830   1.765   5.345
  982SOL    HW1 3845   0.796   1.714   5.267
  982SOL    HW2 3846   0.792   1.857   5.344
  983SOL     OW 3847   6.833   3.411   3.076
  983SOL    HW1 3848   6.858   3.346   3.148
  983SOL    HW2 3849   6.916   3.445   3.032
  984SOL     OW 3850   1.524   1.903   2.950
  984SOL    HW1 3851   1.454   1.973   2.933
  984SOL    HW2 3852   1.492   1.841   3.022
  985SOL     OW 3853   6.611   4.166   4.068
  985SOL    HW1 3854   6.528   4.218   4.046
  985SOL    HW2 3855   6.619   4.156   4.168
  986SOL     OW 3856   4.705   5.060   1.203
  986SOL    HW1 3857   4.796   5.096   1.186
  986SOL    HW2 3858   4.650   5.129   1.252
  987SOL     OW 3859   5.668   6.534   3.257
  987SOL    HW1 3860   5.702   6.525   3.164
  987SOL    HW2 3861   5.574   6.568   3.256
  988SOL     OW 3862   3.255   3.815   2.412
  988SOL    HW1 3863   3.211   3.779   2.330
  988SOL    HW2 3864   3.205   3.896   2.443
  989SOL     OW 3865   6.674   1.934   0.382
  989SOL    HW1 3866   6.710   1.965   0.294
  989SOL    HW2 3867   6.607   2.001   0.416
  990SOL     OW 3868   3.553   6.911   2.928
  990SOL    HW1 3869   3.626   6.880   2.988
  990SOL    HW2 3870   3.494   6.976   2.977
  991SOL     OW 3871   6.574   4.655   3.200
  991SOL    HW1 3872   6.584   4.634   3.103
  991SOL    HW2 3873   6.501   4.599   3.239
  992SOL     OW 3874   1.135   3.268   1.310
  992SOL    HW1 3875   1.051   3.242   1.356
  992SOL    HW2 3876   1.179   3.187   1.271
  993SOL     OW 3877   0.801   3.976   0.644
  993SOL    HW1 3878   0.885   3.984   0.698
  993SOL    HW2 3879   0.771   3.881   0.644
  994SOL     OW 3880   3.449   5.399   1.075
  994SOL    HW1 3881   3.383   5.325   1.090
  994SOL    HW2 3882   3.458   5.415   0.976
  995SOL     OW 3883   4.277   3.268   5.670
  995SOL    HW1 3884   4.351   3.278   5.603
  995SOL    HW2 3885   4.216   3.194   5.641
  996SOL     OW 3886   3.722   5.232   5.025
  996SOL    HW1 3887   3.713   5.274   4.935
  996SOL    HW2 3888   3.682   5.292   5.094
  997SOL     OW 3889   1.203   6.788   3.694
  997SOL    HW1 3890   1.231   6.695   3.673
  997SOL    HW2 3891   1.237   6.850   3.623
  998SOL     OW 3892   6.821   0.424   6.098
  998SOL    HW1 3893   6.907   0.447   6.143
  998SOL    HW2 3894   6.745   0.467   6.147
  999SOL     OW 3895   4.835   3.932   1.500
  999SOL    HW1 3896   4.818   3.852   1.442
  999SOL    HW2 3897   4.837   3.904   1.596
 1000SOL     OW 3898   4.193   1.119   1.634
 1000SOL    HW1 3899   4.128   1.114   1.710
 1000SOL    HW2 3900   4.194   1.211   1.596
 1001SOL     OW 3901   3.177   5.907   2.199
 1001SOL    HW1 3902   3.227   5.848   2.262
 1001SOL    HW2 3903   3.136   5.983   2.250
 1002SOL     OW 3904   5.751   2.148   1.250
 1002SOL    HW1 3905   5.820   2.197   1.304
 1002SOL    HW2 3906   5.695   2.215   1.200
 1003SOL     OW 3907   1.817   5.928   2.583
 1003SOL    HW1 3908   1.872   5.845   2.588
 1003SOL    HW2 3909   1.862   5.993   2.521
 1004SOL     OW 3910   6.432   1.167   2.702
 1004SOL    HW1 3911   6.477   1.104   2.639
 1004SOL    HW2 3912   6.393   1.243   2.650
 1005SOL     OW 3913   1.717   4.926   3.984
 1005SOL    HW1 3914   1.720   4.892   3.890
 1005SOL    HW2 3915   1.673   5.016   3.986
 1006SOL     OW 3916   2.226   3.824   0.232
 1006SOL    HW1 3917   2.129   3.813   0.249
 1006SOL    HW2 3918   2.255   3.761   0.160
 1007SOL     OW 3919   4.520   1.501   6.651
 1007SOL    HW1 3920   4.523   1.601   6.641
 1007SOL    HW2 3921   4.425   1.471   6.660
 1008SOL     OW 3922   0.395   3.853   4.981
 1008SOL    HW1 3923   0.376   3.834   4.885
 1008SOL    HW2 3924   0.492   3.875   4.993
 1009SOL     OW 3925   6.203   4.714   5.450
 1009SOL    HW1 3926   6.231   4.621   5.425
 1009SOL    HW2 3927   6.272   4.756   5.508
 1010SOL     OW 3928   2.819   2.334   1.409
 1010SOL    HW1 3929   2.841   2.364   1.501
 1010SOL    HW2 3930   2.867   2.392   1.343
 1011SOL     OW 3931   0.374   5.783   3.279
 1011SOL    HW1 3932   0.415   5.874   3.274
 1011SOL    HW2 3933   0.443   5.716   3.305
 1012SOL     OW 3934   6.618   0.032   2.672
 1012SOL    HW1 3935   6.717   0.022   2.679
 1012SOL    HW2 3936   6.590   0.030   2.576
 1013SOL     OW 3937   6.875   1.125   6.420
 1013SOL    HW1 3938   6.812   1.199   6.395
 1013SOL    HW2 3939   6.824   1.053   6.468
 1014SOL     OW 3940   0.981   4.074   4.787
 1014SOL    HW1 3941   1.004   3.985   4.827
 1014SOL    HW2 3942   0.887   4.097   4.810
 1015SOL     OW 3943   2.678   0.819   6.417
 1015SOL    HW1 3944   2.723   0.845   6.503
 1015SOL    HW2 3945   2.735   0.754   6.368
 1016SOL     OW 3946   4.743   4.736   1.230
 1016SOL    HW1 3947   4.738   4.831   1.262
 1016SOL    HW2 3948   4.756   4.734   1.131
 1017SOL     OW 3949   2.944   1.654   1.432
 1017SOL    HW1 3950   2.995   1.579   1.389
 1017SOL    HW2 3951   3.006   1.730   1.451
 1018SOL     OW 3952   6.940   4.487   3.334
 1018SOL    HW1 3953   0.009   4.445   3.335
 1018SOL    HW2 3954   6.941   4.569   3.277
 1019SOL     OW 3955   6.666   4.908   7.001
 1019SOL    HW1 3956   6.627   4.894   6.909
 1019SOL    HW2 3957   6.766   4.913   6.994
 1020SOL     OW 3958   6.217   0.785   0.784
 1020SOL    HW1 3959   6.196   0.846   0.861
 1020SOL    HW2 3960   6.159   0.704   0.789
 1021SOL     OW 3961   6.363   6.132   2.578
 1021SOL    HW1 3962   6.332   6.042   2.546
 1021SOL    HW2 3963   6.419   6.121   2.660
 1022SOL     OW 3964   2.636   5.939   6.375
 1022SOL    HW1 3965   2.557   5.940   6.436
 1022SOL    HW2 3966   2.662   6.033   6.352
 1023SOL     OW 3967   6.969   0.403   2.509
 1023SOL    HW1 3968   6.899   0.475   2.502
 1023SOL    HW2 3969   6.929   0.322   2.551
 1024SOL     OW 3970   0.758   1.753   4.182
 1024SOL    HW1 3971   0.695   1.691   4.228
 1024SOL    HW2 3972   0.723   1.846   4.188
 1025SOL     OW 3973   4.789   3.053   0.389
 1025SOL    HW1 3974   4.872   3.092   0.349
 1025SOL    HW2 3975   4.772   3.095   0.478
 1026SOL     OW 3976   2.854   2.486   1.656
 1026SOL    HW1 3977   2.890   2.462   1.746
 1026SOL    HW2 3978   2.884   2.578   1.631
 1027SOL     OW 3979   1.826   6.855   1.674
 1027SOL    HW1 3980   1.801   6.922   1.744
 1027SOL    HW2 3981   1.896   6.794   1.710
 1028SOL     OW 3982   1.655   6.771   3.191
 1028SOL    HW1 3983   1.705   6.698   3.237
 1028SOL    HW2 3984   1.583   6.805   3.251
 1029SOL     OW 3985   1.505   2.220   6.490
 1029SOL    HW1 3986   1.406   2.223   6.508
 1029SOL    HW2 3987   1.542   2.312   6.493
 1030SOL     OW 3988   3.502   3.199   1.833
 1030SOL    HW1 3989   3.561   3.168   1.759
 1030SOL    HW2 3990   3.487   3.124   1.898
 1031SOL     OW 3991   4.380   3.066   1.515
 1031SOL    HW1 3992   4.401   2.968   1.514
 1031SOL    HW2 3993   4.381   3.099   1.609
 1032SOL     OW 3994   2.271   1.270   5.293
 1032SOL    HW1 3995   2.294   1.237   5.384
 1032SOL    HW2 3996   2.352   1.311   5.251
 1033SOL     OW 3997   2.042   6.127   2.534
 1033SOL    HW1 3998   2.008   6.221   2.543
 1033SOL    HW2 3999   2.077   6.096   2.622
 1034SOL     OW 4000   1.837   6.550   4.534
 1034SOL    HW1 4001   1.824   6.602   4.618
 1034SOL    HW2 4002   1.806   6.604   4.455
 1035SOL     OW 4003   0.391   2.217   5.966
 1035SOL    HW1 4004   0.306   2.269   5.955
 1035SOL    HW2 4005   0.411   2.167   5.882
 1036SOL     OW 4006   4.303   0.894   1.509
 1036SOL    HW1 4007   4.272   0.973   1.561
 1036SOL    HW2 4008   4.224   0.844   1.473
 1037SOL     OW 4009   1.104   1.773   2.761
 1037SOL    HW1 4010   1.011   1.736   2.761
 1037SOL    HW2 4011   1.169   1.697   2.755
 1038SOL     OW 4012   1.447   1.173   6.573
 1038SOL    HW1 4013   1.478   1.238   6.642
 1038SOL    HW2 4014   1.476   1.205   6.482
 1039SOL     OW 4015   3.041   3.128   3.881
 1039SOL    HW1 4016   3.058   3.194   3.955
 1039SOL    HW2 4017   3.104   3.051   3.890
 1040SOL     OW 4018   4.920   0.937   3.047
 1040SOL    HW1 4019   4.848   0.959   2.981
 1040SOL    HW2 4020   4.895   0.973   3.137
 1041SOL     OW 4021   6.855   6.657   3.786
 1041SOL    HW1 4022   6.843   6.707   3.700
 1041SOL    HW2 4023   6.779   6.593   3.798
 1042SOL     OW 4024   4.908   5.116   2.945
 1042SOL    HW1 4025   4.905   5.018   2.924
 1042SOL    HW2 4026   4.826   5.160   2.911
 1043SOL     OW 4027   4.020   2.056   3.282
 1043SOL    HW1 4028   3.921   2.043   3.291
 1043SOL    HW2 4029   4.043   2.078   3.187
 1044SOL     OW 4030   5.996   5.593   1.544
 1044SOL    HW1 4031   5.981   5.495   1.535
 1044SOL    HW2 4032   5.938   5.629   1.617
 1045SOL     OW 4033   3.219   0.070   3.005
 1045SOL    HW1 4034   3.187   0.120   2.924
 1045SOL    HW2 4035   3.150   0.005   3.034
 1046SOL     OW 4036   2.489   1.231   0.703
 1046SOL    HW1 4037   2.516   1.305   0.765
 1046SOL    HW2 4038   2.569   1.201   0.650
 1047SOL     OW 4039   3.341   0.523   4.255
 1047SOL    HW1 4040   3.407   0.597   4.268
 1047SOL    HW2 4041   3.309   0.524   4.160
 1048SOL     OW 4042   3.133   5.139   2.714
 1048SOL    HW1 4043   3.140   5.053   2.664
 1048SOL    HW2 4044   3.218   5.190   2.705
 1049SOL     OW 4045   4.979   6.955   3.558
 1049SOL    HW1 4046   4.926   0.012   3.526
 1049SOL    HW2 4047   4.957   6.875   3.503
 1050SOL     OW 4048   4.056   5.582   2.735
 1050SOL    HW1 4049   3.990   5.657   2.731
 1050SOL    HW2 4050   4.121   5.592   2.660
 1051SOL     OW 4051   0.000   6.012   0.146
 1051SOL    HW1 4052   0.063   6.074   0.192
 1051SOL    HW2 4053   6.993   5.941   0.209
 1052SOL     OW 4054   4.935   1.342   5.254
 1052SOL    HW1 4055   5.015   1.349   5.194
 1052SOL    HW2 4056   4.890   1.431   5.261
 1053SOL     OW 4057   5.868   4.138   2.457
 1053SOL    HW1 4058   5.840   4.103   2.368
 1053SOL    HW2 4059   5.882   4.062   2.520
 1054SOL     OW 4060   3.141   3.242   1.039
 1054SOL    HW1 4061   3.170   3.192   1.120
 1054SOL    HW2 4062   3.070   3.308   1.063
 1055SOL     OW 4063   4.966   6.491   6.514
 1055SOL    HW1 4064   4.944   6.524   6.606
 1055SOL    HW2 4065   4.953   6.392   6.511
 1056SOL     OW 4066   1.108   3.986   0.361
 1056SOL    HW1 4067   1.016   3.952   0.343
 1056SOL    HW2 4068   1.147   4.023   0.277
 1057SOL     OW 4069   3.785   2.099   1.686
 1057SOL    HW1 4070   3.855   2.130   1.622
 1057SOL    HW2 4071   3.781   2.162   1.764
 1058SOL     OW 4072   4.473   2.440   3.306
 1058SOL    HW1 4073   4.553   2.387   3.280
 1058SOL    HW2 4074   4.502   2.520   3.359
 1059SOL     OW 4075   2.199   6.674   2.084
 1059SOL    HW1 4076   2.176   6.670   2.181
 1059SOL    HW2 4077   2.297   6.658   2.072
 1060SOL     OW 4078   0.127   4.877   4.049
 1060SOL    HW1 4079   0.079   4.881   4.136
 1060SOL    HW2 4080   0.224   4.857   4.065
 1061SOL     OW 4081   6.462   3.631   6.985
 1061SOL    HW1 4082   6.548   3.682   6.976
 1061SOL    HW2 4083   6.449   3.605   0.059
 1062SOL     OW 4084   3.944   6.018   5.307
 1062SOL    HW1 4085   3.882   6.040   5.382
 1062SOL    HW2 4086   3.912   6.062   5.223
 1063SOL     OW 4087   0.239   6.875   6.658
 1063SOL    HW1 4088   0.172   6.888   6.730
 1063SOL    HW2 4089   0.318   6.826   6.694
 1064SOL     OW 4090   0.356   4.297   1.873
 1064SOL    HW1 4091   0.297   4.264   1.799
 1064SOL    HW2 4092   0.431   4.232   1.886
 1065SOL     OW 4093   3.247   0.699   4.043
 1065SOL    HW1 4094   3.313   0.767   4.077
 1065SOL    HW2 4095   3.198   0.735   3.964
 1066SOL     OW 4096   4.693   6.923   2.146
 1066SOL    HW1 4097   4.744   6.865   2.209
 1066SOL    HW2 4098   4.684   6.878   2.057
 1067SOL     OW 4099   2.243   1.010   6.996
 1067SOL    HW1 4100   2.251   1.049   0.066
 1067SOL    HW2 4101   2.266   0.913   6.999
 1068SOL     OW 4102   5.958   3.769   0.848
 1068SOL    HW1 4103   6.030   3.759   0.916
 1068SOL    HW2 4104   5.994   3.813   0.766
 1069SOL     OW 4105   5.246   5.262   1.078
 1069SOL    HW1 4106   5.287   5.217   1.157
 1069SOL    HW2 4107   5.275   5.358   1.075
 1070SOL     OW 4108   2.486   6.851   2.198
 1070SOL    HW1 4109   2.553   6.916   2.163
 1070SOL    HW2 4110   2.501   6.761   2.157
 1071SOL     OW 4111   0.943   2.107   4.576
 1071SOL    HW1 4112   1.024   2.117   4.518
 1071SOL    HW2 4113   0.901   2.018   4.559
 1072SOL     OW 4114   2.055   0.824   1.681
 1072SOL    HW1 4115   2.022   0.807   1.773
 1072SOL    HW2 4116   2.043   0.742   1.625
 1073SOL     OW 4117   5.138   2.096   3.220
 1073SOL    HW1 4118   5.208   2.090   3.148
 1073SOL    HW2 4119   5.164   2.036   3.296
 1074SOL     OW 4120   2.818   5.042   1.476
 1074SOL    HW1 4121   2.808   5.095   1.391
 1074SOL    HW2 4122   2.752   4.967   1.476
 1075SOL     OW 4123   5.856   1.648   4.170
 1075SOL    HW1 4124   5.948   1.614   4.151
 1075SOL    HW2 4125   5.821   1.605   4.253
 1076SOL     OW 4126   1.445   3.284   5.730
 1076SOL    HW1 4127   1.508   3.362   5.728
 1076SOL    HW2 4128   1.496   3.199   5.715
 1077SOL     OW 4129   0.122   6.656   0.086
 1077SOL    HW1 4130   0.210   6.698   0.063
 1077SOL    HW2 4131   0.053   6.684   0.019
 1078SOL     OW 4132   6.505   0.376   3.002
 1078SOL    HW1 4133   6.520   0.279   2.983
 1078SOL    HW2 4134   6.508   0.428   2.916
 1079SOL     OW 4135   1.381   5.536   1.865
 1079SOL    HW1 4136   1.284   5.518   1.881
 1079SOL    HW2 4137   1.392   5.622   1.815
 1080SOL     OW 4138   2.315   5.650   4.977
 1080SOL    HW1 4139   2.410   5.619   4.976
 1080SOL    HW2 4140   2.282   5.663   4.884
 1081SOL     OW 4141   6.878   5.705   4.210
 1081SOL    HW1 4142   6.850   5.625   4.263
 1081SOL    HW2 4143   6.965   5.739   4.246
 1082SOL     OW 4144   6.195   1.907   5.936
 1082SOL    HW1 4145   6.273   1.874   5.882
 1082SOL    HW2 4146   6.122   1.839   5.933
 1083SOL     OW 4147   5.009   3.329   0.477
 1083SOL    HW1 4148   4.911   3.348   0.470
 1083SOL    HW2 4149   5.061   3.402   0.433
 1084SOL     OW 4150   6.956   6.539   6.586
 1084SOL    HW1 4151   0.010   6.487   6.624
 1084SOL    HW2 4152   6.989   6.601   6.515
 1085SOL     OW 4153   2.109   3.601   3.573
 1085SOL    HW1 4154   2.100   3.646   3.484
 1085SOL    HW2 4155   2.169   3.656   3.632
 1086SOL     OW 4156   6.336   5.300   6.256
 1086SOL    HW1 4157   6.415   5.292   6.194
 1086SOL    HW2 4158   6.325   5.396   6.283
 1087SOL     OW 4159   1.057   1.600   5.460
 1087SOL    HW1 4160   1.030   1.504   5.452
 1087SOL    HW2 4161   0.988   1.657   5.414
 1088SOL     OW 4162   0.234   5.098   3.228
 1088SOL    HW1 4163   0.227   5.160   3.306
 1088SOL    HW2 4164   0.318   5.045   3.235
 1089SOL     OW 4165   0.771   5.642   5.088
 1089SOL    HW1 4166   0.753   5.639   5.187
 1089SOL    HW2 4167   0.716   5.572   5.043
 1090SOL     OW 4168   5.099   1.910   2.954
 1090SOL    HW1 4169   5.034   1.934   3.027
 1090SOL    HW2 4170   5.076   1.961   2.871
 1091SOL     OW 4171   2.068   3.729   3.320
 1091SOL    HW1 4172   2.094   3.818   3.356
 1091SOL    HW2 4173   1.971   3.729   3.296
 1092SOL     OW 4174   0.753   5.140   0.592
 1092SOL    HW1 4175   0.712   5.210   0.650
 1092SOL    HW2 4176   0.849   5.129   0.615
 1093SOL     OW 4177   2.907   6.616   1.781
 1093SOL    HW1 4178   2.814   6.649   1.762
 1093SOL    HW2 4179   2.939   6.561   1.704
 1094SOL     OW 4180   0.610   6.865   2.640
 1094SOL    HW1 4181   0.667   6.931   2.689
 1094SOL    HW2 4182   0.648   6.848   2.549
 1095SOL     OW 4183   0.648   2.646   6.806
 1095SOL    HW1 4184   0.655   2.557   6.852
 1095SOL    HW2 4185   0.653   2.632   6.707
 1096SOL     OW 4186   3.193   4.520   1.226
 1096SOL    HW1 4187   3.095   4.520   1.205
 1096SOL    HW2 4188   3.245   4.527   1.141
 1097SOL     OW 4189   1.792   5.727   3.001
 1097SOL    HW1 4190   1.693   5.737   2.993
 1097SOL    HW2 4191   1.815   5.635   3.034
 1098SOL     OW 4192   5.914   4.112   6.470
 1098SOL    HW1 4193   6.005   4.137   6.436
 1098SOL    HW2 4194   5.921   4.030   6.528
 1099SOL     OW 4195   4.877   1.571   6.802
 1099SOL    HW1 4196   4.816   1.635   6.849
 1099SOL    HW2 4197   4.923   1.513   6.870
 1100SOL     OW 4198   3.656   0.648   3.969
 1100SOL    HW1 4199   3.734   0.701   3.937
 1100SOL    HW2 4200   3.633   0.674   4.062
 1101SOL     OW 4201   5.594   3.767   5.171
 1101SOL    HW1 4202   5.525   3.753   5.100
 1101SOL    HW2 4203   5.684   3.775   5.129
 1102SOL     OW 4204   2.563   1.121   4.464
 1102SOL    HW1 4205   2.573   1.072   4.378
 1102SOL    HW2 4206   2.500   1.070   4.523
 1103SOL     OW 4207   2.830   1.193   0.293
 1103SOL    HW1 4208   2.867   1.187   0.385
 1103SOL    HW2 4209   2.741   1.240   0.296
 1104SOL     OW 4210   1.466   4.292   3.740
 1104SOL    HW1 4211   1.465   4.336   3.650
 1104SOL    HW2 4212   1.513   4.351   3.806
 1105SOL     OW 4213   5.094   3.013   4.560
 1105SOL    HW1 4214   4.999   3.040   4.547
 1105SOL    HW2 4215   5.147   3.038   4.478
 1106SOL     OW 4216   0.671   1.260   0.852
 1106SOL    HW1 4217   0.588   1.313   0.870
 1106SOL    HW2 4218   0.731   1.314   0.792
 1107SOL     OW 4219   1.042   0.698   0.343
 1107SOL    HW1 4220   1.076   0.793   0.341
 1107SOL    HW2 4221   1.077   0.649   0.264
 1108SOL     OW 4222   3.891   6.454   4.723
 1108SOL    HW1 4223   3.814   6.435   4.663
 1108SOL    HW2 4224   3.858   6.498   4.807
 1109SOL     OW 4225   5.594   1.745   4.179
 1109SOL    HW1 4226   5.689   1.715   4.171
 1109SOL    HW2 4227   5.545   1.683   4.240
 1110SOL     OW 4228   3.274   0.575   3.140
 1110SOL    HW1 4229   3.289   0.669   3.171
 1110SOL    HW2 4230   3.362   0.534   3.114
 1111SOL     OW 4231   5.701   3.961   6.318
 1111SOL    HW1 4232   5.761   4.038   6.339
 1111SOL    HW2 4233   5.733   3.915   6.235
 1112SOL     OW 4234   6.609   0.382   3.460
 1112SOL    HW1 4235   6.544   0.414   3.391
 1112SOL    HW2 4236   6.655   0.300   3.427
 1113SOL     OW 4237   6.224   4.462   1.421
 1113SOL    HW1 4238   6.222   4.448   1.322
 1113SOL    HW2 4239   6.297   4.407   1.461
 1114SOL     OW 4240   3.474   2.660   6.128
 1114SOL    HW1 4241   3.547   2.662   6.196
 1114SOL    HW2 4242   3.407   2.590   6.153
 1115SOL     OW 4243   4.150   4.066   5.318
 1115SOL    HW1 4244   4.074   4.004   5.337
 1115SOL    HW2 4245   4.233   4.013   5.299
 1116SOL     OW 4246   5.240   0.342   6.834
 1116SOL    HW1 4247   5.282   0.345   6.925
 1116SOL    HW2 4248   5.143   0.366   6.842
 1117SOL     OW 4249   1.054   2.302   1.587
 1117SOL    HW1 4250   0.975   2.359   1.609
 1117SOL    HW2 4251   1.046   2.268   1.494
 1118SOL     OW 4252   2.381   5.348   0.001
 1118SOL    HW1 4253   2.321   5.424   0.026
 1118SOL    HW2 4254   2.434   5.373   6.941
 1119SOL     OW 4255   4.230   4.401   1.708
 1119SOL    HW1 4256   4.154   4.349   1.669
 1119SOL    HW2 4257   4.298   4.338   1.745
 1120SOL     OW 4258   5.945   6.113   1.108
 1120SOL    HW1 4259   5.957   6.167   1.192
 1120SOL    HW2 4260   5.962   6.017   1.128
 1121SOL     OW 4261   0.593   4.620   5.131
 1121SOL    HW1 4262   0.673   4.659   5.085
 1121SOL    HW2 4263   0.622   4.543   5.187
 1122SOL     OW 4264   6.232   2.796   2.247
 1122SOL    HW1 4265   6.291   2.723   2.280
 1122SOL    HW2 4266   6.263   2.883   2.284
 1123SOL     OW 4267   4.459   2.340   3.729
 1123SOL    HW1 4268   4.461   2.438   3.749
 1123SOL    HW2 4269   4.453   2.289   3.815
 1124SOL     OW 4270   0.899   3.257   5.755
 1124SOL    HW1 4271   0.897   3.241   5.656
 1124SOL    HW2 4272   0.934   3.349   5.773
 1125SOL     OW 4273   1.507   2.809   4.640
 1125SOL    HW1 4274   1.498   2.774   4.733
 1125SOL    HW2 4275   1.567   2.889   4.640
 1126SOL     OW 4276   4.593   6.005   5.259
 1126SOL    HW1 4277   4.532   5.926   5.262
 1126SOL    HW2 4278   4.627   6.025   5.352
 1127SOL     OW 4279   5.380   6.810   4.826
 1127SOL    HW1 4280   5.290   6.817   4.782
 1127SOL    HW2 4281   5.440   6.881   4.789
 1128SOL     OW 4282   5.830   1.744   4.989
 1128SOL    HW1 4283   5.820   1.796   5.074
 1128SOL    HW2 4284   5.739   1.729   4.949
 1129SOL     OW 4285   1.891   0.130   0.597
 1129SOL    HW1 4286   1.861   0.051   0.544
 1129SOL    HW2 4287   1.812   0.185   0.625
 1130SOL     OW 4288   1.622   5.380   1.788
 1130SOL    HW1 4289   1.665   5.467   1.814
 1130SOL    HW2 4290   1.524   5.384   1.808
 1131SOL     OW 4291   1.813   0.953   4.809
 1131SOL    HW1 4292   1.818   0.983   4.714
 1131SOL    HW2 4293   1.743   0.883   4.819
 1132SOL     OW 4294   4.497   0.441   2.837
 1132SOL    HW1 4295   4.478   0.501   2.759
 1132SOL    HW2 4296   4.570   0.480   2.892
 1133SOL     OW 4297   0.864   0.218   0.270
 1133SOL    HW1 4298   0.817   0.297   0.230
 1133SOL    HW2 4299   0.949   0.247   0.313
 1134SOL     OW 4300   5.638   0.101   2.154
 1134SOL    HW1 4301   5.695   0.144   2.224
 1134SOL    HW2 4302   5.623   0.164   2.079
 1135SOL     OW 4303   2.423   6.739   3.826
 1135SOL    HW1 4304   2.482   6.660   3.813
 1135SOL    HW2 4305   2.478   6.819   3.846
 1136SOL     OW 4306   3.434   5.075   3.128
 1136SOL    HW1 4307   3.386   5.031   3.051
 1136SOL    HW2 4308   3.520   5.026   3.146
 1137SOL     OW 4309   0.713   6.530   6.396
 1137SOL    HW1 4310   0.755   6.596   6.334
 1137SOL    HW2 4311   0.708   6.441   6.351
 1138SOL     OW 4312   1.404   2.442   4.885
 1138SOL    HW1 4313   1.361   2.486   4.964
 1138SOL    HW2 4314   1.396   2.343   4.895
 1139SOL     OW 4315   2.491   4.481   3.985
 1139SOL    HW1 4316   2.584   4.514   3.998
 1139SOL    HW2 4317   2.470   4.411   4.053
 1140SOL     OW 4318   2.327   0.341   2.591
 1140SOL    HW1 4319   2.287   0.250   2.602
 1140SOL    HW2 4320   2.424   0.331   2.565
 1141SOL     OW 4321   6.261   5.542   6.340
 1141SOL    HW1 4322   6.293   5.602   6.266
 1141SOL    HW2 4323   6.206   5.595   6.404
 1142SOL     OW 4324   2.700   0.101   3.428
 1142SOL    HW1 4325   2.622   0.123   3.487
 1142SOL    HW2 4326   2.763   0.179   3.427
 1143SOL     OW 4327   1.611   2.721   2.252
 1143SOL    HW1 4328   1.606   2.811   2.295
 1143SOL    HW2 4329   1.688   2.670   2.289
 1144SOL     OW 4330   5.518   4.484   2.392
 1144SOL    HW1 4331   5.580   4.411   2.364
 1144SOL    HW2 4332   5.557   4.533   2.470
 1145SOL     OW 4333   1.165   2.680   0.420
 1145SOL    HW1 4334   1.089   2.744   0.414
 1145SOL    HW2 4335   1.220   2.701   0.501
 1146SOL     OW 4336   0.629   2.074   1.358
 1146SOL    HW1 4337   0.668   2.138   1.424
 1146SOL    HW2 4338   0.543   2.112   1.322
 1147SOL     OW 4339   3.046   5.736   0.528
 1147SOL    HW1 4340   3.132   5.782   0.506
 1147SOL    HW2 4341   3.035   5.656   0.469
 1148SOL     OW 4342   3.944   6.026   1.437
 1148SOL    HW1 4343   3.888   6.056   1.359
 1148SOL    HW2 4344   3.953   6.100   1.503
 1149SOL     OW 4345   5.852   3.128   1.371
 1149SOL    HW1 4346   5.942   3.093   1.347
 1149SOL    HW2 4347   5.813   3.071   1.444
 1150SOL     OW 4348   0.694   4.286   0.005
 1150SOL    HW1 4349   0.634   4.248   0.075
 1150SOL    HW2 4350   0.790   4.276   0.035
 1151SOL     OW 4351   6.087   4.869   4.929
 1151SOL    HW1 4352   6.034   4.825   5.002
 1151SOL    HW2 4353   6.040   4.857   4.842
 1152SOL     OW 4354   4.607   6.209   6.693
 1152SOL    HW1 4355   4.523   6.186   6.741
 1152SOL    HW2 4356   4.605   6.306   6.666
 1153SOL     OW 4357   6.978   0.140   1.323
 1153SOL    HW1 4358   7.010   0.204   1.253
 1153SOL    HW2 4359   6.927   0.190   1.393
 1154SOL     OW 4360   0.800   4.225   0.834
 1154SOL    HW1 4361   0.795   4.143   0.777
 1154SOL    HW2 4362   0.878   4.281   0.804
 1155SOL     OW 4363   2.262   6.369   5.466
 1155SOL    HW1 4364   2.361   6.365   5.453
 1155SOL    HW2 4365   2.219   6.407   5.384
 1156SOL     OW 4366   4.434   1.544   5.094
 1156SOL    HW1 4367   4.413   1.499   5.007
 1156SOL    HW2 4368   4.482   1.479   5.154
 1157SOL     OW 4369   5.167   1.005   5.897
 1157SOL    HW1 4370   5.162   1.105   5.902
 1157SOL    HW2 4371   5.084   0.966   5.934
 1158SOL     OW 4372   6.398   6.103   4.424
 1158SOL    HW1 4373   6.414   6.130   4.329
 1158SOL    HW2 4374   6.439   6.170   4.485
 1159SOL     OW 4375   6.161   6.779   3.244
 1159SOL    HW1 4376   6.106   6.803   3.324
 1159SOL    HW2 4377   6.150   6.849   3.173
 1160SOL     OW 4378   3.979   5.690   1.977
 1160SOL    HW1 4379   3.886   5.679   2.012
 1160SOL    HW2 4380   4.037   5.615   2.011
 1161SOL     OW 4381   6.832   5.452   6.174
 1161SOL    HW1 4382   6.878   5.541   6.166
 1161SOL    HW2 4383   6.841   5.418   6.268
 1162SOL     OW 4384   2.471   2.511   5.873
 1162SOL    HW1 4385   2.517   2.563   5.801
 1162SOL    HW2 4386   2.534   2.498   5.950
 1163SOL     OW 4387   6.155   4.665   1.786
 1163SOL    HW1 4388   6.157   4.732   1.712
 1163SOL    HW2 4389   6.091   4.695   1.857
 1164SOL     OW 4390   5.700   2.688   5.167
 1164SOL    HW1 4391   5.743   2.615   5.221
 1164SOL    HW2 4392   5.619   2.651   5.121
 1165SOL     OW 4393   4.167   6.009   3.179
 1165SOL    HW1 4394   4.113   6.093   3.184
 1165SOL    HW2 4395   4.213   5.993   3.267
 1166SOL     OW 4396   2.056   5.856   0.142
 1166SOL    HW1 4397   1.976   5.916   0.153
 1166SOL    HW2 4398   2.075   5.844   0.044
 1167SOL     OW 4399   5.346   4.559   1.583
 1167SOL    HW1 4400   5.332   4.476   1.529
 1167SOL    HW2 4401   5.437   4.595   1.564
 1168SOL     OW 4402   6.222   2.500   1.839
 1168SOL    HW1 4403   6.252   2.502   1.934
 1168SOL    HW2 4404   6.286   2.444   1.786
 1169SOL     OW 4405   5.562   1.887   5.547
 1169SOL    HW1 4406   5.483   1.940   5.577
 1169SOL    HW2 4407   5.635   1.949   5.519
 1170SOL     OW 4408   4.949   0.056   2.898
 1170SOL    HW1 4409   4.914   0.010   2.816
 1170SOL    HW2 4410   4.974   7.008   2.966
 1171SOL     OW 4411   2.754   0.237   0.122
 1171SOL    HW1 4412   2.823   0.286   0.175
 1171SOL    HW2 4413   2.793   0.151   0.088
 1172SOL     OW 4414   5.105   4.233   1.168
 1172SOL    HW1 4415   5.059   4.240   1.079
 1172SOL    HW2 4416   5.047   4.181   1.231
 1173SOL     OW 4417   2.728   1.380   1.691
 1173SOL    HW1 4418   2.721   1.456   1.626
 1173SOL    HW2 4419   2.823   1.350   1.697
 1174SOL     OW 4420   3.441   4.063   2.041
 1174SOL    HW1 4421   3.490   4.070   2.128
 1174SOL    HW2 4422   3.347   4.035   2.058
 1175SOL     OW 4423   4.654   3.469   5.737
 1175SOL    HW1 4424   4.726   3.461   5.806
 1175SOL    HW2 4425   4.565   3.477   5.782
 1176SOL     OW 4426   5.164   3.794   6.547
 1176SOL    HW1 4427   5.221   3.851   6.488
 1176SOL    HW2 4428   5.130   3.716   6.494
 1177SOL     OW 4429   6.957   3.792   4.599
 1177SOL    HW1 4430   0.016   3.760   4.551
 1177SOL    HW2 4431   6.980   3.813   4.694
 1178SOL     OW 4432   2.592   3.414   0.606
 1178SOL    HW1 4433   2.590   3.438   0.509
 1178SOL    HW2 4434   2.536   3.333   0.622
 1179SOL     OW 4435   2.783   5.446   0.484
 1179SOL    HW1 4436   2.879   5.473   0.483
 1179SOL    HW2 4437   2.738   5.485   0.564
 1180SOL     OW 4438   2.917   5.994   3.277
 1180SOL    HW1 4439   2.871   6.012   3.364
 1180SOL    HW2 4440   2.976   5.913   3.286
 1181SOL     OW 4441   0.427   5.328   5.880
 1181SOL    HW1 4442   0.448   5.389   5.804
 1181SOL    HW2 4443   0.406   5.382   5.961
 1182SOL     OW 4444   3.987   5.060   3.394
 1182SOL    HW1 4445   4.007   5.101   3.483
 1182SOL    HW2 4446   3.897   5.091   3.363
 1183SOL     OW 4447   2.584   3.953   6.916
 1183SOL    HW1 4448   2.568   4.051   6.932
 1183SOL    HW2 4449   2.649   3.943   6.840
 1184SOL     OW 4450   6.940   1.214   4.800
 1184SOL    HW1 4451   6.867   1.282   4.808
 1184SOL    HW2 4452   6.992   1.230   4.716
 1185SOL     OW 4453   0.205   1.195   0.486
 1185SOL    HW1 4454   0.286   1.152   0.447
 1185SOL    HW2 4455   0.123   1.159   0.440
 1186SOL     OW 4456   5.195   6.401   5.425
 1186SOL    HW1 4457   5.243   6.313   5.428
 1186SOL    HW2 4458   5.232   6.457   5.350
 1187SOL     OW 4459   5.861   6.612   6.826
 1187SOL    HW1 4460   5.910   6.549   6.885
 1187SOL    HW2 4461   5.900   6.704   6.836
 1188SOL     OW 4462   3.592   5.735   5.361
 1188SOL    HW1 4463   3.528   5.676   5.311
 1188SOL    HW2 4464   3.541   5.796   5.422
 1189SOL     OW 4465   6.169   2.782   2.654
 1189SOL    HW1 4466   6.135   2.747   2.742
 1189SOL    HW2 4467   6.118   2.864   2.629
 1190SOL     OW 4468   2.873   5.685   4.213
 1190SOL    HW1 4469   2.927   5.660   4.293
 1190SOL    HW2 4470   2.786   5.724   4.243
 1191SOL     OW 4471   4.425   5.072   3.875
 1191SOL    HW1 4472   4.492   5.083   3.801
 1191SOL    HW2 4473   4.382   5.161   3.894
 1192SOL     OW 4474   4.229   5.540   2.965
 1192SOL    HW1 4475   4.190   5.543   2.873
 1192SOL    HW2 4476   4.156   5.537   3.033
 1193SOL     OW 4477   6.459   3.320   4.560
 1193SOL    HW1 4478   6.506   3.312   4.472
 1193SOL    HW2 4479   6.373   3.269   4.556
 1194SOL     OW 4480   5.440   0.072   1.749
 1194SOL    HW1 4481   5.482   7.017   1.699
 1194SOL    HW2 4482   5.341   0.068   1.738
 1195SOL     OW 4483   6.672   4.464   0.778
 1195SOL    HW1 4484   6.715   4.428   0.695
 1195SOL    HW2 4485   6.575   4.440   0.779
 1196SOL     OW 4486   0.104   5.871   2.884
 1196SOL    HW1 4487   0.121   5.953   2.829
 1196SOL    HW2 4488   0.185   5.851   2.940
 1197SOL     OW 4489   4.664   0.895   5.344
 1197SOL    HW1 4490   4.685   0.925   5.437
 1197SOL    HW2 4491   4.747   0.901   5.288
 1198SOL     OW 4492   1.139   2.733   2.054
 1198SOL    HW1 4493   1.202   2.727   2.132
 1198SOL    HW2 4494   1.154   2.820   2.007
 1199SOL     OW 4495   3.945   4.639   1.477
 1199SOL    HW1 4496   3.927   4.546   1.444
 1199SOL    HW2 4497   3.975   4.635   1.573
 1200SOL     OW 4498   3.305   3.541   4.056
 1200SOL    HW1 4499   3.387   3.486   4.040
 1200SOL    HW2 4500   3.229   3.481   4.083
 1201SOL     OW 4501   1.157   0.951   4.355
 1201SOL    HW1 4502   1.198   0.864   4.384
 1201SOL    HW2 4503   1.111   0.939   4.267
 1202SOL     OW 4504   0.619   5.759   5.929
 1202SOL    HW1 4505   0.705   5.789   5.969
 1202SOL    HW2 4506   0.545   5.818   5.961
 1203SOL     OW 4507   5.834   6.538   0.614
 1203SOL    HW1 4508   5.830   6.613   0.548
 1203SOL    HW2 4509   5.742   6.508   0.636
 1204SOL     OW 4510   3.202   6.228   1.585
 1204SOL    HW1 4511   3.189   6.321   1.550
 1204SOL    HW2 4512   3.293   6.196   1.559
 1205SOL     OW 4513   5.072   3.822   1.237
 1205SOL    HW1 4514   5.150   3.759   1.239
 1205SOL    HW2 4515   5.094   3.906   1.287
 1206SOL     OW 4516   2.886   2.639   5.370
 1206SOL    HW1 4517   2.925   2.622   5.280
 1206SOL    HW2 4518   2.811   2.704   5.362
 1207SOL     OW 4519   1.957   6.334   1.609
 1207SOL    HW1 4520   2.032   6.268   1.619
 1207SOL    HW2 4521   1.889   6.296   1.547
 1208SOL     OW 4522   3.279   3.402   0.838
 1208SOL    HW1 4523   3.254   3.359   0.925
 1208SOL    HW2 4524   3.249   3.497   0.838
 1209SOL     OW 4525   4.636   0.986   4.714
 1209SOL    HW1 4526   4.622   1.018   4.808
 1209SOL    HW2 4527   4.551   0.996   4.662
 1210SOL     OW 4528   3.056   0.618   3.639
 1210SOL    HW1 4529   2.974   0.573   3.673
 1210SOL    HW2 4530   3.054   0.620   3.539
 1211SOL     OW 4531   0.623   3.518   2.172
 1211SOL    HW1 4532   0.703   3.462   2.194
 1211SOL    HW2 4533   0.553   3.461   2.128
 1212SOL     OW 4534   6.500   0.244   6.635
 1212SOL    HW1 4535   6.575   0.184   6.607
 1212SOL    HW2 4536   6.484   0.234   6.734
 1213SOL     OW 4537   6.917   1.827   0.508
 1213SOL    HW1 4538   6.976   1.863   0.436
 1213SOL    HW2 4539   6.823   1.858   0.493
 1214SOL     OW 4540   0.551   2.908   7.012
 1214SOL    HW1 4541   0.543   2.944   0.083
 1214SOL    HW2 4542   0.491   2.829   7.001
 1215SOL     OW 4543   1.225   4.289   3.893
 1215SOL    HW1 4544   1.308   4.345   3.888
 1215SOL    HW2 4545   1.247   4.194   3.873
 1216SOL     OW 4546   4.932   0.752   0.978
 1216SOL    HW1 4547   4.989   0.776   1.057
 1216SOL    HW2 4548   4.957   0.809   0.900
 1217SOL     OW 4549   1.605   4.549   0.466
 1217SOL    HW1 4550   1.553   4.622   0.512
 1217SOL    HW2 4551   1.684   4.588   0.420
 1218SOL     OW 4552   2.261   4.084   4.418
 1218SOL    HW1 4553   2.213   4.109   4.334
 1218SOL    HW2 4554   2.231   3.994   4.448
 1219SOL     OW 4555   5.682   6.033   1.633
 1219SOL    HW1 4556   5.616   6.054   1.561
 1219SOL    HW2 4557   5.653   6.075   1.718
 1220SOL     OW 4558   1.101   5.051   3.371
 1220SOL    HW1 4559   1.063   5.135   3.410
 1220SOL    HW2 4560   1.050   4.972   3.405
 1221SOL     OW 4561   5.754   3.431   6.078
 1221SOL    HW1 4562   5.743   3.333   6.060
 1221SOL    HW2 4563   5.680   3.481   6.033
 1222SOL     OW 4564   6.220   0.063   6.585
 1222SOL    HW1 4565   6.293   0.114   6.630
 1222SOL    HW2 4566   6.171   0.008   6.653
 1223SOL     OW 4567   3.978   0.472   0.630
 1223SOL    HW1 4568   3.999   0.502   0.723
 1223SOL    HW2 4569   3.879   0.459   0.621
 1224SOL     OW 4570   2.816   6.301   0.109
 1224SOL    HW1 4571   2.810   6.307   0.209
 1224SOL    HW2 4572   2.904   6.337   0.079
 1225SOL     OW 4573   3.495   3.848   6.534
 1225SOL    HW1 4574   3.493   3.896   6.621
 1225SOL    HW2 4575   3.589   3.845   6.500
 1226SOL     OW 4576   2.330   5.298   0.738
 1226SOL    HW1 4577   2.404   5.361   0.762
 1226SOL    HW2 4578   2.259   5.349   0.688
 1227SOL     OW 4579   6.361   3.871   0.228
 1227SOL    HW1 4580   6.272   3.908   0.253
 1227SOL    HW2 4581   6.430   3.905   0.291
 1228SOL     OW 4582   4.675   2.972   0.048
 1228SOL    HW1 4583   4.579   3.000   0.045
 1228SOL    HW2 4584   4.731   3.050   0.076
 1229SOL     OW 4585   3.713   5.169   6.135
 1229SOL    HW1 4586   3.683   5.082   6.097
 1229SOL    HW2 4587   3.754   5.155   6.225
 1230SOL     OW 4588   4.632   6.992   3.359
 1230SOL    HW1 4589   4.701   0.042   3.351
 1230SOL    HW2 4590   4.674   6.910   3.399
 1231SOL     OW 4591   1.215   3.568   4.277
 1231SOL    HW1 4592   1.153   3.515   4.220
 1231SOL    HW2 4593   1.228   3.659   4.236
 1232SOL     OW 4594   0.784   2.375   6.374
 1232SOL    HW1 4595   0.688   2.396   6.388
 1232SOL    HW2 4596   0.829   2.451   6.327
 1233SOL     OW 4597   0.788   3.167   4.224
 1233SOL    HW1 4598   0.843   3.128   4.150
 1233SOL    HW2 4599   0.848   3.216   4.287
 1234SOL     OW 4600   6.217   4.493   4.948
 1234SOL    HW1 4601   6.255   4.404   4.921
 1234SOL    HW2 4602   6.290   4.551   4.984
 1235SOL     OW 4603   0.187   5.717   2.552
 1235SOL    HW1 4604   0.126   5.654   2.600
 1235SOL    HW2 4605   0.153   5.810   2.560
 1236SOL     OW 4606   5.254   1.246   0.090
 1236SOL    HW1 4607   5.261   1.297   0.176
 1236SOL    HW2 4608   5.240   1.149   0.110
 1237SOL     OW 4609   2.816   4.980   5.869
 1237SOL    HW1 4610   2.913   4.959   5.881
 1237SOL    HW2 4611   2.796   4.993   5.772
 1238SOL     OW 4612   2.191   0.935   0.543
 1238SOL    HW1 4613   2.172   0.840   0.518
 1238SOL    HW2 4614   2.283   0.960   0.512
 1239SOL     OW 4615   6.931   6.948   6.585
 1239SOL    HW1 4616   6.978   6.873   6.537
 1239SOL    HW2 4617   6.979   6.967   6.670
 1240SOL     OW 4618   5.409   5.499   2.050
 1240SOL    HW1 4619   5.379   5.528   1.960
 1240SOL    HW2 4620   5.338   5.444   2.093
 1241SOL     OW 4621   6.513   3.990   3.871
 1241SOL    HW1 4622   6.577   4.057   3.909
 1241SOL    HW2 4623   6.541   3.898   3.899
 1242SOL     OW 4624   0.757   3.782   1.793
 1242SOL    HW1 4625   0.660   3.793   1.817
 1242SOL    HW2 4626   0.768   3.800   1.695
 1243SOL     OW 4627   1.026   6.408   5.243
 1243SOL    HW1 4628   0.933   6.374   5.254
 1243SOL    HW2 4629   1.078   6.346   5.184
 1244SOL     OW 4630   0.061   6.440   3.724
 1244SOL    HW1 4631   0.135   6.406   3.666
 1244SOL    HW2 4632   7.014   6.368   3.737
 1245SOL     OW 4633   4.704   4.162   6.674
 1245SOL    HW1 4634   4.617   4.115   6.657
 1245SOL    HW2 4635   4.734   4.207   6.590
 1246SOL     OW 4636   2.097   6.392   2.107
 1246SOL    HW1 4637   2.156   6.331   2.053
 1246SOL    HW2 4638   2.108   6.486   2.074
 1247SOL     OW 4639   2.790   0.364   6.579
 1247SOL    HW1 4640   2.811   0.459   6.554
 1247SOL    HW2 4641   2.762   0.360   6.674
 1248SOL     OW 4642   2.337   6.859   4.555
 1248SOL    HW1 4643   2.255   6.805   4.572
 1248SOL    HW2 4644   2.417   6.800   4.558
 1249SOL     OW 4645   5.674   2.256   1.961
 1249SOL    HW1 4646   5.647   2.316   1.886
 1249SOL    HW2 4647   5.765   2.218   1.942
 1250SOL     OW 4648   6.677   4.560   4.497
 1250SOL    HW1 4649   6.755   4.617   4.522
 1250SOL    HW2 4650   6.609   4.563   4.571
 1251SOL     OW 4651   3.350   6.910   4.760
 1251SOL    HW1 4652   3.305   6.989   4.802
 1251SOL    HW2 4653   3.389   6.936   4.671
 1252SOL     OW 4654   3.736   3.983   6.118
 1252SOL    HW1 4655   3.689   3.900   6.147
 1252SOL    HW2 4656   3.729   3.992   6.018
 1253SOL     OW 4657   3.339   5.151   1.393
 1253SOL    HW1 4658   3.314   5.132   1.488
 1253SOL    HW2 4659   3.438   5.155   1.385
 1254SOL     OW 4660   6.431   3.226   2.604
 1254SOL    HW1 4661   6.337   3.238   2.572
 1254SOL    HW2 4662   6.447   3.129   2.623
 1255SOL     OW 4663   6.707   1.562   4.537
 1255SOL    HW1 4664   6.774   1.517   4.478
 1255SOL    HW2 4665   6.694   1.656   4.506
 1256SOL     OW 4666   0.101   6.872   2.926
 1256SOL    HW1 4667   0.035   6.802   2.954
 1256SOL    HW2 4668   0.152   6.902   3.006
 1257SOL     OW 4669   6.659   0.056   3.731
 1257SOL    HW1 4670   6.716   0.075   3.811
 1257SOL    HW2 4671   6.709   7.020   3.666
 1258SOL     OW 4672   0.850   5.137   3.955
 1258SOL    HW1 4673   0.817   5.044   3.937
 1258SOL    HW2 4674   0.853   5.188   3.869
 1259SOL     OW 4675   3.471   2.054   4.495
 1259SOL    HW1 4676   3.552   2.058   4.437
 1259SOL    HW2 4677   3.463   1.964   4.536
 1260SOL     OW 4678   1.227   1.400   0.020
 1260SOL    HW1 4679   1.260   1.405   6.948
 1260SOL    HW2 4680   1.205   1.492   0.053
 1261SOL     OW 4681   0.163   5.786   6.649
 1261SOL    HW1 4682   0.185   5.693   6.622
 1261SOL    HW2 4683   0.111   5.831   6.576
 1262SOL     OW 4684   5.454   4.916   1.438
 1262SOL    HW1 4685   5.363   4.873   1.437
 1262SOL    HW2 4686   5.463   4.973   1.519
 1263SOL     OW 4687   0.316   0.872   2.765
 1263SOL    HW1 4688   0.383   0.802   2.789
 1263SOL    HW2 4689   0.328   0.898   2.669
 1264SOL     OW 4690   0.365   4.034   6.586
 1264SOL    HW1 4691   0.459   4.054   6.616
 1264SOL    HW2 4692   0.302   4.094   6.634
 1265SOL     OW 4693   6.432   5.291   4.584
 1265SOL    HW1 4694   6.435   5.281   4.684
 1265SOL    HW2 4695   6.370   5.224   4.545
 1266SOL     OW 4696   0.825   0.779   4.380
 1266SOL    HW1 4697   0.862   0.750   4.292
 1266SOL    HW2 4698   0.892   0.761   4.452
 1267SOL     OW 4699   4.900   0.490   1.625
 1267SOL    HW1 4700   4.832   0.433   1.672
 1267SOL    HW2 4701   4.958   0.535   1.693
 1268SOL     OW 4702   3.020   2.555   5.995
 1268SOL    HW1 4703   3.053   2.614   6.069
 1268SOL    HW2 4704   2.940   2.597   5.952
 1269SOL     OW 4705   5.598   3.135   4.101
 1269SOL    HW1 4706   5.639   3.102   4.016
 1269SOL    HW2 4707   5.591   3.059   4.166
 1270SOL     OW 4708   2.034   4.655   2.018
 1270SOL    HW1 4709   2.020   4.754   2.009
 1270SOL    HW2 4710   2.014   4.628   2.112
 1271SOL     OW 4711   3.017   0.999   1.881
 1271SOL    HW1 4712   3.101   1.053   1.878
 1271SOL    HW2 4713   2.943   1.056   1.917
 1272SOL     OW 4714   6.152   4.611   6.488
 1272SOL    HW1 4715   6.086   4.640   6.558
 1272SOL    HW2 4716   6.142   4.513   6.472
 1273SOL     OW 4717   1.652   3.638   5.144
 1273SOL    HW1 4718   1.574   3.584   5.111
 1273SOL    HW2 4719   1.696   3.684   5.066
 1274SOL     OW 4720   0.053   4.678   1.543
 1274SOL    HW1 4721   0.091   4.657   1.633
 1274SOL    HW2 4722   0.117   4.649   1.471
 1275SOL     OW 4723   2.906   0.312   3.390
 1275SOL    HW1 4724   3.001   0.281   3.394
 1275SOL    HW2 4725   2.875   0.312   3.295
 1276SOL     OW 4726   5.271   4.654   4.411
 1276SOL    HW1 4727   5.351   4.628   4.465
 1276SOL    HW2 4728   5.260   4.589   4.336
 1277SOL     OW 4729   1.290   5.089   7.011
 1277SOL    HW1 4730   1.362   5.044   6.959
 1277SOL    HW2 4731   1.313   5.087   0.086
 1278SOL     OW 4732   1.499   6.811   4.114
 1278SOL    HW1 4733   1.474   6.794   4.209
 1278SOL    HW2 4734   1.417   6.834   4.062
 1279SOL     OW 4735   2.368   3.790   6.199
 1279SOL    HW1 4736   2.428   3.710   6.197
 1279SOL    HW2 4737   2.322   3.798   6.110
 1280SOL     OW 4738   3.618   0.556   3.439
 1280SOL    HW1 4739   3.631   0.585   3.344
 1280SOL    HW2 4740   3.565   0.626   3.488
 1281SOL     OW 4741   2.849   5.541   3.961
 1281SOL    HW1 4742   2.843   5.588   4.048
 1281SOL    HW2 4743   2.941   5.503   3.949
 1282SOL     OW 4744   0.126   2.808   0.407
 1282SOL    HW1 4745   0.042   2.758   0.429
 1282SOL    HW2 4746   0.179   2.757   0.340
 1283SOL     OW 4747   6.775   4.384   5.406
 1283SOL    HW1 4748   6.813   4.380   5.313
 1283SOL    HW2 4749   6.714   4.306   5.419
 1284SOL     OW 4750   4.205   0.415   1.171
 1284SOL    HW1 4751   4.127   0.441   1.115
 1284SOL    HW2 4752   4.174   0.394   1.264
 1285SOL     OW 4753   3.713   1.363   5.941
 1285SOL    HW1 4754   3.772   1.352   6.021
 1285SOL    HW2 4755   3.695   1.460   5.926
 1286SOL     OW 4756   4.873   2.604   0.793
 1286SOL    HW1 4757   4.827   2.516   0.782
 1286SOL    HW2 4758   4.912   2.632   0.705
 1287SOL     OW 4759   5.447   4.367   5.734
 1287SOL    HW1 4760   5.420   4.462   5.718
 1287SOL    HW2 4761   5.543   4.364   5.763
 1288SOL     OW 4762   4.557   4.525   5.623
 1288SOL    HW1 4763   4.499   4.565   5.553
 1288SOL    HW2 4764   4.648   4.507   5.585
 1289SOL     OW 4765   6.923   0.738   2.041
 1289SOL    HW1 4766   6.893   0.827   2.076
 1289SOL    HW2 4767   6.873   0.665   2.087
 1290SOL     OW 4768   1.268   0.265   1.307
 1290SOL    HW1 4769   1.228   0.307   1.388
 1290SOL    HW2 4770   1.273   0.166   1.319
 1291SOL     OW 4771   6.461   4.917   4.261
 1291SOL    HW1 4772   6.555   4.906   4.227
 1291SOL    HW2 4773   6.436   5.014   4.258
 1292SOL     OW 4774   0.692   5.672   2.184
 1292SOL    HW1 4775   0.689   5.746   2.252
 1292SOL    HW2 4776   0.691   5.711   2.092
 1293SOL     OW 4777   2.328   2.172   0.495
 1293SOL    HW1 4778   2.303   2.075   0.499
 1293SOL    HW2 4779   2.284   2.214   0.415
 1294SOL     OW 4780   1.619   3.967   6.290
 1294SOL    HW1 4781   1.645   4.030   6.217
 1294SOL    HW2 4782   1.573   3.887   6.251
 1295SOL     OW 4783   6.979   3.560   1.372
 1295SOL    HW1 4784   6.906   3.542   1.439
 1295SOL    HW2 4785   0.016   3.479   1.365
 1296SOL     OW 4786   4.861   0.074   5.520
 1296SOL    HW1 4787   4.838   0.004   5.588
 1296SOL    HW2 4788   4.915   0.032   5.447
 1297SOL     OW 4789   0.797   6.242   1.531
 1297SOL    HW1 4790   0.895   6.235   1.545
 1297SOL    HW2 4791   0.763   6.326   1.573
 1298SOL     OW 4792   5.212   6.402   3.425
 1298SOL    HW1 4793   5.270   6.480   3.447
 1298SOL    HW2 4794   5.204   6.342   3.505
 1299SOL     OW 4795   2.187   3.179   3.956
 1299SOL    HW1 4796   2.238   3.116   3.897
 1299SOL    HW2 4797   2.118   3.227   3.902
 1300SOL     OW 4798   1.901   3.411   1.410
 1300SOL    HW1 4799   1.923   3.481   1.341
 1300SOL    HW2 4800   1.808   3.426   1.444
 1301SOL     OW 4801   0.474   6.723   1.932
 1301SOL    HW1 4802   0.478   6.812   1.885
 1301SOL    HW2 4803   0.563   6.678   1.925
 1302SOL     OW 4804   5.328   0.575   5.081
 1302SOL    HW1 4805   5.286   0.613   5.163
 1302SOL    HW2 4806   5.330   0.475   5.088
 1303SOL     OW 4807   4.464   0.036   1.394
 1303SOL    HW1 4808   4.556   0.034   1.355
 1303SOL    HW2 4809   4.461   0.103   1.468
 1304SOL     OW 4810   1.810   1.146   1.468
 1304SOL    HW1 4811   1.860   1.225   1.432
 1304SOL    HW2 4812   1.818   1.069   1.405
 1305SOL     OW 4813   6.016   4.629   5.943
 1305SOL    HW1 4814   5.928   4.601   5.983
 1305SOL    HW2 4815   6.090   4.607   6.006
 1306SOL     OW 4816   1.051   5.508   4.500
 1306SOL    HW1 4817   0.967   5.522   4.447
 1306SOL    HW2 4818   1.085   5.596   4.532
 1307SOL     OW 4819   1.927   3.753   4.069
 1307SOL    HW1 4820   1.857   3.782   4.003
 1307SOL    HW2 4821   1.977   3.676   4.032
 1308SOL     OW 4822   6.587   6.923   6.116
 1308SOL    HW1 4823   6.629   7.012   6.101
 1308SOL    HW2 4824   6.637   6.853   6.065
 1309SOL     OW 4825   5.287   4.553   5.968
 1309SOL    HW1 4826   5.306   4.599   5.881
 1309SOL    HW2 4827   5.242   4.466   5.951
 1310SOL     OW 4828   0.394   4.082   3.668
 1310SOL    HW1 4829   0.330   4.006   3.659
 1310SOL    HW2 4830   0.370   4.154   3.604
 1311SOL     OW 4831   6.604   5.685   6.190
 1311SOL    HW1 4832   6.621   5.772   6.235
 1311SOL    HW2 4833   6.601   5.611   6.258
 1312SOL     OW 4834   1.866   0.288   0.042
 1312SOL    HW1 4835   1.922   0.260   6.986
 1312SOL    HW2 4836   1.919   0.349   0.100
 1313SOL     OW 4837   6.742   5.281   2.991
 1313SOL    HW1 4838   6.758   5.372   3.031
 1313SOL    HW2 4839   6.756   5.211   3.061
 1314SOL     OW 4840   3.508   1.500   4.674
 1314SOL    HW1 4841   3.455   1.416   4.668
 1314SOL    HW2 4842   3.573   1.493   4.750
 1315SOL     OW 4843   0.003   1.000   4.041
 1315SOL    HW1 4844   6.974   1.066   4.097
 1315SOL    HW2 4845   6.983   0.909   4.051
 1316SOL     OW 4846   3.805   0.031   5.225
 1316SOL    HW1 4847   3.885   0.086   5.202
 1316SOL    HW2 4848   3.734   0.045   5.157
 1317SOL     OW 4849   1.874   4.643   5.324
 1317SOL    HW1 4850   1.906   4.549   5.329
 1317SOL    HW2 4851   1.872   4.683   5.416
 1318SOL     OW 4852   1.445   2.784   6.581
 1318SOL    HW1 4853   1.397   2.836   6.652
 1318SOL    HW2 4854   1.518   2.731   6.623
 1319SOL     OW 4855   0.239   5.993   6.783
 1319SOL    HW1 4856   0.255   5.966   6.879
 1319SOL    HW2 4857   0.222   5.911   6.728
 1320SOL     OW 4858   2.922   3.031   6.645
 1320SOL    HW1 4859   2.941   3.039   6.547
 1320SOL    HW2 4860   2.825   3.009   6.658
 1321SOL     OW 4861   4.877   2.468   6.635
 1321SOL    HW1 4862   4.935   2.485   6.556
 1321SOL    HW2 4863   4.934   2.439   6.712
 1322SOL     OW 4864   3.709   0.955   4.272
 1322SOL    HW1 4865   3.613   0.953   4.301
 1322SOL    HW2 4866   3.748   0.863   4.282
 1323SOL     OW 4867   3.692   6.140   0.629
 1323SOL    HW1 4868   3.789   6.164   0.626
 1323SOL    HW2 4869   3.637   6.224   0.639
 1324SOL     OW 4870   1.313   3.870   0.576
 1324SOL    HW1 4871   1.409   3.842   0.571
 1324SOL    HW2 4872   1.268   3.851   0.489
 1325SOL     OW 4873   4.223   6.488   5.123
 1325SOL    HW1 4874   4.215   6.489   5.023
 1325SOL    HW2 4875   4.145   6.537   5.163
 1326SOL     OW 4876   5.006   4.083   5.398
 1326SOL    HW1 4877   5.035   4.028   5.320
 1326SOL    HW2 4878   4.987   4.024   5.476
 1327SOL     OW 4879   0.206   6.300   1.137
 1327SOL    HW1 4880   0.281   6.359   1.109
 1327SOL    HW2 4881   0.133   6.355   1.177
 1328SOL     OW 4882   1.519   3.141   6.455
 1328SOL    HW1 4883   1.593   3.151   6.389
 1328SOL    HW2 4884   1.459   3.066   6.426
 1329SOL     OW 4885   0.256   2.203   2.965
 1329SOL    HW1 4886   0.321   2.278   2.948
 1329SOL    HW2 4887   0.195   2.228   3.040
 1330SOL     OW 4888   0.327   2.020   0.937
 1330SOL    HW1 4889   0.381   1.960   0.996
 1330SOL    HW2 4890   0.235   2.030   0.975
 1331SOL     OW 4891   4.600   2.532   2.562
 1331SOL    HW1 4892   4.572   2.498   2.652
 1331SOL    HW2 4893   4.589   2.632   2.560
 1332SOL     OW 4894   2.386   6.895   0.586
 1332SOL    HW1 4895   2.427   6.878   0.496
 1332SOL    HW2 4896   2.290   6.919   0.575
 1333SOL     OW 4897   2.997   3.808   3.062
 1333SOL    HW1 4898   2.944   3.744   3.008
 1333SOL    HW2 4899   3.044   3.760   3.136
 1334SOL     OW 4900   6.235   2.208   3.579
 1334SOL    HW1 4901   6.280   2.295   3.601
 1334SOL    HW2 4902   6.184   2.175   3.658
 1335SOL     OW 4903   1.792   1.881   2.031
 1335SOL    HW1 4904   1.719   1.830   2.077
 1335SOL    HW2 4905   1.867   1.896   2.095
 1336SOL     OW 4906   3.827   1.767   5.601
 1336SOL    HW1 4907   3.749   1.826   5.583
 1336SOL    HW2 4908   3.896   1.779   5.530
 1337SOL     OW 4909   6.930   1.848   2.874
 1337SOL    HW1 4910   6.867   1.868   2.949
 1337SOL    HW2 4911   7.013   1.903   2.884
 1338SOL     OW 4912   6.899   4.648   4.181
 1338SOL    HW1 4913   6.924   4.704   4.260
 1338SOL    HW2 4914   6.819   4.592   4.204
 1339SOL     OW 4915   6.966   0.866   0.158
 1339SOL    HW1 4916   6.893   0.840   0.221
 1339SOL    HW2 4917   6.977   0.966   0.159
 1340SOL     OW 4918   5.290   1.745   2.457
 1340SOL    HW1 4919   5.223   1.684   2.414
 1340SOL    HW2 4920   5.368   1.692   2.489
 1341SOL     OW 4921   3.997   6.514   0.132
 1341SOL    HW1 4922   4.010   6.613   0.138
 1341SOL    HW2 4923   4.024   6.482   0.042
 1342SOL     OW 4924   3.199   5.170   6.408
 1342SOL    HW1 4925   3.233   5.113   6.334
 1342SOL    HW2 4926   3.114   5.132   6.444
 1343SOL     OW 4927   5.569   5.371   2.685
 1343SOL    HW1 4928   5.520   5.351   2.600
 1343SOL    HW2 4929   5.658   5.326   2.683
 1344SOL     OW 4930   0.419   6.265   4.417
 1344SOL    HW1 4931   0.456   6.357   4.426
 1344SOL    HW2 4932   0.326   6.269   4.380
 1345SOL     OW 4933   0.865   4.524   2.255
 1345SOL    HW1 4934   0.771   4.522   2.289
 1345SOL    HW2 4935   0.869   4.581   2.172
 1346SOL     OW 4936   1.431   5.277   6.156
 1346SOL    HW1 4937   1.511   5.326   6.191
 1346SOL    HW2 4938   1.458   5.184   6.130
 1347SOL     OW 4939   1.383   6.632   6.709
 1347SOL    HW1 4940   1.403   6.723   6.744
 1347SOL    HW2 4941   1.304   6.636   6.648
 1348SOL     OW 4942   0.184   6.524   5.356
 1348SOL    HW1 4943   0.224   6.589   5.291
 1348SOL    HW2 4944   0.166   6.571   5.443
 1349SOL     OW 4945   5.272   2.489   4.305
 1349SOL    HW1 4946   5.180   2.520   4.283
 1349SOL    HW2 4947   5.299   2.417   4.241
 1350SOL     OW 4948   4.258   4.885   6.321
 1350SOL    HW1 4949   4.206   4.835   6.251
 1350SOL    HW2 4950   4.334   4.933   6.278
 1351SOL     OW 4951   5.867   2.596   4.220
 1351SOL    HW1 4952   5.783   2.645   4.198
 1351SOL    HW2 4953   5.855   2.545   4.305
 1352SOL     OW 4954   6.763   6.668   3.410
 1352SOL    HW1 4955   6.845   6.619   3.379
 1352SOL    HW2 4956   6.704   6.605   3.461
 1353SOL     OW 4957   1.571   1.850   0.553
 1353SOL    HW1 4958   1.518   1.896   0.481
 1353SOL    HW2 4959   1.522   1.857   0.640
 1354SOL     OW 4960   0.136   3.544   2.105
 1354SOL    HW1 4961   0.068   3.471   2.107
 1354SOL    HW2 4962   0.186   3.546   2.192
 1355SOL     OW 4963   6.335   3.774   4.216
 1355SOL    HW1 4964   6.400   3.700   4.199
 1355SOL    HW2 4965   6.283   3.754   4.299
 1356SOL     OW 4966   3.546   2.923   1.982
 1356SOL    HW1 4967   3.525   2.906   2.079
 1356SOL    HW2 4968   3.645   2.932   1.971
 1357SOL     OW 4969   6.611   4.068   5.997
 1357SOL    HW1 4970   6.566   3.983   6.023
 1357SOL    HW2 4971   6.587   4.140   6.062
 1358SOL     OW 4972   6.022   6.856   0.315
 1358SOL    HW1 4973   6.020   6.955   0.329
 1358SOL    HW2 4974   5.930   6.819   0.324
 1359SOL     OW 4975   6.698   4.678   1.997
 1359SOL    HW1 4976   6.755   4.759   2.010
 1359SOL    HW2 4977   6.623   4.680   2.064
 1360SOL     OW 4978   3.218   3.317   0.210
 1360SOL    HW1 4979   3.169   3.232   0.230
 1360SOL    HW2 4980   3.203   3.383   0.284
 1361SOL     OW 4981   6.806   4.715   4.902
 1361SOL    HW1 4982   6.800   4.732   5.001
 1361SOL    HW2 4983   6.741   4.643   4.877
 1362SOL     OW 4984   3.797   3.917   2.914
 1362SOL    HW1 4985   3.857   3.889   2.839
 1362SOL    HW2 4986   3.735   3.842   2.938
 1363SOL     OW 4987   0.069   5.495   4.127
 1363SOL    HW1 4988   0.116   5.426   4.071
 1363SOL    HW2 4989   0.009   5.449   4.192
 1364SOL     OW 4990   4.408   4.169   0.191
 1364SOL    HW1 4991   4.477   4.237   0.216
 1364SOL    HW2 4992   4.333   4.172   0.257
 1365SOL     OW 4993   0.325   4.282   6.971
 1365SOL    HW1 4994   0.382   4.359   7.000
 1365SOL    HW2 4995   0.375   4.196   6.985
 1366SOL     OW 4996   1.789   6.656   5.560
 1366SOL    HW1 4997   1.789   6.642   5.659
 1366SOL    HW2 4998   1.868   6.611   5.520
 1367SOL     OW 4999   1.903   0.419   2.398
 1367SOL    HW1 5000   1.976   0.472   2.441
 1367SOL    HW2 5001   1.846   0.378   2.468
 1368SOL     OW 5002   5.160   6.791   5.274
 1368SOL    HW1 5003   5.089   6.752   5.215
 1368SOL    HW2 5004   5.212   6.859   5.222
 1369SOL     OW 5005   1.611   6.167   3.012
 1369SOL    HW1 5006   1.659   6.200   3.093
 1369SOL    HW2 5007   1.675   6.119   2.953
 1370SOL     OW 5008   3.354   0.804   1.725
 1370SOL    HW1 5009   3.298   0.825   1.645
 1370SOL    HW2 5010   3.391   0.888   1.763
 1371SOL     OW 5011   4.387   1.058   4.877
 1371SOL    HW1 5012   4.368   0.975   4.825
 1371SOL    HW2 5013   4.305   1.116   4.878
 1372SOL     OW 5014   1.814   2.878   1.258
 1372SOL    HW1 5015   1.818   2.790   1.304
 1372SOL    HW2 5016   1.731   2.927   1.287
 1373SOL     OW 5017   6.374   4.787   0.498
 1373SOL    HW1 5018   6.371   4.863   0.433
 1373SOL    HW2 5019   6.353   4.702   0.451
 1374SOL     OW 5020   4.479   2.509   0.845
 1374SOL    HW1 5021   4.488   2.525   0.943
 1374SOL    HW2 5022   4.452   2.593   0.799
 1375SOL     OW 5023   0.076   4.844   5.149
 1375SOL    HW1 5024   0.101   4.844   5.245
 1375SOL    HW2 5025   0.012   4.918   5.131
 1376SOL     OW 5026   4.535   2.488   4.012
 1376SOL    HW1 5027   4.478   2.406   4.003
 1376SOL    HW2 5028   4.515   2.551   3.937
 1377SOL     OW 5029   0.494   4.420   5.398
 1377SOL    HW1 5030   0.520   4.494   5.460
 1377SOL    HW2 5031   0.402   4.437   5.363
 1378SOL     OW 5032   1.063   2.390   6.260
 1378SOL    HW1 5033   1.044   2.304   6.213
 1378SOL    HW2 5034   1.021   2.466   6.211
 1379SOL     OW 5035   3.391   6.189   2.909
 1379SOL    HW1 5036   3.478   6.209   2.863
 1379SOL    HW2 5037   3.408   6.129   2.987
 1380SOL     OW 5038   6.643   6.785   2.194
 1380SOL    HW1 5039   6.597   6.719   2.253
 1380SOL    HW2 5040   6.735   6.804   2.230
 1381SOL     OW 5041   5.979   2.896   0.189
 1381SOL    HW1 5042   6.031   2.865   0.269
 1381SOL    HW2 5043   5.976   2.996   0.189
 1382SOL     OW 5044   6.191   5.538   5.870
 1382SOL    HW1 5045   6.196   5.631   5.906
 1382SOL    HW2 5046   6.158   5.476   5.941
 1383SOL     OW 5047   0.859   0.962   0.398
 1383SOL    HW1 5048   0.926   0.930   0.331
 1383SOL    HW2 5049   0.907   0.993   0.480
 1384SOL     OW 5050   3.426   1.474   3.666
 1384SOL    HW1 5051   3.406   1.392   3.719
 1384SOL    HW2 5052   3.412   1.555   3.724
 1385SOL     OW 5053   6.230   2.757   3.432
 1385SOL    HW1 5054   6.147   2.754   3.488
 1385SOL    HW2 5055   6.206   2.782   3.338
 1386SOL     OW 5056   2.131   3.115   4.505
 1386SOL    HW1 5057   2.076   3.088   4.426
 1386SOL    HW2 5058   2.221   3.072   4.499
 1387SOL     OW 5059   3.729   0.431   4.324
 1387SOL    HW1 5060   3.779   0.354   4.286
 1387SOL    HW2 5061   3.659   0.397   4.387
 1388SOL     OW 5062   6.772   0.272   4.266
 1388SOL    HW1 5063   6.680   0.239   4.244
 1388SOL    HW2 5064   6.766   0.338   4.341
 1389SOL     OW 5065   6.535   0.142   4.262
 1389SOL    HW1 5066   6.525   0.091   4.177
 1389SOL    HW2 5067   6.564   0.080   4.335
 1390SOL     OW 5068   4.289   1.615   1.208
 1390SOL    HW1 5069   4.255   1.664   1.289
 1390SOL    HW2 5070   4.387   1.630   1.199
 1391SOL     OW 5071   6.419   0.783   4.985
 1391SOL    HW1 5072   6.455   0.858   5.039
 1391SOL    HW2 5073   6.382   0.712   5.045
 1392SOL     OW 5074   4.393   6.008   6.268
 1392SOL    HW1 5075   4.329   5.982   6.196
 1392SOL    HW2 5076   4.350   5.997   6.357
 1393SOL     OW 5077   6.593   1.647   6.582
 1393SOL    HW1 5078   6.549   1.683   6.499
 1393SOL    HW2 5079   6.577   1.549   6.588
 1394SOL     OW 5080   4.405   6.485   3.648
 1394SOL    HW1 5081   4.359   6.396   3.641
 1394SOL    HW2 5082   4.381   6.541   3.569
 1395SOL     OW 5083   1.191   4.981   3.085
 1395SOL    HW1 5084   1.149   5.026   3.164
 1395SOL    HW2 5085   1.273   5.030   3.058
 1396SOL     OW 5086   2.145   1.349   4.612
 1396SOL    HW1 5087   2.199   1.272   4.578
 1396SOL    HW2 5088   2.202   1.405   4.673
 1397SOL     OW 5089   0.816   4.520   4.819
 1397SOL    HW1 5090   0.780   4.541   4.728
 1397SOL    HW2 5091   0.871   4.437   4.815
 1398SOL     OW 5092   1.610   1.355   0.865
 1398SOL    HW1 5093   1.566   1.282   0.918
 1398SOL    HW2 5094   1.648   1.317   0.781
 1399SOL     OW 5095   4.035   6.917   0.430
 1399SOL    HW1 5096   4.000   7.005   0.462
 1399SOL    HW2 5097   4.004   6.845   0.492
 1400SOL     OW 5098   6.748   0.430   4.641
 1400SOL    HW1 5099   6.818   0.474   4.586
 1400SOL    HW2 5100   6.712   0.496   4.708
 1401SOL     OW 5101   5.589   0.781   3.884
 1401SOL    HW1 5102   5.507   0.836   3.871
 1401SOL    HW2 5103   5.668   0.828   3.846
 1402SOL     OW 5104   5.525   3.836   1.234
 1402SOL    HW1 5105   5.615   3.829   1.192
 1402SOL    HW2 5106   5.474   3.910   1.190
 1403SOL     OW 5107   3.926   3.143   6.990
 1403SOL    HW1 5108   3.865   3.065   7.003
 1403SOL    HW2 5109   3.927   3.198   0.051
 1404SOL     OW 5110   4.287   6.980   0.778
 1404SOL    HW1 5111   4.336   0.046   0.779
 1404SOL    HW2 5112   4.196   6.992   0.818
 1405SOL     OW 5113   2.265   3.446   0.970
 1405SOL    HW1 5114   2.360   3.463   0.997
 1405SOL    HW2 5115   2.263   3.400   0.882
 1406SOL     OW 5116   2.123   3.184   1.061
 1406SOL    HW1 5117   2.210   3.225   1.089
 1406SOL    HW2 5118   2.084   3.135   1.139
 1407SOL     OW 5119   0.690   3.138   1.651
 1407SOL    HW1 5120   0.673   3.041   1.634
 1407SOL    HW2 5121   0.693   3.155   1.750
 1408SOL     OW 5122   5.485   5.899   5.911
 1408SOL    HW1 5123   5.580   5.874   5.927
 1408SOL    HW2 5124   5.426   5.824   5.942
 1409SOL     OW 5125   6.821   0.817   6.053
 1409SOL    HW1 5126   6.874   0.744   6.010
 1409SOL    HW2 5127   6.882   0.875   6.108
 1410SOL     OW 5128   3.076   2.760   5.739
 1410SOL    HW1 5129   3.163   2.711   5.733
 1410SOL    HW2 5130   3.024   2.726   5.818
 1411SOL     OW 5131   3.904   5.946   0.316
 1411SOL    HW1 5132   3.934   5.892   0.394
 1411SOL    HW2 5133   3.806   5.965   0.324
 1412SOL     OW 5134   1.366   2.645   0.649
 1412SOL    HW1 5135   1.299   2.573   0.631
 1412SOL    HW2 5136   1.453   2.603   0.675
 1413SOL     OW 5137   1.786   1.656   5.264
 1413SOL    HW1 5138   1.819   1.575   5.313
 1413SOL    HW2 5139   1.750   1.722   5.330
 1414SOL     OW 5140   0.507   3.287   2.316
 1414SOL    HW1 5141   0.442   3.342   2.264
 1414SOL    HW2 5142   0.576   3.346   2.357
 1415SOL     OW 5143   2.748   1.884   4.103
 1415SOL    HW1 5144   2.663   1.892   4.156
 1415SOL    HW2 5145   2.729   1.901   4.006
 1416SOL     OW 5146   4.023   0.182   5.543
 1416SOL    HW1 5147   3.970   0.100   5.523
 1416SOL    HW2 5148   4.022   0.199   5.642
 1417SOL     OW 5149   3.187   2.954   6.243
 1417SOL    HW1 5150   3.241   2.940   6.326
 1417SOL    HW2 5151   3.248   2.975   6.167
 1418SOL     OW 5152   3.863   3.259   0.206
 1418SOL    HW1 5153   3.799   3.214   0.268
 1418SOL    HW2 5154   3.813   3.318   0.143
 1419SOL     OW 5155   1.948   5.396   3.651
 1419SOL    HW1 5156   2.030   5.435   3.608
 1419SOL    HW2 5157   1.869   5.417   3.594
 1420SOL     OW 5158   3.740   5.205   2.991
 1420SOL    HW1 5159   3.754   5.138   2.918
 1420SOL    HW2 5160   3.778   5.293   2.963
 1421SOL     OW 5161   0.829   5.399   5.767
 1421SOL    HW1 5162   0.783   5.336   5.828
 1421SOL    HW2 5163   0.826   5.363   5.673
 1422SOL     OW 5164   2.866   3.714   5.813
 1422SOL    HW1 5165   2.773   3.747   5.798
 1422SOL    HW2 5166   2.908   3.693   5.725
 1423SOL     OW 5167   4.350   0.611   4.844
 1423SOL    HW1 5168   4.256   0.582   4.829
 1423SOL    HW2 5169   4.358   0.656   4.933
 1424SOL     OW 5170   5.832   3.116   6.383
 1424SOL    HW1 5171   5.896   3.134   6.309
 1424SOL    HW2 5172   5.756   3.181   6.378
 1425SOL     OW 5173   3.830   6.490   4.325
 1425SOL    HW1 5174   3.770   6.566   4.351
 1425SOL    HW2 5175   3.844   6.429   4.403
 1426SOL     OW 5176   2.334   1.966   0.099
 1426SOL    HW1 5177   2.311   1.870   0.081
 1426SOL    HW2 5178   2.367   2.009   0.015
 1427SOL     OW 5179   1.059   1.221   3.075
 1427SOL    HW1 5180   1.057   1.162   3.156
 1427SOL    HW2 5181   0.978   1.279   3.074
 1428SOL     OW 5182   6.430   3.139   3.244
 1428SOL    HW1 5183   6.441   3.213   3.179
 1428SOL    HW2 5184   6.513   3.083   3.246
 1429SOL     OW 5185   6.284   1.421   0.804
 1429SOL    HW1 5186   6.203   1.393   0.754
 1429SOL    HW2 5187   6.258   1.456   0.894
 1430SOL     OW 5188   2.192   3.052   3.067
 1430SOL    HW1 5189   2.204   3.109   3.149
 1430SOL    HW2 5190   2.257   2.977   3.069
 1431SOL     OW 5191   2.679   1.485   6.458
 1431SOL    HW1 5192   2.733   1.447   6.532
 1431SOL    HW2 5193   2.644   1.411   6.400
 1432SOL     OW 5194   2.785   1.054   1.164
 1432SOL    HW1 5195   2.788   0.963   1.122
 1432SOL    HW2 5196   2.699   1.064   1.214
 1433SOL     OW 5197   2.946   0.377   4.407
 1433SOL    HW1 5198   3.016   0.316   4.445
 1433SOL    HW2 5199   2.883   0.323   4.350
 1434SOL     OW 5200   0.164   2.943   6.993
 1434SOL    HW1 5201   0.194   2.977   0.061
 1434SOL    HW2 5202   0.127   3.020   6.940
 1435SOL     OW 5203   1.106   0.490   4.350
 1435SOL    HW1 5204   1.165   0.570   4.359
 1435SOL    HW2 5205   1.087   0.452   4.440
 1436SOL     OW 5206   5.799   1.913   0.584
 1436SOL    HW1 5207   5.739   1.941   0.509
 1436SOL    HW2 5208   5.763   1.947   0.671
 1437SOL     OW 5209   4.234   1.757   6.252
 1437SOL    HW1 5210   4.209   1.676   6.305
 1437SOL    HW2 5211   4.159   1.782   6.191
 1438SOL     OW 5212   2.399   1.100   1.966
 1438SOL    HW1 5213   2.396   1.008   1.925
 1438SOL    HW2 5214   2.349   1.099   2.053
 1439SOL     OW 5215   6.567   5.380   6.735
 1439SOL    HW1 5216   6.572   5.400   6.833
 1439SOL    HW2 5217   6.489   5.319   6.717
 1440SOL     OW 5218   3.294   2.925   3.300
 1440SOL    HW1 5219   3.270   2.961   3.210
 1440SOL    HW2 5220   3.214   2.882   3.342
 1441SOL     OW 5221   0.252   2.817   4.515
 1441SOL    HW1 5222   0.254   2.820   4.614
 1441SOL    HW2 5223   0.201   2.895   4.479
 1442SOL     OW 5224   4.908   4.176   0.315
 1442SOL    HW1 5225   4.983   4.242   0.323
 1442SOL    HW2 5226   4.869   4.181   0.224
 1443SOL     OW 5227   0.768   1.528   3.301
 1443SOL    HW1 5228   0.709   1.512   3.380
 1443SOL    HW2 5229   0.802   1.622   3.303
 1444SOL     OW 5230   4.631   0.684   3.391
 1444SOL    HW1 5231   4.702   0.726   3.447
 1444SOL    HW2 5232   4.543   0.691   3.438
 1445SOL     OW 5233   6.725   2.404   1.779
 1445SOL    HW1 5234   6.690   2.326   1.727
 1445SOL    HW2 5235   6.804   2.377   1.833
 1446SOL     OW 5236   4.285   2.135   1.456
 1446SOL    HW1 5237   4.189   2.111   1.436
 1446SOL    HW2 5238   4.305   2.115   1.551
 1447SOL     OW 5239   6.443   1.533   5.129
 1447SOL    HW1 5240   6.347   1.559   5.115
 1447SOL    HW2 5241   6.465   1.539   5.226
 1448SOL     OW 5242   5.306   1.227   6.412
 1448SOL    HW1 5243   5.246   1.147   6.402
 1448SOL    HW2 5244   5.263   1.293   6.473
 1449SOL     OW 5245   5.058   6.146   0.815
 1449SOL    HW1 5246   5.050   6.232   0.765
 1449SOL    HW2 5247   5.083   6.073   0.752
 1450SOL     OW 5248   5.722   2.915   2.782
 1450SOL    HW1 5249   5.704   2.910   2.684
 1450SOL    HW2 5250   5.707   3.008   2.814
 1451SOL     OW 5251   1.921   6.832   2.881
 1451SOL    HW1 5252   1.909   6.893   2.959
 1451SOL    HW2 5253   2.018   6.812   2.869
 1452SOL     OW 5254   5.226   0.601   4.828
 1452SOL    HW1 5255   5.256   0.637   4.916
 1452SOL    HW2 5256   5.239   0.671   4.757
 1453SOL     OW 5257   5.135   4.086   4.969
 1453SOL    HW1 5258   5.224   4.095   5.013
 1453SOL    HW2 5259   5.111   4.172   4.924
 1454SOL     OW 5260   5.115   2.851   1.755
 1454SOL    HW1 5261   5.175   2.794   1.699
 1454SOL    HW2 5262   5.159   2.871   1.842
 1455SOL     OW 5263   1.050   0.854   1.900
 1455SOL    HW1 5264   1.101   0.862   1.815
 1455SOL    HW2 5265   1.035   0.945   1.939
 1456SOL     OW 5266   6.858   6.864   4.322
 1456SOL    HW1 5267   6.804   6.926   4.379
 1456SOL    HW2 5268   6.921   6.916   4.266
 1457SOL     OW 5269   2.084   0.612   3.817
 1457SOL    HW1 5270   2.041   0.564   3.893
 1457SOL    HW2 5271   2.172   0.570   3.796
 1458SOL     OW 5272   5.461   6.615   5.872
 1458SOL    HW1 5273   5.414   6.698   5.899
 1458SOL    HW2 5274   5.397   6.538   5.872
 1459SOL     OW 5275   2.821   6.023   7.002
 1459SOL    HW1 5276   2.806   6.101   0.041
 1459SOL    HW2 5277   2.746   5.957   7.014
 1460SOL     OW 5278   1.065   6.278   6.895
 1460SOL    HW1 5279   1.164   6.278   6.911
 1460SOL    HW2 5280   1.048   6.263   6.797
 1461SOL     OW 5281   5.808   4.386   2.721
 1461SOL    HW1 5282   5.781   4.304   2.670
 1461SOL    HW2 5283   5.880   4.363   2.785
 1462SOL     OW 5284   6.348   0.655   0.440
 1462SOL    HW1 5285   6.372   0.729   0.503
 1462SOL    HW2 5286   6.251   0.633   0.449
 1463SOL     OW 5287   1.238   0.766   4.753
 1463SOL    HW1 5288   1.310   0.823   4.713
 1463SOL    HW2 5289   1.231   0.784   4.851
 1464SOL     OW 5290   0.007   6.369   0.439
 1464SOL    HW1 5291   0.025   6.463   0.468
 1464SOL    HW2 5292   0.043   6.354   0.347
 1465SOL     OW 5293   0.381   0.473   4.341
 1465SOL    HW1 5294   0.354   0.504   4.432
 1465SOL    HW2 5295   0.477   0.497   4.324
 1466SOL     OW 5296   5.885   5.689   2.914
 1466SOL    HW1 5297   5.977   5.724   2.928
 1466SOL    HW2 5298   5.818   5.761   2.931
 1467SOL     OW 5299   0.815   1.053   3.267
 1467SOL    HW1 5300   0.908   1.087   3.260
 1467SOL    HW2 5301   0.751   1.124   3.234
 1468SOL     OW 5302   5.363   5.660   3.822
 1468SOL    HW1 5303   5.421   5.649   3.741
 1468SOL    HW2 5304   5.320   5.750   3.821
 1469SOL     OW 5305   0.981   0.415   2.287
 1469SOL    HW1 5306   1.067   0.367   2.270
 1469SOL    HW2 5307   0.997   0.490   2.350
 1470SOL     OW 5308   1.175   0.667   3.056
 1470SOL    HW1 5309   1.177   0.653   3.155
 1470SOL    HW2 5310   1.244   0.609   3.012
 1471SOL     OW 5311   0.038   0.215   0.081
 1471SOL    HW1 5312   0.131   0.252   0.074
 1471SOL    HW2 5313   6.994   0.284   0.053
 1472SOL     OW 5314   5.075   0.553   6.029
 1472SOL    HW1 5315   5.164   0.546   5.985
 1472SOL    HW2 5316   5.048   0.649   6.036
 1473SOL     OW 5317   6.275   5.171   2.741
 1473SOL    HW1 5318   6.200   5.236   2.739
 1473SOL    HW2 5319   6.339   5.196   2.814
 1474SOL     OW 5320   6.091   5.575   4.297
 1474SOL    HW1 5321   6.001   5.617   4.308
 1474SOL    HW2 5322   6.122   5.537   4.384
 1475SOL     OW 5323   6.686   0.866   2.863
 1475SOL    HW1 5324   6.770   0.914   2.887
 1475SOL    HW2 5325   6.706   0.769   2.847
 1476SOL     OW 5326   1.376   1.717   2.271
 1476SOL    HW1 5327   1.338   1.689   2.183
 1476SOL    HW2 5328   1.319   1.789   2.311
 1477SOL     OW 5329   3.090   6.825   5.407
 1477SOL    HW1 5330   3.082   6.917   5.367
 1477SOL    HW2 5331   3.084   6.757   5.334
 1478SOL     OW 5332   6.228   5.072   1.158
 1478SOL    HW1 5333   6.151   5.122   1.120
 1478SOL    HW2 5334   6.196   4.984   1.194
 1479SOL     OW 5335   1.774   4.410   0.668
 1479SOL    HW1 5336   1.845   4.480   0.677
 1479SOL    HW2 5337   1.690   4.451   0.633
 1480SOL     OW 5338   2.068   1.753   0.265
 1480SOL    HW1 5339   1.969   1.741   0.254
 1480SOL    HW2 5340   2.089   1.850   0.277
 1481SOL     OW 5341   6.039   2.184   6.005
 1481SOL    HW1 5342   6.103   2.122   5.960
 1481SOL    HW2 5343   6.084   2.230   6.081
 1482SOL     OW 5344   5.558   0.740   6.990
 1482SOL    HW1 5345   5.548   0.840   6.984
 1482SOL    HW2 5346   5.528   0.709   0.058
 1483SOL     OW 5347   6.516   2.943   0.451
 1483SOL    HW1 5348   6.443   3.008   0.430
 1483SOL    HW2 5349   6.603   2.992   0.456
 1484SOL     OW 5350   6.717   4.786   2.343
 1484SOL    HW1 5351   6.646   4.716   2.354
 1484SOL    HW2 5352   6.674   4.877   2.343
 1485SOL     OW 5353   5.233   2.947   3.905
 1485SOL    HW1 5354   5.256   2.855   3.875
 1485SOL    HW2 5355   5.255   3.012   3.832
 1486SOL     OW 5356   4.796   2.402   2.955
 1486SOL    HW1 5357   4.759   2.381   3.046
 1486SOL    HW2 5358   4.873   2.464   2.965
 1487SOL     OW 5359   5.759   1.739   5.702
 1487SOL    HW1 5360   5.758   1.642   5.677
 1487SOL    HW2 5361   5.679   1.784   5.661
 1488SOL     OW 5362   4.823   1.116   3.453
 1488SOL    HW1 5363   4.740   1.064   3.475
 1488SOL    HW2 5364   4.809   1.212   3.474
 1489SOL     OW 5365   3.961   5.199   4.619
 1489SOL    HW1 5366   3.880   5.210   4.561
 1489SOL    HW2 5367   4.011   5.118   4.591
 1490SOL     OW 5368   1.069   1.894   0.378
 1490SOL    HW1 5369   0.986   1.848   0.347
 1490SOL    HW2 5370   1.047   1.956   0.454
 1491SOL     OW 5371   0.175   3.542   3.774
 1491SOL    HW1 5372   0.259   3.591   3.747
 1491SOL    HW2 5373   0.173   3.453   3.729
 1492SOL     OW 5374   5.233   2.205   1.532
 1492SOL    HW1 5375   5.201   2.300   1.537
 1492SOL    HW2 5376   5.158   2.147   1.501
 1493SOL     OW 5377   4.952   0.339   5.234
 1493SOL    HW1 5378   4.928   0.436   5.232
 1493SOL    HW2 5379   4.889   0.290   5.294
 1494SOL     OW 5380   3.941   2.251   5.934
 1494SOL    HW1 5381   4.010   2.184   5.962
 1494SOL    HW2 5382   3.862   2.244   5.994
 1495SOL     OW 5383   0.838   3.018   2.975
 1495SOL    HW1 5384   0.804   3.038   2.883
 1495SOL    HW2 5385   0.923   3.068   2.990
 1496SOL     OW 5386   6.570   0.528   2.085
 1496SOL    HW1 5387   6.571   0.559   1.990
 1496SOL    HW2 5388   6.491   0.470   2.100
 1497SOL     OW 5389   6.923   5.296   3.961
 1497SOL    HW1 5390   6.920   5.358   4.041
 1497SOL    HW2 5391   7.004   5.238   3.968
 1498SOL     OW 5392   2.181   4.486   6.332
 1498SOL    HW1 5393   2.275   4.486   6.367
 1498SOL    HW2 5394   2.156   4.578   6.303
 1499SOL     OW 5395   1.108   3.486   4.942
 1499SOL    HW1 5396   1.050   3.426   4.997
 1499SOL    HW2 5397   1.112   3.576   4.985
 1500SOL     OW 5398   5.384   6.929   0.048
 1500SOL    HW1 5399   5.400   6.982   6.987
 1500SOL    HW2 5400   5.461   6.867   0.063
 1501SOL     OW 5401   4.296   0.497   6.639
 1501SOL    HW1 5402   4.200   0.502   6.613
 1501SOL    HW2 5403   4.330   0.404   6.623
 1502SOL     OW 5404   5.983   6.465   0.286
 1502SOL    HW1 5405   6.002   6.374   0.322
 1502SOL    HW2 5406   6.019   6.534   0.348
 1503SOL     OW 5407   2.727   2.884   6.921
 1503SOL    HW1 5408   2.753   2.794   6.957
 1503SOL    HW2 5409   2.773   2.955   6.973
 1504SOL     OW 5410   3.416   6.958   5.344
 1504SOL    HW1 5411   3.360   6.946   5.262
 1504SOL    HW2 5412   3.359   6.991   5.419
 1505SOL     OW 5413   5.914   6.726   5.345
 1505SOL    HW1 5414   5.825   6.766   5.369
 1505SOL    HW2 5415   5.923   6.637   5.391
 1506SOL     OW 5416   0.864   5.611   3.837
 1506SOL    HW1 5417   0.829   5.628   3.929
 1506SOL    HW2 5418   0.789   5.579   3.778
 1507SOL     OW 5419   1.692   1.398   5.703
 1507SOL    HW1 5420   1.647   1.422   5.618
 1507SOL    HW2 5421   1.704   1.480   5.759
 1508SOL     OW 5422   4.337   6.852   0.533
 1508SOL    HW1 5423   4.322   6.908   0.615
 1508SOL    HW2 5424   4.269   6.876   0.464
 1509SOL     OW 5425   4.487   2.714   6.650
 1509SOL    HW1 5426   4.526   2.797   6.690
 1509SOL    HW2 5427   4.532   2.634   6.689
 1510SOL     OW 5428   6.872   2.258   4.572
 1510SOL    HW1 5429   6.914   2.251   4.662
 1510SOL    HW2 5430   6.912   2.334   4.522
 1511SOL     OW 5431   2.897   1.641   0.038
 1511SOL    HW1 5432   2.856   1.659   6.970
 1511SOL    HW2 5433   2.828   1.599   0.098
 1512SOL     OW 5434   0.100   0.533   1.685
 1512SOL    HW1 5435   0.065   0.605   1.745
 1512SOL    HW2 5436   0.191   0.557   1.653
 1513SOL     OW 5437   3.354   0.077   4.358
 1513SOL    HW1 5438   3.395   7.008   4.371
 1513SOL    HW2 5439   3.361   0.103   4.262
 1514SOL     OW 5440   5.573   2.124   5.126
 1514SOL    HW1 5441   5.610   2.031   5.127
 1514SOL    HW2 5442   5.531   2.143   5.038
 1515SOL     OW 5443   0.177   4.398   5.003
 1515SOL    HW1 5444   0.181   4.462   5.080
 1515SOL    HW2 5445   0.269   4.366   4.981
 1516SOL     OW 5446   0.425   1.771   0.640
 1516SOL    HW1 5447   0.342   1.720   0.617
 1516SOL    HW2 5448   0.485   1.714   0.696
 1517SOL     OW 5449   4.525   6.173   3.510
 1517SOL    HW1 5450   4.597   6.140   3.570
 1517SOL    HW2 5451   4.451   6.213   3.565
 1518SOL     OW 5452   6.715   4.380   0.515
 1518SOL    HW1 5453   6.809   4.348   0.498
 1518SOL    HW2 5454   6.685   4.437   0.439
 1519SOL     OW 5455   6.292   4.643   1.052
 1519SOL    HW1 5456   6.364   4.573   1.049
 1519SOL    HW2 5457   6.295   4.689   1.140
 1520SOL     OW 5458   2.055   3.411   2.505
 1520SOL    HW1 5459   2.025   3.402   2.411
 1520SOL    HW2 5460   2.076   3.321   2.543
 1521SOL     OW 5461   1.548   3.349   6.982
 1521SOL    HW1 5462   1.610   3.393   6.917
 1521SOL    HW2 5463   1.523   3.413   0.032
 1522SOL     OW 5464   6.032   2.005   6.414
 1522SOL    HW1 5465   5.976   2.082   6.384
 1522SOL    HW2 5466   6.121   2.039   6.444
 1523SOL     OW 5467   6.072   2.688   1.357
 1523SOL    HW1 5468   6.171   2.703   1.356
 1523SOL    HW2 5469   6.028   2.755   1.297
 1524SOL     OW 5470   0.163   1.374   1.368
 1524SOL    HW1 5471   0.237   1.365   1.302
 1524SOL    HW2 5472   0.194   1.429   1.446
 1525SOL     OW 5473   3.686   1.949   5.915
 1525SOL    HW1 5474   3.765   1.889   5.906
 1525SOL    HW2 5475   3.672   1.998   5.828
 1526SOL     OW 5476   0.575   1.809   1.471
 1526SOL    HW1 5477   0.589   1.905   1.444
 1526SOL    HW2 5478   0.612   1.794   1.562
 1527SOL     OW 5479   3.261   1.827   5.120
 1527SOL    HW1 5480   3.227   1.921   5.111
 1527SOL    HW2 5481   3.360   1.825   5.108
 1528SOL     OW 5482   4.339   6.500   3.168
 1528SOL    HW1 5483   4.279   6.561   3.116
 1528SOL    HW2 5484   4.382   6.435   3.106
 1529SOL     OW 5485   3.715   0.641   6.415
 1529SOL    HW1 5486   3.763   0.565   6.371
 1529SOL    HW2 5487   3.692   0.615   6.509
 1530SOL     OW 5488   2.639   6.462   1.925
 1530SOL    HW1 5489   2.724   6.473   1.875
 1530SOL    HW2 5490   2.628   6.366   1.953
 1531SOL     OW 5491   0.055   0.084   3.857
 1531SOL    HW1 5492   0.142   0.069   3.903
 1531SOL    HW2 5493   0.026   0.179   3.871
 1532SOL     OW 5494   3.380   2.245   5.312
 1532SOL    HW1 5495   3.314   2.288   5.251
 1532SOL    HW2 5496   3.452   2.310   5.335
 1533SOL     OW 5497   6.188   3.574   0.152
 1533SOL    HW1 5498   6.214   3.670   0.152
 1533SOL    HW2 5499   6.194   3.537   0.059
 1534SOL     OW 5500   0.877   5.818   0.633
 1534SOL    HW1 5501   0.794   5.795   0.582
 1534SOL    HW2 5502   0.955   5.819   0.570
 1535SOL     OW 5503   5.277   4.458   4.209
 1535SOL    HW1 5504   5.320   4.370   4.188
 1535SOL    HW2 5505   5.195   4.469   4.153
 1536SOL     OW 5506   2.307   5.882   4.400
 1536SOL    HW1 5507   2.340   5.809   4.340
 1536SOL    HW2 5508   2.229   5.849   4.453
 1537SOL     OW 5509   2.632   5.750   4.390
 1537SOL    HW1 5510   2.571   5.729   4.313
 1537SOL    HW2 5511   2.624   5.679   4.460
 1538SOL     OW 5512   2.607   4.906   6.949
 1538SOL    HW1 5513   2.577   4.867   0.015
 1538SOL    HW2 5514   2.691   4.959   6.964
 1539SOL     OW 5515   3.367   4.637   1.622
 1539SOL    HW1 5516   3.291   4.578   1.650
 1539SOL    HW2 5517   3.433   4.645   1.697
 1540SOL     OW 5518   1.030   0.451   4.961
 1540SOL    HW1 5519   1.065   0.372   4.911
 1540SOL    HW2 5520   0.942   0.428   5.002
 1541SOL     OW 5521   4.365   2.797   0.943
 1541SOL    HW1 5522   4.285   2.741   0.965
 1541SOL    HW2 5523   4.424   2.803   1.023
 1542SOL     OW 5524   0.368   6.248   1.618
 1542SOL    HW1 5525   0.452   6.218   1.573
 1542SOL    HW2 5526   0.388   6.281   1.710
 1543SOL     OW 5527   3.324   3.822   3.686
 1543SOL    HW1 5528   3.235   3.864   3.699
 1543SOL    HW2 5529   3.341   3.810   3.588
 1544SOL     OW 5530   3.148   4.068   2.658
 1544SOL    HW1 5531   3.119   4.087   2.752
 1544SOL    HW2 5532   3.242   4.100   2.644
 1545SOL     OW 5533   6.052   0.919   4.909
 1545SOL    HW1 5534   6.128   0.935   4.845
 1545SOL    HW2 5535   6.018   0.826   4.899
 1546SOL     OW 5536   6.385   6.544   6.224
 1546SOL    HW1 5537   6.354   6.516   6.133
 1546SOL    HW2 5538   6.456   6.481   6.256
 1547SOL     OW 5539   2.896   4.751   3.027
 1547SOL    HW1 5540   2.988   4.792   3.025
 1547SOL    HW2 5541   2.886   4.697   3.110
 1548SOL     OW 5542   4.375   4.568   5.388
 1548SOL    HW1 5543   4.317   4.535   5.462
 1548SOL    HW2 5544   4.435   4.495   5.356
 1549SOL     OW 5545   6.489   2.587   1.583
 1549SOL    HW1 5546   6.474   2.496   1.622
 1549SOL    HW2 5547   6.587   2.605   1.576
 1550SOL     OW 5548   2.045   6.053   5.178
 1550SOL    HW1 5549   2.039   6.144   5.137
 1550SOL    HW2 5550   2.120   6.003   5.136
 1551SOL     OW 5551   1.757   3.186   1.165
 1551SOL    HW1 5552   1.700   3.130   1.225
 1551SOL    HW2 5553   1.834   3.132   1.131
 1552SOL     OW 5554   1.508   0.515   1.413
 1552SOL    HW1 5555   1.447   0.500   1.335
 1552SOL    HW2 5556   1.474   0.593   1.467
 1553SOL     OW 5557   6.127   2.119   6.954
 1553SOL    HW1 5558   6.141   2.057   0.009
 1553SOL    HW2 5559   6.071   2.075   6.884
 1554SOL     OW 5560   4.407   2.315   2.668
 1554SOL    HW1 5561   4.362   2.280   2.586
 1554SOL    HW2 5562   4.506   2.297   2.662
 1555SOL     OW 5563   4.764   1.338   4.626
 1555SOL    HW1 5564   4.719   1.268   4.570
 1555SOL    HW2 5565   4.839   1.296   4.677
 1556SOL     OW 5566   3.585   0.232   0.841
 1556SOL    HW1 5567   3.485   0.242   0.849
 1556SOL    HW2 5568   3.627   0.252   0.929
 1557SOL     OW 5569   1.943   2.008   1.037
 1557SOL    HW1 5570   1.981   2.051   1.119
 1557SOL    HW2 5571   1.848   2.037   1.027
 1558SOL     OW 5572   6.414   3.511   5.270
 1558SOL    HW1 5573   6.384   3.423   5.232
 1558SOL    HW2 5574   6.351   3.583   5.241
 1559SOL     OW 5575   1.255   4.017   2.324
 1559SOL    HW1 5576   1.265   4.115   2.342
 1559SOL    HW2 5577   1.208   3.974   2.401
 1560SOL     OW 5578   4.149   0.918   0.850
 1560SOL    HW1 5579   4.228   0.979   0.837
 1560SOL    HW2 5580   4.176   0.842   0.909
 1561SOL     OW 5581   5.245   6.164   2.246
 1561SOL    HW1 5582   5.339   6.144   2.219
 1561SOL    HW2 5583   5.246   6.225   2.326
 1562SOL     OW 5584   2.822   0.168   2.030
 1562SOL    HW1 5585   2.782   0.256   2.002
 1562SOL    HW2 5586   2.813   0.102   1.955
 1563SOL     OW 5587   3.403   2.111   4.771
 1563SOL    HW1 5588   3.475   2.051   4.805
 1563SOL    HW2 5589   3.410   2.119   4.672
 1564SOL     OW 5590   0.823   1.825   2.226
 1564SOL    HW1 5591   0.801   1.915   2.188
 1564SOL    HW2 5592   0.739   1.781   2.259
 1565SOL     OW 5593   3.484   6.581   4.057
 1565SOL    HW1 5594   3.527   6.670   4.048
 1565SOL    HW2 5595   3.385   6.589   4.041
 1566SOL     OW 5596   4.864   4.238   3.521
 1566SOL    HW1 5597   4.774   4.272   3.494
 1566SOL    HW2 5598   4.862   4.212   3.618
 1567SOL     OW 5599   5.882   5.921   5.679
 1567SOL    HW1 5600   5.961   5.860   5.674
 1567SOL    HW2 5601   5.838   5.912   5.768
 1568SOL     OW 5602   2.146   6.355   3.170
 1568SOL    HW1 5603   2.221   6.288   3.173
 1568SOL    HW2 5604   2.087   6.343   3.250
 1569SOL     OW 5605   2.973   7.001   2.800
 1569SOL    HW1 5606   2.992   6.924   2.739
 1569SOL    HW2 5607   2.968   6.969   2.894
 1570SOL     OW 5608   3.331   0.072   0.079
 1570SOL    HW1 5609   3.387   0.000   0.037
 1570SOL    HW2 5610   3.238   0.067   0.042
 1571SOL     OW 5611   1.159   2.719   3.823
 1571SOL    HW1 5612   1.078   2.701   3.879
 1571SOL    HW2 5613   1.236   2.666   3.857
 1572SOL     OW 5614   1.763   4.996   1.610
 1572SOL    HW1 5615   1.778   4.907   1.566
 1572SOL    HW2 5616   1.673   4.997   1.653
 1573SOL     OW 5617   4.413   4.947   1.276
 1573SOL    HW1 5618   4.355   4.910   1.204
 1573SOL    HW2 5619   4.452   5.034   1.246
 1574SOL     OW 5620   5.888   3.726   1.787
 1574SOL    HW1 5621   5.789   3.718   1.791
 1574SOL    HW2 5622   5.915   3.782   1.709
 1575SOL     OW 5623   1.272   1.232   1.306
 1575SOL    HW1 5624   1.275   1.331   1.320
 1575SOL    HW2 5625   1.286   1.212   1.209
 1576SOL     OW 5626   0.339   5.974   1.875
 1576SOL    HW1 5627   0.417   5.957   1.815
 1576SOL    HW2 5628   0.254   5.960   1.824
 1577SOL     OW 5629   3.522   0.179   6.719
 1577SOL    HW1 5630   3.456   0.106   6.738
 1577SOL    HW2 5631   3.529   0.240   6.798
 1578SOL     OW 5632   4.601   1.101   0.252
 1578SOL    HW1 5633   4.695   1.124   0.277
 1578SOL    HW2 5634   4.575   1.015   0.295
 1579SOL     OW 5635   1.442   2.687   1.584
 1579SOL    HW1 5636   1.388   2.641   1.654
 1579SOL    HW2 5637   1.533   2.708   1.619
 1580SOL     OW 5638   3.085   4.023   2.914
 1580SOL    HW1 5639   3.183   4.004   2.926
 1580SOL    HW2 5640   3.032   3.954   2.963
 1581SOL     OW 5641   0.106   4.447   6.074
 1581SOL    HW1 5642   0.137   4.383   6.145
 1581SOL    HW2 5643   0.162   4.530   6.077
 1582SOL     OW 5644   4.893   6.700   5.816
 1582SOL    HW1 5645   4.834   6.620   5.816
 1582SOL    HW2 5646   4.916   6.725   5.722
 1583SOL     OW 5647   1.177   5.753   5.106
 1583SOL    HW1 5648   1.187   5.800   5.193
 1583SOL    HW2 5649   1.266   5.724   5.073
 1584SOL     OW 5650   0.754   5.698   6.646
 1584SOL    HW1 5651   0.701   5.629   6.595
 1584SOL    HW2 5652   0.786   5.769   6.583
 1585SOL     OW 5653   3.932   0.462   3.146
 1585SOL    HW1 5654   3.952   0.412   3.230
 1585SOL    HW2 5655   3.968   0.411   3.067
 1586SOL     OW 5656   2.969   5.631   4.555
 1586SOL    HW1 5657   3.055   5.604   4.598
 1586SOL    HW2 5658   2.892   5.592   4.606
 1587SOL     OW 5659   1.515   6.384   6.107
 1587SOL    HW1 5660   1.466   6.312   6.057
 1587SOL    HW2 5661   1.572   6.435   6.043
 1588SOL     OW 5662   5.663   0.564   2.053
 1588SOL    HW1 5663   5.703   0.551   2.143
 1588SOL    HW2 5664   5.694   0.651   2.015
 1589SOL     OW 5665   6.569   4.328   2.753
 1589SOL    HW1 5666   6.602   4.329   2.659
 1589SOL    HW2 5667   6.609   4.405   2.803
 1590SOL     OW 5668   5.631   2.470   3.457
 1590SOL    HW1 5669   5.661   2.525   3.535
 1590SOL    HW2 5670   5.676   2.503   3.374
 1591SOL     OW 5671   0.192   6.011   1.542
 1591SOL    HW1 5672   0.267   6.075   1.525
 1591SOL    HW2 5673   0.105   6.059   1.530
 1592SOL     OW 5674   1.458   4.102   6.782
 1592SOL    HW1 5675   1.412   4.041   6.846
 1592SOL    HW2 5676   1.455   4.196   6.817
 1593SOL     OW 5677   1.083   0.118   6.501
 1593SOL    HW1 5678   1.113   0.187   6.567
 1593SOL    HW2 5679   1.019   0.055   6.544
 1594SOL     OW 5680   0.121   0.797   2.531
 1594SOL    HW1 5681   0.119   0.760   2.438
 1594SOL    HW2 5682   0.119   0.722   2.597
 1595SOL     OW 5683   1.318   4.181   6.546
 1595SOL    HW1 5684   1.391   4.220   6.490
 1595SOL    HW2 5685   1.358   4.135   6.625
 1596SOL     OW 5686   5.934   4.601   2.337
 1596SOL    HW1 5687   5.897   4.678   2.285
 1596SOL    HW2 5688   5.858   4.548   2.377
 1597SOL     OW 5689   3.103   5.437   1.178
 1597SOL    HW1 5690   3.181   5.499   1.190
 1597SOL    HW2 5691   3.135   5.344   1.166
 1598SOL     OW 5692   1.970   5.605   0.142
 1598SOL    HW1 5693   1.994   5.697   0.171
 1598SOL    HW2 5694   1.937   5.607   0.047
 1599SOL     OW 5695   3.611   5.174   4.121
 1599SOL    HW1 5696   3.604   5.076   4.101
 1599SOL    HW2 5697   3.523   5.218   4.101
 1600SOL     OW 5698   3.300   0.391   2.769
 1600SOL    HW1 5699   3.373   0.328   2.744
 1600SOL    HW2 5700   3.337   0.484   2.774
 1601SOL     OW 5701   6.304   6.722   4.279
 1601SOL    HW1 5702   6.394   6.766   4.275
 1601SOL    HW2 5703   6.234   6.791   4.293
 1602SOL     OW 5704   4.611   5.557   4.185
 1602SOL    HW1 5705   4.520   5.573   4.222
 1602SOL    HW2 5706   4.670   5.635   4.206
 1603SOL     OW 5707   2.989   5.916   4.568
 1603SOL    HW1 5708   3.074   5.920   4.515
 1603SOL    HW2 5709   2.934   5.839   4.535
 1604SOL     OW 5710   4.039   4.856   2.092
 1604SOL    HW1 5711   4.056   4.764   2.056
 1604SOL    HW2 5712   4.002   4.914   2.020
 1605SOL     OW 5713   5.040   5.224   1.798
 1605SOL    HW1 5714   5.120   5.187   1.846
 1605SOL    HW2 5715   5.059   5.228   1.700
 1606SOL     OW 5716   4.168   5.974   3.763
 1606SOL    HW1 5717   4.077   5.977   3.720
 1606SOL    HW2 5718   4.169   6.033   3.843
 1607SOL     OW 5719   4.364   6.621   2.391
 1607SOL    HW1 5720   4.273   6.617   2.433
 1607SOL    HW2 5721   4.405   6.710   2.411
 1608SOL     OW 5722   0.017   1.257   2.916
 1608SOL    HW1 5723   0.056   1.244   2.824
 1608SOL    HW2 5724   0.032   1.351   2.945
 1609SOL     OW 5725   3.269   6.078   0.552
 1609SOL    HW1 5726   3.357   6.058   0.594
 1609SOL    HW2 5727   3.262   6.031   0.465
 1610SOL     OW 5728   3.780   6.320   6.903
 1610SOL    HW1 5729   3.791   6.405   6.851
 1610SOL    HW2 5730   3.762   6.244   6.840
 1611SOL     OW 5731   1.149   4.114   1.443
 1611SOL    HW1 5732   1.235   4.129   1.394
 1611SOL    HW2 5733   1.082   4.071   1.382
 1612SOL     OW 5734   2.990   5.423   0.927
 1612SOL    HW1 5735   3.047   5.488   0.877
 1612SOL    HW2 5736   3.026   5.412   1.020
 1613SOL     OW 5737   0.635   5.948   2.611
 1613SOL    HW1 5738   0.566   6.013   2.641
 1613SOL    HW2 5739   0.647   5.954   2.512
 1614SOL     OW 5740   5.687   2.719   6.574
 1614SOL    HW1 5741   5.727   2.675   6.493
 1614SOL    HW2 5742   5.663   2.813   6.552
 1615SOL     OW 5743   0.258   5.253   6.569
 1615SOL    HW1 5744   0.268   5.167   6.620
 1615SOL    HW2 5745   0.344   5.273   6.521
 1616SOL     OW 5746   3.620   0.739   5.497
 1616SOL    HW1 5747   3.654   0.827   5.531
 1616SOL    HW2 5748   3.623   0.672   5.572
 1617SOL     OW 5749   4.911   6.737   3.813
 1617SOL    HW1 5750   4.876   6.680   3.738
 1617SOL    HW2 5751   4.998   6.779   3.785
 1618SOL     OW 5752   1.786   6.079   2.798
 1618SOL    HW1 5753   1.780   6.025   2.714
 1618SOL    HW2 5754   1.865   6.049   2.851
 1619SOL     OW 5755   0.792   5.226   6.742
 1619SOL    HW1 5756   0.734   5.168   6.684
 1619SOL    HW2 5757   0.789   5.193   6.836
 1620SOL     OW 5758   3.097   5.199   0.705
 1620SOL    HW1 5759   3.055   5.289   0.694
 1620SOL    HW2 5760   3.140   5.193   0.796
 1621SOL     OW 5761   5.678   6.171   0.955
 1621SOL    HW1 5762   5.679   6.128   0.865
 1621SOL    HW2 5763   5.772   6.188   0.985
 1622SOL     OW 5764   0.860   3.767   5.490
 1622SOL    HW1 5765   0.841   3.839   5.557
 1622SOL    HW2 5766   0.810   3.787   5.406
 1623SOL     OW 5767   0.946   2.449   5.077
 1623SOL    HW1 5768   0.899   2.416   5.159
 1623SOL    HW2 5769   0.880   2.495   5.018
 1624SOL     OW 5770   3.426   0.815   0.408
 1624SOL    HW1 5771   3.515   0.860   0.409
 1624SOL    HW2 5772   3.376   0.837   0.491
 1625SOL     OW 5773   2.238   5.250   0.318
 1625SOL    HW1 5774   2.242   5.156   0.285
 1625SOL    HW2 5775   2.325   5.273   0.363
 1626SOL     OW 5776   3.367   1.712   2.180
 1626SOL    HW1 5777   3.304   1.710   2.102
 1626SOL    HW2 5778   3.377   1.807   2.212
 1627SOL     OW 5779   5.206   2.450   4.618
 1627SOL    HW1 5780   5.223   2.531   4.563
 1627SOL    HW2 5781   5.141   2.472   4.691
 1628SOL     OW 5782   5.144   5.640   6.491
 1628SOL    HW1 5783   5.210   5.715   6.491
 1628SOL    HW2 5784   5.117   5.620   6.585
 1629SOL     OW 5785   3.077   2.059   3.411
 1629SOL    HW1 5786   2.985   2.080   3.378
 1629SOL    HW2 5787   3.100   1.964   3.388
 1630SOL     OW 5788   0.111   4.137   0.146
 1630SOL    HW1 5789   0.159   4.208   0.095
 1630SOL    HW2 5790   0.057   4.081   0.083
 1631SOL     OW 5791   6.908   3.722   1.091
 1631SOL    HW1 5792   6.813   3.692   1.075
 1631SOL    HW2 5793   6.951   3.660   1.157
 1632SOL     OW 5794   5.301   4.966   2.426
 1632SOL    HW1 5795   5.367   4.957   2.351
 1632SOL    HW2 5796   5.350   4.958   2.513
 1633SOL     OW 5797   4.765   4.106   4.024
 1633SOL    HW1 5798   4.772   4.151   4.113
 1633SOL    HW2 5799   4.708   4.024   4.032
 1634SOL     OW 5800   4.086   0.477   4.796
 1634SOL    HW1 5801   4.082   0.487   4.696
 1634SOL    HW2 5802   4.033   0.550   4.839
 1635SOL     OW 5803   3.690   4.586   5.779
 1635SOL    HW1 5804   3.751   4.589   5.858
 1635SOL    HW2 5805   3.733   4.533   5.706
 1636SOL     OW 5806   4.206   5.853   1.211
 1636SOL    HW1 5807   4.195   5.833   1.308
 1636SOL    HW2 5808   4.120   5.835   1.163
 1637SOL     OW 5809   0.004   6.724   3.256
 1637SOL    HW1 5810   6.997   6.690   3.166
 1637SOL    HW2 5811   6.996   6.660   3.327
 1638SOL     OW 5812   6.762   3.338   1.785
 1638SOL    HW1 5813   6.695   3.277   1.827
 1638SOL    HW2 5814   6.738   3.433   1.803
 1639SOL     OW 5815   6.458   4.051   1.822
 1639SOL    HW1 5816   6.414   4.139   1.836
 1639SOL    HW2 5817   6.472   4.036   1.724
 1640SOL     OW 5818   5.553   0.315   1.219
 1640SOL    HW1 5819   5.650   0.336   1.230
 1640SOL    HW2 5820   5.519   0.356   1.134
 1641SOL     OW 5821   6.913   2.544   3.876
 1641SOL    HW1 5822   6.834   2.488   3.853
 1641SOL    HW2 5823   6.962   2.502   3.953
 1642SOL     OW 5824   6.422   2.370   6.470
 1642SOL    HW1 5825   6.460   2.366   6.563
 1642SOL    HW2 5826   6.349   2.438   6.468
 1643SOL     OW 5827   3.150   4.895   3.947
 1643SOL    HW1 5828   3.161   4.994   3.957
 1643SOL    HW2 5829   3.114   4.858   4.033
 1644SOL     OW 5830   5.812   2.779   0.842
 1644SOL    HW1 5831   5.873   2.817   0.912
 1644SOL    HW2 5832   5.837   2.817   0.753
 1645SOL     OW 5833   2.799   0.623   6.280
 1645SOL    HW1 5834   2.782   0.533   6.239
 1645SOL    HW2 5835   2.832   0.686   6.209
 1646SOL     OW 5836   1.899   5.623   6.911
 1646SOL    HW1 5837   1.833   5.654   6.842
 1646SOL    HW2 5838   1.962   5.558   6.868
 1647SOL     OW 5839   5.987   2.897   4.060
 1647SOL    HW1 5840   6.034   2.956   3.994
 1647SOL    HW2 5841   5.955   2.814   4.015
 1648SOL     OW 5842   4.999   6.002   0.347
 1648SOL    HW1 5843   5.029   5.976   0.438
 1648SOL    HW2 5844   5.069   6.060   0.304
 1649SOL     OW 5845   3.134   0.215   3.537
 1649SOL    HW1 5846   3.230   0.241   3.524
 1649SOL    HW2 5847   3.124   0.117   3.520
 1650SOL     OW 5848   1.643   5.101   6.003
 1650SOL    HW1 5849   1.739   5.123   5.988
 1650SOL    HW2 5850   1.636   5.014   6.052
 1651SOL     OW 5851   0.537   2.719   3.553
 1651SOL    HW1 5852   0.607   2.718   3.481
 1651SOL    HW2 5853   0.581   2.736   3.641
 1652SOL     OW 5854   1.038   2.700   1.591
 1652SOL    HW1 5855   0.965   2.632   1.590
 1652SOL    HW2 5856   1.121   2.659   1.629
 1653SOL     OW 5857   0.190   5.305   2.431
 1653SOL    HW1 5858   0.114   5.345   2.482
 1653SOL    HW2 5859   0.253   5.377   2.401
 1654SOL     OW 5860   0.963   2.976   1.391
 1654SOL    HW1 5861   0.909   3.044   1.341
 1654SOL    HW2 5862   0.998   3.017   1.475
 1655SOL     OW 5863   6.900   1.458   4.382
 1655SOL    HW1 5864   6.966   1.531   4.365
 1655SOL    HW2 5865   6.947   1.380   4.423
 1656SOL     OW 5866   2.325   5.436   4.364
 1656SOL    HW1 5867   2.351   5.340   4.374
 1656SOL    HW2 5868   2.237   5.451   4.408
 1657SOL     OW 5869   0.153   0.924   4.990
 1657SOL    HW1 5870   0.212   0.987   4.941
 1657SOL    HW2 5871   0.073   0.903   4.934
 1658SOL     OW 5872   7.007   6.676   0.328
 1658SOL    HW1 5873   6.916   6.637   0.311
 1658SOL    HW2 5874   0.048   6.645   0.257
 1659SOL     OW 5875   4.171   7.015   6.265
 1659SOL    HW1 5876   4.130   0.077   6.228
 1659SOL    HW2 5877   4.112   6.937   6.246
 1660SOL     OW 5878   1.470   6.623   1.904
 1660SOL    HW1 5879   1.538   6.550   1.909
 1660SOL    HW2 5880   1.387   6.594   1.952
 1661SOL     OW 5881   2.597   4.691   2.160
 1661SOL    HW1 5882   2.589   4.791   2.166
 1661SOL    HW2 5883   2.688   4.668   2.125
 1662SOL     OW 5884   6.960   1.604   5.467
 1662SOL    HW1 5885   7.001   1.529   5.518
 1662SOL    HW2 5886   6.870   1.576   5.433
 1663SOL     OW 5887   4.929   5.154   2.148
 1663SOL    HW1 5888   4.947   5.218   2.073
 1663SOL    HW2 5889   4.961   5.195   2.234
 1664SOL     OW 5890   1.151   0.180   4.805
 1664SOL    HW1 5891   1.190   0.124   4.731
 1664SOL    HW2 5892   1.112   0.120   4.875
 1665SOL     OW 5893   1.610   3.438   1.130
 1665SOL    HW1 5894   1.574   3.469   1.218
 1665SOL    HW2 5895   1.673   3.361   1.145
 1666SOL     OW 5896   5.473   6.933   6.314
 1666SOL    HW1 5897   5.505   6.858   6.256
 1666SOL    HW2 5898   5.546   6.960   6.376
 1667SOL     OW 5899   6.976   6.667   1.063
 1667SOL    HW1 5900   6.939   6.757   1.085
 1667SOL    HW2 5901   0.006   6.632   1.142
 1668SOL     OW 5902   5.021   4.990   3.736
 1668SOL    HW1 5903   4.967   5.018   3.816
 1668SOL    HW2 5904   5.010   5.057   3.663
 1669SOL     OW 5905   0.076   4.286   5.713
 1669SOL    HW1 5906   0.082   4.203   5.657
 1669SOL    HW2 5907   0.165   4.330   5.718
 1670SOL     OW 5908   1.434   4.935   5.680
 1670SOL    HW1 5909   1.464   4.969   5.591
 1670SOL    HW2 5910   1.411   5.013   5.738
 1671SOL     OW 5911   4.688   1.996   2.600
 1671SOL    HW1 5912   4.612   1.960   2.546
 1671SOL    HW2 5913   4.673   2.094   2.616
 1672SOL     OW 5914   1.264   3.645   0.039
 1672SOL    HW1 5915   1.174   3.627   7.021
 1672SOL    HW2 5916   1.333   3.648   6.988
 1673SOL     OW 5917   2.478   1.734   4.507
 1673SOL    HW1 5918   2.497   1.682   4.590
 1673SOL    HW2 5919   2.430   1.819   4.532
 1674SOL     OW 5920   5.881   3.033   2.382
 1674SOL    HW1 5921   5.784   3.015   2.368
 1674SOL    HW2 5922   5.935   2.967   2.329
 1675SOL     OW 5923   5.071   0.709   1.271
 1675SOL    HW1 5924   5.109   0.705   1.363
 1675SOL    HW2 5925   5.042   0.803   1.251
 1676SOL     OW 5926   2.306   2.397   2.663
 1676SOL    HW1 5927   2.298   2.301   2.637
 1676SOL    HW2 5928   2.224   2.424   2.714
 1677SOL     OW 5929   3.869   3.973   3.174
 1677SOL    HW1 5930   3.800   4.029   3.221
 1677SOL    HW2 5931   3.839   3.956   3.080
 1678SOL     OW 5932   0.688   6.312   0.923
 1678SOL    HW1 5933   0.696   6.278   1.017
 1678SOL    HW2 5934   0.696   6.236   0.859
 1679SOL     OW 5935   1.703   1.173   5.448
 1679SOL    HW1 5936   1.756   1.246   5.405
 1679SOL    HW2 5937   1.605   1.190   5.435
 1680SOL     OW 5938   5.381   3.194   4.358
 1680SOL    HW1 5939   5.396   3.224   4.452
 1680SOL    HW2 5940   5.441   3.117   4.338
 1681SOL     OW 5941   1.643   5.854   4.527
 1681SOL    HW1 5942   1.716   5.812   4.581
 1681SOL    HW2 5943   1.668   5.853   4.430
 1682SOL     OW 5944   3.280   0.624   5.977
 1682SOL    HW1 5945   3.346   0.555   6.009
 1682SOL    HW2 5946   3.261   0.610   5.880
 1683SOL     OW 5947   5.751   5.275   2.498
 1683SOL    HW1 5948   5.844   5.257   2.532
 1683SOL    HW2 5949   5.707   5.188   2.475
 1684SOL     OW 5950   1.296   4.745   1.879
 1684SOL    HW1 5951   1.352   4.740   1.961
 1684SOL    HW2 5952   1.217   4.804   1.896
 1685SOL     OW 5953   1.614   1.530   6.203
 1685SOL    HW1 5954   1.706   1.562   6.182
 1685SOL    HW2 5955   1.619   1.443   6.252
 1686SOL     OW 5956   4.688   6.028   3.664
 1686SOL    HW1 5957   4.614   5.989   3.720
 1686SOL    HW2 5958   4.751   5.956   3.637
 1687SOL     OW 5959   0.372   3.951   2.075
 1687SOL    HW1 5960   0.418   4.004   2.004
 1687SOL    HW2 5961   0.435   3.884   2.114
 1688SOL     OW 5962   1.930   2.166   3.401
 1688SOL    HW1 5963   1.912   2.069   3.385
 1688SOL    HW2 5964   1.870   2.200   3.473
 1689SOL     OW 5965   6.654   1.245   2.257
 1689SOL    HW1 5966   6.699   1.190   2.186
 1689SOL    HW2 5967   6.667   1.342   2.236
 1690SOL     OW 5968   0.729   3.559   3.953
 1690SOL    HW1 5969   0.740   3.461   3.969
 1690SOL    HW2 5970   0.782   3.609   4.021
 1691SOL     OW 5971   4.896   3.450   4.432
 1691SOL    HW1 5972   4.865   3.357   4.408
 1691SOL    HW2 5973   4.860   3.515   4.365
 1692SOL     OW 5974   5.583   5.757   1.589
 1692SOL    HW1 5975   5.608   5.839   1.538
 1692SOL    HW2 5976   5.489   5.730   1.566
 1693SOL     OW 5977   0.066   1.913   4.628
 1693SOL    HW1 5978   0.025   1.977   4.563
 1693SOL    HW2 5979   7.019   1.886   4.695
 1694SOL     OW 5980   5.673   1.193   4.646
 1694SOL    HW1 5981   5.614   1.202   4.726
 1694SOL    HW2 5982   5.646   1.111   4.594
 1695SOL     OW 5983   3.680   0.625   6.771
 1695SOL    HW1 5984   3.588   0.659   6.786
 1695SOL    HW2 5985   3.676   0.532   6.735
 1696SOL     OW 5986   4.129   5.517   0.704
 1696SOL    HW1 5987   4.183   5.494   0.785
 1696SOL    HW2 5988   4.034   5.531   0.730
 1697SOL     OW 5989   6.090   2.391   0.819
 1697SOL    HW1 5990   6.178   2.367   0.859
 1697SOL    HW2 5991   6.020   2.394   0.890
 1698SOL     OW 5992   3.601   0.949   1.570
 1698SOL    HW1 5993   3.630   0.853   1.569
 1698SOL    HW2 5994   3.542   0.967   1.492
 1699SOL     OW 5995   2.640   1.606   6.198
 1699SOL    HW1 5996   2.656   1.536   6.268
 1699SOL    HW2 5997   2.726   1.653   6.178
 1700SOL     OW 5998   6.040   3.301   3.728
 1700SOL    HW1 5999   6.096   3.305   3.811
 1700SOL    HW2 6000   5.943   3.297   3.753
 1701SOL     OW 6001   6.321   5.241   4.823
 1701SOL    HW1 6002   6.233   5.283   4.801
 1701SOL    HW2 6003   6.328   5.152   4.776
 1702SOL     OW 6004   1.591   0.929   6.607
 1702SOL    HW1 6005   1.658   0.931   6.532
 1702SOL    HW2 6006   1.537   1.013   6.605
 1703SOL     OW 6007   3.330   1.947   6.000
 1703SOL    HW1 6008   3.390   1.882   5.953
 1703SOL    HW2 6009   3.235   1.916   5.993
 1704SOL     OW 6010   2.005   1.132   0.387
 1704SOL    HW1 6011   2.045   1.099   0.473
 1704SOL    HW2 6012   1.980   1.228   0.398
 1705SOL     OW 6013   4.039   1.684   1.668
 1705SOL    HW1 6014   4.001   1.772   1.638
 1705SOL    HW2 6015   4.045   1.683   1.767
 1706SOL     OW 6016   4.190   1.555   0.951
 1706SOL    HW1 6017   4.224   1.465   0.922
 1706SOL    HW2 6018   4.228   1.578   1.040
 1707SOL     OW 6019   4.807   1.710   3.006
 1707SOL    HW1 6020   4.816   1.721   2.907
 1707SOL    HW2 6021   4.821   1.798   3.051
 1708SOL     OW 6022   3.508   5.518   2.025
 1708SOL    HW1 6023   3.474   5.441   1.972
 1708SOL    HW2 6024   3.556   5.485   2.106
 1709SOL     OW 6025   4.863   5.782   0.764
 1709SOL    HW1 6026   4.801   5.807   0.690
 1709SOL    HW2 6027   4.955   5.767   0.728
 1710SOL     OW 6028   4.505   5.211   3.487
 1710SOL    HW1 6029   4.469   5.248   3.401
 1710SOL    HW2 6030   4.590   5.163   3.469
 1711SOL     OW 6031   3.014   5.822   5.761
 1711SOL    HW1 6032   3.072   5.746   5.788
 1711SOL    HW2 6033   2.920   5.806   5.791
 1712SOL     OW 6034   0.304   2.360   4.770
 1712SOL    HW1 6035   0.386   2.334   4.820
 1712SOL    HW2 6036   0.319   2.349   4.672
 1713SOL     OW 6037   3.900   0.884   2.888
 1713SOL    HW1 6038   3.995   0.895   2.860
 1713SOL    HW2 6039   3.847   0.964   2.859
 1714SOL     OW 6040   3.454   2.205   6.717
 1714SOL    HW1 6041   3.442   2.156   6.631
 1714SOL    HW2 6042   3.545   2.245   6.721
 1715SOL     OW 6043   1.407   6.132   2.000
 1715SOL    HW1 6044   1.373   6.065   1.934
 1715SOL    HW2 6045   1.506   6.124   2.008
 1716SOL     OW 6046   4.671   0.296   3.968
 1716SOL    HW1 6047   4.657   0.355   4.047
 1716SOL    HW2 6048   4.600   0.226   3.965
 1717SOL     OW 6049   3.849   6.104   5.060
 1717SOL    HW1 6050   3.807   6.044   4.992
 1717SOL    HW2 6051   3.931   6.146   5.021
 1718SOL     OW 6052   2.333   2.091   2.638
 1718SOL    HW1 6053   2.313   2.016   2.702
 1718SOL    HW2 6054   2.420   2.073   2.592
 1719SOL     OW 6055   1.309   4.651   1.097
 1719SOL    HW1 6056   1.397   4.615   1.128
 1719SOL    HW2 6057   1.241   4.579   1.099
 1720SOL     OW 6058   0.059   2.917   6.055
 1720SOL    HW1 6059   0.059   2.842   6.122
 1720SOL    HW2 6060   0.145   2.968   6.062
 1721SOL     OW 6061   1.227   0.309   2.200
 1721SOL    HW1 6062   1.267   0.377   2.138
 1721SOL    HW2 6063   1.247   0.217   2.164
 1722SOL     OW 6064   3.375   2.068   2.748
 1722SOL    HW1 6065   3.387   1.985   2.803
 1722SOL    HW2 6066   3.328   2.046   2.663
 1723SOL     OW 6067   4.533   2.249   0.049
 1723SOL    HW1 6068   4.474   2.275   0.125
 1723SOL    HW2 6069   4.618   2.302   0.053
 1724SOL     OW 6070   6.371   2.311   1.703
 1724SOL    HW1 6071   6.302   2.265   1.646
 1724SOL    HW2 6072   6.426   2.242   1.750
 1725SOL     OW 6073   1.856   4.836   6.824
 1725SOL    HW1 6074   1.818   4.743   6.826
 1725SOL    HW2 6075   1.804   4.893   6.761
 1726SOL     OW 6076   6.323   4.616   3.667
 1726SOL    HW1 6077   6.382   4.544   3.702
 1726SOL    HW2 6078   6.252   4.575   3.609
 1727SOL     OW 6079   3.475   3.468   3.450
 1727SOL    HW1 6080   3.434   3.501   3.535
 1727SOL    HW2 6081   3.544   3.399   3.470
 1728SOL     OW 6082   5.155   4.313   5.417
 1728SOL    HW1 6083   5.132   4.222   5.451
 1728SOL    HW2 6084   5.227   4.306   5.348
 1729SOL     OW 6085   1.556   3.628   1.642
 1729SOL    HW1 6086   1.498   3.605   1.720
 1729SOL    HW2 6087   1.634   3.682   1.673
 1730SOL     OW 6088   2.207   5.721   5.404
 1730SOL    HW1 6089   2.147   5.674   5.469
 1730SOL    HW2 6090   2.244   5.655   5.339
 1731SOL     OW 6091   5.138   4.812   3.985
 1731SOL    HW1 6092   5.059   4.874   3.986
 1731SOL    HW2 6093   5.108   4.720   3.963
 1732SOL     OW 6094   2.034   4.164   6.564
 1732SOL    HW1 6095   2.042   4.065   6.563
 1732SOL    HW2 6096   1.972   4.194   6.491
 1733SOL     OW 6097   2.928   3.851   0.333
 1733SOL    HW1 6098   2.902   3.794   0.411
 1733SOL    HW2 6099   3.016   3.820   0.297
 1734SOL     OW 6100   6.520   3.089   1.569
 1734SOL    HW1 6101   6.601   3.110   1.516
 1734SOL    HW2 6102   6.443   3.071   1.508
 1735SOL     OW 6103   4.583   5.496   0.000
 1735SOL    HW1 6104   4.507   5.554   6.994
 1735SOL    HW2 6105   4.561   5.400   7.000
 1736SOL     OW 6106   4.484   3.583   1.261
 1736SOL    HW1 6107   4.396   3.537   1.257
 1736SOL    HW2 6108   4.550   3.524   1.307
 1737SOL     OW 6109   4.902   0.855   4.412
 1737SOL    HW1 6110   4.964   0.800   4.468
 1737SOL    HW2 6111   4.952   0.932   4.373
 1738SOL     OW 6112   1.845   4.084   4.191
 1738SOL    HW1 6113   1.792   4.000   4.187
 1738SOL    HW2 6114   1.942   4.063   4.197
 1739SOL     OW 6115   5.667   0.609   3.486
 1739SOL    HW1 6116   5.656   0.518   3.527
 1739SOL    HW2 6117   5.733   0.603   3.410
 1740SOL     OW 6118   6.752   2.397   5.066
 1740SOL    HW1 6119   6.834   2.420   5.014
 1740SOL    HW2 6120   6.776   2.337   5.143
 1741SOL     OW 6121   1.411   2.006   4.475
 1741SOL    HW1 6122   1.378   1.936   4.412
 1741SOL    HW2 6123   1.508   2.022   4.460
 1742SOL     OW 6124   6.308   6.891   6.116
 1742SOL    HW1 6125   6.407   6.898   6.124
 1742SOL    HW2 6126   6.268   6.878   6.206
 1743SOL     OW 6127   0.971   1.343   3.409
 1743SOL    HW1 6128   0.952   1.341   3.507
 1743SOL    HW2 6129   0.910   1.408   3.365
 1744SOL     OW 6130   5.206   2.256   3.588
 1744SOL    HW1 6131   5.193   2.185   3.519
 1744SOL    HW2 6132   5.270   2.324   3.553
 1745SOL     OW 6133   6.045   6.509   1.133
 1745SOL    HW1 6134   6.078   6.553   1.216
 1745SOL    HW2 6135   6.123   6.478   1.079
 1746SOL     OW 6136   1.900   3.886   3.707
 1746SOL    HW1 6137   1.843   3.808   3.682
 1746SOL    HW2 6138   1.985   3.854   3.748
 1747SOL     OW 6139   3.727   1.546   1.859
 1747SOL    HW1 6140   3.645   1.543   1.802
 1747SOL    HW2 6141   3.701   1.536   1.955
 1748SOL     OW 6142   6.377   1.349   4.435
 1748SOL    HW1 6143   6.282   1.326   4.413
 1748SOL    HW2 6144   6.432   1.266   4.440
 1749SOL     OW 6145   2.777   5.645   1.012
 1749SOL    HW1 6146   2.772   5.658   1.111
 1749SOL    HW2 6147   2.763   5.549   0.990
 1750SOL     OW 6148   4.222   0.974   5.195
 1750SOL    HW1 6149   4.181   0.936   5.278
 1750SOL    HW2 6150   4.308   1.019   5.217
 1751SOL     OW 6151   6.490   2.701   5.255
 1751SOL    HW1 6152   6.543   2.786   5.258
 1751SOL    HW2 6153   6.467   2.679   5.160
 1752SOL     OW 6154   6.585   1.527   0.904
 1752SOL    HW1 6155   6.515   1.483   0.848
 1752SOL    HW2 6156   6.623   1.460   0.968
 1753SOL     OW 6157   6.993   1.519   1.521
 1753SOL    HW1 6158   6.901   1.557   1.533
 1753SOL    HW2 6159   6.990   1.445   1.454
 1754SOL     OW 6160   2.885   6.070   6.010
 1754SOL    HW1 6161   2.926   6.100   5.924
 1754SOL    HW2 6162   2.933   5.990   6.044
 1755SOL     OW 6163   6.447   6.913   4.966
 1755SOL    HW1 6164   6.413   6.831   4.920
 1755SOL    HW2 6165   6.492   6.887   5.051
 1756SOL     OW 6166   5.595   0.414   5.933
 1756SOL    HW1 6167   5.684   0.411   5.886
 1756SOL    HW2 6168   5.609   0.424   6.031
 1757SOL     OW 6169   2.517   5.372   4.100
 1757SOL    HW1 6170   2.543   5.308   4.027
 1757SOL    HW2 6171   2.567   5.350   4.183
 1758SOL     OW 6172   2.155   6.952   5.187
 1758SOL    HW1 6173   2.204   6.897   5.119
 1758SOL    HW2 6174   2.164   0.027   5.164
 1759SOL     OW 6175   1.317   6.221   6.273
 1759SOL    HW1 6176   1.410   6.256   6.267
 1759SOL    HW2 6177   1.282   6.236   6.365
 1760SOL     OW 6178   6.128   0.591   4.734
 1760SOL    HW1 6179   6.047   0.640   4.765
 1760SOL    HW2 6180   6.163   0.635   4.651
 1761SOL     OW 6181   0.161   1.843   1.240
 1761SOL    HW1 6182   0.091   1.774   1.219
 1761SOL    HW2 6183   0.241   1.798   1.280
 1762SOL     OW 6184   0.718   1.510   5.189
 1762SOL    HW1 6185   0.738   1.484   5.283
 1762SOL    HW2 6186   0.791   1.477   5.129
 1763SOL     OW 6187   1.079   3.394   4.682
 1763SOL    HW1 6188   1.046   3.467   4.622
 1763SOL    HW2 6189   1.089   3.430   4.775
 1764SOL     OW 6190   1.726   4.575   1.785
 1764SOL    HW1 6191   1.669   4.494   1.800
 1764SOL    HW2 6192   1.672   4.646   1.740
 1765SOL     OW 6193   4.970   3.097   1.834
 1765SOL    HW1 6194   4.925   3.071   1.919
 1765SOL    HW2 6195   4.999   3.015   1.785
 1766SOL     OW 6196   4.308   4.794   3.884
 1766SOL    HW1 6197   4.354   4.878   3.855
 1766SOL    HW2 6198   4.265   4.750   3.806
 1767SOL     OW 6199   6.918   5.557   2.261
 1767SOL    HW1 6200   7.004   5.516   2.292
 1767SOL    HW2 6201   6.866   5.588   2.341
 1768SOL     OW 6202   4.711   6.015   1.944
 1768SOL    HW1 6203   4.727   6.066   2.028
 1768SOL    HW2 6204   4.737   5.919   1.958
 1769SOL     OW 6205   6.089   0.335   6.706
 1769SOL    HW1 6206   6.013   0.375   6.655
 1769SOL    HW2 6207   6.176   0.370   6.669
 1770SOL     OW 6208   1.574   4.782   5.452
 1770SOL    HW1 6209   1.643   4.711   5.463
 1770SOL    HW2 6210   1.501   4.768   5.519
 1771SOL     OW 6211   0.735   3.858   6.735
 1771SOL    HW1 6212   0.814   3.799   6.719
 1771SOL    HW2 6213   0.724   3.873   6.833
 1772SOL     OW 6214   2.731   4.682   3.947
 1772SOL    HW1 6215   2.757   4.687   4.043
 1772SOL    HW2 6216   2.791   4.742   3.893
 1773SOL     OW 6217   1.507   0.178   4.674
 1773SOL    HW1 6218   1.524   0.083   4.700
 1773SOL    HW2 6219   1.512   0.236   4.755
 1774SOL     OW 6220   6.117   6.408   2.045
 1774SOL    HW1 6221   6.097   6.311   2.056
 1774SOL    HW2 6222   6.215   6.420   2.030
 1775SOL     OW 6223   1.568   5.497   6.652
 1775SOL    HW1 6224   1.609   5.419   6.604
 1775SOL    HW2 6225   1.637   5.570   6.661
 1776SOL     OW 6226   4.384   1.106   5.552
 1776SOL    HW1 6227   4.357   1.064   5.465
 1776SOL    HW2 6228   4.431   1.038   5.608
 1777SOL     OW 6229   4.401   6.345   6.450
 1777SOL    HW1 6230   4.342   6.273   6.488
 1777SOL    HW2 6231   4.465   6.375   6.520
 1778SOL     OW 6232   6.029   0.993   3.857
 1778SOL    HW1 6233   6.018   1.083   3.817
 1778SOL    HW2 6234   5.966   0.928   3.814
 1779SOL     OW 6235   5.637   0.167   4.371
 1779SOL    HW1 6236   5.572   0.188   4.298
 1779SOL    HW2 6237   5.598   0.098   4.432
 1780SOL     OW 6238   1.714   5.137   4.897
 1780SOL    HW1 6239   1.757   5.142   4.806
 1780SOL    HW2 6240   1.714   5.227   4.939
 1781SOL     OW 6241   4.285   0.330   3.956
 1781SOL    HW1 6242   4.276   0.400   4.026
 1781SOL    HW2 6243   4.357   0.265   3.983
 1782SOL     OW 6244   1.957   1.799   2.655
 1782SOL    HW1 6245   1.864   1.797   2.618
 1782SOL    HW2 6246   2.011   1.726   2.613
 1783SOL     OW 6247   2.147   3.820   5.605
 1783SOL    HW1 6248   2.119   3.769   5.524
 1783SOL    HW2 6249   2.181   3.910   5.577
 1784SOL     OW 6250   2.512   0.604   0.987
 1784SOL    HW1 6251   2.533   0.516   1.030
 1784SOL    HW2 6252   2.419   0.630   1.009
 1785SOL     OW 6253   0.528   6.947   4.678
 1785SOL    HW1 6254   0.541   6.980   4.771
 1785SOL    HW2 6255   0.576   7.007   4.614
 1786SOL     OW 6256   1.854   5.496   0.761
 1786SOL    HW1 6257   1.823   5.568   0.700
 1786SOL    HW2 6258   1.779   5.469   0.822
 1787SOL     OW 6259   1.960   3.065   5.662
 1787SOL    HW1 6260   1.988   3.148   5.709
 1787SOL    HW2 6261   2.040   3.021   5.621
 1788SOL     OW 6262   4.954   4.185   0.912
 1788SOL    HW1 6263   4.978   4.088   0.925
 1788SOL    HW2 6264   4.934   4.201   0.816
 1789SOL     OW 6265   6.809   3.629   1.889
 1789SOL    HW1 6266   6.824   3.663   1.982
 1789SOL    HW2 6267   6.714   3.649   1.861
 1790SOL     OW 6268   2.958   1.944   4.284
 1790SOL    HW1 6269   2.864   1.929   4.256
 1790SOL    HW2 6270   3.001   2.012   4.225
 1791SOL     OW 6271   6.304   0.379   3.698
 1791SOL    HW1 6272   6.403   0.366   3.706
 1791SOL    HW2 6273   6.274   0.348   3.608
 1792SOL     OW 6274   6.441   1.932   5.420
 1792SOL    HW1 6275   6.384   1.868   5.369
 1792SOL    HW2 6276   6.383   1.996   5.470
 1793SOL     OW 6277   0.360   1.220   4.934
 1793SOL    HW1 6278   0.342   1.218   5.033
 1793SOL    HW2 6279   0.455   1.245   4.918
 1794SOL     OW 6280   0.051   0.462   6.213
 1794SOL    HW1 6281   0.126   0.521   6.185
 1794SOL    HW2 6282   0.082   0.367   6.217
 1795SOL     OW 6283   6.100   4.487   0.121
 1795SOL    HW1 6284   6.185   4.523   0.083
 1795SOL    HW2 6285   6.102   4.493   0.221
 1796SOL     OW 6286   0.958   0.072   4.987
 1796SOL    HW1 6287   0.907   0.132   5.049
 1796SOL    HW2 6288   0.903   0.052   4.906
 1797SOL     OW 6289   2.227   6.159   4.521
 1797SOL    HW1 6290   2.233   6.118   4.430
 1797SOL    HW2 6291   2.171   6.242   4.517
 1798SOL     OW 6292   3.268   3.512   4.719
 1798SOL    HW1 6293   3.234   3.467   4.801
 1798SOL    HW2 6294   3.275   3.445   4.644
 1799SOL     OW 6295   3.123   0.684   0.156
 1799SOL    HW1 6296   3.129   0.754   0.228
 1799SOL    HW2 6297   3.210   0.680   0.106
 1800SOL     OW 6298   4.903   3.813   4.284
 1800SOL    HW1 6299   4.874   3.718   4.282
 1800SOL    HW2 6300   4.959   3.829   4.365
 1801SOL     OW 6301   1.338   1.689   2.004
 1801SOL    HW1 6302   1.394   1.769   1.981
 1801SOL    HW2 6303   1.243   1.718   2.018
 1802SOL     OW 6304   6.495   4.817   3.710
 1802SOL    HW1 6305   6.440   4.735   3.692
 1802SOL    HW2 6306   6.439   4.884   3.758
 1803SOL     OW 6307   0.541   6.260   2.920
 1803SOL    HW1 6308   0.631   6.264   2.876
 1803SOL    HW2 6309   0.549   6.291   3.014
 1804SOL     OW 6310   2.821   3.769   6.086
 1804SOL    HW1 6311   2.757   3.704   6.129
 1804SOL    HW2 6312   2.842   3.738   5.994
 1805SOL     OW 6313   0.293   6.287   6.072
 1805SOL    HW1 6314   0.274   6.280   6.169
 1805SOL    HW2 6315   0.210   6.269   6.019
 1806SOL     OW 6316   0.049   2.504   2.447
 1806SOL    HW1 6317   0.131   2.476   2.396
 1806SOL    HW2 6318   0.073   2.580   2.507
 1807SOL     OW 6319   6.273   4.134   1.317
 1807SOL    HW1 6320   6.353   4.141   1.376
 1807SOL    HW2 6321   6.260   4.220   1.267
 1808SOL     OW 6322   5.546   2.229   5.553
 1808SOL    HW1 6323   5.611   2.196   5.622
 1808SOL    HW2 6324   5.479   2.157   5.534
 1809SOL     OW 6325   3.930   2.074   5.054
 1809SOL    HW1 6326   3.904   2.122   5.137
 1809SOL    HW2 6327   3.855   2.078   4.988
 1810SOL     OW 6328   0.684   6.747   4.070
 1810SOL    HW1 6329   0.734   6.685   4.010
 1810SOL    HW2 6330   0.586   6.728   4.063
 1811SOL     OW 6331   3.684   5.089   2.701
 1811SOL    HW1 6332   3.691   5.034   2.619
 1811SOL    HW2 6333   3.755   5.160   2.701
 1812SOL     OW 6334   4.351   0.555   6.375
 1812SOL    HW1 6335   4.433   0.503   6.350
 1812SOL    HW2 6336   4.335   0.547   6.473
 1813SOL     OW 6337   4.368   5.047   2.764
 1813SOL    HW1 6338   4.328   5.137   2.746
 1813SOL    HW2 6339   4.327   4.980   2.702
 1814SOL     OW 6340   0.759   6.664   0.378
 1814SOL    HW1 6341   0.839   6.653   0.318
 1814SOL    HW2 6342   0.789   6.692   0.469
 1815SOL     OW 6343   5.579   5.938   2.227
 1815SOL    HW1 6344   5.678   5.932   2.214
 1815SOL    HW2 6345   5.560   5.972   2.319
 1816SOL     OW 6346   3.928   5.599   5.585
 1816SOL    HW1 6347   3.947   5.554   5.497
 1816SOL    HW2 6348   4.010   5.648   5.616
 1817SOL     OW 6349   1.962   1.370   3.427
 1817SOL    HW1 6350   2.040   1.382   3.490
 1817SOL    HW2 6351   1.877   1.372   3.480
 1818SOL     OW 6352   2.386   6.615   0.195
 1818SOL    HW1 6353   2.365   6.593   0.290
 1818SOL    HW2 6354   2.483   6.599   0.177
 1819SOL     OW 6355   1.680   5.044   3.155
 1819SOL    HW1 6356   1.596   4.996   3.131
 1819SOL    HW2 6357   1.657   5.132   3.196
 1820SOL     OW 6358   3.843   0.305   3.772
 1820SOL    HW1 6359   3.807   0.341   3.858
 1820SOL    HW2 6360   3.804   0.356   3.696
 1821SOL     OW 6361   4.208   1.428   1.877
 1821SOL    HW1 6362   4.224   1.420   1.779
 1821SOL    HW2 6363   4.115   1.398   1.898
 1822SOL     OW 6364   0.688   3.247   1.909
 1822SOL    HW1 6365   0.679   3.326   1.849
 1822SOL    HW2 6366   0.749   3.270   1.985
 1823SOL     OW 6367   3.510   6.394   2.245
 1823SOL    HW1 6368   3.572   6.318   2.224
 1823SOL    HW2 6369   3.416   6.359   2.252
 1824SOL     OW 6370   4.416   3.665   0.973
 1824SOL    HW1 6371   4.445   3.670   1.068
 1824SOL    HW2 6372   4.456   3.740   0.921
 1825SOL     OW 6373   1.578   2.209   5.414
 1825SOL    HW1 6374   1.550   2.298   5.376
 1825SOL    HW2 6375   1.588   2.143   5.340
 1826SOL     OW 6376   3.196   1.943   2.001
 1826SOL    HW1 6377   3.128   1.907   1.938
 1826SOL    HW2 6378   3.288   1.927   1.963
 1827SOL     OW 6379   5.875   4.670   6.991
 1827SOL    HW1 6380   5.836   4.729   0.040
 1827SOL    HW2 6381   5.917   4.590   0.011
 1828SOL     OW 6382   1.242   3.565   5.729
 1828SOL    HW1 6383   1.292   3.548   5.814
 1828SOL    HW2 6384   1.308   3.582   5.656
 1829SOL     OW 6385   3.416   0.921   4.122
 1829SOL    HW1 6386   3.385   0.993   4.185
 1829SOL    HW2 6387   3.509   0.894   4.145
 1830SOL     OW 6388   5.915   6.896   4.510
 1830SOL    HW1 6389   5.891   6.950   4.429
 1830SOL    HW2 6390   5.956   6.955   4.579
 1831SOL     OW 6391   5.052   5.567   2.880
 1831SOL    HW1 6392   5.091   5.626   2.951
 1831SOL    HW2 6393   5.115   5.562   2.803
 1832SOL     OW 6394   2.663   3.489   1.013
 1832SOL    HW1 6395   2.710   3.402   1.000
 1832SOL    HW2 6396   2.682   3.549   0.935
 1833SOL     OW 6397   4.871   0.098   1.506
 1833SOL    HW1 6398   4.946   0.164   1.502
 1833SOL    HW2 6399   4.842   0.085   1.601
 1834SOL     OW 6400   2.133   2.677   0.195
 1834SOL    HW1 6401   2.159   2.611   0.124
 1834SOL    HW2 6402   2.083   2.752   0.154
 1835SOL     OW 6403   0.070   5.040   1.589
 1835SOL    HW1 6404   0.018   5.119   1.622
 1835SOL    HW2 6405   0.013   4.958   1.593
 1836SOL     OW 6406   5.603   1.998   1.425
 1836SOL    HW1 6407   5.513   2.024   1.390
 1836SOL    HW2 6408   5.674   2.040   1.368
 1837SOL     OW 6409   2.882   1.645   5.863
 1837SOL    HW1 6410   2.979   1.666   5.850
 1837SOL    HW2 6411   2.839   1.633   5.773
 1838SOL     OW 6412   5.980   1.183   0.761
 1838SOL    HW1 6413   5.883   1.160   0.768
 1838SOL    HW2 6414   5.990   1.283   0.756
 1839SOL     OW 6415   5.484   1.710   7.021
 1839SOL    HW1 6416   5.414   1.740   6.957
 1839SOL    HW2 6417   5.572   1.704   6.974
 1840SOL     OW 6418   4.302   6.941   2.899
 1840SOL    HW1 6419   4.236   7.014   2.916
 1840SOL    HW2 6420   4.275   6.890   2.816
 1841SOL     OW 6421   2.111   0.856   2.190
 1841SOL    HW1 6422   2.125   0.902   2.103
 1841SOL    HW2 6423   2.199   0.828   2.228
 1842SOL     OW 6424   1.615   4.897   0.546
 1842SOL    HW1 6425   1.614   4.917   0.448
 1842SOL    HW2 6426   1.526   4.922   0.586
 1843SOL     OW 6427   3.327   1.265   4.941
 1843SOL    HW1 6428   3.303   1.281   4.845
 1843SOL    HW2 6429   3.343   1.353   4.986
 1844SOL     OW 6430   4.719   1.789   7.005
 1844SOL    HW1 6431   4.630   1.743   7.007
 1844SOL    HW2 6432   4.757   1.790   0.076
 1845SOL     OW 6433   2.373   1.222   3.345
 1845SOL    HW1 6434   2.278   1.211   3.315
 1845SOL    HW2 6435   2.408   1.311   3.315
 1846SOL     OW 6436   4.393   1.251   2.526
 1846SOL    HW1 6437   4.469   1.310   2.495
 1846SOL    HW2 6438   4.306   1.294   2.502
 1847SOL     OW 6439   2.042   0.250   4.863
 1847SOL    HW1 6440   2.140   0.250   4.883
 1847SOL    HW2 6441   2.023   0.318   4.792
 1848SOL     OW 6442   2.416   5.680   4.228
 1848SOL    HW1 6443   2.405   5.683   4.129
 1848SOL    HW2 6444   2.397   5.587   4.261
 1849SOL     OW 6445   4.513   2.428   2.307
 1849SOL    HW1 6446   4.539   2.470   2.394
 1849SOL    HW2 6447   4.593   2.425   2.246
 1850SOL     OW 6448   5.157   2.098   1.996
 1850SOL    HW1 6449   5.182   2.024   1.934
 1850SOL    HW2 6450   5.133   2.060   2.086
 1851SOL     OW 6451   6.881   3.221   5.709
 1851SOL    HW1 6452   6.886   3.127   5.677
 1851SOL    HW2 6453   6.884   3.222   5.809
 1852SOL     OW 6454   1.526   5.016   1.754
 1852SOL    HW1 6455   1.549   5.024   1.851
 1852SOL    HW2 6456   1.472   5.095   1.725
 1853SOL     OW 6457   0.700   2.945   4.964
 1853SOL    HW1 6458   0.687   2.883   5.041
 1853SOL    HW2 6459   0.654   2.909   4.883
 1854SOL     OW 6460   0.426   6.056   3.269
 1854SOL    HW1 6461   0.499   6.059   3.337
 1854SOL    HW2 6462   0.410   6.147   3.232
 1855SOL     OW 6463   4.935   3.403   4.992
 1855SOL    HW1 6464   4.876   3.479   5.019
 1855SOL    HW2 6465   4.979   3.365   5.073
 1856SOL     OW 6466   4.044   3.413   6.879
 1856SOL    HW1 6467   4.020   3.456   6.965
 1856SOL    HW2 6468   4.038   3.313   6.888
 1857SOL     OW 6469   5.007   0.625   0.285
 1857SOL    HW1 6470   5.031   0.552   0.349
 1857SOL    HW2 6471   5.090   0.659   0.241
 1858SOL     OW 6472   4.429   2.313   4.280
 1858SOL    HW1 6473   4.464   2.228   4.319
 1858SOL    HW2 6474   4.497   2.386   4.294
 1859SOL     OW 6475   5.871   2.222   4.851
 1859SOL    HW1 6476   5.906   2.158   4.920
 1859SOL    HW2 6477   5.852   2.173   4.766
 1860SOL     OW 6478   1.274   1.834   4.936
 1860SOL    HW1 6479   1.352   1.861   4.992
 1860SOL    HW2 6480   1.276   1.883   4.849
 1861SOL     OW 6481   6.737   0.668   3.237
 1861SOL    HW1 6482   6.714   0.578   3.273
 1861SOL    HW2 6483   6.671   0.736   3.270
 1862SOL     OW 6484   2.352   6.577   6.689
 1862SOL    HW1 6485   2.272   6.517   6.695
 1862SOL    HW2 6486   2.427   6.528   6.644
 1863SOL     OW 6487   0.152   3.357   1.346
 1863SOL    HW1 6488   0.191   3.354   1.254
 1863SOL    HW2 6489   0.226   3.365   1.413
 1864SOL     OW 6490   3.115   6.198   3.014
 1864SOL    HW1 6491   3.188   6.198   2.946
 1864SOL    HW2 6492   3.136   6.264   3.086
 1865SOL     OW 6493   5.204   1.354   6.621
 1865SOL    HW1 6494   5.186   1.342   6.719
 1865SOL    HW2 6495   5.280   1.417   6.609
 1866SOL     OW 6496   0.550   4.696   3.896
 1866SOL    HW1 6497   0.475   4.710   3.831
 1866SOL    HW2 6498   0.626   4.651   3.850
 1867SOL     OW 6499   2.466   2.110   1.104
 1867SOL    HW1 6500   2.477   2.138   1.199
 1867SOL    HW2 6501   2.423   2.184   1.053
 1868SOL     OW 6502   5.707   4.431   5.788
 1868SOL    HW1 6503   5.740   4.492   5.716
 1868SOL    HW2 6504   5.725   4.473   5.877
 1869SOL     OW 6505   4.542   2.082   4.404
 1869SOL    HW1 6506   4.514   1.999   4.356
 1869SOL    HW2 6507   4.586   2.058   4.490
 1870SOL     OW 6508   1.423   4.614   3.993
 1870SOL    HW1 6509   1.454   4.699   4.035
 1870SOL    HW2 6510   1.501   4.555   3.974
 1871SOL     OW 6511   0.899   6.342   0.270
 1871SOL    HW1 6512   0.915   6.435   0.238
 1871SOL    HW2 6513   0.920   6.335   0.367
 1872SOL     OW 6514   2.851   2.401   0.619
 1872SOL    HW1 6515   2.877   2.493   0.589
 1872SOL    HW2 6516   2.879   2.335   0.549
 1873SOL     OW 6517   6.339   0.868   7.017
 1873SOL    HW1 6518   6.292   0.789   6.978
 1873SOL    HW2 6519   6.273   0.939   0.017
 1874SOL     OW 6520   1.296   6.127   6.741
 1874SOL    HW1 6521   1.272   6.030   6.751
 1874SOL    HW2 6522   1.315   6.147   6.645
 1875SOL     OW 6523   6.280   5.436   0.008
 1875SOL    HW1 6524   6.218   5.514   0.009
 1875SOL    HW2 6525   6.291   5.403   6.936
 1876SOL     OW 6526   5.870   6.456   6.363
 1876SOL    HW1 6527   5.954   6.498   6.329
 1876SOL    HW2 6528   5.817   6.420   6.287
 1877SOL     OW 6529   0.353   1.301   2.375
 1877SOL    HW1 6530   0.296   1.238   2.429
 1877SOL    HW2 6531   0.427   1.336   2.433
 1878SOL     OW 6532   0.343   4.657   3.295
 1878SOL    HW1 6533   0.282   4.727   3.333
 1878SOL    HW2 6534   0.352   4.671   3.197
 1879SOL     OW 6535   3.457   5.613   5.149
 1879SOL    HW1 6536   3.522   5.647   5.080
 1879SOL    HW2 6537   3.368   5.657   5.135
 1880SOL     OW 6538   0.073   2.208   3.228
 1880SOL    HW1 6539   0.111   2.119   3.204
 1880SOL    HW2 6540   7.016   2.228   3.169
 1881SOL     OW 6541   0.790   2.055   3.873
 1881SOL    HW1 6542   0.825   2.114   3.946
 1881SOL    HW2 6543   0.866   2.023   3.818
 1882SOL     OW 6544   1.205   5.767   0.080
 1882SOL    HW1 6545   1.208   5.675   0.041
 1882SOL    HW2 6546   1.260   5.769   0.164
 1883SOL     OW 6547   1.484   3.464   2.959
 1883SOL    HW1 6548   1.409   3.525   2.984
 1883SOL    HW2 6549   1.558   3.472   3.027
 1884SOL     OW 6550   2.964   0.617   0.639
 1884SOL    HW1 6551   2.884   0.560   0.618
 1884SOL    HW2 6552   3.031   0.608   0.566
 1885SOL     OW 6553   0.265   2.751   0.838
 1885SOL    HW1 6554   0.360   2.776   0.818
 1885SOL    HW2 6555   0.252   2.746   0.938
 1886SOL     OW 6556   2.201   2.485   0.027
 1886SOL    HW1 6557   2.272   2.543   7.007
 1886SOL    HW2 6558   2.204   2.394   7.007
 1887SOL     OW 6559   1.349   5.921   5.622
 1887SOL    HW1 6560   1.257   5.887   5.641
 1887SOL    HW2 6561   1.343   6.003   5.565
 1888SOL     OW 6562   1.851   1.798   6.358
 1888SOL    HW1 6563   1.763   1.786   6.403
 1888SOL    HW2 6564   1.864   1.895   6.337
 1889SOL     OW 6565   4.404   3.019   0.097
 1889SOL    HW1 6566   4.460   3.058   0.171
 1889SOL    HW2 6567   4.344   3.090   0.060
 1890SOL     OW 6568   0.227   5.898   6.118
 1890SOL    HW1 6569   0.286   5.969   6.158
 1890SOL    HW2 6570   0.191   5.930   6.031
 1891SOL     OW 6571   5.479   3.644   5.579
 1891SOL    HW1 6572   5.424   3.573   5.534
 1891SOL    HW2 6573   5.484   3.724   5.519
 1892SOL     OW 6574   3.560   5.187   1.673
 1892SOL    HW1 6575   3.463   5.205   1.657
 1892SOL    HW2 6576   3.575   5.089   1.686
 1893SOL     OW 6577   3.805   2.178   3.921
 1893SOL    HW1 6578   3.773   2.176   3.827
 1893SOL    HW2 6579   3.895   2.221   3.925
 1894SOL     OW 6580   4.567   3.863   1.317
 1894SOL    HW1 6581   4.576   3.852   1.415
 1894SOL    HW2 6582   4.555   3.773   1.274
 1895SOL     OW 6583   6.217   1.065   3.038
 1895SOL    HW1 6584   6.299   1.025   2.997
 1895SOL    HW2 6585   6.241   1.111   3.123
 1896SOL     OW 6586   6.164   1.430   4.598
 1896SOL    HW1 6587   6.248   1.422   4.544
 1896SOL    HW2 6588   6.177   1.385   4.686
 1897SOL     OW 6589   5.626   5.064   2.936
 1897SOL    HW1 6590   5.634   4.993   3.006
 1897SOL    HW2 6591   5.536   5.060   2.893
 1898SOL     OW 6592   5.246   5.463   1.438
 1898SOL    HW1 6593   5.273   5.367   1.437
 1898SOL    HW2 6594   5.194   5.482   1.521
 1899SOL     OW 6595   0.263   3.161   3.178
 1899SOL    HW1 6596   0.196   3.117   3.238
 1899SOL    HW2 6597   0.314   3.091   3.128
 1900SOL     OW 6598   1.464   5.785   5.978
 1900SOL    HW1 6599   1.541   5.812   5.920
 1900SOL    HW2 6600   1.410   5.865   6.002
 1901SOL     OW 6601   1.609   0.204   0.119
 1901SOL    HW1 6602   1.575   0.165   0.034
 1901SOL    HW2 6603   1.702   0.237   0.106
 1902SOL     OW 6604   0.703   3.231   4.539
 1902SOL    HW1 6605   0.703   3.138   4.574
 1902SOL    HW2 6606   0.791   3.252   4.498
 1903SOL     OW 6607   6.117   4.090   2.954
 1903SOL    HW1 6608   6.043   4.058   3.013
 1903SOL    HW2 6609   6.202   4.093   3.007
 1904SOL     OW 6610   6.843   0.474   4.062
 1904SOL    HW1 6611   6.832   0.415   4.142
 1904SOL    HW2 6612   6.754   0.488   4.018
 1905SOL     OW 6613   0.400   2.255   4.268
 1905SOL    HW1 6614   0.471   2.238   4.336
 1905SOL    HW2 6615   0.414   2.195   4.189
 1906SOL     OW 6616   2.232   6.497   6.304
 1906SOL    HW1 6617   2.149   6.527   6.352
 1906SOL    HW2 6618   2.302   6.568   6.310
 1907SOL     OW 6619   3.282   6.272   3.271
 1907SOL    HW1 6620   3.346   6.336   3.314
 1907SOL    HW2 6621   3.330   6.187   3.250
 1908SOL     OW 6622   4.150   1.620   5.936
 1908SOL    HW1 6623   4.246   1.611   5.963
 1908SOL    HW2 6624   4.122   1.538   5.887
 1909SOL     OW 6625   2.090   4.546   4.742
 1909SOL    HW1 6626   2.172   4.506   4.700
 1909SOL    HW2 6627   2.039   4.474   4.789
 1910SOL     OW 6628   5.362   2.181   6.201
 1910SOL    HW1 6629   5.377   2.269   6.156
 1910SOL    HW2 6630   5.439   2.161   6.261
 1911SOL     OW 6631   6.901   2.551   5.306
 1911SOL    HW1 6632   6.803   2.559   5.328
 1911SOL    HW2 6633   6.936   2.641   5.278
 1912SOL     OW 6634   3.141   6.833   2.334
 1912SOL    HW1 6635   3.120   6.737   2.312
 1912SOL    HW2 6636   3.066   6.872   2.387
 1913SOL     OW 6637   1.556   5.587   5.039
 1913SOL    HW1 6638   1.484   5.602   4.971
 1913SOL    HW2 6639   1.519   5.602   5.131
 1914SOL     OW 6640   2.844   2.411   6.155
 1914SOL    HW1 6641   2.841   2.313   6.175
 1914SOL    HW2 6642   2.918   2.429   6.090
 1915SOL     OW 6643   4.019   0.663   6.112
 1915SOL    HW1 6644   3.971   0.586   6.155
 1915SOL    HW2 6645   3.976   0.749   6.141
 1916SOL     OW 6646   3.076   5.696   2.033
 1916SOL    HW1 6647   3.099   5.764   2.103
 1916SOL    HW2 6648   2.988   5.654   2.055
 1917SOL     OW 6649   2.912   3.729   4.388
 1917SOL    HW1 6650   2.925   3.796   4.316
 1917SOL    HW2 6651   2.903   3.775   4.476
 1918SOL     OW 6652   5.746   6.168   5.710
 1918SOL    HW1 6653   5.817   6.101   5.688
 1918SOL    HW2 6654   5.779   6.227   5.785
 1919SOL     OW 6655   0.449   6.124   2.108
 1919SOL    HW1 6656   0.417   6.082   2.023
 1919SOL    HW2 6657   0.383   6.193   2.138
 1920SOL     OW 6658   0.288   5.745   3.805
 1920SOL    HW1 6659   0.232   5.787   3.877
 1920SOL    HW2 6660   0.285   5.803   3.723
 1921SOL     OW 6661   1.423   5.829   6.415
 1921SOL    HW1 6662   1.519   5.842   6.440
 1921SOL    HW2 6663   1.413   5.745   6.362
 1922SOL     OW 6664   3.859   3.419   1.371
 1922SOL    HW1 6665   3.833   3.360   1.294
 1922SOL    HW2 6666   3.824   3.381   1.456
 1923SOL     OW 6667   2.311   1.084   1.048
 1923SOL    HW1 6668   2.264   1.153   1.104
 1923SOL    HW2 6669   2.283   1.095   0.953
 1924SOL     OW 6670   6.800   4.036   2.106
 1924SOL    HW1 6671   6.884   4.002   2.148
 1924SOL    HW2 6672   6.823   4.109   2.040
 1925SOL     OW 6673   3.405   3.806   1.851
 1925SOL    HW1 6674   3.462   3.859   1.913
 1925SOL    HW2 6675   3.415   3.708   1.872
 1926SOL     OW 6676   1.523   0.217   4.410
 1926SOL    HW1 6677   1.579   0.135   4.398
 1926SOL    HW2 6678   1.495   0.225   4.505
 1927SOL     OW 6679   4.404   3.712   6.729
 1927SOL    HW1 6680   4.318   3.749   6.693
 1927SOL    HW2 6681   4.478   3.776   6.711
 1928SOL     OW 6682   6.318   4.095   5.560
 1928SOL    HW1 6683   6.348   3.999   5.564
 1928SOL    HW2 6684   6.226   4.099   5.523
 1929SOL     OW 6685   1.201   6.084   0.989
 1929SOL    HW1 6686   1.130   6.065   0.921
 1929SOL    HW2 6687   1.266   6.008   0.991
 1930SOL     OW 6688   6.178   4.792   6.280
 1930SOL    HW1 6689   6.174   4.758   6.374
 1930SOL    HW2 6690   6.194   4.715   6.218
 1931SOL     OW 6691   0.834   3.478   3.703
 1931SOL    HW1 6692   0.830   3.497   3.605
 1931SOL    HW2 6693   0.775   3.542   3.752
 1932SOL     OW 6694   4.760   4.054   1.948
 1932SOL    HW1 6695   4.734   3.992   1.874
 1932SOL    HW2 6696   4.689   4.124   1.958
 1933SOL     OW 6697   2.675   4.281   0.806
 1933SOL    HW1 6698   2.616   4.332   0.743
 1933SOL    HW2 6699   2.709   4.199   0.761
 1934SOL     OW 6700   0.942   6.871   5.910
 1934SOL    HW1 6701   1.038   6.857   5.885
 1934SOL    HW2 6702   0.929   6.848   6.007
 1935SOL     OW 6703   2.225   6.870   4.238
 1935SOL    HW1 6704   2.320   6.853   4.262
 1935SOL    HW2 6705   2.179   6.917   4.313
 1936SOL     OW 6706   5.283   6.148   4.852
 1936SOL    HW1 6707   5.242   6.235   4.825
 1936SOL    HW2 6708   5.273   6.082   4.778
 1937SOL     OW 6709   4.123   6.576   1.557
 1937SOL    HW1 6710   4.177   6.616   1.631
 1937SOL    HW2 6711   4.037   6.542   1.593
 1938SOL     OW 6712   3.983   1.266   3.290
 1938SOL    HW1 6713   3.982   1.216   3.376
 1938SOL    HW2 6714   4.053   1.337   3.293
 1939SOL     OW 6715   1.706   1.151   4.024
 1939SOL    HW1 6716   1.782   1.205   3.987
 1939SOL    HW2 6717   1.667   1.197   4.103
 1940SOL     OW 6718   6.184   5.346   6.761
 1940SOL    HW1 6719   6.099   5.311   6.799
 1940SOL    HW2 6720   6.171   5.440   6.729
 1941SOL     OW 6721   6.282   3.847   2.840
 1941SOL    HW1 6722   6.223   3.922   2.869
 1941SOL    HW2 6723   6.371   3.856   2.885
 1942SOL     OW 6724   6.256   5.919   2.460
 1942SOL    HW1 6725   6.224   5.914   2.365
 1942SOL    HW2 6726   6.250   5.829   2.502
 1943SOL     OW 6727   2.390   4.713   3.013
 1943SOL    HW1 6728   2.479   4.668   3.007
 1943SOL    HW2 6729   2.328   4.673   2.945
 1944SOL     OW 6730   5.583   1.629   6.632
 1944SOL    HW1 6731   5.492   1.609   6.596
 1944SOL    HW2 6732   5.650   1.570   6.588
 1945SOL     OW 6733   4.465   5.379   3.248
 1945SOL    HW1 6734   4.440   5.347   3.156
 1945SOL    HW2 6735   4.551   5.430   3.243
 1946SOL     OW 6736   1.561   6.771   0.584
 1946SOL    HW1 6737   1.489   6.705   0.604
 1946SOL    HW2 6738   1.522   6.853   0.542
 1947SOL     OW 6739   5.469   0.003   4.547
 1947SOL    HW1 6740   5.518   0.018   4.634
 1947SOL    HW2 6741   5.474   6.928   4.523
 1948SOL     OW 6742   6.912   5.360   4.271
 1948SOL    HW1 6743   6.885   5.430   4.337
 1948SOL    HW2 6744   6.832   5.306   4.244
 1949SOL     OW 6745   4.637   4.542   5.881
 1949SOL    HW1 6746   4.737   4.540   5.873
 1949SOL    HW2 6747   4.598   4.561   5.791
 1950SOL     OW 6748   3.756   3.786   6.482
 1950SOL    HW1 6749   3.749   3.709   6.546
 1950SOL    HW2 6750   3.785   3.752   6.393
 1951SOL     OW 6751   5.384   1.878   0.241
 1951SOL    HW1 6752   5.340   1.945   0.181
 1951SOL    HW2 6753   5.439   1.816   0.187
 1952SOL     OW 6754   3.925   1.642   1.100
 1952SOL    HW1 6755   3.905   1.550   1.134
 1952SOL    HW2 6756   4.020   1.664   1.120
 1953SOL     OW 6757   0.063   2.308   0.011
 1953SOL    HW1 6758   0.079   2.360   6.949
 1953SOL    HW2 6759   0.003   2.360   0.072
 1954SOL     OW 6760   4.939   1.730   3.385
 1954SOL    HW1 6761   4.944   1.827   3.363
 1954SOL    HW2 6762   4.844   1.698   3.379
 1955SOL     OW 6763   1.102   6.748   2.132
 1955SOL    HW1 6764   1.010   6.752   2.170
 1955SOL    HW2 6765   1.113   6.819   2.063
 1956SOL     OW 6766   5.213   5.855   3.010
 1956SOL    HW1 6767   5.241   5.872   2.916
 1956SOL    HW2 6768   5.118   5.882   3.022
 1957SOL     OW 6769   0.503   5.672   4.501
 1957SOL    HW1 6770   0.487   5.577   4.528
 1957SOL    HW2 6771   0.416   5.716   4.478
 1958SOL     OW 6772   5.297   3.466   4.959
 1958SOL    HW1 6773   5.297   3.525   5.040
 1958SOL    HW2 6774   5.391   3.459   4.923
 1959SOL     OW 6775   1.230   2.667   5.972
 1959SOL    HW1 6776   1.138   2.630   5.982
 1959SOL    HW2 6777   1.265   2.646   5.881
 1960SOL     OW 6778   6.335   5.085   0.607
 1960SOL    HW1 6779   6.261   5.140   0.644
 1960SOL    HW2 6780   6.308   5.050   0.517
 1961SOL     OW 6781   5.963   4.984   3.901
 1961SOL    HW1 6782   5.934   5.015   3.992
 1961SOL    HW2 6783   5.885   4.947   3.851
 1962SOL     OW 6784   1.298   6.233   3.368
 1962SOL    HW1 6785   1.272   6.243   3.464
 1962SOL    HW2 6786   1.360   6.307   3.343
 1963SOL     OW 6787   0.690   0.676   2.159
 1963SOL    HW1 6788   0.705   0.748   2.091
 1963SOL    HW2 6789   0.675   0.717   2.249
 1964SOL     OW 6790   4.588   2.763   1.806
 1964SOL    HW1 6791   4.553   2.756   1.713
 1964SOL    HW2 6792   4.572   2.856   1.841
 1965SOL     OW 6793   0.139   3.223   1.905
 1965SOL    HW1 6794   0.053   3.209   1.954
 1965SOL    HW2 6795   0.206   3.156   1.936
 1966SOL     OW 6796   0.168   5.353   4.754
 1966SOL    HW1 6797   0.188   5.285   4.825
 1966SOL    HW2 6798   0.110   5.311   4.684
 1967SOL     OW 6799   5.362   2.754   5.882
 1967SOL    HW1 6800   5.453   2.758   5.842
 1967SOL    HW2 6801   5.297   2.718   5.814
 1968SOL     OW 6802   2.648   5.538   0.031
 1968SOL    HW1 6803   2.747   5.530   0.047
 1968SOL    HW2 6804   2.603   5.452   0.056
 1969SOL     OW 6805   0.226   2.634   1.659
 1969SOL    HW1 6806   0.152   2.575   1.690
 1969SOL    HW2 6807   0.205   2.729   1.681
 1970SOL     OW 6808   1.479   0.677   6.135
 1970SOL    HW1 6809   1.501   0.657   6.231
 1970SOL    HW2 6810   1.420   0.757   6.131
 1971SOL     OW 6811   0.136   0.206   6.247
 1971SOL    HW1 6812   0.210   0.198   6.314
 1971SOL    HW2 6813   0.059   0.148   6.275
 1972SOL     OW 6814   0.735   3.853   3.674
 1972SOL    HW1 6815   0.691   3.843   3.763
 1972SOL    HW2 6816   0.666   3.848   3.602
 1973SOL     OW 6817   3.777   2.831   1.738
 1973SOL    HW1 6818   3.803   2.849   1.833
 1973SOL    HW2 6819   3.704   2.762   1.736
 1974SOL     OW 6820   5.941   6.291   4.435
 1974SOL    HW1 6821   6.033   6.324   4.414
 1974SOL    HW2 6822   5.881   6.305   4.356
 1975SOL     OW 6823   2.422   0.471   4.440
 1975SOL    HW1 6824   2.458   0.414   4.366
 1975SOL    HW2 6825   2.407   0.414   4.521
 1976SOL     OW 6826   0.450   6.016   0.540
 1976SOL    HW1 6827   0.442   6.109   0.504
 1976SOL    HW2 6828   0.438   6.017   0.639
 1977SOL     OW 6829   0.779   2.833   4.083
 1977SOL    HW1 6830   0.836   2.903   4.039
 1977SOL    HW2 6831   0.683   2.860   4.076
 1978SOL     OW 6832   0.862   1.444   4.245
 1978SOL    HW1 6833   0.780   1.501   4.238
 1978SOL    HW2 6834   0.841   1.350   4.218
 1979SOL     OW 6835   6.923   4.415   5.020
 1979SOL    HW1 6836   7.021   4.399   5.018
 1979SOL    HW2 6837   6.905   4.512   5.036
 1980SOL     OW 6838   3.294   0.456   0.896
 1980SOL    HW1 6839   3.284   0.357   0.886
 1980SOL    HW2 6840   3.313   0.497   0.807
 1981SOL     OW 6841   5.291   2.182   2.918
 1981SOL    HW1 6842   5.364   2.250   2.922
 1981SOL    HW2 6843   5.203   2.228   2.912
 1982SOL     OW 6844   6.003   5.553   5.100
 1982SOL    HW1 6845   5.939   5.483   5.071
 1982SOL    HW2 6846   6.088   5.544   5.047
 1983SOL     OW 6847   1.760   2.156   2.938
 1983SOL    HW1 6848   1.673   2.192   2.906
 1983SOL    HW2 6849   1.768   2.060   2.911
 1984SOL     OW 6850   4.519   1.736   6.303
 1984SOL    HW1 6851   4.419   1.739   6.303
 1984SOL    HW2 6852   4.553   1.750   6.396
 1985SOL     OW 6853   0.583   1.016   2.005
 1985SOL    HW1 6854   0.647   0.946   2.038
 1985SOL    HW2 6855   0.496   0.972   1.982
 1986SOL     OW 6856   1.161   1.947   6.605
 1986SOL    HW1 6857   1.064   1.921   6.600
 1986SOL    HW2 6858   1.217   1.868   6.581
 1987SOL     OW 6859   2.903   3.081   1.803
 1987SOL    HW1 6860   2.947   3.039   1.882
 1987SOL    HW2 6861   2.886   3.011   1.733
 1988SOL     OW 6862   5.023   4.329   6.849
 1988SOL    HW1 6863   5.121   4.344   6.840
 1988SOL    HW2 6864   5.004   4.231   6.840
 1989SOL     OW 6865   2.311   0.200   4.850
 1989SOL    HW1 6866   2.363   0.242   4.775
 1989SOL    HW2 6867   2.263   0.119   4.816
 1990SOL     OW 6868   2.647   0.832   1.426
 1990SOL    HW1 6869   2.609   0.740   1.425
 1990SOL    HW2 6870   2.574   0.898   1.410
 1991SOL     OW 6871   3.678   5.478   5.577
 1991SOL    HW1 6872   3.612   5.542   5.536
 1991SOL    HW2 6873   3.760   5.529   5.605
 1992SOL     OW 6874   2.518   6.962   5.323
 1992SOL    HW1 6875   2.437   6.934   5.374
 1992SOL    HW2 6876   2.565   6.881   5.287
 1993SOL     OW 6877   3.966   3.402   5.401
 1993SOL    HW1 6878   3.994   3.494   5.426
 1993SOL    HW2 6879   3.910   3.363   5.474
 1994SOL     OW 6880   0.456   1.977   1.849
 1994SOL    HW1 6881   0.517   1.907   1.884
 1994SOL    HW2 6882   0.453   2.054   1.913
 1995SOL     OW 6883   6.310   2.182   2.096
 1995SOL    HW1 6884   6.366   2.138   2.166
 1995SOL    HW2 6885   6.214   2.177   2.121
 1996SOL     OW 6886   3.804   2.988   1.100
 1996SOL    HW1 6887   3.802   2.946   1.009
 1996SOL    HW2 6888   3.882   2.954   1.151
 1997SOL     OW 6889   5.925   1.230   5.026
 1997SOL    HW1 6890   5.989   1.164   5.067
 1997SOL    HW2 6891   5.842   1.182   4.998
 1998SOL     OW 6892   3.111   3.916   6.507
 1998SOL    HW1 6893   3.130   3.843   6.440
 1998SOL    HW2 6894   3.137   3.885   6.598
 1999SOL     OW 6895   2.374   0.205   2.139
 1999SOL    HW1 6896   2.337   0.117   2.170
 1999SOL    HW2 6897   2.324   0.280   2.183
 2000SOL     OW 6898   4.209   1.268   4.823
 2000SOL    HW1 6899   4.141   1.203   4.855
 2000SOL    HW2 6900   4.200   1.279   4.724
 2001SOL     OW 6901   3.428   1.851   1.883
 2001SOL    HW1 6902   3.520   1.819   1.904
 2001SOL    HW2 6903   3.423   1.874   1.785
 2002SOL     OW 6904   1.799   6.242   6.042
 2002SOL    HW1 6905   1.864   6.252   6.117
 2002SOL    HW2 6906   1.777   6.145   6.031
 2003SOL     OW 6907   5.175   0.407   3.457
 2003SOL    HW1 6908   5.233   0.326   3.444
 2003SOL    HW2 6909   5.134   0.433   3.370
 2004SOL     OW 6910   4.295   0.858   4.689
 2004SOL    HW1 6911   4.212   0.837   4.638
 2004SOL    HW2 6912   4.315   0.781   4.751
 2005SOL     OW 6913   1.729   5.710   6.698
 2005SOL    HW1 6914   1.677   5.795   6.700
 2005SOL    HW2 6915   1.796   5.714   6.624
 2006SOL     OW 6916   4.841   4.137   3.763
 2006SOL    HW1 6917   4.805   4.117   3.854
 2006SOL    HW2 6918   4.837   4.055   3.707
 2007SOL     OW 6919   4.820   5.178   6.769
 2007SOL    HW1 6920   4.832   5.277   6.765
 2007SOL    HW2 6921   4.899   5.137   6.815
 2008SOL     OW 6922   6.596   6.237   3.835
 2008SOL    HW1 6923   6.546   6.240   3.749
 2008SOL    HW2 6924   6.537   6.268   3.910
 2009SOL     OW 6925   6.277   0.260   1.745
 2009SOL    HW1 6926   6.262   0.252   1.646
 2009SOL    HW2 6927   6.328   0.344   1.763
 2010SOL     OW 6928   1.635   1.169   1.202
 2010SOL    HW1 6929   1.572   1.121   1.264
 2010SOL    HW2 6930   1.652   1.261   1.237
 2011SOL     OW 6931   6.950   2.797   5.212
 2011SOL    HW1 6932   6.970   2.772   5.117
 2011SOL    HW2 6933   6.968   2.895   5.225
 2012SOL     OW 6934   0.962   3.915   1.928
 2012SOL    HW1 6935   0.896   3.879   1.862
 2012SOL    HW2 6936   0.954   3.865   2.014
 2013SOL     OW 6937   5.136   1.645   2.924
 2013SOL    HW1 6938   5.107   1.740   2.934
 2013SOL    HW2 6939   5.233   1.642   2.903
 2014SOL     OW 6940   1.179   5.814   3.180
 2014SOL    HW1 6941   1.111   5.854   3.119
 2014SOL    HW2 6942   1.267   5.860   3.167
 2015SOL     OW 6943   3.552   1.054   0.121
 2015SOL    HW1 6944   3.479   1.115   0.152
 2015SOL    HW2 6945   3.593   1.091   0.038
 2016SOL     OW 6946   1.054   5.033   4.360
 2016SOL    HW1 6947   1.152   5.026   4.338
 2016SOL    HW2 6948   1.043   5.074   4.450
 2017SOL     OW 6949   3.193   6.516   3.721
 2017SOL    HW1 6950   3.194   6.442   3.655
 2017SOL    HW2 6951   3.166   6.481   3.811
 2018SOL     OW 6952   6.958   5.676   5.279
 2018SOL    HW1 6953   6.903   5.614   5.223
 2018SOL    HW2 6954   6.898   5.741   5.326
 2019SOL     OW 6955   5.549   2.774   0.847
 2019SOL    HW1 6956   5.648   2.784   0.855
 2019SOL    HW2 6957   5.504   2.842   0.906
 2020SOL     OW 6958   1.774   4.951   5.071
 2020SOL    HW1 6959   1.778   5.042   5.030
 2020SOL    HW2 6960   1.708   4.895   5.020
 2021SOL     OW 6961   1.843   0.576   2.692
 2021SOL    HW1 6962   1.909   0.651   2.693
 2021SOL    HW2 6963   1.750   0.613   2.684
 2022SOL     OW 6964   2.015   3.416   1.880
 2022SOL    HW1 6965   1.984   3.486   1.816
 2022SOL    HW2 6966   2.093   3.451   1.932
 2023SOL     OW 6967   0.110   1.277   6.938
 2023SOL    HW1 6968   0.121   1.360   6.884
 2023SOL    HW2 6969   0.190   1.218   6.923
 2024SOL     OW 6970   6.691   1.048   3.139
 2024SOL    HW1 6971   6.644   1.092   3.215
 2024SOL    HW2 6972   6.627   0.991   3.088
 2025SOL     OW 6973   1.301   1.849   1.669
 2025SOL    HW1 6974   1.263   1.805   1.587
 2025SOL    HW2 6975   1.394   1.815   1.684
 2026SOL     OW 6976   2.139   2.191   5.974
 2026SOL    HW1 6977   2.206   2.165   5.904
 2026SOL    HW2 6978   2.122   2.114   6.035
 2027SOL     OW 6979   0.338   0.891   2.121
 2027SOL    HW1 6980   0.336   0.836   2.204
 2027SOL    HW2 6981   0.316   0.833   2.042
 2028SOL     OW 6982   3.899   1.283   0.869
 2028SOL    HW1 6983   3.938   1.265   0.779
 2028SOL    HW2 6984   3.965   1.257   0.940
 2029SOL     OW 6985   0.917   0.560   6.795
 2029SOL    HW1 6986   0.985   0.581   6.724
 2029SOL    HW2 6987   0.899   0.643   6.849
 2030SOL     OW 6988   2.263   2.161   3.742
 2030SOL    HW1 6989   2.196   2.094   3.775
 2030SOL    HW2 6990   2.229   2.203   3.658
 2031SOL     OW 6991   5.235   5.779   2.132
 2031SOL    HW1 6992   5.172   5.743   2.063
 2031SOL    HW2 6993   5.183   5.814   2.209
 2032SOL     OW 6994   5.095   6.411   1.033
 2032SOL    HW1 6995   5.192   6.422   1.013
 2032SOL    HW2 6996   5.059   6.331   0.984
 2033SOL     OW 6997   4.311   4.494   5.738
 2033SOL    HW1 6998   4.301   4.579   5.790
 2033SOL    HW2 6999   4.408   4.482   5.714
 2034SOL     OW 7000   2.157   6.327   3.550
 2034SOL    HW1 7001   2.173   6.236   3.588
 2034SOL    HW2 7002   2.241   6.380   3.556
 2035SOL     OW 7003   6.559   1.653   2.434
 2035SOL    HW1 7004   6.595   1.741   2.405
 2035SOL    HW2 7005   6.464   1.643   2.402
 2036SOL     OW 7006   0.323   5.772   1.411
 2036SOL    HW1 7007   0.389   5.722   1.466
 2036SOL    HW2 7008   0.281   5.844   1.467
 2037SOL     OW 7009   6.937   2.456   5.590
 2037SOL    HW1 7010   6.896   2.457   5.499
 2037SOL    HW2 7011   0.015   2.456   5.581
 2038SOL     OW 7012   1.045   1.500   6.332
 2038SOL    HW1 7013   1.040   1.441   6.251
 2038SOL    HW2 7014   0.986   1.579   6.318
 2039SOL     OW 7015   0.263   6.106   3.936
 2039SOL    HW1 7016   0.314   6.191   3.926
 2039SOL    HW2 7017   0.312   6.045   3.999
 2040SOL     OW 7018   3.682   2.912   4.202
 2040SOL    HW1 7019   3.727   2.832   4.163
 2040SOL    HW2 7020   3.686   2.908   4.302
 2041SOL     OW 7021   6.001   5.844   5.959
 2041SOL    HW1 7022   6.076   5.852   5.894
 2041SOL    HW2 7023   6.020   5.770   6.024
 2042SOL     OW 7024   5.629   5.241   0.848
 2042SOL    HW1 7025   5.689   5.162   0.852
 2042SOL    HW2 7026   5.648   5.301   0.926
 2043SOL     OW 7027   6.363   5.494   2.024
 2043SOL    HW1 7028   6.289   5.555   1.997
 2043SOL    HW2 7029   6.448   5.547   2.034
 2044SOL     OW 7030   5.844   0.291   1.728
 2044SOL    HW1 7031   5.785   0.302   1.648
 2044SOL    HW2 7032   5.787   0.282   1.810
 2045SOL     OW 7033   1.825   4.739   5.580
 2045SOL    HW1 7034   1.801   4.821   5.631
 2045SOL    HW2 7035   1.782   4.659   5.622
 2046SOL     OW 7036   6.614   0.561   4.836
 2046SOL    HW1 7037   6.545   0.632   4.852
 2046SOL    HW2 7038   6.705   0.599   4.855
 2047SOL     OW 7039   4.651   2.145   0.979
 2047SOL    HW1 7040   4.590   2.182   1.049
 2047SOL    HW2 7041   4.600   2.082   0.921
 2048SOL     OW 7042   3.481   6.288   6.870
 2048SOL    HW1 7043   3.568   6.247   6.843
 2048SOL    HW2 7044   3.483   6.386   6.848
 2049SOL     OW 7045   5.157   2.453   6.810
 2049SOL    HW1 7046   5.140   2.534   6.866
 2049SOL    HW2 7047   5.146   2.371   6.866
 2050SOL     OW 7048   6.141   3.062   3.885
 2050SOL    HW1 7049   6.232   3.038   3.852
 2050SOL    HW2 7050   6.142   3.155   3.921
 2051SOL     OW 7051   0.073   4.792   6.526
 2051SOL    HW1 7052   0.054   4.848   6.445
 2051SOL    HW2 7053   0.011   4.714   6.527
 2052SOL     OW 7054   0.284   3.591   6.792
 2052SOL    HW1 7055   0.346   3.551   6.725
 2052SOL    HW2 7056   0.336   3.624   6.871
 2053SOL     OW 7057   6.044   0.135   0.303
 2053SOL    HW1 7058   5.997   0.222   0.315
 2053SOL    HW2 7059   6.139   0.144   0.334
 2054SOL     OW 7060   5.635   2.799   1.209
 2054SOL    HW1 7061   5.649   2.737   1.286
 2054SOL    HW2 7062   5.574   2.755   1.142
 2055SOL     OW 7063   5.339   3.054   3.140
 2055SOL    HW1 7064   5.394   3.104   3.073
 2055SOL    HW2 7065   5.398   3.021   3.214
 2056SOL     OW 7066   1.893   1.604   2.867
 2056SOL    HW1 7067   1.917   1.694   2.830
 2056SOL    HW2 7068   1.968   1.540   2.851
 2057SOL     OW 7069   5.487   2.063   3.931
 2057SOL    HW1 7070   5.561   2.042   3.995
 2057SOL    HW2 7071   5.525   2.102   3.847
 2058SOL     OW 7072   1.202   2.004   2.882
 2058SOL    HW1 7073   1.128   2.049   2.832
 2058SOL    HW2 7074   1.206   1.908   2.856
 2059SOL     OW 7075   2.404   6.849   6.988
 2059SOL    HW1 7076   2.433   6.894   6.904
 2059SOL    HW2 7077   2.483   6.808   0.012
 2060SOL     OW 7078   0.025   4.319   1.180
 2060SOL    HW1 7079   0.047   4.389   1.112
 2060SOL    HW2 7080   0.110   4.274   1.209
 2061SOL     OW 7081   0.313   1.419   2.745
 2061SOL    HW1 7082   0.385   1.410   2.814
 2061SOL    HW2 7083   0.309   1.513   2.713
 2062SOL     OW 7084   5.294   0.006   3.141
 2062SOL    HW1 7085   5.300   0.057   3.055
 2062SOL    HW2 7086   5.202   0.015   3.178
 2063SOL     OW 7087   0.996   0.942   6.718
 2063SOL    HW1 7088   0.918   0.933   6.656
 2063SOL    HW2 7089   1.069   0.993   6.673
 2064SOL     OW 7090   0.554   2.270   5.691
 2064SOL    HW1 7091   0.465   2.299   5.656
 2064SOL    HW2 7092   0.577   2.323   5.773
 2065SOL     OW 7093   5.731   3.709   2.206
 2065SOL    HW1 7094   5.788   3.762   2.143
 2065SOL    HW2 7095   5.642   3.691   2.164
 2066SOL     OW 7096   0.776   5.558   4.353
 2066SOL    HW1 7097   0.731   5.605   4.429
 2066SOL    HW2 7098   0.722   5.477   4.328
 2067SOL     OW 7099   6.826   6.501   0.725
 2067SOL    HW1 7100   6.838   6.600   0.734
 2067SOL    HW2 7101   6.758   6.483   0.653
 2068SOL     OW 7102   1.871   1.019   5.617
 2068SOL    HW1 7103   1.838   1.041   5.709
 2068SOL    HW2 7104   1.815   1.068   5.549
 2069SOL     OW 7105   0.574   2.812   2.667
 2069SOL    HW1 7106   0.623   2.733   2.631
 2069SOL    HW2 7107   0.638   2.885   2.687
 2070SOL     OW 7108   1.881   0.275   2.154
 2070SOL    HW1 7109   1.786   0.259   2.127
 2070SOL    HW2 7110   1.882   0.333   2.236
 2071SOL     OW 7111   0.709   6.793   4.501
 2071SOL    HW1 7112   0.634   6.824   4.560
 2071SOL    HW2 7113   0.735   6.700   4.526
 2072SOL     OW 7114   4.567   5.819   1.792
 2072SOL    HW1 7115   4.607   5.736   1.831
 2072SOL    HW2 7116   4.513   5.866   1.861
 2073SOL     OW 7117   3.933   6.753   4.518
 2073SOL    HW1 7118   3.966   6.690   4.447
 2073SOL    HW2 7119   3.984   6.838   4.513
 2074SOL     OW 7120   0.626   1.991   6.541
 2074SOL    HW1 7121   0.710   1.944   6.513
 2074SOL    HW2 7122   0.643   2.041   6.626
 2075SOL     OW 7123   4.791   3.004   1.491
 2075SOL    HW1 7124   4.840   2.929   1.536
 2075SOL    HW2 7125   4.851   3.046   1.423
 2076SOL     OW 7126   5.426   5.992   6.982
 2076SOL    HW1 7127   5.461   6.083   7.006
 2076SOL    HW2 7128   5.386   5.994   6.891
 2077SOL     OW 7129   5.146   2.576   2.187
 2077SOL    HW1 7130   5.090   2.647   2.230
 2077SOL    HW2 7131   5.104   2.549   2.100
 2078SOL     OW 7132   2.338   5.874   6.452
 2078SOL    HW1 7133   2.257   5.932   6.457
 2078SOL    HW2 7134   2.339   5.826   6.364
 2079SOL     OW 7135   5.621   1.280   3.656
 2079SOL    HW1 7136   5.523   1.261   3.658
 2079SOL    HW2 7137   5.635   1.374   3.626
 2080SOL     OW 7138   2.564   1.294   4.968
 2080SOL    HW1 7139   2.518   1.318   4.883
 2080SOL    HW2 7140   2.535   1.356   5.040
 2081SOL     OW 7141   1.424   5.953   5.259
 2081SOL    HW1 7142   1.471   6.033   5.294
 2081SOL    HW2 7143   1.325   5.970   5.258
 2082SOL     OW 7144   5.757   0.644   1.572
 2082SOL    HW1 7145   5.756   0.743   1.555
 2082SOL    HW2 7146   5.670   0.605   1.543
 2083SOL     OW 7147   4.155   4.533   6.614
 2083SOL    HW1 7148   4.177   4.529   6.712
 2083SOL    HW2 7149   4.181   4.446   6.571
 2084SOL     OW 7150   6.930   3.169   3.939
 2084SOL    HW1 7151   0.003   3.191   3.965
 2084SOL    HW2 7152   6.891   3.246   3.888
 2085SOL     OW 7153   5.210   1.045   6.826
 2085SOL    HW1 7154   5.182   1.131   6.868
 2085SOL    HW2 7155   5.307   1.051   6.800
 2086SOL     OW 7156   2.837   5.767   6.330
 2086SOL    HW1 7157   2.760   5.830   6.327
 2086SOL    HW2 7158   2.808   5.679   6.292
 2087SOL     OW 7159   4.610   6.176   1.457
 2087SOL    HW1 7160   4.539   6.163   1.388
 2087SOL    HW2 7161   4.699   6.147   1.420
 2088SOL     OW 7162   3.352   5.730   0.509
 2088SOL    HW1 7163   3.402   5.807   0.548
 2088SOL    HW2 7164   3.415   5.670   0.461
 2089SOL     OW 7165   4.026   1.528   0.333
 2089SOL    HW1 7166   3.930   1.551   0.346
 2089SOL    HW2 7167   4.056   1.468   0.407
 2090SOL     OW 7168   4.028   3.171   4.546
 2090SOL    HW1 7169   4.088   3.094   4.526
 2090SOL    HW2 7170   4.061   3.253   4.499
 2091SOL     OW 7171   0.487   6.445   6.775
 2091SOL    HW1 7172   0.433   6.384   6.717
 2091SOL    HW2 7173   0.530   6.392   6.848
 2092SOL     OW 7174   5.138   5.468   0.244
 2092SOL    HW1 7175   5.057   5.525   0.230
 2092SOL    HW2 7176   5.167   5.473   0.340
 2093SOL     OW 7177   1.604   1.785   1.730
 2093SOL    HW1 7178   1.663   1.863   1.709
 2093SOL    HW2 7179   1.646   1.701   1.696
 2094SOL     OW 7180   5.930   1.172   1.376
 2094SOL    HW1 7181   5.966   1.079   1.369
 2094SOL    HW2 7182   6.004   1.235   1.397
 2095SOL     OW 7183   6.011   0.315   3.758
 2095SOL    HW1 7184   5.994   0.230   3.707
 2095SOL    HW2 7185   6.110   0.331   3.764
 2096SOL     OW 7186   4.808   3.813   2.706
 2096SOL    HW1 7187   4.830   3.823   2.803
 2096SOL    HW2 7188   4.890   3.831   2.652
 2097SOL     OW 7189   1.286   2.939   6.386
 2097SOL    HW1 7190   1.252   2.870   6.322
 2097SOL    HW2 7191   1.349   2.896   6.451
 2098SOL     OW 7192   3.584   5.776   3.828
 2098SOL    HW1 7193   3.599   5.677   3.827
 2098SOL    HW2 7194   3.672   5.823   3.837
 2099SOL     OW 7195   2.509   1.734   4.939
 2099SOL    HW1 7196   2.426   1.748   4.992
 2099SOL    HW2 7197   2.493   1.664   4.869
 2100SOL     OW 7198   3.803   4.031   6.574
 2100SOL    HW1 7199   3.831   4.037   6.670
 2100SOL    HW2 7200   3.794   3.935   6.547
 2101SOL     OW 7201   1.256   6.545   2.053
 2101SOL    HW1 7202   1.176   6.595   2.086
 2101SOL    HW2 7203   1.264   6.458   2.101
 2102SOL     OW 7204   0.607   4.957   2.107
 2102SOL    HW1 7205   0.577   4.979   2.200
 2102SOL    HW2 7206   0.542   4.894   2.065
 2103SOL     OW 7207   2.902   3.669   0.012
 2103SOL    HW1 7208   2.980   3.679   0.074
 2103SOL    HW2 7209   2.923   3.714   6.947
 2104SOL     OW 7210   1.430   3.706   6.854
 2104SOL    HW1 7211   1.398   3.644   6.782
 2104SOL    HW2 7212   1.526   3.729   6.839
 2105SOL     OW 7213   5.429   5.226   3.743
 2105SOL    HW1 7214   5.373   5.148   3.715
 2105SOL    HW2 7215   5.518   5.192   3.775
 2106SOL     OW 7216   4.140   5.170   0.359
 2106SOL    HW1 7217   4.203   5.194   0.433
 2106SOL    HW2 7218   4.126   5.249   0.300
 2107SOL     OW 7219   4.381   3.000   5.635
 2107SOL    HW1 7220   4.436   3.083   5.633
 2107SOL    HW2 7221   4.416   2.936   5.566
 2108SOL     OW 7222   6.360   6.454   5.737
 2108SOL    HW1 7223   6.401   6.372   5.778
 2108SOL    HW2 7224   6.333   6.433   5.643
 2109SOL     OW 7225   5.345   6.639   3.487
 2109SOL    HW1 7226   5.264   6.657   3.543
 2109SOL    HW2 7227   5.403   6.720   3.487
 2110SOL     OW 7228   3.181   3.771   5.991
 2110SOL    HW1 7229   3.161   3.743   5.898
 2110SOL    HW2 7230   3.184   3.871   5.996
 2111SOL     OW 7231   0.454   1.648   6.241
 2111SOL    HW1 7232   0.493   1.600   6.320
 2111SOL    HW2 7233   0.493   1.610   6.157
 2112SOL     OW 7234   4.550   1.640   1.186
 2112SOL    HW1 7235   4.568   1.654   1.089
 2112SOL    HW2 7236   4.609   1.701   1.240
 2113SOL     OW 7237   1.242   0.270   4.196
 2113SOL    HW1 7238   1.282   0.360   4.182
 2113SOL    HW2 7239   1.193   0.269   4.283
 2114SOL     OW 7240   1.667   2.714   0.713
 2114SOL    HW1 7241   1.675   2.743   0.809
 2114SOL    HW2 7242   1.708   2.783   0.654
 2115SOL     OW 7243   1.916   4.334   2.848
 2115SOL    HW1 7244   1.962   4.249   2.875
 2115SOL    HW2 7245   1.981   4.393   2.800
 2116SOL     OW 7246   0.208   4.282   3.056
 2116SOL    HW1 7247   0.269   4.286   2.976
 2116SOL    HW2 7248   0.174   4.189   3.067
 2117SOL     OW 7249   6.887   4.844   1.711
 2117SOL    HW1 7250   6.915   4.797   1.627
 2117SOL    HW2 7251   6.791   4.824   1.730
 2118SOL     OW 7252   0.146   3.233   2.540
 2118SOL    HW1 7253   0.189   3.146   2.517
 2118SOL    HW2 7254   0.182   3.265   2.628
 2119SOL     OW 7255   2.159   5.405   0.573
 2119SOL    HW1 7256   2.081   5.358   0.615
 2119SOL    HW2 7257   2.128   5.452   0.490
 2120SOL     OW 7258   6.787   5.596   3.668
 2120SOL    HW1 7259   6.871   5.647   3.648
 2120SOL    HW2 7260   6.755   5.620   3.760
 2121SOL     OW 7261   1.297   4.535   5.839
 2121SOL    HW1 7262   1.244   4.458   5.875
 2121SOL    HW2 7263   1.282   4.542   5.740
 2122SOL     OW 7264   6.289   4.117   5.193
 2122SOL    HW1 7265   6.281   4.041   5.128
 2122SOL    HW2 7266   6.245   4.092   5.279
 2123SOL     OW 7267   0.365   4.453   2.679
 2123SOL    HW1 7268   0.437   4.483   2.617
 2123SOL    HW2 7269   0.295   4.525   2.687
 2124SOL     OW 7270   2.220   1.250   1.667
 2124SOL    HW1 7271   2.254   1.301   1.587
 2124SOL    HW2 7272   2.181   1.163   1.637
 2125SOL     OW 7273   1.414   0.340   0.764
 2125SOL    HW1 7274   1.389   0.295   0.849
 2125SOL    HW2 7275   1.395   0.438   0.771
 2126SOL     OW 7276   2.913   0.529   1.320
 2126SOL    HW1 7277   2.867   0.483   1.244
 2126SOL    HW2 7278   2.849   0.540   1.396
 2127SOL     OW 7279   6.042   3.466   4.798
 2127SOL    HW1 7280   6.099   3.385   4.812
 2127SOL    HW2 7281   5.982   3.451   4.719
 2128SOL     OW 7282   0.147   4.449   4.385
 2128SOL    HW1 7283   0.164   4.483   4.477
 2128SOL    HW2 7284   0.057   4.405   4.382
 2129SOL     OW 7285   4.533   2.738   5.536
 2129SOL    HW1 7286   4.511   2.673   5.608
 2129SOL    HW2 7287   4.464   2.730   5.463
 2130SOL     OW 7288   4.859   6.672   2.634
 2130SOL    HW1 7289   4.793   6.640   2.702
 2130SOL    HW2 7290   4.873   6.771   2.645
 2131SOL     OW 7291   0.208   0.939   1.108
 2131SOL    HW1 7292   0.194   1.009   1.038
 2131SOL    HW2 7293   0.193   0.848   1.068
 2132SOL     OW 7294   4.390   2.560   1.129
 2132SOL    HW1 7295   4.475   2.614   1.131
 2132SOL    HW2 7296   4.375   2.519   1.219
 2133SOL     OW 7297   3.147   2.490   5.479
 2133SOL    HW1 7298   3.165   2.498   5.381
 2133SOL    HW2 7299   3.050   2.503   5.496
 2134SOL     OW 7300   0.226   2.101   0.634
 2134SOL    HW1 7301   0.272   2.050   0.706
 2134SOL    HW2 7302   0.230   2.199   0.654
 2135SOL     OW 7303   0.529   4.225   4.235
 2135SOL    HW1 7304   0.589   4.166   4.289
 2135SOL    HW2 7305   0.584   4.275   4.168
 2136SOL     OW 7306   2.551   5.084   2.445
 2136SOL    HW1 7307   2.559   5.174   2.403
 2136SOL    HW2 7308   2.638   5.059   2.487
 2137SOL     OW 7309   2.879   5.080   5.235
 2137SOL    HW1 7310   2.915   5.107   5.324
 2137SOL    HW2 7311   2.779   5.081   5.238
 2138SOL     OW 7312   6.148   0.818   2.858
 2138SOL    HW1 7313   6.138   0.889   2.928
 2138SOL    HW2 7314   6.173   0.731   2.902
 2139SOL     OW 7315   3.845   0.632   4.885
 2139SOL    HW1 7316   3.809   0.581   4.963
 2139SOL    HW2 7317   3.776   0.639   4.814
 2140SOL     OW 7318   3.210   6.710   4.317
 2140SOL    HW1 7319   3.296   6.760   4.311
 2140SOL    HW2 7320   3.191   6.665   4.230
 2141SOL     OW 7321   6.291   3.705   2.112
 2141SOL    HW1 7322   6.386   3.721   2.138
 2141SOL    HW2 7323   6.280   3.610   2.081
 2142SOL     OW 7324   1.016   1.614   3.436
 2142SOL    HW1 7325   1.052   1.677   3.367
 2142SOL    HW2 7326   1.061   1.525   3.426
 2143SOL     OW 7327   2.044   5.298   1.019
 2143SOL    HW1 7328   1.958   5.253   1.041
 2143SOL    HW2 7329   2.060   5.292   0.920
 2144SOL     OW 7330   0.343   5.126   4.289
 2144SOL    HW1 7331   0.432   5.088   4.262
 2144SOL    HW2 7332   0.302   5.174   4.211
 2145SOL     OW 7333   3.878   6.447   4.036
 2145SOL    HW1 7334   3.855   6.350   4.027
 2145SOL    HW2 7335   3.837   6.483   4.120
 2146SOL     OW 7336   2.091   2.149   1.232
 2146SOL    HW1 7337   2.011   2.195   1.269
 2146SOL    HW2 7338   2.166   2.155   1.298
 2147SOL     OW 7339   6.541   1.378   6.568
 2147SOL    HW1 7340   6.551   1.358   6.666
 2147SOL    HW2 7341   6.472   1.318   6.529
 2148SOL     OW 7342   6.640   3.239   6.554
 2148SOL    HW1 7343   6.674   3.152   6.519
 2148SOL    HW2 7344   6.544   3.250   6.528
 2149SOL     OW 7345   1.734   1.456   1.181
 2149SOL    HW1 7346   1.747   1.403   1.098
 2149SOL    HW2 7347   1.710   1.551   1.158
 2150SOL     OW 7348   2.564   2.520   1.632
 2150SOL    HW1 7349   2.533   2.468   1.711
 2150SOL    HW2 7350   2.648   2.480   1.596
 2151SOL     OW 7351   1.153   6.242   6.496
 2151SOL    HW1 7352   1.115   6.160   6.539
 2151SOL    HW2 7353   1.102   6.322   6.527
 2152SOL     OW 7354   3.669   4.902   2.465
 2152SOL    HW1 7355   3.709   4.893   2.375
 2152SOL    HW2 7356   3.569   4.895   2.458
 2153SOL     OW 7357   4.946   1.657   2.143
 2153SOL    HW1 7358   4.895   1.722   2.200
 2153SOL    HW2 7359   4.897   1.570   2.140
 2154SOL     OW 7360   2.541   6.656   4.514
 2154SOL    HW1 7361   2.582   6.590   4.451
 2154SOL    HW2 7362   2.595   6.658   4.599
 2155SOL     OW 7363   4.134   6.708   0.897
 2155SOL    HW1 7364   4.044   6.731   0.934
 2155SOL    HW2 7365   4.144   6.747   0.806
 2156SOL     OW 7366   6.577   0.206   4.643
 2156SOL    HW1 7367   6.580   0.169   4.736
 2156SOL    HW2 7368   6.638   0.285   4.636
 2157SOL     OW 7369   4.708   5.712   3.712
 2157SOL    HW1 7370   4.609   5.696   3.710
 2157SOL    HW2 7371   4.736   5.740   3.804
 2158SOL     OW 7372   4.233   6.365   0.684
 2158SOL    HW1 7373   4.248   6.281   0.633
 2158SOL    HW2 7374   4.261   6.443   0.629
 2159SOL     OW 7375   1.740   0.802   5.105
 2159SOL    HW1 7376   1.666   0.770   5.045
 2159SOL    HW2 7377   1.752   0.901   5.094
 2160SOL     OW 7378   5.219   4.975   6.343
 2160SOL    HW1 7379   5.266   4.904   6.395
 2160SOL    HW2 7380   5.159   4.932   6.275
 2161SOL     OW 7381   6.580   3.916   2.022
 2161SOL    HW1 7382   6.538   3.972   1.949
 2161SOL    HW2 7383   6.669   3.954   2.045
 2162SOL     OW 7384   2.637   6.969   2.883
 2162SOL    HW1 7385   2.630   0.046   2.877
 2162SOL    HW2 7386   2.648   6.942   2.979
 2163SOL     OW 7387   1.570   3.908   0.388
 2163SOL    HW1 7388   1.586   3.816   0.423
 2163SOL    HW2 7389   1.518   3.903   0.303
 2164SOL     OW 7390   2.336   2.673   6.894
 2164SOL    HW1 7391   2.272   2.750   6.898
 2164SOL    HW2 7392   2.412   2.696   6.832
 2165SOL     OW 7393   0.609   1.979   4.065
 2165SOL    HW1 7394   0.523   2.017   4.031
 2165SOL    HW2 7395   0.679   1.986   3.993
 2166SOL     OW 7396   0.194   4.158   4.299
 2166SOL    HW1 7397   0.188   4.248   4.343
 2166SOL    HW2 7398   0.244   4.167   4.213
 2167SOL     OW 7399   0.628   2.820   3.801
 2167SOL    HW1 7400   0.713   2.775   3.829
 2167SOL    HW2 7401   0.563   2.818   3.877
 2168SOL     OW 7402   0.913   1.746   2.510
 2168SOL    HW1 7403   0.871   1.771   2.423
 2168SOL    HW2 7404   0.994   1.802   2.525
 2169SOL     OW 7405   0.281   0.216   0.989
 2169SOL    HW1 7406   0.258   0.246   0.896
 2169SOL    HW2 7407   0.239   0.127   1.006
 2170SOL     OW 7408   6.944   4.311   4.482
 2170SOL    HW1 7409   6.989   4.283   4.567
 2170SOL    HW2 7410   6.850   4.278   4.482
 2171SOL     OW 7411   0.530   5.632   1.512
 2171SOL    HW1 7412   0.575   5.603   1.427
 2171SOL    HW2 7413   0.467   5.561   1.542
 2172SOL     OW 7414   1.831   1.848   5.734
 2172SOL    HW1 7415   1.931   1.843   5.738
 2172SOL    HW2 7416   1.797   1.900   5.812
 2173SOL     OW 7417   4.926   0.363   5.873
 2173SOL    HW1 7418   4.957   0.457   5.881
 2173SOL    HW2 7419   4.977   0.317   5.800
 2174SOL     OW 7420   6.901   6.616   4.948
 2174SOL    HW1 7421   6.941   6.676   5.017
 2174SOL    HW2 7422   6.972   6.555   4.911
 2175SOL     OW 7423   1.852   2.573   4.862
 2175SOL    HW1 7424   1.857   2.478   4.829
 2175SOL    HW2 7425   1.922   2.628   4.815
 2176SOL     OW 7426   5.404   1.751   1.152
 2176SOL    HW1 7427   5.312   1.788   1.159
 2176SOL    HW2 7428   5.411   1.695   1.069
 2177SOL     OW 7429   6.513   0.784   2.264
 2177SOL    HW1 7430   6.553   0.693   2.255
 2177SOL    HW2 7431   6.474   0.812   2.176
 2178SOL     OW 7432   1.164   1.239   2.092
 2178SOL    HW1 7433   1.190   1.156   2.141
 2178SOL    HW2 7434   1.245   1.296   2.079
 2179SOL     OW 7435   1.695   3.182   6.235
 2179SOL    HW1 7436   1.769   3.249   6.235
 2179SOL    HW2 7437   1.718   3.107   6.174
 2180SOL     OW 7438   1.327   3.144   2.004
 2180SOL    HW1 7439   1.358   3.148   2.099
 2180SOL    HW2 7440   1.251   3.081   1.996
 2181SOL     OW 7441   4.641   4.997   4.187
 2181SOL    HW1 7442   4.602   4.978   4.097
 2181SOL    HW2 7443   4.646   5.096   4.201
 2182SOL     OW 7444   0.796   4.896   3.878
 2182SOL    HW1 7445   0.817   4.848   3.793
 2182SOL    HW2 7446   0.809   4.834   3.956
 2183SOL     OW 7447   2.423   3.827   0.542
 2183SOL    HW1 7448   2.330   3.830   0.505
 2183SOL    HW2 7449   2.485   3.789   0.474
 2184SOL     OW 7450   4.362   0.242   6.272
 2184SOL    HW1 7451   4.399   0.182   6.201
 2184SOL    HW2 7452   4.263   0.251   6.260
 2185SOL     OW 7453   1.342   0.984   6.880
 2185SOL    HW1 7454   1.404   0.909   6.905
 2185SOL    HW2 7455   1.277   1.001   6.954
 2186SOL     OW 7456   6.226   6.018   6.258
 2186SOL    HW1 7457   6.274   5.933   6.241
 2186SOL    HW2 7458   6.290   6.086   6.294
 2187SOL     OW 7459   7.018   6.373   2.331
 2187SOL    HW1 7460   6.991   6.469   2.342
 2187SOL    HW2 7461   6.989   6.340   2.241
 2188SOL     OW 7462   2.032   5.217   5.712
 2188SOL    HW1 7463   2.075   5.289   5.658
 2188SOL    HW2 7464   1.933   5.228   5.710
 2189SOL     OW 7465   1.598   0.259   2.135
 2189SOL    HW1 7466   1.575   0.200   2.057
 2189SOL    HW2 7467   1.566   0.352   2.116
 2190SOL     OW 7468   6.567   3.724   1.817
 2190SOL    HW1 7469   6.493   3.753   1.758
 2190SOL    HW2 7470   6.561   3.771   1.905
 2191SOL     OW 7471   2.962   1.216   5.732
 2191SOL    HW1 7472   2.980   1.287   5.664
 2191SOL    HW2 7473   2.943   1.129   5.686
 2192SOL     OW 7474   5.204   0.458   2.695
 2192SOL    HW1 7475   5.213   0.540   2.751
 2192SOL    HW2 7476   5.127   0.403   2.728
 2193SOL     OW 7477   6.663   0.187   6.062
 2193SOL    HW1 7478   6.581   0.221   6.016
 2193SOL    HW2 7479   6.726   0.262   6.078
 2194SOL     OW 7480   1.000   3.981   5.890
 2194SOL    HW1 7481   0.977   4.067   5.936
 2194SOL    HW2 7482   0.979   3.904   5.949
 2195SOL     OW 7483   0.198   6.248   5.321
 2195SOL    HW1 7484   0.173   6.341   5.347
 2195SOL    HW2 7485   0.218   6.245   5.223
 2196SOL     OW 7486   3.183   6.570   5.153
 2196SOL    HW1 7487   3.239   6.606   5.080
 2196SOL    HW2 7488   3.234   6.500   5.203
 2197SOL     OW 7489   2.913   3.569   6.413
 2197SOL    HW1 7490   2.831   3.623   6.394
 2197SOL    HW2 7491   2.993   3.627   6.405
 2198SOL     OW 7492   6.405   6.913   0.944
 2198SOL    HW1 7493   6.432   6.851   1.017
 2198SOL    HW2 7494   6.440   6.880   0.856
 2199SOL     OW 7495   5.372   0.403   4.704
 2199SOL    HW1 7496   5.319   0.476   4.746
 2199SOL    HW2 7497   5.311   0.332   4.671
 2200SOL     OW 7498   2.377   1.493   4.007
 2200SOL    HW1 7499   2.442   1.440   4.060
 2200SOL    HW2 7500   2.424   1.539   3.932
 2201SOL     OW 7501   6.020   2.974   3.169
 2201SOL    HW1 7502   6.061   2.956   3.079
 2201SOL    HW2 7503   5.957   2.901   3.192
 2202SOL     OW 7504   3.366   5.646   2.371
 2202SOL    HW1 7505   3.324   5.567   2.326
 2202SOL    HW2 7506   3.415   5.701   2.303
 2203SOL     OW 7507   2.839   3.404   1.561
 2203SOL    HW1 7508   2.777   3.362   1.495
 2203SOL    HW2 7509   2.787   3.433   1.641
 2204SOL     OW 7510   4.336   2.747   0.587
 2204SOL    HW1 7511   4.413   2.780   0.642
 2204SOL    HW2 7512   4.260   2.724   0.648
 2205SOL     OW 7513   1.333   6.902   0.227
 2205SOL    HW1 7514   1.396   6.871   0.298
 2205SOL    HW2 7515   1.342   6.844   0.147
 2206SOL     OW 7516   2.471   4.535   6.276
 2206SOL    HW1 7517   2.467   4.632   6.251
 2206SOL    HW2 7518   2.559   4.497   6.247
 2207SOL     OW 7519   3.258   4.712   0.104
 2207SOL    HW1 7520   3.306   4.648   0.164
 2207SOL    HW2 7521   3.265   4.804   0.140
 2208SOL     OW 7522   0.619   5.261   2.880
 2208SOL    HW1 7523   0.534   5.267   2.828
 2208SOL    HW2 7524   0.667   5.349   2.876
 2209SOL     OW 7525   2.709   6.129   4.712
 2209SOL    HW1 7526   2.626   6.179   4.685
 2209SOL    HW2 7527   2.689   6.031   4.713
 2210SOL     OW 7528   6.758   5.521   3.110
 2210SOL    HW1 7529   6.743   5.549   3.205
 2210SOL    HW2 7530   6.704   5.579   3.049
 2211SOL     OW 7531   6.506   0.445   0.399
 2211SOL    HW1 7532   6.602   0.474   0.407
 2211SOL    HW2 7533   6.446   0.521   0.420
 2212SOL     OW 7534   1.472   5.430   0.059
 2212SOL    HW1 7535   1.520   5.446   0.146
 2212SOL    HW2 7536   1.512   5.489   7.010
 2213SOL     OW 7537   4.353   2.661   5.793
 2213SOL    HW1 7538   4.303   2.585   5.751
 2213SOL    HW2 7539   4.291   2.738   5.808
 2214SOL     OW 7540   3.140   3.374   4.911
 2214SOL    HW1 7541   3.071   3.304   4.897
 2214SOL    HW2 7542   3.182   3.362   5.001
 2215SOL     OW 7543   6.095   1.355   6.331
 2215SOL    HW1 7544   6.084   1.256   6.321
 2215SOL    HW2 7545   6.112   1.396   6.241
 2216SOL     OW 7546   6.947   0.781   5.646
 2216SOL    HW1 7547   6.907   0.696   5.681
 2216SOL    HW2 7548   0.018   0.763   5.614
 2217SOL     OW 7549   4.610   7.010   2.776
 2217SOL    HW1 7550   4.577   0.081   2.756
 2217SOL    HW2 7551   4.555   6.971   2.850
 2218SOL     OW 7552   0.049   4.973   6.748
 2218SOL    HW1 7553   7.013   4.939   6.822
 2218SOL    HW2 7554   0.037   4.916   6.667
 2219SOL     OW 7555   6.495   2.116   1.257
 2219SOL    HW1 7556   6.419   2.117   1.191
 2219SOL    HW2 7557   6.463   2.077   1.343
 2220SOL     OW 7558   1.478   5.700   5.297
 2220SOL    HW1 7559   1.466   5.798   5.286
 2220SOL    HW2 7560   1.571   5.681   5.328
 2221SOL     OW 7561   6.656   1.614   5.361
 2221SOL    HW1 7562   6.679   1.711   5.368
 2221SOL    HW2 7563   6.578   1.593   5.421
 2222SOL     OW 7564   6.214   0.255   0.776
 2222SOL    HW1 7565   6.217   0.269   0.875
 2222SOL    HW2 7566   6.307   0.258   0.739
 2223SOL     OW 7567   6.154   1.430   6.571
 2223SOL    HW1 7568   6.100   1.508   6.601
 2223SOL    HW2 7569   6.135   1.411   6.475
 2224SOL     OW 7570   6.057   3.401   1.590
 2224SOL    HW1 7571   6.118   3.465   1.636
 2224SOL    HW2 7572   5.962   3.423   1.614
 2225SOL     OW 7573   6.760   6.858   3.584
 2225SOL    HW1 7574   6.743   6.777   3.527
 2225SOL    HW2 7575   6.840   6.907   3.548
 2226SOL     OW 7576   3.478   5.453   0.786
 2226SOL    HW1 7577   3.455   5.548   0.804
 2226SOL    HW2 7578   3.577   5.444   0.775
 2227SOL     OW 7579   4.842   2.558   1.531
 2227SOL    HW1 7580   4.843   2.634   1.596
 2227SOL    HW2 7581   4.921   2.565   1.471
 2228SOL     OW 7582   3.859   5.103   0.355
 2228SOL    HW1 7583   3.865   5.049   0.438
 2228SOL    HW2 7584   3.949   5.143   0.334
 2229SOL     OW 7585   4.070   3.429   5.019
 2229SOL    HW1 7586   3.985   3.473   5.051
 2229SOL    HW2 7587   4.060   3.404   4.923
 2230SOL     OW 7588   5.515   6.493   0.948
 2230SOL    HW1 7589   5.454   6.420   0.978
 2230SOL    HW2 7590   5.607   6.475   0.984
 2231SOL     OW 7591   0.203   0.466   0.260
 2231SOL    HW1 7592   0.196   0.562   0.284
 2231SOL    HW2 7593   0.267   0.455   0.184
 2232SOL     OW 7594   1.274   1.438   4.990
 2232SOL    HW1 7595   1.336   1.378   5.040
 2232SOL    HW2 7596   1.277   1.415   4.893
 2233SOL     OW 7597   2.498   3.134   0.585
 2233SOL    HW1 7598   2.510   3.035   0.576
 2233SOL    HW2 7599   2.473   3.156   0.680
 2234SOL     OW 7600   3.529   1.328   0.616
 2234SOL    HW1 7601   3.557   1.318   0.711
 2234SOL    HW2 7602   3.453   1.266   0.597
 2235SOL     OW 7603   2.676   0.081   1.783
 2235SOL    HW1 7604   2.608   0.066   1.712
 2235SOL    HW2 7605   2.674   0.176   1.813
 2236SOL     OW 7606   1.926   3.389   6.321
 2236SOL    HW1 7607   2.020   3.424   6.327
 2236SOL    HW2 7608   1.896   3.358   6.411
 2237SOL     OW 7609   5.983   4.590   4.297
 2237SOL    HW1 7610   6.004   4.555   4.205
 2237SOL    HW2 7611   6.060   4.574   4.358
 2238SOL     OW 7612   4.389   5.228   2.396
 2238SOL    HW1 7613   4.461   5.205   2.461
 2238SOL    HW2 7614   4.383   5.157   2.326
 2239SOL     OW 7615   4.827   6.113   4.080
 2239SOL    HW1 7616   4.762   6.187   4.065
 2239SOL    HW2 7617   4.832   6.093   4.178
 2240SOL     OW 7618   3.588   5.434   2.856
 2240SOL    HW1 7619   3.684   5.433   2.884
 2240SOL    HW2 7620   3.530   5.413   2.934
 2241SOL     OW 7621   6.673   6.452   2.030
 2241SOL    HW1 7622   6.770   6.456   2.054
 2241SOL    HW2 7623   6.632   6.371   2.071
 2242SOL     OW 7624   5.084   3.454   2.601
 2242SOL    HW1 7625   5.027   3.486   2.526
 2242SOL    HW2 7626   5.052   3.364   2.631
 2243SOL     OW 7627   1.974   6.888   6.784
 2243SOL    HW1 7628   2.000   6.972   6.738
 2243SOL    HW2 7629   2.016   6.886   6.875
 2244SOL     OW 7630   3.090   0.007   1.756
 2244SOL    HW1 7631   3.186   0.032   1.767
 2244SOL    HW2 7632   3.065   6.960   1.824
 2245SOL     OW 7633   0.552   1.457   1.301
 2245SOL    HW1 7634   0.470   1.510   1.323
 2245SOL    HW2 7635   0.552   1.372   1.353
 2246SOL     OW 7636   2.350   0.739   4.448
 2246SOL    HW1 7637   2.421   0.781   4.504
 2246SOL    HW2 7638   2.372   0.643   4.432
 2247SOL     OW 7639   2.967   3.271   3.373
 2247SOL    HW1 7640   2.953   3.209   3.295
 2247SOL    HW2 7641   2.984   3.218   3.455
 2248SOL     OW 7642   6.276   4.117   4.660
 2248SOL    HW1 7643   6.336   4.143   4.584
 2248SOL    HW2 7644   6.205   4.056   4.627
 2249SOL     OW 7645   5.232   6.559   3.892
 2249SOL    HW1 7646   5.192   6.567   3.984
 2249SOL    HW2 7647   5.330   6.542   3.900
 2250SOL     OW 7648   3.384   3.896   5.216
 2250SOL    HW1 7649   3.398   3.894   5.315
 2250SOL    HW2 7650   3.472   3.891   5.170
 2251SOL     OW 7651   5.239   0.208   6.323
 2251SOL    HW1 7652   5.258   0.112   6.343
 2251SOL    HW2 7653   5.253   0.262   6.406
 2252SOL     OW 7654   4.770   1.463   3.127
 2252SOL    HW1 7655   4.778   1.546   3.072
 2252SOL    HW2 7656   4.711   1.481   3.206
 2253SOL     OW 7657   6.905   3.239   0.161
 2253SOL    HW1 7658   6.968   3.234   0.083
 2253SOL    HW2 7659   6.839   3.164   0.155
 2254SOL     OW 7660   3.026   3.087   4.242
 2254SOL    HW1 7661   2.985   3.175   4.265
 2254SOL    HW2 7662   2.955   3.024   4.210
 2255SOL     OW 7663   3.615   3.713   5.903
 2255SOL    HW1 7664   3.714   3.704   5.889
 2255SOL    HW2 7665   3.591   3.810   5.904
 2256SOL     OW 7666   5.336   0.043   2.336
 2256SOL    HW1 7667   5.352   6.969   2.359
 2256SOL    HW2 7668   5.399   0.100   2.389
 2257SOL     OW 7669   0.603   1.538   4.304
 2257SOL    HW1 7670   0.526   1.474   4.307
 2257SOL    HW2 7671   0.616   1.579   4.394
 2258SOL     OW 7672   1.343   5.746   4.889
 2258SOL    HW1 7673   1.367   5.720   4.796
 2258SOL    HW2 7674   1.311   5.841   4.891
 2259SOL     OW 7675   5.774   2.860   5.393
 2259SOL    HW1 7676   5.805   2.805   5.471
 2259SOL    HW2 7677   5.737   2.799   5.322
 2260SOL     OW 7678   0.320   3.703   0.885
 2260SOL    HW1 7679   0.273   3.706   0.797
 2260SOL    HW2 7680   0.255   3.723   0.958
 2261SOL     OW 7681   6.656   5.154   0.667
 2261SOL    HW1 7682   6.680   5.076   0.725
 2261SOL    HW2 7683   6.559   5.148   0.642
 2262SOL     OW 7684   6.194   0.184   2.888
 2262SOL    HW1 7685   6.176   0.277   2.855
 2262SOL    HW2 7686   6.287   0.157   2.863
 2263SOL     OW 7687   2.574   6.107   0.264
 2263SOL    HW1 7688   2.556   6.127   0.167
 2263SOL    HW2 7689   2.567   6.009   0.280
 2264SOL     OW 7690   3.376   6.250   6.116
 2264SOL    HW1 7691   3.295   6.198   6.145
 2264SOL    HW2 7692   3.390   6.238   6.017
 2265SOL     OW 7693   1.949   0.948   4.437
 2265SOL    HW1 7694   1.918   0.963   4.344
 2265SOL    HW2 7695   1.955   0.850   4.455
 2266SOL     OW 7696   5.056   1.779   6.396
 2266SOL    HW1 7697   5.030   1.786   6.299
 2266SOL    HW2 7698   5.156   1.784   6.404
 2267SOL     OW 7699   5.023   3.152   5.181
 2267SOL    HW1 7700   5.053   3.172   5.274
 2267SOL    HW2 7701   4.936   3.103   5.184
 2268SOL     OW 7702   5.891   4.480   6.250
 2268SOL    HW1 7703   5.834   4.401   6.274
 2268SOL    HW2 7704   5.846   4.564   6.281
 2269SOL     OW 7705   0.818   3.840   5.216
 2269SOL    HW1 7706   0.759   3.883   5.147
 2269SOL    HW2 7707   0.894   3.901   5.236
 2270SOL     OW 7708   4.076   2.736   6.028
 2270SOL    HW1 7709   4.058   2.645   5.992
 2270SOL    HW2 7710   4.135   2.786   5.964
 2271SOL     OW 7711   5.656   4.716   6.820
 2271SOL    HW1 7712   5.725   4.689   6.887
 2271SOL    HW2 7713   5.565   4.705   6.859
 2272SOL     OW 7714   5.648   1.225   6.844
 2272SOL    HW1 7715   5.594   1.309   6.856
 2272SOL    HW2 7716   5.733   1.232   6.896
 2273SOL     OW 7717   1.637   1.612   2.172
 2273SOL    HW1 7718   1.556   1.666   2.196
 2273SOL    HW2 7719   1.712   1.637   2.233
 2274SOL     OW 7720   0.538   1.515   6.465
 2274SOL    HW1 7721   0.475   1.592   6.478
 2274SOL    HW2 7722   0.581   1.491   6.552
 2275SOL     OW 7723   6.419   0.049   3.272
 2275SOL    HW1 7724   6.411   6.994   3.208
 2275SOL    HW2 7725   6.427   0.014   3.365
 2276SOL     OW 7726   2.435   5.536   1.749
 2276SOL    HW1 7727   2.453   5.573   1.658
 2276SOL    HW2 7728   2.518   5.492   1.784
 2277SOL     OW 7729   3.450   4.165   4.249
 2277SOL    HW1 7730   3.436   4.128   4.157
 2277SOL    HW2 7731   3.547   4.159   4.273
 2278SOL     OW 7732   5.845   3.246   4.065
 2278SOL    HW1 7733   5.762   3.222   4.115
 2278SOL    HW2 7734   5.869   3.173   4.002
 2279SOL     OW 7735   5.944   0.112   4.993
 2279SOL    HW1 7736   5.908   0.039   5.051
 2279SOL    HW2 7737   6.035   0.138   5.025
 2280SOL     OW 7738   6.632   7.007   4.473
 2280SOL    HW1 7739   6.653   0.049   4.547
 2280SOL    HW2 7740   6.559   6.945   4.502
 2281SOL     OW 7741   3.577   0.634   1.760
 2281SOL    HW1 7742   3.587   0.541   1.724
 2281SOL    HW2 7743   3.486   0.668   1.737
 2282SOL     OW 7744   5.349   6.697   5.438
 2282SOL    HW1 7745   5.280   6.732   5.375
 2282SOL    HW2 7746   5.312   6.619   5.489
 2283SOL     OW 7747   1.828   0.002   1.878
 2283SOL    HW1 7748   1.906   0.058   1.906
 2283SOL    HW2 7749   1.774   6.998   1.958
 2284SOL     OW 7750   1.136   3.179   6.367
 2284SOL    HW1 7751   1.197   3.101   6.375
 2284SOL    HW2 7752   1.189   3.262   6.348
 2285SOL     OW 7753   1.033   2.920   0.468
 2285SOL    HW1 7754   1.108   2.977   0.499
 2285SOL    HW2 7755   0.947   2.954   0.505
 2286SOL     OW 7756   5.673   0.305   3.256
 2286SOL    HW1 7757   5.683   0.291   3.157
 2286SOL    HW2 7758   5.588   0.262   3.287
 2287SOL     OW 7759   2.210   0.247   3.856
 2287SOL    HW1 7760   2.161   0.287   3.934
 2287SOL    HW2 7761   2.253   0.321   3.803
 2288SOL     OW 7762   6.194   5.106   3.881
 2288SOL    HW1 7763   6.160   5.188   3.835
 2288SOL    HW2 7764   6.118   5.045   3.902
 2289SOL     OW 7765   6.907   5.164   0.903
 2289SOL    HW1 7766   6.862   5.093   0.957
 2289SOL    HW2 7767   6.961   5.122   0.831
 2290SOL     OW 7768   0.764   3.857   1.075
 2290SOL    HW1 7769   0.716   3.880   0.991
 2290SOL    HW2 7770   0.852   3.815   1.054
 2291SOL     OW 7771   2.246   2.374   5.794
 2291SOL    HW1 7772   2.177   2.344   5.860
 2291SOL    HW2 7773   2.316   2.427   5.841
 2292SOL     OW 7774   1.056   2.121   4.224
 2292SOL    HW1 7775   1.109   2.144   4.305
 2292SOL    HW2 7776   0.971   2.076   4.251
 2293SOL     OW 7777   5.084   6.797   1.249
 2293SOL    HW1 7778   5.051   6.703   1.261
 2293SOL    HW2 7779   5.109   6.834   1.338
 2294SOL     OW 7780   3.168   0.568   0.451
 2294SOL    HW1 7781   3.208   0.508   0.382
 2294SOL    HW2 7782   3.164   0.661   0.416
 2295SOL     OW 7783   0.463   2.041   2.784
 2295SOL    HW1 7784   0.424   1.953   2.756
 2295SOL    HW2 7785   0.398   2.089   2.843
 2296SOL     OW 7786   3.678   5.723   0.468
 2296SOL    HW1 7787   3.680   5.808   0.415
 2296SOL    HW2 7788   3.669   5.645   0.406
 2297SOL     OW 7789   3.651   4.116   4.996
 2297SOL    HW1 7790   3.568   4.141   5.046
 2297SOL    HW2 7791   3.726   4.176   5.022
 2298SOL     OW 7792   4.187   2.930   1.762
 2298SOL    HW1 7793   4.116   2.978   1.813
 2298SOL    HW2 7794   4.270   2.985   1.760
 2299SOL     OW 7795   5.130   6.778   6.551
 2299SOL    HW1 7796   5.136   6.748   6.646
 2299SOL    HW2 7797   5.170   6.709   6.491
 2300SOL     OW 7798   2.651   4.596   1.735
 2300SOL    HW1 7799   2.730   4.599   1.796
 2300SOL    HW2 7800   2.675   4.635   1.646
 2301SOL     OW 7801   3.076   3.065   3.599
 2301SOL    HW1 7802   3.159   3.010   3.597
 2301SOL    HW2 7803   3.044   3.074   3.694
 2302SOL     OW 7804   3.582   6.681   1.877
 2302SOL    HW1 7805   3.603   6.673   1.975
 2302SOL    HW2 7806   3.485   6.703   1.866
 2303SOL     OW 7807   1.950   3.327   6.581
 2303SOL    HW1 7808   1.970   3.421   6.608
 2303SOL    HW2 7809   1.932   3.273   6.663
 2304SOL     OW 7810   3.063   0.060   3.273
 2304SOL    HW1 7811   2.992   0.039   3.207
 2304SOL    HW2 7812   3.114   0.140   3.243
 2305SOL     OW 7813   2.991   6.435   2.832
 2305SOL    HW1 7814   2.920   6.450   2.763
 2305SOL    HW2 7815   2.990   6.340   2.862
 2306SOL     OW 7816   2.372   5.243   1.822
 2306SOL    HW1 7817   2.390   5.338   1.847
 2306SOL    HW2 7818   2.279   5.235   1.787
 2307SOL     OW 7819   1.726   3.576   2.353
 2307SOL    HW1 7820   1.679   3.659   2.383
 2307SOL    HW2 7821   1.825   3.590   2.359
 2308SOL     OW 7822   1.677   6.624   0.041
 2308SOL    HW1 7823   1.680   6.527   0.067
 2308SOL    HW2 7824   1.760   6.669   0.074
 2309SOL     OW 7825   3.448   6.535   6.794
 2309SOL    HW1 7826   3.521   6.565   6.732
 2309SOL    HW2 7827   3.362   6.528   6.743
 2310SOL     OW 7828   5.741   6.496   1.878
 2310SOL    HW1 7829   5.678   6.528   1.807
 2310SOL    HW2 7830   5.834   6.498   1.843
 2311SOL     OW 7831   2.518   6.194   2.675
 2311SOL    HW1 7832   2.611   6.226   2.654
 2311SOL    HW2 7833   2.503   6.106   2.632
 2312SOL     OW 7834   3.671   6.208   4.323
 2312SOL    HW1 7835   3.642   6.304   4.331
 2312SOL    HW2 7836   3.696   6.189   4.228
 2313SOL     OW 7837   5.229   5.322   2.144
 2313SOL    HW1 7838   5.166   5.391   2.108
 2313SOL    HW2 7839   5.261   5.264   2.068
 2314SOL     OW 7840   5.594   0.986   4.501
 2314SOL    HW1 7841   5.562   0.902   4.545
 2314SOL    HW2 7842   5.675   0.966   4.445
 2315SOL     OW 7843   5.057   3.662   5.168
 2315SOL    HW1 7844   4.973   3.678   5.115
 2315SOL    HW2 7845   5.045   3.578   5.222
 2316SOL     OW 7846   3.283   0.429   4.693
 2316SOL    HW1 7847   3.341   0.492   4.745
 2316SOL    HW2 7848   3.205   0.401   4.750
 2317SOL     OW 7849   6.515   6.147   3.153
 2317SOL    HW1 7850   6.426   6.162   3.111
 2317SOL    HW2 7851   6.545   6.231   3.199
 2318SOL     OW 7852   2.139   3.365   4.158
 2318SOL    HW1 7853   2.182   3.294   4.102
 2318SOL    HW2 7854   2.134   3.450   4.106
 2319SOL     OW 7855   3.009   5.479   4.843
 2319SOL    HW1 7856   2.924   5.433   4.865
 2319SOL    HW2 7857   3.079   5.452   4.910
 2320SOL     OW 7858   1.454   2.431   5.325
 2320SOL    HW1 7859   1.404   2.450   5.241
 2320SOL    HW2 7860   1.390   2.424   5.402
 2321SOL     OW 7861   1.427   5.212   0.470
 2321SOL    HW1 7862   1.417   5.286   0.536
 2321SOL    HW2 7863   1.399   5.126   0.513
 2322SOL     OW 7864   1.716   4.513   2.794
 2322SOL    HW1 7865   1.638   4.450   2.795
 2322SOL    HW2 7866   1.801   4.461   2.804
 2323SOL     OW 7867   3.280   4.825   1.865
 2323SOL    HW1 7868   3.366   4.776   1.873
 2323SOL    HW2 7869   3.220   4.777   1.800
 2324SOL     OW 7870   6.423   5.785   0.507
 2324SOL    HW1 7871   6.409   5.813   0.602
 2324SOL    HW2 7872   6.356   5.715   0.482
 2325SOL     OW 7873   0.529   4.379   1.569
 2325SOL    HW1 7874   0.579   4.457   1.607
 2325SOL    HW2 7875   0.593   4.304   1.553
 2326SOL     OW 7876   1.972   6.476   6.986
 2326SOL    HW1 7877   1.891   6.420   7.006
 2326SOL    HW2 7878   1.997   6.528   0.045
 2327SOL     OW 7879   6.947   1.763   3.834
 2327SOL    HW1 7880   6.873   1.701   3.859
 2327SOL    HW2 7881   6.912   1.856   3.827
 2328SOL     OW 7882   1.769   1.314   2.948
 2328SOL    HW1 7883   1.792   1.238   3.009
 2328SOL    HW2 7884   1.838   1.386   2.957
 2329SOL     OW 7885   1.459   3.965   4.740
 2329SOL    HW1 7886   1.464   4.024   4.821
 2329SOL    HW2 7887   1.513   4.005   4.666
 2330SOL     OW 7888   0.493   2.979   1.396
 2330SOL    HW1 7889   0.550   2.951   1.473
 2330SOL    HW2 7890   0.427   3.048   1.427
 2331SOL     OW 7891   4.072   5.603   6.978
 2331SOL    HW1 7892   4.029   5.516   6.954
 2331SOL    HW2 7893   4.045   5.629   0.050
 2332SOL     OW 7894   6.540   0.553   5.220
 2332SOL    HW1 7895   6.610   0.489   5.252
 2332SOL    HW2 7896   6.543   0.636   5.276
 2333SOL     OW 7897   0.158   3.982   3.168
 2333SOL    HW1 7898   0.258   3.975   3.157
 2333SOL    HW2 7899   0.115   3.897   3.140
 2334SOL     OW 7900   1.851   0.655   6.637
 2334SOL    HW1 7901   1.760   0.693   6.648
 2334SOL    HW2 7902   1.889   0.632   6.727
 2335SOL     OW 7903   6.436   0.951   4.348
 2335SOL    HW1 7904   6.413   0.856   4.329
 2335SOL    HW2 7905   6.373   1.011   4.299
 2336SOL     OW 7906   3.805   1.362   4.382
 2336SOL    HW1 7907   3.763   1.449   4.408
 2336SOL    HW2 7908   3.847   1.371   4.292
 2337SOL     OW 7909   4.205   0.055   1.545
 2337SOL    HW1 7910   4.176   0.137   1.496
 2337SOL    HW2 7911   4.245   7.011   1.481
 2338SOL     OW 7912   0.674   2.752   5.163
 2338SOL    HW1 7913   0.675   2.695   5.081
 2338SOL    HW2 7914   0.740   2.717   5.229
 2339SOL     OW 7915   2.946   3.820   3.501
 2339SOL    HW1 7916   2.857   3.858   3.475
 2339SOL    HW2 7917   2.934   3.724   3.528
 2340SOL     OW 7918   6.609   4.263   6.236
 2340SOL    HW1 7919   6.634   4.189   6.299
 2340SOL    HW2 7920   6.583   4.344   6.289
 2341SOL     OW 7921   3.018   4.833   2.045
 2341SOL    HW1 7922   3.100   4.801   1.998
 2341SOL    HW2 7923   2.953   4.757   2.055
 2342SOL     OW 7924   0.775   6.676   5.704
 2342SOL    HW1 7925   0.802   6.744   5.771
 2342SOL    HW2 7926   0.813   6.699   5.615
 2343SOL     OW 7927   1.635   5.311   2.979
 2343SOL    HW1 7928   1.597   5.250   2.909
 2343SOL    HW2 7929   1.724   5.345   2.948
 2344SOL     OW 7930   1.062   5.912   6.884
 2344SOL    HW1 7931   1.106   5.884   6.799
 2344SOL    HW2 7932   1.112   5.873   6.961
 2345SOL     OW 7933   3.193   5.622   5.216
 2345SOL    HW1 7934   3.102   5.614   5.176
 2345SOL    HW2 7935   3.219   5.719   5.220
 2346SOL     OW 7936   3.903   3.866   5.278
 2346SOL    HW1 7937   3.855   3.949   5.251
 2346SOL    HW2 7938   3.865   3.788   5.229
 2347SOL     OW 7939   3.578   2.122   1.483
 2347SOL    HW1 7940   3.660   2.094   1.533
 2347SOL    HW2 7941   3.535   2.200   1.528
 2348SOL     OW 7942   2.489   6.840   4.273
 2348SOL    HW1 7943   2.550   6.852   4.194
 2348SOL    HW2 7944   2.501   6.749   4.311
 2349SOL     OW 7945   0.758   4.811   5.793
 2349SOL    HW1 7946   0.775   4.893   5.738
 2349SOL    HW2 7947   0.696   4.833   5.867
 2350SOL     OW 7948   6.185   6.900   6.374
 2350SOL    HW1 7949   6.195   6.980   6.433
 2350SOL    HW2 7950   6.088   6.887   6.353
 2351SOL     OW 7951   2.639   5.292   4.324
 2351SOL    HW1 7952   2.556   5.271   4.376
 2351SOL    HW2 7953   2.710   5.226   4.347
 2352SOL     OW 7954   0.584   4.502   2.515
 2352SOL    HW1 7955   0.556   4.480   2.422
 2352SOL    HW2 7956   0.656   4.437   2.544
 2353SOL     OW 7957   3.258   5.127   5.561
 2353SOL    HW1 7958   3.315   5.206   5.583
 2353SOL    HW2 7959   3.316   5.051   5.531
 2354SOL     OW 7960   2.797   1.574   5.549
 2354SOL    HW1 7961   2.726   1.644   5.542
 2354SOL    HW2 7962   2.863   1.586   5.475
 2355SOL     OW 7963   2.286   6.178   0.275
 2355SOL    HW1 7964   2.245   6.248   0.216
 2355SOL    HW2 7965   2.386   6.184   0.270
 2356SOL     OW 7966   0.914   3.535   6.496
 2356SOL    HW1 7967   0.851   3.578   6.561
 2356SOL    HW2 7968   0.937   3.443   6.529
 2357SOL     OW 7969   4.838   6.941   2.661
 2357SOL    HW1 7970   4.895   6.997   2.600
 2357SOL    HW2 7971   4.753   6.990   2.681
 2358SOL     OW 7972   3.685   4.954   4.946
 2358SOL    HW1 7973   3.694   5.053   4.945
 2358SOL    HW2 7974   3.770   4.912   4.916
 2359SOL     OW 7975   6.295   0.592   5.132
 2359SOL    HW1 7976   6.381   0.550   5.160
 2359SOL    HW2 7977   6.273   0.565   5.038
 2360SOL     OW 7978   5.264   3.900   0.209
 2360SOL    HW1 7979   5.318   3.824   0.245
 2360SOL    HW2 7980   5.174   3.901   0.254
 2361SOL     OW 7981   2.696   0.978   5.185
 2361SOL    HW1 7982   2.598   0.996   5.180
 2361SOL    HW2 7983   2.746   1.055   5.145
 2362SOL     OW 7984   2.572   6.328   3.994
 2362SOL    HW1 7985   2.486   6.279   3.982
 2362SOL    HW2 7986   2.635   6.273   4.049
 2363SOL     OW 7987   4.576   2.254   4.994
 2363SOL    HW1 7988   4.536   2.301   4.916
 2363SOL    HW2 7989   4.612   2.321   5.059
 2364SOL     OW 7990   0.993   2.087   2.726
 2364SOL    HW1 7991   0.913   2.085   2.786
 2364SOL    HW2 7992   0.975   2.147   2.649
 2365SOL     OW 7993   6.180   2.516   6.515
 2365SOL    HW1 7994   6.189   2.614   6.531
 2365SOL    HW2 7995   6.138   2.473   6.595
 2366SOL     OW 7996   2.169   4.952   6.574
 2366SOL    HW1 7997   2.233   4.876   6.591
 2366SOL    HW2 7998   2.183   4.986   6.481
 2367SOL     OW 7999   2.387   3.876   0.791
 2367SOL    HW1 8000   2.401   3.856   0.694
 2367SOL    HW2 8001   2.390   3.975   0.805
 2368SOL     OW 8002   4.237   0.542   4.144
 2368SOL    HW1 8003   4.172   0.602   4.097
 2368SOL    HW2 8004   4.259   0.581   4.234
 2369SOL     OW 8005   1.378   1.292   5.706
 2369SOL    HW1 8006   1.395   1.193   5.716
 2369SOL    HW2 8007   1.451   1.333   5.651
 2370SOL     OW 8008   4.816   3.217   0.050
 2370SOL    HW1 8009   4.853   3.309   0.044
 2370SOL    HW2 8010   4.805   3.179   6.979
 2371SOL     OW 8011   0.052   6.983   2.028
 2371SOL    HW1 8012   0.015   6.890   2.028
 2371SOL    HW2 8013   0.041   0.002   2.118
 2372SOL     OW 8014   0.143   2.857   2.880
 2372SOL    HW1 8015   0.150   2.769   2.926
 2372SOL    HW2 8016   0.047   2.886   2.877
 2373SOL     OW 8017   0.182   1.986   6.445
 2373SOL    HW1 8018   0.098   1.937   6.471
 2373SOL    HW2 8019   0.192   1.984   6.346
 2374SOL     OW 8020   5.779   1.285   3.286
 2374SOL    HW1 8021   5.752   1.213   3.350
 2374SOL    HW2 8022   5.842   1.347   3.331
 2375SOL     OW 8023   3.071   6.675   4.871
 2375SOL    HW1 8024   3.162   6.648   4.839
 2375SOL    HW2 8025   3.006   6.601   4.852
 2376SOL     OW 8026   6.977   2.435   4.903
 2376SOL    HW1 8027   0.004   2.370   4.844
 2376SOL    HW2 8028   6.928   2.501   4.845
 2377SOL     OW 8029   3.552   4.133   3.129
 2377SOL    HW1 8030   3.615   4.149   3.205
 2377SOL    HW2 8031   3.458   4.130   3.164
 2378SOL     OW 8032   5.250   1.347   0.358
 2378SOL    HW1 8033   5.188   1.298   0.419
 2378SOL    HW2 8034   5.330   1.379   0.410
 2379SOL     OW 8035   5.640   1.959   6.952
 2379SOL    HW1 8036   5.674   1.888   6.890
 2379SOL    HW2 8037   5.554   1.928   6.993
 2380SOL     OW 8038   1.154   1.057   0.022
 2380SOL    HW1 8039   1.074   1.105   7.009
 2380SOL    HW2 8040   1.188   1.104   0.104
 2381SOL     OW 8041   1.998   4.256   4.617
 2381SOL    HW1 8042   2.005   4.248   4.717
 2381SOL    HW2 8043   2.052   4.183   4.575
 2382SOL     OW 8044   2.238   4.252   3.993
 2382SOL    HW1 8045   2.310   4.290   3.936
 2382SOL    HW2 8046   2.216   4.317   4.066
 2383SOL     OW 8047   5.244   6.526   1.459
 2383SOL    HW1 8048   5.295   6.611   1.449
 2383SOL    HW2 8049   5.160   6.544   1.511
 2384SOL     OW 8050   5.461   0.992   2.876
 2384SOL    HW1 8051   5.386   0.991   2.810
 2384SOL    HW2 8052   5.425   0.968   2.967
 2385SOL     OW 8053   1.225   0.034   0.611
 2385SOL    HW1 8054   1.170   0.104   0.655
 2385SOL    HW2 8055   1.296   0.002   0.675
 2386SOL     OW 8056   6.176   5.846   4.411
 2386SOL    HW1 8057   6.154   5.773   4.346
 2386SOL    HW2 8058   6.250   5.903   4.374
 2387SOL     OW 8059   1.715   2.352   3.569
 2387SOL    HW1 8060   1.708   2.403   3.484
 2387SOL    HW2 8061   1.648   2.277   3.569
 2388SOL     OW 8062   0.622   2.540   4.720
 2388SOL    HW1 8063   0.674   2.460   4.691
 2388SOL    HW2 8064   0.595   2.593   4.639
 2389SOL     OW 8065   4.894   3.799   2.973
 2389SOL    HW1 8066   4.831   3.814   3.049
 2389SOL    HW2 8067   4.986   3.784   3.009
 2390SOL     OW 8068   3.859   2.956   2.970
 2390SOL    HW1 8069   3.865   2.979   3.067
 2390SOL    HW2 8070   3.917   3.018   2.917
 2391SOL     OW 8071   5.101   4.079   6.074
 2391SOL    HW1 8072   5.043   4.006   6.110
 2391SOL    HW2 8073   5.153   4.120   6.149
 2392SOL     OW 8074   4.651   6.398   5.205
 2392SOL    HW1 8075   4.611   6.383   5.114
 2392SOL    HW2 8076   4.718   6.326   5.224
 2393SOL     OW 8077   5.570   3.697   6.142
 2393SOL    HW1 8078   5.586   3.714   6.239
 2393SOL    HW2 8079   5.490   3.639   6.131
 2394SOL     OW 8080   1.086   2.915   4.466
 2394SOL    HW1 8081   1.139   2.858   4.529
 2394SOL    HW2 8082   1.149   2.965   4.407
 2395SOL     OW 8083   5.426   2.546   6.331
 2395SOL    HW1 8084   5.394   2.547   6.426
 2395SOL    HW2 8085   5.352   2.515   6.271
 2396SOL     OW 8086   3.521   4.897   1.251
 2396SOL    HW1 8087   3.448   4.836   1.280
 2396SOL    HW2 8088   3.602   4.882   1.308
 2397SOL     OW 8089   6.972   4.246   5.967
 2397SOL    HW1 8090   7.005   4.242   5.873
 2397SOL    HW2 8091   7.017   4.321   6.015
 2398SOL     OW 8092   2.634   3.309   0.024
 2398SOL    HW1 8093   2.686   3.249   0.085
 2398SOL    HW2 8094   2.584   3.377   0.078
 2399SOL     OW 8095   4.701   1.719   1.810
 2399SOL    HW1 8096   4.631   1.688   1.746
 2399SOL    HW2 8097   4.695   1.666   1.895
 2400SOL     OW 8098   3.137   3.887   0.647
 2400SOL    HW1 8099   3.221   3.941   0.659
 2400SOL    HW2 8100   3.062   3.948   0.620
 2401SOL     OW 8101   4.461   6.328   6.140
 2401SOL    HW1 8102   4.492   6.401   6.200
 2401SOL    HW2 8103   4.540   6.284   6.097
 2402SOL     OW 8104   6.731   0.859   3.850
 2402SOL    HW1 8105   6.666   0.840   3.776
 2402SOL    HW2 8106   6.814   0.898   3.811
 2403SOL     OW 8107   1.867   2.759   0.118
 2403SOL    HW1 8108   1.822   2.841   0.080
 2403SOL    HW2 8109   1.807   2.680   0.104
 2404SOL     OW 8110   3.707   0.977   0.869
 2404SOL    HW1 8111   3.760   0.988   0.785
 2404SOL    HW2 8112   3.661   0.889   0.869
 2405SOL     OW 8113   3.745   3.215   2.695
 2405SOL    HW1 8114   3.675   3.157   2.654
 2405SOL    HW2 8115   3.704   3.272   2.766
 2406SOL     OW 8116   2.737   6.610   2.694
 2406SOL    HW1 8117   2.719   6.569   2.605
 2406SOL    HW2 8118   2.793   6.693   2.682
 2407SOL     OW 8119   5.496   1.561   2.295
 2407SOL    HW1 8120   5.499   1.469   2.257
 2407SOL    HW2 8121   5.490   1.628   2.221
 2408SOL     OW 8122   3.635   4.880   3.192
 2408SOL    HW1 8123   3.631   4.892   3.092
 2408SOL    HW2 8124   3.719   4.834   3.217
 2409SOL     OW 8125   1.696   4.772   1.996
 2409SOL    HW1 8126   1.700   4.727   1.907
 2409SOL    HW2 8127   1.686   4.702   2.067
 2410SOL     OW 8128   3.928   2.957   5.745
 2410SOL    HW1 8129   3.882   2.883   5.695
 2410SOL    HW2 8130   3.958   3.027   5.680
 2411SOL     OW 8131   4.136   5.457   4.609
 2411SOL    HW1 8132   4.071   5.381   4.612
 2411SOL    HW2 8133   4.201   5.443   4.534
 2412SOL     OW 8134   4.990   5.081   1.123
 2412SOL    HW1 8135   4.970   5.033   1.037
 2412SOL    HW2 8136   5.071   5.042   1.165
 2413SOL     OW 8137   6.262   2.121   1.107
 2413SOL    HW1 8138   6.227   2.069   1.029
 2413SOL    HW2 8139   6.287   2.213   1.077
 2414SOL     OW 8140   4.941   4.471   2.693
 2414SOL    HW1 8141   5.021   4.515   2.651
 2414SOL    HW2 8142   4.971   4.403   2.760
 2415SOL     OW 8143   6.791   0.623   2.788
 2415SOL    HW1 8144   6.756   0.531   2.808
 2415SOL    HW2 8145   6.875   0.638   2.840
 2416SOL     OW 8146   4.208   2.151   5.694
 2416SOL    HW1 8147   4.242   2.057   5.700
 2416SOL    HW2 8148   4.111   2.149   5.671
 2417SOL     OW 8149   3.454   3.285   5.635
 2417SOL    HW1 8150   3.541   3.299   5.682
 2417SOL    HW2 8151   3.393   3.231   5.693
 2418SOL     OW 8152   2.898   3.288   4.343
 2418SOL    HW1 8153   2.879   3.374   4.296
 2418SOL    HW2 8154   2.927   3.307   4.437
 2419SOL     OW 8155   0.304   0.269   4.862
 2419SOL    HW1 8156   0.226   0.325   4.833
 2419SOL    HW2 8157   0.328   0.205   4.790
 2420SOL     OW 8158   2.919   0.969   2.605
 2420SOL    HW1 8159   2.978   0.930   2.535
 2420SOL    HW2 8160   2.863   0.896   2.646
 2421SOL     OW 8161   2.445   2.055   4.783
 2421SOL    HW1 8162   2.540   2.035   4.761
 2421SOL    HW2 8163   2.409   1.984   4.844
 2422SOL     OW 8164   5.660   1.475   0.882
 2422SOL    HW1 8165   5.675   1.445   0.788
 2422SOL    HW2 8166   5.739   1.451   0.938
 2423SOL     OW 8167   1.380   5.982   2.718
 2423SOL    HW1 8168   1.280   5.982   2.720
 2423SOL    HW2 8169   1.415   6.019   2.805
 2424SOL     OW 8170   6.098   0.348   6.036
 2424SOL    HW1 8171   6.142   0.409   5.969
 2424SOL    HW2 8172   6.158   0.270   6.053
 2425SOL     OW 8173   5.555   0.855   3.554
 2425SOL    HW1 8174   5.590   0.786   3.491
 2425SOL    HW2 8175   5.460   0.834   3.577
 2426SOL     OW 8176   0.931   6.154   5.158
 2426SOL    HW1 8177   0.866   6.091   5.200
 2426SOL    HW2 8178   1.020   6.109   5.151
 2427SOL     OW 8179   5.601   6.317   5.273
 2427SOL    HW1 8180   5.607   6.321   5.373
 2427SOL    HW2 8181   5.595   6.221   5.244
 2428SOL     OW 8182   6.140   0.464   2.445
 2428SOL    HW1 8183   6.094   0.392   2.394
 2428SOL    HW2 8184   6.194   0.520   2.382
 2429SOL     OW 8185   5.380   5.663   3.547
 2429SOL    HW1 8186   5.314   5.736   3.532
 2429SOL    HW2 8187   5.419   5.635   3.459
 2430SOL     OW 8188   5.689   1.291   1.295
 2430SOL    HW1 8189   5.768   1.232   1.308
 2430SOL    HW2 8190   5.672   1.343   1.379
 2431SOL     OW 8191   4.203   0.673   2.347
 2431SOL    HW1 8192   4.195   0.700   2.252
 2431SOL    HW2 8193   4.197   0.573   2.354
 2432SOL     OW 8194   3.227   6.206   2.664
 2432SOL    HW1 8195   3.277   6.223   2.749
 2432SOL    HW2 8196   3.185   6.292   2.632
 2433SOL     OW 8197   3.620   1.285   0.853
 2433SOL    HW1 8198   3.613   1.261   0.950
 2433SOL    HW2 8199   3.716   1.281   0.825
 2434SOL     OW 8200   3.811   1.181   5.735
 2434SOL    HW1 8201   3.776   1.248   5.801
 2434SOL    HW2 8202   3.735   1.147   5.679
 2435SOL     OW 8203   4.461   4.875   6.005
 2435SOL    HW1 8204   4.398   4.808   5.965
 2435SOL    HW2 8205   4.408   4.952   6.042
 2436SOL     OW 8206   1.186   5.512   0.711
 2436SOL    HW1 8207   1.211   5.423   0.749
 2436SOL    HW2 8208   1.089   5.512   0.688
 2437SOL     OW 8209   5.427   6.351   6.579
 2437SOL    HW1 8210   5.335   6.368   6.614
 2437SOL    HW2 8211   5.422   6.305   6.491
 2438SOL     OW 8212   3.500   0.901   6.837
 2438SOL    HW1 8213   3.451   0.896   6.924
 2438SOL    HW2 8214   3.459   0.837   6.772
 2439SOL     OW 8215   1.411   4.404   6.164
 2439SOL    HW1 8216   1.380   4.326   6.109
 2439SOL    HW2 8217   1.494   4.442   6.125
 2440SOL     OW 8218   4.931   6.236   5.989
 2440SOL    HW1 8219   4.868   6.309   5.963
 2440SOL    HW2 8220   4.966   6.192   5.906
 2441SOL     OW 8221   0.840   1.216   0.568
 2441SOL    HW1 8222   0.785   1.192   0.488
 2441SOL    HW2 8223   0.811   1.304   0.603
 2442SOL     OW 8224   0.795   3.109   5.964
 2442SOL    HW1 8225   0.841   3.173   5.903
 2442SOL    HW2 8226   0.821   3.129   6.059
 2443SOL     OW 8227   3.767   5.332   5.918
 2443SOL    HW1 8228   3.771   5.272   5.998
 2443SOL    HW2 8229   3.719   5.286   5.844
 2444SOL     OW 8230   2.983   4.352   6.501
 2444SOL    HW1 8231   2.906   4.300   6.463
 2444SOL    HW2 8232   3.060   4.350   6.438
 2445SOL     OW 8233   7.012   1.169   1.439
 2445SOL    HW1 8234   0.021   1.082   1.402
 2445SOL    HW2 8235   0.055   1.241   1.415
 2446SOL     OW 8236   6.495   4.417   3.801
 2446SOL    HW1 8237   6.521   4.462   3.886
 2446SOL    HW2 8238   6.563   4.436   3.731
 2447SOL     OW 8239   2.049   2.803   0.599
 2447SOL    HW1 8240   2.125   2.758   0.550
 2447SOL    HW2 8241   2.014   2.878   0.543
 2448SOL     OW 8242   0.250   0.885   4.645
 2448SOL    HW1 8243   0.179   0.906   4.578
 2448SOL    HW2 8244   0.237   0.791   4.678
 2449SOL     OW 8245   6.941   4.850   6.942
 2449SOL    HW1 8246   6.870   4.781   6.958
 2449SOL    HW2 8247   0.006   4.816   6.978
 2450SOL     OW 8248   2.512   4.489   3.142
 2450SOL    HW1 8249   2.586   4.524   3.085
 2450SOL    HW2 8250   2.548   4.462   3.231
 2451SOL     OW 8251   1.745   0.717   3.995
 2451SOL    HW1 8252   1.799   0.752   3.918
 2451SOL    HW2 8253   1.753   0.617   3.998
 2452SOL     OW 8254   1.861   3.521   2.659
 2452SOL    HW1 8255   1.816   3.440   2.622
 2452SOL    HW2 8256   1.954   3.527   2.623
 2453SOL     OW 8257   6.715   5.069   1.424
 2453SOL    HW1 8258   6.765   4.983   1.433
 2453SOL    HW2 8259   6.674   5.075   1.333
 2454SOL     OW 8260   3.474   1.039   1.801
 2454SOL    HW1 8261   3.477   1.137   1.823
 2454SOL    HW2 8262   3.498   1.027   1.705
 2455SOL     OW 8263   5.287   6.313   0.445
 2455SOL    HW1 8264   5.204   6.343   0.398
 2455SOL    HW2 8265   5.363   6.372   0.421
 2456SOL     OW 8266   5.263   6.649   2.078
 2456SOL    HW1 8267   5.359   6.641   2.050
 2456SOL    HW2 8268   5.258   6.692   2.168
 2457SOL     OW 8269   5.311   6.746   0.464
 2457SOL    HW1 8270   5.382   6.811   0.436
 2457SOL    HW2 8271   5.303   6.747   0.564
 2458SOL     OW 8272   2.663   5.917   3.400
 2458SOL    HW1 8273   2.717   5.968   3.467
 2458SOL    HW2 8274   2.635   5.978   3.326
 2459SOL     OW 8275   2.248   6.871   0.855
 2459SOL    HW1 8276   2.285   6.868   0.762
 2459SOL    HW2 8277   2.149   6.887   0.852
 2460SOL     OW 8278   2.212   0.001   1.801
 2460SOL    HW1 8279   2.140   0.058   1.840
 2460SOL    HW2 8280   2.170   6.950   1.746
 2461SOL     OW 8281   5.431   0.856   2.008
 2461SOL    HW1 8282   5.359   0.826   2.071
 2461SOL    HW2 8283   5.405   0.831   1.914
 2462SOL     OW 8284   2.774   5.172   0.497
 2462SOL    HW1 8285   2.767   5.127   0.408
 2462SOL    HW2 8286   2.776   5.272   0.484
 2463SOL     OW 8287   6.717   2.032   4.056
 2463SOL    HW1 8288   6.713   1.932   4.053
 2463SOL    HW2 8289   6.657   2.065   4.129
 2464SOL     OW 8290   0.724   4.602   1.132
 2464SOL    HW1 8291   0.752   4.601   1.228
 2464SOL    HW2 8292   0.749   4.515   1.089
 2465SOL     OW 8293   0.050   5.764   1.980
 2465SOL    HW1 8294   0.106   5.685   2.005
 2465SOL    HW2 8295   0.072   5.792   1.886
 2466SOL     OW 8296   4.655   1.614   2.453
 2466SOL    HW1 8297   4.689   1.641   2.543
 2466SOL    HW2 8298   4.585   1.678   2.422
 2467SOL     OW 8299   6.182   1.629   5.675
 2467SOL    HW1 8300   6.242   1.553   5.701
 2467SOL    HW2 8301   6.137   1.666   5.757
 2468SOL     OW 8302   6.737   6.160   2.028
 2468SOL    HW1 8303   6.753   6.092   2.100
 2468SOL    HW2 8304   6.641   6.155   1.999
 2469SOL     OW 8305   3.265   3.695   5.691
 2469SOL    HW1 8306   3.168   3.675   5.675
 2469SOL    HW2 8307   3.290   3.778   5.642
 2470SOL     OW 8308   3.002   4.003   5.692
 2470SOL    HW1 8309   2.938   4.043   5.758
 2470SOL    HW2 8310   3.092   3.996   5.734
 2471SOL     OW 8311   0.565   6.060   1.476
 2471SOL    HW1 8312   0.644   6.117   1.495
 2471SOL    HW2 8313   0.585   6.000   1.398
 2472SOL     OW 8314   5.610   1.852   4.448
 2472SOL    HW1 8315   5.555   1.770   4.465
 2472SOL    HW2 8316   5.577   1.897   4.365
 2473SOL     OW 8317   1.352   5.061   4.246
 2473SOL    HW1 8318   1.359   5.139   4.184
 2473SOL    HW2 8319   1.441   5.040   4.285
 2474SOL     OW 8320   6.948   5.119   5.475
 2474SOL    HW1 8321   6.870   5.057   5.466
 2474SOL    HW2 8322   6.946   5.186   5.400
 2475SOL     OW 8323   4.261   2.269   0.543
 2475SOL    HW1 8324   4.307   2.228   0.622
 2475SOL    HW2 8325   4.267   2.368   0.548
 2476SOL     OW 8326   0.833   2.052   3.567
 2476SOL    HW1 8327   0.796   1.963   3.539
 2476SOL    HW2 8328   0.770   2.095   3.632
 2477SOL     OW 8329   5.626   6.234   1.267
 2477SOL    HW1 8330   5.635   6.218   1.169
 2477SOL    HW2 8331   5.599   6.149   1.312
 2478SOL     OW 8332   6.281   6.719   2.565
 2478SOL    HW1 8333   6.238   6.679   2.484
 2478SOL    HW2 8334   6.230   6.799   2.594
 2479SOL     OW 8335   0.210   2.448   1.425
 2479SOL    HW1 8336   0.245   2.502   1.501
 2479SOL    HW2 8337   0.238   2.490   1.339
 2480SOL     OW 8338   6.849   3.254   1.108
 2480SOL    HW1 8339   6.809   3.304   1.186
 2480SOL    HW2 8340   6.874   3.162   1.137
 2481SOL     OW 8341   3.976   5.723   1.145
 2481SOL    HW1 8342   3.975   5.679   1.235
 2481SOL    HW2 8343   3.883   5.729   1.109
 2482SOL     OW 8344   4.839   3.355   5.493
 2482SOL    HW1 8345   4.791   3.441   5.512
 2482SOL    HW2 8346   4.936   3.366   5.511
 2483SOL     OW 8347   1.420   1.111   0.992
 2483SOL    HW1 8348   1.369   1.027   1.011
 2483SOL    HW2 8349   1.359   1.190   1.000
 2484SOL     OW 8350   2.370   0.372   0.776
 2484SOL    HW1 8351   2.282   0.398   0.816
 2484SOL    HW2 8352   2.389   0.431   0.697
 2485SOL     OW 8353   6.933   5.174   2.356
 2485SOL    HW1 8354   6.995   5.225   2.416
 2485SOL    HW2 8355   6.841   5.214   2.361
 2486SOL     OW 8356   2.073   5.739   3.989
 2486SOL    HW1 8357   2.095   5.745   3.892
 2486SOL    HW2 8358   2.097   5.648   4.023
 2487SOL     OW 8359   3.916   6.787   0.199
 2487SOL    HW1 8360   3.957   6.863   0.250
 2487SOL    HW2 8361   3.869   6.726   0.263
 2488SOL     OW 8362   2.742   4.274   1.467
 2488SOL    HW1 8363   2.804   4.323   1.528
 2488SOL    HW2 8364   2.779   4.184   1.446
 2489SOL     OW 8365   1.729   5.655   5.393
 2489SOL    HW1 8366   1.723   5.616   5.485
 2489SOL    HW2 8367   1.801   5.609   5.341
 2490SOL     OW 8368   6.816   4.741   0.455
 2490SOL    HW1 8369   6.891   4.676   0.470
 2490SOL    HW2 8370   6.848   4.816   0.398
 2491SOL     OW 8371   3.028   5.614   2.997
 2491SOL    HW1 8372   3.062   5.520   2.993
 2491SOL    HW2 8373   3.102   5.677   2.975
 2492SOL     OW 8374   4.866   3.305   6.053
 2492SOL    HW1 8375   4.768   3.306   6.072
 2492SOL    HW2 8376   4.917   3.301   6.139
 2493SOL     OW 8377   5.664   1.033   2.386
 2493SOL    HW1 8378   5.566   1.012   2.382
 2493SOL    HW2 8379   5.691   1.049   2.481
 2494SOL     OW 8380   4.725   2.802   2.606
 2494SOL    HW1 8381   4.760   2.893   2.584
 2494SOL    HW2 8382   4.711   2.794   2.705
 2495SOL     OW 8383   4.670   1.352   4.953
 2495SOL    HW1 8384   4.579   1.378   4.920
 2495SOL    HW2 8385   4.739   1.401   4.901
 2496SOL     OW 8386   0.634   5.346   0.212
 2496SOL    HW1 8387   0.640   5.441   0.181
 2496SOL    HW2 8388   0.543   5.309   0.190
 2497SOL     OW 8389   6.760   1.348   0.411
 2497SOL    HW1 8390   6.745   1.344   0.510
 2497SOL    HW2 8391   6.797   1.437   0.386
 2498SOL     OW 8392   2.068   2.922   3.525
 2498SOL    HW1 8393   1.990   2.909   3.463
 2498SOL    HW2 8394   2.102   2.833   3.556
 2499SOL     OW 8395   5.247   0.809   4.266
 2499SOL    HW1 8396   5.219   0.727   4.316
 2499SOL    HW2 8397   5.280   0.878   4.331
 2500SOL     OW 8398   5.062   2.952   5.981
 2500SOL    HW1 8399   5.056   2.975   5.883
 2500SOL    HW2 8400   4.979   2.905   6.009
 2501SOL     OW 8401   5.978   4.288   6.986
 2501SOL    HW1 8402   6.020   4.368   0.007
 2501SOL    HW2 8403   5.906   4.252   0.024
 2502SOL     OW 8404   2.300   6.565   3.255
 2502SOL    HW1 8405   2.257   6.655   3.266
 2502SOL    HW2 8406   2.236   6.502   3.210
 2503SOL     OW 8407   4.121   5.221   5.990
 2503SOL    HW1 8408   4.108   5.197   5.894
 2503SOL    HW2 8409   4.090   5.315   6.005
 2504SOL     OW 8410   1.844   4.692   4.967
 2504SOL    HW1 8411   1.889   4.700   4.878
 2504SOL    HW2 8412   1.876   4.765   5.027
 2505SOL     OW 8413   4.098   5.720   4.219
 2505SOL    HW1 8414   4.103   5.819   4.206
 2505SOL    HW2 8415   4.077   5.700   4.314
 2506SOL     OW 8416   6.374   3.258   6.439
 2506SOL    HW1 8417   6.340   3.348   6.468
 2506SOL    HW2 8418   6.297   3.199   6.417
 2507SOL     OW 8419   6.062   5.805   0.817
 2507SOL    HW1 8420   6.104   5.842   0.900
 2507SOL    HW2 8421   6.126   5.742   0.773
 2508SOL     OW 8422   2.640   1.840   2.204
 2508SOL    HW1 8423   2.583   1.922   2.198
 2508SOL    HW2 8424   2.736   1.868   2.212
 2509SOL     OW 8425   5.709   2.572   3.197
 2509SOL    HW1 8426   5.612   2.587   3.181
 2509SOL    HW2 8427   5.736   2.483   3.158
 2510SOL     OW 8428   3.316   5.020   0.136
 2510SOL    HW1 8429   3.280   5.027   0.229
 2510SOL    HW2 8430   3.250   5.058   0.072
 2511SOL     OW 8431   1.333   0.416   4.855
 2511SOL    HW1 8432   1.296   0.330   4.821
 2511SOL    HW2 8433   1.260   0.471   4.896
 2512SOL     OW 8434   4.840   4.063   5.005
 2512SOL    HW1 8435   4.874   4.143   4.955
 2512SOL    HW2 8436   4.839   3.984   4.944
 2513SOL     OW 8437   0.901   2.722   6.918
 2513SOL    HW1 8438   0.815   2.758   6.881
 2513SOL    HW2 8439   0.921   2.634   6.875
 2514SOL     OW 8440   0.840   1.330   4.559
 2514SOL    HW1 8441   0.750   1.302   4.525
 2514SOL    HW2 8442   0.904   1.253   4.551
 2515SOL     OW 8443   1.508   6.101   0.168
 2515SOL    HW1 8444   1.593   6.049   0.168
 2515SOL    HW2 8445   1.484   6.126   0.074
 2516SOL     OW 8446   6.239   6.281   3.476
 2516SOL    HW1 8447   6.207   6.362   3.427
 2516SOL    HW2 8448   6.261   6.305   3.570
 2517SOL     OW 8449   2.558   4.803   0.182
 2517SOL    HW1 8450   2.486   4.751   0.226
 2517SOL    HW2 8451   2.641   4.747   0.176
 2518SOL     OW 8452   2.326   2.819   6.534
 2518SOL    HW1 8453   2.310   2.882   6.458
 2518SOL    HW2 8454   2.389   2.861   6.600
 2519SOL     OW 8455   5.043   4.556   4.838
 2519SOL    HW1 8456   5.026   4.603   4.751
 2519SOL    HW2 8457   5.043   4.623   4.912
 2520SOL     OW 8458   2.593   3.588   1.249
 2520SOL    HW1 8459   2.573   3.520   1.320
 2520SOL    HW2 8460   2.624   3.541   1.166
 2521SOL     OW 8461   6.794   0.551   5.833
 2521SOL    HW1 8462   6.710   0.520   5.789
 2521SOL    HW2 8463   6.800   0.513   5.925
 2522SOL     OW 8464   1.205   3.267   4.401
 2522SOL    HW1 8465   1.266   3.329   4.352
 2522SOL    HW2 8466   1.244   3.175   4.402
 2523SOL     OW 8467   6.882   3.792   0.513
 2523SOL    HW1 8468   6.932   3.860   0.460
 2523SOL    HW2 8469   6.784   3.806   0.501
 2524SOL     OW 8470   1.348   6.553   4.077
 2524SOL    HW1 8471   1.424   6.545   4.012
 2524SOL    HW2 8472   1.368   6.627   4.142
 2525SOL     OW 8473   1.414   4.201   4.369
 2525SOL    HW1 8474   1.430   4.175   4.274
 2525SOL    HW2 8475   1.487   4.163   4.426
 2526SOL     OW 8476   6.938   2.038   4.416
 2526SOL    HW1 8477   6.915   2.122   4.465
 2526SOL    HW2 8478   6.964   2.061   4.322
 2527SOL     OW 8479   5.504   6.749   4.469
 2527SOL    HW1 8480   5.544   6.747   4.377
 2527SOL    HW2 8481   5.553   6.685   4.528
 2528SOL     OW 8482   5.913   5.306   0.464
 2528SOL    HW1 8483   5.837   5.243   0.448
 2528SOL    HW2 8484   5.879   5.390   0.506
 2529SOL     OW 8485   5.083   5.815   4.601
 2529SOL    HW1 8486   5.077   5.764   4.515
 2529SOL    HW2 8487   5.012   5.783   4.664
 2530SOL     OW 8488   1.484   0.038   3.150
 2530SOL    HW1 8489   1.385   0.044   3.163
 2530SOL    HW2 8490   1.524   7.010   3.227
 2531SOL     OW 8491   4.845   0.705   5.760
 2531SOL    HW1 8492   4.848   0.799   5.725
 2531SOL    HW2 8493   4.772   0.697   5.828
 2532SOL     OW 8494   1.202   5.056   6.734
 2532SOL    HW1 8495   1.237   5.100   6.817
 2532SOL    HW2 8496   1.257   5.083   6.656
 2533SOL     OW 8497   5.247   0.057   5.343
 2533SOL    HW1 8498   5.337   0.013   5.343
 2533SOL    HW2 8499   5.245   0.128   5.413
 2534SOL     OW 8500   2.069   0.353   3.567
 2534SOL    HW1 8501   2.121   0.375   3.650
 2534SOL    HW2 8502   2.077   0.256   3.548
 2535SOL     OW 8503   1.410   1.317   3.619
 2535SOL    HW1 8504   1.466   1.324   3.701
 2535SOL    HW2 8505   1.372   1.224   3.612
 2536SOL     OW 8506   5.717   1.528   4.422
 2536SOL    HW1 8507   5.782   1.458   4.450
 2536SOL    HW2 8508   5.753   1.619   4.445
 2537SOL     OW 8509   5.024   5.633   1.062
 2537SOL    HW1 8510   5.086   5.710   1.078
 2537SOL    HW2 8511   4.929   5.663   1.070
 2538SOL     OW 8512   2.175   4.770   4.860
 2538SOL    HW1 8513   2.172   4.677   4.826
 2538SOL    HW2 8514   2.224   4.772   4.947
 2539SOL     OW 8515   4.426   0.172   4.975
 2539SOL    HW1 8516   4.333   0.207   4.974
 2539SOL    HW2 8517   4.490   0.246   4.957
 2540SOL     OW 8518   5.150   1.271   1.796
 2540SOL    HW1 8519   5.195   1.204   1.736
 2540SOL    HW2 8520   5.213   1.346   1.815
 2541SOL     OW 8521   1.382   6.745   5.599
 2541SOL    HW1 8522   1.458   6.739   5.664
 2541SOL    HW2 8523   1.357   6.841   5.587
 2542SOL     OW 8524   3.536   1.694   4.252
 2542SOL    HW1 8525   3.539   1.627   4.177
 2542SOL    HW2 8526   3.450   1.744   4.248
 2543SOL     OW 8527   1.111   1.145   2.816
 2543SOL    HW1 8528   1.063   1.058   2.800
 2543SOL    HW2 8529   1.112   1.165   2.914
 2544SOL     OW 8530   6.793   5.344   1.173
 2544SOL    HW1 8531   6.765   5.407   1.245
 2544SOL    HW2 8532   6.780   5.388   1.084
 2545SOL     OW 8533   1.136   1.552   1.791
 2545SOL    HW1 8534   1.234   1.534   1.803
 2545SOL    HW2 8535   1.118   1.650   1.799
 2546SOL     OW 8536   6.225   3.948   2.000
 2546SOL    HW1 8537   6.287   4.000   1.941
 2546SOL    HW2 8538   6.262   3.857   2.015
 2547SOL     OW 8539   5.560   4.660   0.443
 2547SOL    HW1 8540   5.555   4.660   0.343
 2547SOL    HW2 8541   5.488   4.719   0.480
 2548SOL     OW 8542   0.356   0.093   5.303
 2548SOL    HW1 8543   0.294   0.113   5.378
 2548SOL    HW2 8544   0.305   0.088   5.217
 2549SOL     OW 8545   1.800   1.987   1.786
 2549SOL    HW1 8546   1.768   2.081   1.795
 2549SOL    HW2 8547   1.795   1.941   1.875
 2550SOL     OW 8548   4.628   0.387   6.652
 2550SOL    HW1 8549   4.697   0.378   6.580
 2550SOL    HW2 8550   4.618   0.483   6.677
 2551SOL     OW 8551   3.148   5.770   6.762
 2551SOL    HW1 8552   3.168   5.724   6.675
 2551SOL    HW2 8553   3.056   5.744   6.793
 2552SOL     OW 8554   1.925   5.171   0.282
 2552SOL    HW1 8555   2.016   5.186   0.322
 2552SOL    HW2 8556   1.921   5.215   0.192
 2553SOL     OW 8557   3.674   2.419   6.414
 2553SOL    HW1 8558   3.680   2.417   6.514
 2553SOL    HW2 8559   3.747   2.362   6.375
 2554SOL     OW 8560   1.994   5.913   1.168
 2554SOL    HW1 8561   1.916   5.865   1.206
 2554SOL    HW2 8562   1.989   6.010   1.194
 2555SOL     OW 8563   6.026   6.585   5.698
 2555SOL    HW1 8564   6.057   6.666   5.748
 2555SOL    HW2 8565   6.044   6.503   5.752
 2556SOL     OW 8566   3.321   6.705   1.680
 2556SOL    HW1 8567   3.248   6.766   1.711
 2556SOL    HW2 8568   3.394   6.759   1.638
 2557SOL     OW 8569   3.495   0.594   0.289
 2557SOL    HW1 8570   3.447   0.507   0.297
 2557SOL    HW2 8571   3.446   0.664   0.341
 2558SOL     OW 8572   5.677   4.617   6.560
 2558SOL    HW1 8573   5.736   4.536   6.563
 2558SOL    HW2 8574   5.676   4.662   6.649
 2559SOL     OW 8575   0.686   3.955   3.055
 2559SOL    HW1 8576   0.768   3.947   3.112
 2559SOL    HW2 8577   0.711   3.993   2.966
 2560SOL     OW 8578   4.679   2.762   3.281
 2560SOL    HW1 8579   4.656   2.713   3.197
 2560SOL    HW2 8580   4.760   2.819   3.265
 2561SOL     OW 8581   3.089   0.996   4.103
 2561SOL    HW1 8582   3.069   1.092   4.124
 2561SOL    HW2 8583   3.103   0.986   4.004
 2562SOL     OW 8584   3.542   6.374   3.097
 2562SOL    HW1 8585   3.578   6.346   3.186
 2562SOL    HW2 8586   3.491   6.299   3.056
 2563SOL     OW 8587   2.977   1.235   0.051
 2563SOL    HW1 8588   2.902   1.212   0.114
 2563SOL    HW2 8589   3.008   1.329   0.070
 2564SOL     OW 8590   1.701   0.714   0.755
 2564SOL    HW1 8591   1.771   0.644   0.768
 2564SOL    HW2 8592   1.678   0.720   0.658
 2565SOL     OW 8593   0.904   1.876   6.481
 2565SOL    HW1 8594   0.901   1.839   6.388
 2565SOL    HW2 8595   0.892   1.802   6.547
 2566SOL     OW 8596   3.312   1.099   1.572
 2566SOL    HW1 8597   3.244   1.025   1.566
 2566SOL    HW2 8598   3.288   1.161   1.646
 2567SOL     OW 8599   1.376   0.147   0.276
 2567SOL    HW1 8600   1.463   0.175   0.234
 2567SOL    HW2 8601   1.356   0.052   0.252
 2568SOL     OW 8602   2.723   6.126   1.238
 2568SOL    HW1 8603   2.653   6.064   1.275
 2568SOL    HW2 8604   2.688   6.220   1.239
 2569SOL     OW 8605   1.918   1.394   0.935
 2569SOL    HW1 8606   1.972   1.467   0.894
 2569SOL    HW2 8607   1.937   1.308   0.887
 2570SOL     OW 8608   5.076   6.011   6.808
 2570SOL    HW1 8609   4.994   6.055   6.771
 2570SOL    HW2 8610   5.061   5.987   6.904
 2571SOL     OW 8611   3.697   3.046   3.960
 2571SOL    HW1 8612   3.624   3.114   3.953
 2571SOL    HW2 8613   3.714   3.024   4.056
 2572SOL     OW 8614   2.547   5.037   1.616
 2572SOL    HW1 8615   2.620   5.080   1.669
 2572SOL    HW2 8616   2.586   4.968   1.555
 2573SOL     OW 8617   6.938   2.434   4.124
 2573SOL    HW1 8618   6.921   2.336   4.120
 2573SOL    HW2 8619   6.963   2.460   4.217
 2574SOL     OW 8620   6.538   3.355   1.245
 2574SOL    HW1 8621   6.511   3.397   1.158
 2574SOL    HW2 8622   6.488   3.398   1.320
 2575SOL     OW 8623   5.188   4.215   0.723
 2575SOL    HW1 8624   5.108   4.164   0.692
 2575SOL    HW2 8625   5.271   4.175   0.682
 2576SOL     OW 8626   2.314   6.971   3.573
 2576SOL    HW1 8627   2.361   6.887   3.545
 2576SOL    HW2 8628   2.229   6.947   3.620
 2577SOL     OW 8629   3.469   0.065   3.153
 2577SOL    HW1 8630   3.383   0.069   3.102
 2577SOL    HW2 8631   3.522   0.149   3.136
 2578SOL     OW 8632   4.604   2.593   4.754
 2578SOL    HW1 8633   4.517   2.547   4.770
 2578SOL    HW2 8634   4.612   2.673   4.814
 2579SOL     OW 8635   0.256   2.105   6.698
 2579SOL    HW1 8636   0.220   2.066   6.613
 2579SOL    HW2 8637   0.343   2.061   6.721
 2580SOL     OW 8638   1.684   2.177   6.286
 2580SOL    HW1 8639   1.616   2.201   6.355
 2580SOL    HW2 8640   1.740   2.257   6.265
 2581SOL     OW 8641   5.214   5.525   2.371
 2581SOL    HW1 8642   5.298   5.534   2.317
 2581SOL    HW2 8643   5.168   5.439   2.348
 2582SOL     OW 8644   1.058   5.404   2.394
 2582SOL    HW1 8645   1.020   5.318   2.359
 2582SOL    HW2 8646   1.007   5.481   2.355
 2583SOL     OW 8647   0.630   0.233   0.787
 2583SOL    HW1 8648   0.566   0.156   0.791
 2583SOL    HW2 8649   0.717   0.202   0.747
 2584SOL     OW 8650   3.131   6.073   1.022
 2584SOL    HW1 8651   3.151   6.075   0.924
 2584SOL    HW2 8652   3.032   6.075   1.036
 2585SOL     OW 8653   3.152   6.596   0.976
 2585SOL    HW1 8654   3.099   6.681   0.978
 2585SOL    HW2 8655   3.092   6.519   0.999
 2586SOL     OW 8656   5.879   1.354   4.535
 2586SOL    HW1 8657   5.964   1.344   4.587
 2586SOL    HW2 8658   5.806   1.305   4.583
 2587SOL     OW 8659   6.171   6.934   4.420
 2587SOL    HW1 8660   6.087   6.887   4.447
 2587SOL    HW2 8661   6.150   0.006   4.392
 2588SOL     OW 8662   5.550   0.683   1.307
 2588SOL    HW1 8663   5.512   0.591   1.296
 2588SOL    HW2 8664   5.476   0.750   1.307
 2589SOL     OW 8665   6.587   0.374   5.634
 2589SOL    HW1 8666   6.654   0.317   5.587
 2589SOL    HW2 8667   6.495   0.353   5.600
 2590SOL     OW 8668   3.847   6.734   2.503
 2590SOL    HW1 8669   3.857   6.696   2.410
 2590SOL    HW2 8670   3.795   6.819   2.499
 2591SOL     OW 8671   4.897   6.273   1.489
 2591SOL    HW1 8672   4.936   6.358   1.524
 2591SOL    HW2 8673   4.829   6.238   1.554
 2592SOL     OW 8674   3.221   5.192   1.159
 2592SOL    HW1 8675   3.269   5.191   1.246
 2592SOL    HW2 8676   3.163   5.110   1.152
 2593SOL     OW 8677   3.597   6.471   2.759
 2593SOL    HW1 8678   3.535   6.519   2.821
 2593SOL    HW2 8679   3.570   6.491   2.665
 2594SOL     OW 8680   0.093   0.717   6.734
 2594SOL    HW1 8681   7.020   0.707   6.702
 2594SOL    HW2 8682   0.103   0.668   6.821
 2595SOL     OW 8683   6.679   3.586   4.881
 2595SOL    HW1 8684   6.599   3.532   4.908
 2595SOL    HW2 8685   6.731   3.536   4.812
 2596SOL     OW 8686   3.978   2.145   1.943
 2596SOL    HW1 8687   4.003   2.056   1.981
 2596SOL    HW2 8688   3.890   2.174   1.980
 2597SOL     OW 8689   2.676   3.295   1.371
 2597SOL    HW1 8690   2.621   3.213   1.382
 2597SOL    HW2 8691   2.760   3.272   1.321
 2598SOL     OW 8692   6.768   2.909   4.313
 2598SOL    HW1 8693   6.706   2.958   4.251
 2598SOL    HW2 8694   6.720   2.831   4.353
 2599SOL     OW 8695   4.165   6.028   6.078
 2599SOL    HW1 8696   4.125   5.966   6.145
 2599SOL    HW2 8697   4.180   6.118   6.120
 2600SOL     OW 8698   5.566   3.987   3.641
 2600SOL    HW1 8699   5.592   3.902   3.687
 2600SOL    HW2 8700   5.504   4.039   3.700
 2601SOL     OW 8701   3.499   2.813   5.693
 2601SOL    HW1 8702   3.436   2.737   5.683
 2601SOL    HW2 8703   3.453   2.899   5.670
 2602SOL     OW 8704   6.911   4.989   4.743
 2602SOL    HW1 8705   7.011   4.985   4.737
 2602SOL    HW2 8706   6.883   4.985   4.838
 2603SOL     OW 8707   2.313   2.471   1.764
 2603SOL    HW1 8708   2.391   2.414   1.791
 2603SOL    HW2 8709   2.341   2.534   1.691
 2604SOL     OW 8710   5.029   0.149   0.962
 2604SOL    HW1 8711   5.049   0.126   1.057
 2604SOL    HW2 8712   4.947   0.206   0.959
 2605SOL     OW 8713   4.260   4.679   3.560
 2605SOL    HW1 8714   4.230   4.637   3.474
 2605SOL    HW2 8715   4.241   4.777   3.558
 2606SOL     OW 8716   6.818   4.263   0.902
 2606SOL    HW1 8717   6.788   4.332   0.836
 2606SOL    HW2 8718   6.810   4.300   0.994
 2607SOL     OW 8719   1.729   1.382   3.581
 2607SOL    HW1 8720   1.688   1.391   3.671
 2607SOL    HW2 8721   1.658   1.363   3.513
 2608SOL     OW 8722   5.445   0.344   1.790
 2608SOL    HW1 8723   5.348   0.365   1.783
 2608SOL    HW2 8724   5.459   0.247   1.771
 2609SOL     OW 8725   0.772   2.695   2.263
 2609SOL    HW1 8726   0.674   2.699   2.280
 2609SOL    HW2 8727   0.795   2.611   2.215
 2610SOL     OW 8728   6.819   5.341   4.860
 2610SOL    HW1 8729   6.725   5.315   4.880
 2610SOL    HW2 8730   6.821   5.432   4.819
 2611SOL     OW 8731   5.178   6.923   0.674
 2611SOL    HW1 8732   5.108   6.943   0.744
 2611SOL    HW2 8733   5.225   6.838   0.697
 2612SOL     OW 8734   5.664   6.736   4.238
 2612SOL    HW1 8735   5.716   6.675   4.179
 2612SOL    HW2 8736   5.687   6.831   4.216
 2613SOL     OW 8737   3.304   6.743   1.995
 2613SOL    HW1 8738   3.233   6.769   1.930
 2613SOL    HW2 8739   3.263   6.725   2.085
 2614SOL     OW 8740   6.473   0.064   5.414
 2614SOL    HW1 8741   6.543   0.117   5.462
 2614SOL    HW2 8742   6.417   0.015   5.481
 2615SOL     OW 8743   5.452   5.536   4.054
 2615SOL    HW1 8744   5.427   5.439   4.057
 2615SOL    HW2 8745   5.430   5.573   3.964
 2616SOL     OW 8746   4.058   3.467   3.483
 2616SOL    HW1 8747   4.115   3.528   3.428
 2616SOL    HW2 8748   4.096   3.461   3.575
 2617SOL     OW 8749   3.299   4.894   1.045
 2617SOL    HW1 8750   3.381   4.926   1.093
 2617SOL    HW2 8751   3.218   4.916   1.098
 2618SOL     OW 8752   0.329   6.872   2.452
 2618SOL    HW1 8753   0.337   6.871   2.353
 2618SOL    HW2 8754   0.352   6.782   2.488
 2619SOL     OW 8755   4.535   1.910   2.156
 2619SOL    HW1 8756   4.445   1.868   2.145
 2619SOL    HW2 8757   4.581   1.914   2.067
 2620SOL     OW 8758   1.478   5.531   3.060
 2620SOL    HW1 8759   1.438   5.491   3.142
 2620SOL    HW2 8760   1.540   5.466   3.018
 2621SOL     OW 8761   0.507   5.539   3.347
 2621SOL    HW1 8762   0.491   5.454   3.297
 2621SOL    HW2 8763   0.605   5.546   3.369
 2622SOL     OW 8764   1.928   3.290   6.058
 2622SOL    HW1 8765   1.954   3.312   6.152
 2622SOL    HW2 8766   2.005   3.308   5.997
 2623SOL     OW 8767   3.407   1.186   4.212
 2623SOL    HW1 8768   3.475   1.214   4.279
 2623SOL    HW2 8769   3.315   1.201   4.249
 2624SOL     OW 8770   6.008   3.239   3.119
 2624SOL    HW1 8771   6.048   3.155   3.154
 2624SOL    HW2 8772   6.064   3.276   3.045
 2625SOL     OW 8773   1.699   2.928   5.296
 2625SOL    HW1 8774   1.729   2.995   5.364
 2625SOL    HW2 8775   1.713   2.836   5.332
 2626SOL     OW 8776   1.100   6.579   3.961
 2626SOL    HW1 8777   1.190   6.575   4.005
 2626SOL    HW2 8778   1.078   6.674   3.939
 2627SOL     OW 8779   0.325   1.196   4.648
 2627SOL    HW1 8780   0.329   1.201   4.748
 2627SOL    HW2 8781   0.289   1.107   4.620
 2628SOL     OW 8782   3.641   6.456   6.491
 2628SOL    HW1 8783   3.636   6.519   6.413
 2628SOL    HW2 8784   3.699   6.497   6.562
 2629SOL     OW 8785   3.794   4.010   1.685
 2629SOL    HW1 8786   3.723   4.039   1.748
 2629SOL    HW2 8787   3.845   3.933   1.725
 2630SOL     OW 8788   3.778   1.740   2.318
 2630SOL    HW1 8789   3.756   1.678   2.243
 2630SOL    HW2 8790   3.701   1.747   2.380
 2631SOL     OW 8791   5.190   6.883   4.187
 2631SOL    HW1 8792   5.157   6.794   4.219
 2631SOL    HW2 8793   5.289   6.878   4.170
 2632SOL     OW 8794   3.024   2.479   0.259
 2632SOL    HW1 8795   3.008   2.381   0.246
 2632SOL    HW2 8796   2.969   2.512   0.336
 2633SOL     OW 8797   5.899   2.649   6.758
 2633SOL    HW1 8798   5.973   2.716   6.753
 2633SOL    HW2 8799   5.823   2.678   6.700
 2634SOL     OW 8800   2.127   4.298   2.164
 2634SOL    HW1 8801   2.157   4.345   2.081
 2634SOL    HW2 8802   2.167   4.206   2.166
 2635SOL     OW 8803   5.706   6.377   4.267
 2635SOL    HW1 8804   5.676   6.306   4.331
 2635SOL    HW2 8805   5.629   6.405   4.211
 2636SOL     OW 8806   5.972   0.181   6.452
 2636SOL    HW1 8807   6.068   0.210   6.457
 2636SOL    HW2 8808   5.945   0.142   6.540
 2637SOL     OW 8809   6.119   0.804   3.392
 2637SOL    HW1 8810   6.058   0.881   3.412
 2637SOL    HW2 8811   6.083   0.721   3.435
 2638SOL     OW 8812   5.567   6.904   1.585
 2638SOL    HW1 8813   5.643   6.929   1.524
 2638SOL    HW2 8814   5.491   6.868   1.531
 2639SOL     OW 8815   6.136   6.862   2.201
 2639SOL    HW1 8816   6.094   6.771   2.205
 2639SOL    HW2 8817   6.235   6.854   2.206
 2640SOL     OW 8818   0.092   6.409   4.882
 2640SOL    HW1 8819   0.102   6.331   4.943
 2640SOL    HW2 8820   0.107   6.380   4.788
 2641SOL     OW 8821   5.678   3.454   0.352
 2641SOL    HW1 8822   5.638   3.532   0.399
 2641SOL    HW2 8823   5.727   3.396   0.417
 2642SOL     OW 8824   5.614   0.613   4.146
 2642SOL    HW1 8825   5.586   0.686   4.084
 2642SOL    HW2 8826   5.714   0.610   4.150
 2643SOL     OW 8827   6.554   5.646   2.907
 2643SOL    HW1 8828   6.464   5.665   2.869
 2643SOL    HW2 8829   6.584   5.723   2.964
 2644SOL     OW 8830   1.292   4.541   5.569
 2644SOL    HW1 8831   1.306   4.502   5.478
 2644SOL    HW2 8832   1.248   4.630   5.561
 2645SOL     OW 8833   5.124   6.926   5.568
 2645SOL    HW1 8834   5.113   6.946   5.471
 2645SOL    HW2 8835   5.221   6.920   5.591
 2646SOL     OW 8836   6.070   0.427   6.323
 2646SOL    HW1 8837   6.106   0.388   6.238
 2646SOL    HW2 8838   6.139   0.485   6.365
 2647SOL     OW 8839   4.984   0.925   0.781
 2647SOL    HW1 8840   4.982   0.952   0.685
 2647SOL    HW2 8841   5.078   0.929   0.815
 2648SOL     OW 8842   6.684   6.833   2.905
 2648SOL    HW1 8843   6.728   6.923   2.902
 2648SOL    HW2 8844   6.695   6.794   2.996
 2649SOL     OW 8845   3.568   1.566   6.132
 2649SOL    HW1 8846   3.510   1.484   6.132
 2649SOL    HW2 8847   3.625   1.566   6.214
 2650SOL     OW 8848   0.621   5.091   3.433
 2650SOL    HW1 8849   0.705   5.064   3.480
 2650SOL    HW2 8850   0.555   5.125   3.499
 2651SOL     OW 8851   0.672   1.555   1.061
 2651SOL    HW1 8852   0.631   1.527   1.148
 2651SOL    HW2 8853   0.771   1.541   1.065
 2652SOL     OW 8854   3.328   2.943   3.588
 2652SOL    HW1 8855   3.400   3.012   3.577
 2652SOL    HW2 8856   3.349   2.864   3.530
 2653SOL     OW 8857   5.664   6.977   6.079
 2653SOL    HW1 8858   5.649   6.997   5.983
 2653SOL    HW2 8859   5.695   0.038   6.127
 2654SOL     OW 8860   5.396   3.134   5.937
 2654SOL    HW1 8861   5.435   3.042   5.931
 2654SOL    HW2 8862   5.319   3.134   6.000
 2655SOL     OW 8863   4.373   5.681   4.281
 2655SOL    HW1 8864   4.283   5.694   4.241
 2655SOL    HW2 8865   4.375   5.595   4.332
 2656SOL     OW 8866   5.291   4.984   3.710
 2656SOL    HW1 8867   5.346   4.910   3.749
 2656SOL    HW2 8868   5.200   4.984   3.752
 2657SOL     OW 8869   2.575   3.929   6.462
 2657SOL    HW1 8870   2.496   3.976   6.502
 2657SOL    HW2 8871   2.585   3.956   6.366
 2658SOL     OW 8872   6.442   4.885   6.299
 2658SOL    HW1 8873   6.362   4.855   6.247
 2658SOL    HW2 8874   6.496   4.948   6.243
 2659SOL     OW 8875   6.675   2.538   4.382
 2659SOL    HW1 8876   6.678   2.578   4.290
 2659SOL    HW2 8877   6.594   2.479   4.390
 2660SOL     OW 8878   6.716   2.110   2.032
 2660SOL    HW1 8879   6.664   2.086   1.950
 2660SOL    HW2 8880   6.777   2.186   2.011
 2661SOL     OW 8881   2.807   6.069   0.997
 2661SOL    HW1 8882   2.726   6.025   0.957
 2661SOL    HW2 8883   2.790   6.087   1.094
 2662SOL     OW 8884   4.336   6.734   4.158
 2662SOL    HW1 8885   4.248   6.692   4.180
 2662SOL    HW2 8886   4.335   6.830   4.187
 2663SOL     OW 8887   2.119   4.628   1.210
 2663SOL    HW1 8888   2.129   4.728   1.205
 2663SOL    HW2 8889   2.106   4.601   1.305
 2664SOL     OW 8890   3.280   4.080   3.444
 2664SOL    HW1 8891   3.228   4.104   3.363
 2664SOL    HW2 8892   3.305   3.983   3.441
 2665SOL     OW 8893   3.275   1.316   4.677
 2665SOL    HW1 8894   3.267   1.305   4.578
 2665SOL    HW2 8895   3.209   1.385   4.707
 2666SOL     OW 8896   4.951   4.975   0.854
 2666SOL    HW1 8897   5.011   5.056   0.853
 2666SOL    HW2 8898   4.984   4.908   0.787
 2667SOL     OW 8899   1.261   6.141   5.493
 2667SOL    HW1 8900   1.336   6.205   5.474
 2667SOL    HW2 8901   1.202   6.180   5.564
 2668SOL     OW 8902   6.791   3.447   4.390
 2668SOL    HW1 8903   6.787   3.347   4.400
 2668SOL    HW2 8904   6.874   3.473   4.342
 2669SOL     OW 8905   3.485   4.981   5.158
 2669SOL    HW1 8906   3.387   4.998   5.153
 2669SOL    HW2 8907   3.519   4.954   5.067
 2670SOL     OW 8908   6.978   0.984   6.835
 2670SOL    HW1 8909   0.026   0.972   6.905
 2670SOL    HW2 8910   6.986   1.075   6.795
 2671SOL     OW 8911   2.422   3.732   6.737
 2671SOL    HW1 8912   2.508   3.783   6.735
 2671SOL    HW2 8913   2.358   3.771   6.671
 2672SOL     OW 8914   1.268   5.538   6.938
 2672SOL    HW1 8915   1.304   5.480   7.011
 2672SOL    HW2 8916   1.228   5.481   6.867
 2673SOL     OW 8917   4.793   2.975   3.638
 2673SOL    HW1 8918   4.695   2.994   3.634
 2673SOL    HW2 8919   4.810   2.902   3.704
 2674SOL     OW 8920   1.621   4.555   4.631
 2674SOL    HW1 8921   1.711   4.566   4.674
 2674SOL    HW2 8922   1.550   4.566   4.700
 2675SOL     OW 8923   0.954   4.362   5.835
 2675SOL    HW1 8924   0.929   4.454   5.866
 2675SOL    HW2 8925   0.975   4.305   5.914
 2676SOL     OW 8926   4.874   1.829   2.354
 2676SOL    HW1 8927   4.786   1.789   2.382
 2676SOL    HW2 8928   4.940   1.819   2.429
 2677SOL     OW 8929   2.129   5.054   1.714
 2677SOL    HW1 8930   2.093   5.130   1.660
 2677SOL    HW2 8931   2.192   5.000   1.658
 2678SOL     OW 8932   0.983   5.000   7.019
 2678SOL    HW1 8933   1.065   5.056   0.008
 2678SOL    HW2 8934   0.905   5.058   6.995
 2679SOL     OW 8935   3.984   4.673   0.734
 2679SOL    HW1 8936   4.059   4.680   0.669
 2679SOL    HW2 8937   3.927   4.594   0.712
 2680SOL     OW 8938   2.333   1.480   0.667
 2680SOL    HW1 8939   2.337   1.380   0.663
 2680SOL    HW2 8940   2.258   1.509   0.727
 2681SOL     OW 8941   1.345   3.849   4.239
 2681SOL    HW1 8942   1.375   3.828   4.332
 2681SOL    HW2 8943   1.281   3.926   4.241
 2682SOL     OW 8944   5.593   2.887   2.222
 2682SOL    HW1 8945   5.604   2.800   2.271
 2682SOL    HW2 8946   5.639   2.881   2.134
 2683SOL     OW 8947   0.754   4.877   1.289
 2683SOL    HW1 8948   0.727   4.800   1.347
 2683SOL    HW2 8949   0.713   4.961   1.324
 2684SOL     OW 8950   4.147   6.247   2.183
 2684SOL    HW1 8951   4.126   6.197   2.099
 2684SOL    HW2 8952   4.153   6.345   2.163
 2685SOL     OW 8953   6.297   0.046   3.916
 2685SOL    HW1 8954   6.212   0.015   3.957
 2685SOL    HW2 8955   6.314   0.141   3.942
 2686SOL     OW 8956   1.757   2.559   4.306
 2686SOL    HW1 8957   1.851   2.568   4.337
 2686SOL    HW2 8958   1.753   2.570   4.207
 2687SOL     OW 8959   3.919   4.925   2.591
 2687SOL    HW1 8960   3.849   4.892   2.527
 2687SOL    HW2 8961   3.932   5.023   2.577
 2688SOL     OW 8962   4.114   5.306   5.629
 2688SOL    HW1 8963   4.063   5.352   5.557
 2688SOL    HW2 8964   4.102   5.207   5.620
 2689SOL     OW 8965   1.287   1.742   3.621
 2689SOL    HW1 8966   1.239   1.674   3.675
 2689SOL    HW2 8967   1.226   1.819   3.602
 2690SOL     OW 8968   3.947   3.128   3.624
 2690SOL    HW1 8969   3.853   3.101   3.645
 2690SOL    HW2 8970   3.959   3.133   3.525
 2691SOL     OW 8971   1.828   5.880   1.859
 2691SOL    HW1 8972   1.809   5.937   1.938
 2691SOL    HW2 8973   1.742   5.852   1.816
 2692SOL     OW 8974   6.412   5.315   3.584
 2692SOL    HW1 8975   6.328   5.286   3.540
 2692SOL    HW2 8976   6.457   5.237   3.627
 2693SOL     OW 8977   2.247   4.458   3.126
 2693SOL    HW1 8978   2.246   4.408   3.040
 2693SOL    HW2 8979   2.340   4.490   3.145
 2694SOL     OW 8980   3.085   0.321   2.893
 2694SOL    HW1 8981   3.001   0.320   2.839
 2694SOL    HW2 8982   3.163   0.333   2.832
 2695SOL     OW 8983   5.196   2.136   2.522
 2695SOL    HW1 8984   5.281   2.189   2.517
 2695SOL    HW2 8985   5.166   2.113   2.429
 2696SOL     OW 8986   4.074   3.108   5.570
 2696SOL    HW1 8987   4.137   3.034   5.547
 2696SOL    HW2 8988   4.001   3.113   5.503
 2697SOL     OW 8989   4.218   1.705   4.084
 2697SOL    HW1 8990   4.271   1.654   4.017
 2697SOL    HW2 8991   4.176   1.641   4.149
 2698SOL     OW 8992   1.141   4.654   0.507
 2698SOL    HW1 8993   1.185   4.616   0.588
 2698SOL    HW2 8994   1.070   4.719   0.535
 2699SOL     OW 8995   3.503   5.449   0.425
 2699SOL    HW1 8996   3.483   5.377   0.359
 2699SOL    HW2 8997   3.447   5.436   0.507
 2700SOL     OW 8998   2.069   3.268   2.971
 2700SOL    HW1 8999   2.131   3.195   2.999
 2700SOL    HW2 9000   2.057   3.333   3.047
 2701SOL     OW 9001   3.958   0.558   6.764
 2701SOL    HW1 9002   3.997   0.506   6.840
 2701SOL    HW2 9003   3.858   0.548   6.765
 2702SOL     OW 9004   6.361   1.975   3.426
 2702SOL    HW1 9005   6.279   1.947   3.376
 2702SOL    HW2 9006   6.336   2.039   3.498
 2703SOL     OW 9007   3.062   0.911   2.995
 2703SOL    HW1 9008   2.973   0.865   3.003
 2703SOL    HW2 9009   3.054   1.005   3.026
 2704SOL     OW 9010   2.272   5.671   1.918
 2704SOL    HW1 9011   2.337   5.619   1.862
 2704SOL    HW2 9012   2.243   5.616   1.996
 2705SOL     OW 9013   0.089   5.076   3.882
 2705SOL    HW1 9014   0.091   5.068   3.782
 2705SOL    HW2 9015   0.079   4.985   3.922
 2706SOL     OW 9016   6.500   1.509   1.941
 2706SOL    HW1 9017   6.462   1.600   1.955
 2706SOL    HW2 9018   6.600   1.515   1.935
 2707SOL     OW 9019   2.226   0.480   6.976
 2707SOL    HW1 9020   2.202   0.480   0.051
 2707SOL    HW2 9021   2.223   0.386   6.941
 2708SOL     OW 9022   2.550   2.350   1.848
 2708SOL    HW1 9023   2.644   2.324   1.825
 2708SOL    HW2 9024   2.539   2.350   1.948
 2709SOL     OW 9025   4.891   6.101   1.271
 2709SOL    HW1 9026   4.949   6.097   1.189
 2709SOL    HW2 9027   4.915   6.181   1.326
 2710SOL     OW 9028   6.539   3.328   3.030
 2710SOL    HW1 9029   6.512   3.279   2.947
 2710SOL    HW2 9030   6.638   3.320   3.043
 2711SOL     OW 9031   1.496   6.948   2.359
 2711SOL    HW1 9032   1.447   0.014   2.360
 2711SOL    HW2 9033   1.432   6.875   2.338
 2712SOL     OW 9034   3.015   4.606   0.252
 2712SOL    HW1 9035   3.070   4.613   0.169
 2712SOL    HW2 9036   3.045   4.676   0.317
 2713SOL     OW 9037   2.112   2.641   4.780
 2713SOL    HW1 9038   2.153   2.686   4.860
 2713SOL    HW2 9039   2.159   2.670   4.697
 2714SOL     OW 9040   5.338   1.576   6.521
 2714SOL    HW1 9041   5.329   1.675   6.515
 2714SOL    HW2 9042   5.292   1.533   6.443
 2715SOL     OW 9043   5.881   0.435   0.158
 2715SOL    HW1 9044   5.846   0.499   0.089
 2715SOL    HW2 9045   5.857   0.342   0.133
 2716SOL     OW 9046   0.058   5.832   1.240
 2716SOL    HW1 9047   0.085   5.741   1.271
 2716SOL    HW2 9048   0.100   5.851   1.151
 2717SOL     OW 9049   0.689   5.754   1.920
 2717SOL    HW1 9050   0.698   5.712   1.829
 2717SOL    HW2 9051   0.728   5.846   1.917
 2718SOL     OW 9052   2.074   3.915   4.226
 2718SOL    HW1 9053   2.081   3.895   4.323
 2718SOL    HW2 9054   2.022   3.842   4.181
 2719SOL     OW 9055   4.453   4.770   2.010
 2719SOL    HW1 9056   4.532   4.719   2.045
 2719SOL    HW2 9057   4.390   4.787   2.086
 2720SOL     OW 9058   1.664   5.789   3.476
 2720SOL    HW1 9059   1.564   5.788   3.472
 2720SOL    HW2 9060   1.695   5.746   3.561
 2721SOL     OW 9061   2.674   0.261   4.818
 2721SOL    HW1 9062   2.670   0.315   4.903
 2721SOL    HW2 9063   2.756   0.286   4.767
 2722SOL     OW 9064   0.113   5.733   3.331
 2722SOL    HW1 9065   0.078   5.718   3.424
 2722SOL    HW2 9066   0.204   5.775   3.336
 2723SOL     OW 9067   2.499   0.915   5.742
 2723SOL    HW1 9068   2.484   0.830   5.793
 2723SOL    HW2 9069   2.423   0.977   5.756
 2724SOL     OW 9070   3.186   5.528   6.071
 2724SOL    HW1 9071   3.107   5.470   6.050
 2724SOL    HW2 9072   3.169   5.577   6.156
 2725SOL     OW 9073   5.160   4.632   3.190
 2725SOL    HW1 9074   5.175   4.715   3.136
 2725SOL    HW2 9075   5.087   4.578   3.149
 2726SOL     OW 9076   5.313   4.694   1.861
 2726SOL    HW1 9077   5.318   4.720   1.765
 2726SOL    HW2 9078   5.219   4.672   1.885
 2727SOL     OW 9079   0.758   5.018   2.922
 2727SOL    HW1 9080   0.719   5.110   2.926
 2727SOL    HW2 9081   0.813   5.009   2.838
 2728SOL     OW 9082   2.798   6.951   4.968
 2728SOL    HW1 9083   2.708   6.967   4.927
 2728SOL    HW2 9084   2.869   6.991   4.910
 2729SOL     OW 9085   6.136   5.702   2.684
 2729SOL    HW1 9086   6.178   5.684   2.773
 2729SOL    HW2 9087   6.187   5.653   2.613
 2730SOL     OW 9088   2.315   0.072   0.981
 2730SOL    HW1 9089   2.288   0.140   0.914
 2730SOL    HW2 9090   2.316   7.003   0.938
 2731SOL     OW 9091   2.970   3.588   1.410
 2731SOL    HW1 9092   3.007   3.547   1.326
 2731SOL    HW2 9093   2.935   3.516   1.470
 2732SOL     OW 9094   6.013   2.987   2.599
 2732SOL    HW1 9095   5.966   3.019   2.681
 2732SOL    HW2 9096   5.951   2.992   2.521
 2733SOL     OW 9097   1.203   6.793   5.863
 2733SOL    HW1 9098   1.245   6.702   5.857
 2733SOL    HW2 9099   1.261   6.852   5.920
 2734SOL     OW 9100   1.496   5.986   3.803
 2734SOL    HW1 9101   1.580   6.021   3.761
 2734SOL    HW2 9102   1.469   6.046   3.878
 2735SOL     OW 9103   0.685   4.103   2.836
 2735SOL    HW1 9104   0.645   4.148   2.756
 2735SOL    HW2 9105   0.776   4.067   2.813
 2736SOL     OW 9106   4.840   0.591   5.254
 2736SOL    HW1 9107   4.912   0.628   5.313
 2736SOL    HW2 9108   4.810   0.661   5.190
 2737SOL     OW 9109   3.337   3.528   6.330
 2737SOL    HW1 9110   3.373   3.551   6.240
 2737SOL    HW2 9111   3.327   3.429   6.338
 2738SOL     OW 9112   4.984   5.423   3.940
 2738SOL    HW1 9113   5.057   5.360   3.967
 2738SOL    HW2 9114   4.895   5.385   3.966
 2739SOL     OW 9115   5.740   4.515   0.758
 2739SOL    HW1 9116   5.823   4.539   0.809
 2739SOL    HW2 9117   5.660   4.549   0.807
 2740SOL     OW 9118   6.207   1.917   2.323
 2740SOL    HW1 9119   6.116   1.876   2.330
 2740SOL    HW2 9120   6.275   1.846   2.308
 2741SOL     OW 9121   0.097   1.795   5.846
 2741SOL    HW1 9122   0.133   1.712   5.887
 2741SOL    HW2 9123   0.102   1.788   5.746
 2742SOL     OW 9124   1.105   5.726   6.311
 2742SOL    HW1 9125   1.140   5.812   6.276
 2742SOL    HW2 9126   1.138   5.712   6.405
 2743SOL     OW 9127   5.498   6.020   1.444
 2743SOL    HW1 9128   5.494   5.968   1.359
 2743SOL    HW2 9129   5.412   6.071   1.456
 2744SOL     OW 9130   4.217   2.340   6.778
 2744SOL    HW1 9131   4.205   2.436   6.752
 2744SOL    HW2 9132   4.133   2.290   6.760
 2745SOL     OW 9133   1.668   6.106   0.778
 2745SOL    HW1 9134   1.662   6.016   0.821
 2745SOL    HW2 9135   1.763   6.125   0.754
 2746SOL     OW 9136   1.711   2.687   5.063
 2746SOL    HW1 9137   1.759   2.632   4.994
 2746SOL    HW2 9138   1.743   2.782   5.058
 2747SOL     OW 9139   5.674   5.218   5.271
 2747SOL    HW1 9140   5.723   5.290   5.320
 2747SOL    HW2 9141   5.636   5.255   5.186
 2748SOL     OW 9142   3.694   1.439   3.587
 2748SOL    HW1 9143   3.671   1.508   3.519
 2748SOL    HW2 9144   3.621   1.433   3.655
 2749SOL     OW 9145   5.654   4.451   4.235
 2749SOL    HW1 9146   5.658   4.507   4.153
 2749SOL    HW2 9147   5.581   4.383   4.225
 2750SOL     OW 9148   0.348   5.467   1.644
 2750SOL    HW1 9149   0.360   5.430   1.736
 2750SOL    HW2 9150   0.252   5.491   1.630
 2751SOL     OW 9151   1.944   6.848   0.835
 2751SOL    HW1 9152   1.921   6.840   0.737
 2751SOL    HW2 9153   1.922   6.762   0.880
 2752SOL     OW 9154   4.700   6.142   5.008
 2752SOL    HW1 9155   4.772   6.190   5.058
 2752SOL    HW2 9156   4.656   6.076   5.068
 2753SOL     OW 9157   3.287   5.673   6.325
 2753SOL    HW1 9158   3.341   5.713   6.252
 2753SOL    HW2 9159   3.344   5.612   6.380
 2754SOL     OW 9160   0.536   0.262   4.048
 2754SOL    HW1 9161   0.579   0.352   4.052
 2754SOL    HW2 9162   0.530   0.232   3.952
 2755SOL     OW 9163   2.766   6.431   3.202
 2755SOL    HW1 9164   2.834   6.376   3.250
 2755SOL    HW2 9165   2.690   6.372   3.173
 2756SOL     OW 9166   5.810   4.025   4.503
 2756SOL    HW1 9167   5.712   4.006   4.498
 2756SOL    HW2 9168   5.830   4.111   4.456
 2757SOL     OW 9169   3.964   2.351   6.981
 2757SOL    HW1 9170   3.885   2.349   0.020
 2757SOL    HW2 9171   3.970   2.441   6.937
 2758SOL     OW 9172   5.308   5.391   3.521
 2758SOL    HW1 9173   5.347   5.348   3.603
 2758SOL    HW2 9174   5.327   5.489   3.522
 2759SOL     OW 9175   3.485   4.394   5.819
 2759SOL    HW1 9176   3.551   4.469   5.829
 2759SOL    HW2 9177   3.448   4.371   5.909
 2760SOL     OW 9178   5.934   5.975   2.959
 2760SOL    HW1 9179   6.024   5.963   3.000
 2760SOL    HW2 9180   5.863   5.962   3.029
 2761SOL     OW 9181   1.786   3.726   3.036
 2761SOL    HW1 9182   1.753   3.734   3.131
 2761SOL    HW2 9183   1.770   3.633   3.004
 2762SOL     OW 9184   1.236   2.119   6.805
 2762SOL    HW1 9185   1.217   2.057   6.729
 2762SOL    HW2 9186   1.334   2.141   6.806
 2763SOL     OW 9187   4.776   1.634   6.242
 2763SOL    HW1 9188   4.816   1.714   6.198
 2763SOL    HW2 9189   4.680   1.651   6.263
 2764SOL     OW 9190   1.049   4.512   2.741
 2764SOL    HW1 9191   1.007   4.570   2.811
 2764SOL    HW2 9192   1.147   4.532   2.737
 2765SOL     OW 9193   6.323   6.747   6.867
 2765SOL    HW1 9194   6.308   6.819   6.935
 2765SOL    HW2 9195   6.409   6.763   6.819
 2766SOL     OW 9196   4.354   1.382   0.326
 2766SOL    HW1 9197   4.412   1.435   0.264
 2766SOL    HW2 9198   4.258   1.394   0.299
 2767SOL     OW 9199   5.730   5.795   5.945
 2767SOL    HW1 9200   5.715   5.697   5.960
 2767SOL    HW2 9201   5.826   5.817   5.960
 2768SOL     OW 9202   3.635   7.005   1.114
 2768SOL    HW1 9203   3.565   6.959   1.060
 2768SOL    HW2 9204   3.722   7.003   1.065
 2769SOL     OW 9205   1.875   3.918   5.724
 2769SOL    HW1 9206   1.943   3.851   5.697
 2769SOL    HW2 9207   1.823   3.947   5.644
 2770SOL     OW 9208   3.344   6.693   6.326
 2770SOL    HW1 9209   3.259   6.641   6.322
 2770SOL    HW2 9210   3.398   6.676   6.244
 2771SOL     OW 9211   5.438   6.822   4.084
 2771SOL    HW1 9212   5.428   6.748   4.018
 2771SOL    HW2 9213   5.508   6.797   4.151
 2772SOL     OW 9214   3.707   0.417   2.584
 2772SOL    HW1 9215   3.764   0.343   2.617
 2772SOL    HW2 9216   3.742   0.504   2.618
 2773SOL     OW 9217   0.431   2.877   4.802
 2773SOL    HW1 9218   0.401   2.873   4.897
 2773SOL    HW2 9219   0.406   2.966   4.763
 2774SOL     OW 9220   4.994   2.320   3.312
 2774SOL    HW1 9221   5.071   2.265   3.280
 2774SOL    HW2 9222   5.024   2.415   3.325
 2775SOL     OW 9223   0.080   3.774   4.118
 2775SOL    HW1 9224   0.031   3.694   4.082
 2775SOL    HW2 9225   0.015   3.847   4.138
 2776SOL     OW 9226   4.619   4.841   6.270
 2776SOL    HW1 9227   4.614   4.932   6.313
 2776SOL    HW2 9228   4.586   4.847   6.176
 2777SOL     OW 9229   2.786   2.130   5.884
 2777SOL    HW1 9230   2.792   2.113   5.982
 2777SOL    HW2 9231   2.701   2.178   5.863
 2778SOL     OW 9232   2.617   5.638   6.571
 2778SOL    HW1 9233   2.667   5.719   6.542
 2778SOL    HW2 9234   2.670   5.556   6.551
 2779SOL     OW 9235   5.663   6.439   2.131
 2779SOL    HW1 9236   5.713   6.435   2.044
 2779SOL    HW2 9237   5.614   6.353   2.145
 2780SOL     OW 9238   0.504   1.173   6.174
 2780SOL    HW1 9239   0.515   1.079   6.143
 2780SOL    HW2 9240   0.590   1.223   6.161
 2781SOL     OW 9241   6.755   0.902   2.312
 2781SOL    HW1 9242   6.744   0.926   2.408
 2781SOL    HW2 9243   6.672   0.859   2.277
 2782SOL     OW 9244   4.340   1.126   6.324
 2782SOL    HW1 9245   4.364   1.204   6.381
 2782SOL    HW2 9246   4.242   1.106   6.334
 2783SOL     OW 9247   6.301   3.451   1.955
 2783SOL    HW1 9248   6.249   3.499   1.885
 2783SOL    HW2 9249   6.239   3.395   2.010
 2784SOL     OW 9250   2.298   1.768   2.053
 2784SOL    HW1 9251   2.281   1.866   2.068
 2784SOL    HW2 9252   2.358   1.757   1.974
 2785SOL     OW 9253   4.865   2.814   1.687
 2785SOL    HW1 9254   4.948   2.799   1.740
 2785SOL    HW2 9255   4.791   2.843   1.748
 2786SOL     OW 9256   6.773   5.394   0.654
 2786SOL    HW1 9257   6.868   5.384   0.622
 2786SOL    HW2 9258   6.734   5.303   0.668
 2787SOL     OW 9259   6.304   5.825   5.881
 2787SOL    HW1 9260   6.307   5.840   5.782
 2787SOL    HW2 9261   6.397   5.823   5.917
 2788SOL     OW 9262   3.202   6.420   5.941
 2788SOL    HW1 9263   3.248   6.358   5.877
 2788SOL    HW2 9264   3.215   6.386   6.034
 2789SOL     OW 9265   1.507   2.882   3.904
 2789SOL    HW1 9266   1.551   2.937   3.975
 2789SOL    HW2 9267   1.502   2.787   3.934
 2790SOL     OW 9268   2.470   5.274   0.481
 2790SOL    HW1 9269   2.534   5.323   0.423
 2790SOL    HW2 9270   2.429   5.339   0.546
 2791SOL     OW 9271   6.866   3.610   2.432
 2791SOL    HW1 9272   6.865   3.675   2.508
 2791SOL    HW2 9273   6.884   3.518   2.466
 2792SOL     OW 9274   3.129   0.856   5.139
 2792SOL    HW1 9275   3.193   0.781   5.124
 2792SOL    HW2 9276   3.134   0.921   5.063
 2793SOL     OW 9277   4.154   3.834   1.281
 2793SOL    HW1 9278   4.122   3.840   1.375
 2793SOL    HW2 9279   4.169   3.926   1.245
 2794SOL     OW 9280   0.097   1.498   6.519
 2794SOL    HW1 9281   0.091   1.513   6.618
 2794SOL    HW2 9282   0.152   1.416   6.502
 2795SOL     OW 9283   0.097   4.884   0.958
 2795SOL    HW1 9284   0.116   4.957   0.892
 2795SOL    HW2 9285   0.183   4.846   0.992
 2796SOL     OW 9286   0.671   6.036   5.763
 2796SOL    HW1 9287   0.636   6.090   5.686
 2796SOL    HW2 9288   0.669   5.939   5.739
 2797SOL     OW 9289   5.659   6.533   4.584
 2797SOL    HW1 9290   5.618   6.482   4.660
 2797SOL    HW2 9291   5.689   6.469   4.513
 2798SOL     OW 9292   6.595   6.772   1.921
 2798SOL    HW1 9293   6.672   6.803   1.865
 2798SOL    HW2 9294   6.628   6.745   2.012
 2799SOL     OW 9295   4.248   5.743   4.926
 2799SOL    HW1 9296   4.197   5.658   4.910
 2799SOL    HW2 9297   4.184   5.816   4.950
 2800SOL     OW 9298   6.180   0.631   0.042
 2800SOL    HW1 9299   6.163   0.609   6.968
 2800SOL    HW2 9300   6.105   0.687   0.077
 2801SOL     OW 9301   0.265   5.000   6.022
 2801SOL    HW1 9302   0.195   5.051   6.072
 2801SOL    HW2 9303   0.266   5.029   5.926
 2802SOL     OW 9304   6.332   6.608   5.353
 2802SOL    HW1 9305   6.266   6.640   5.285
 2802SOL    HW2 9306   6.421   6.595   5.310
 2803SOL     OW 9307   3.398   3.064   6.088
 2803SOL    HW1 9308   3.397   3.001   6.010
 2803SOL    HW2 9309   3.428   3.154   6.056
 2804SOL     OW 9310   0.451   2.712   3.997
 2804SOL    HW1 9311   0.387   2.780   4.031
 2804SOL    HW2 9312   0.405   2.623   3.990
 2805SOL     OW 9313   4.693   3.819   1.766
 2805SOL    HW1 9314   4.633   3.888   1.727
 2805SOL    HW2 9315   4.698   3.740   1.705
 2806SOL     OW 9316   1.473   4.018   5.757
 2806SOL    HW1 9317   1.374   4.009   5.744
 2806SOL    HW2 9318   1.518   3.934   5.727
 2807SOL     OW 9319   2.859   0.223   2.742
 2807SOL    HW1 9320   2.762   0.225   2.766
 2807SOL    HW2 9321   2.895   0.131   2.758
 2808SOL     OW 9322   6.211   5.621   0.676
 2808SOL    HW1 9323   6.240   5.550   0.739
 2808SOL    HW2 9324   6.193   5.580   0.586
 2809SOL     OW 9325   6.333   5.133   2.428
 2809SOL    HW1 9326   6.344   5.172   2.520
 2809SOL    HW2 9327   6.315   5.035   2.436
 2810SOL     OW 9328   2.402   5.812   3.546
 2810SOL    HW1 9329   2.468   5.841   3.478
 2810SOL    HW2 9330   2.447   5.755   3.615
 2811SOL     OW 9331   0.398   0.194   2.240
 2811SOL    HW1 9332   0.487   0.176   2.197
 2811SOL    HW2 9333   0.400   0.162   2.335
 2812SOL     OW 9334   0.691   3.409   1.071
 2812SOL    HW1 9335   0.733   3.399   0.981
 2812SOL    HW2 9336   0.627   3.334   1.087
 2813SOL     OW 9337   0.323   1.714   0.905
 2813SOL    HW1 9338   0.420   1.692   0.894
 2813SOL    HW2 9339   0.294   1.774   0.830
 2814SOL     OW 9340   2.488   4.430   0.091
 2814SOL    HW1 9341   2.449   4.479   0.013
 2814SOL    HW2 9342   2.588   4.426   0.080
 2815SOL     OW 9343   0.173   5.746   4.942
 2815SOL    HW1 9344   0.153   5.762   5.039
 2815SOL    HW2 9345   0.165   5.832   4.892
 2816SOL     OW 9346   0.184   6.140   5.561
 2816SOL    HW1 9347   0.188   6.041   5.552
 2816SOL    HW2 9348   0.201   6.183   5.472
 2817SOL     OW 9349   3.916   0.384   1.915
 2817SOL    HW1 9350   3.922   0.452   1.842
 2817SOL    HW2 9351   3.824   0.385   1.954
 2818SOL     OW 9352   1.967   0.587   1.536
 2818SOL    HW1 9353   1.914   0.607   1.454
 2818SOL    HW2 9354   2.049   0.537   1.511
 2819SOL     OW 9355   0.600   6.967   0.487
 2819SOL    HW1 9356   0.684   6.914   0.496
 2819SOL    HW2 9357   0.531   6.931   0.550
 2820SOL     OW 9358   0.841   2.438   1.898
 2820SOL    HW1 9359   0.790   2.476   1.975
 2820SOL    HW2 9360   0.932   2.410   1.929
 2821SOL     OW 9361   3.626   4.295   6.537
 2821SOL    HW1 9362   3.669   4.375   6.578
 2821SOL    HW2 9363   3.675   4.213   6.566
 2822SOL     OW 9364   3.953   2.511   0.510
 2822SOL    HW1 9365   3.931   2.586   0.448
 2822SOL    HW2 9366   4.004   2.547   0.588
 2823SOL     OW 9367   5.077   1.234   0.546
 2823SOL    HW1 9368   5.068   1.137   0.564
 2823SOL    HW2 9369   5.056   1.286   0.630
 2824SOL     OW 9370   0.959   3.516   5.765
 2824SOL    HW1 9371   0.909   3.598   5.736
 2824SOL    HW2 9372   1.057   3.531   5.752
 2825SOL     OW 9373   5.260   1.602   6.257
 2825SOL    HW1 9374   5.162   1.594   6.272
 2825SOL    HW2 9375   5.277   1.652   6.172
 2826SOL     OW 9376   0.838   3.541   6.020
 2826SOL    HW1 9377   0.865   3.528   5.924
 2826SOL    HW2 9378   0.883   3.473   6.077
 2827SOL     OW 9379   0.011   1.195   6.626
 2827SOL    HW1 9380   6.972   1.173   6.550
 2827SOL    HW2 9381   0.100   1.224   6.590
 2828SOL     OW 9382   1.359   3.323   1.057
 2828SOL    HW1 9383   1.436   3.379   1.087
 2828SOL    HW2 9384   1.274   3.369   1.080
 2829SOL     OW 9385   3.718   4.143   3.331
 2829SOL    HW1 9386   3.649   4.126   3.402
 2829SOL    HW2 9387   3.771   4.225   3.355
 2830SOL     OW 9388   3.929   5.654   6.116
 2830SOL    HW1 9389   3.971   5.583   6.059
 2830SOL    HW2 9390   3.992   5.731   6.125
 2831SOL     OW 9391   0.214   2.405   2.199
 2831SOL    HW1 9392   0.217   2.306   2.205
 2831SOL    HW2 9393   0.214   2.434   2.103
 2832SOL     OW 9394   0.784   3.477   1.324
 2832SOL    HW1 9395   0.749   3.459   1.232
 2832SOL    HW2 9396   0.860   3.416   1.344
 2833SOL     OW 9397   2.202   1.428   1.871
 2833SOL    HW1 9398   2.260   1.504   1.843
 2833SOL    HW2 9399   2.201   1.358   1.800
 2834SOL     OW 9400   4.354   6.083   4.895
 2834SOL    HW1 9401   4.392   6.155   4.953
 2834SOL    HW2 9402   4.426   6.019   4.869
 2835SOL     OW 9403   0.690   6.381   0.560
 2835SOL    HW1 9404   0.687   6.475   0.595
 2835SOL    HW2 9405   0.785   6.349   0.563
 2836SOL     OW 9406   3.434   6.631   2.898
 2836SOL    HW1 9407   3.467   6.726   2.896
 2836SOL    HW2 9408   3.378   6.617   2.980
 2837SOL     OW 9409   5.857   3.811   2.446
 2837SOL    HW1 9410   5.948   3.772   2.458
 2837SOL    HW2 9411   5.821   3.783   2.357
 2838SOL     OW 9412   4.913   3.650   6.108
 2838SOL    HW1 9413   4.846   3.589   6.151
 2838SOL    HW2 9414   4.886   3.669   6.014
 2839SOL     OW 9415   6.164   3.714   4.424
 2839SOL    HW1 9416   6.230   3.642   4.442
 2839SOL    HW2 9417   6.079   3.674   4.389
 2840SOL     OW 9418   0.413   6.200   2.504
 2840SOL    HW1 9419   0.326   6.157   2.482
 2840SOL    HW2 9420   0.450   6.161   2.588
 2841SOL     OW 9421   6.012   2.406   1.694
 2841SOL    HW1 9422   6.094   2.455   1.722
 2841SOL    HW2 9423   5.978   2.445   1.608
 2842SOL     OW 9424   1.496   6.340   4.299
 2842SOL    HW1 9425   1.566   6.321   4.368
 2842SOL    HW2 9426   1.496   6.438   4.278
 2843SOL     OW 9427   2.328   2.804   3.052
 2843SOL    HW1 9428   2.296   2.753   3.132
 2843SOL    HW2 9429   2.386   2.745   2.996
 2844SOL     OW 9430   4.732   4.808   0.617
 2844SOL    HW1 9431   4.659   4.863   0.657
 2844SOL    HW2 9432   4.820   4.838   0.653
 2845SOL     OW 9433   4.427   2.463   3.031
 2845SOL    HW1 9434   4.439   2.558   3.003
 2845SOL    HW2 9435   4.470   2.449   3.120
 2846SOL     OW 9436   4.851   0.629   0.053
 2846SOL    HW1 9437   4.879   0.702   7.012
 2846SOL    HW2 9438   4.906   0.633   0.136
 2847SOL     OW 9439   4.649   4.401   2.150
 2847SOL    HW1 9440   4.605   4.346   2.221
 2847SOL    HW2 9441   4.628   4.362   2.060
 2848SOL     OW 9442   0.558   3.180   5.264
 2848SOL    HW1 9443   0.529   3.085   5.273
 2848SOL    HW2 9444   0.658   3.183   5.255
 2849SOL     OW 9445   3.492   0.250   2.622
 2849SOL    HW1 9446   3.563   0.306   2.580
 2849SOL    HW2 9447   3.486   0.162   2.574
 2850SOL     OW 9448   2.406   6.880   2.754
 2850SOL    HW1 9449   2.489   6.914   2.799
 2850SOL    HW2 9450   2.426   6.856   2.659
 2851SOL     OW 9451   4.362   3.179   1.086
 2851SOL    HW1 9452   4.454   3.159   1.119
 2851SOL    HW2 9453   4.347   3.135   0.998
 2852SOL     OW 9454   6.614   4.339   5.890
 2852SOL    HW1 9455   6.530   4.285   5.882
 2852SOL    HW2 9456   6.688   4.281   5.925
 2853SOL     OW 9457   0.122   3.936   0.408
 2853SOL    HW1 9458   0.159   4.028   0.416
 2853SOL    HW2 9459   0.062   3.931   0.327
 2854SOL     OW 9460   3.037   1.537   6.375
 2854SOL    HW1 9461   2.966   1.536   6.445
 2854SOL    HW2 9462   2.997   1.554   6.285
 2855SOL     OW 9463   1.557   1.747   4.542
 2855SOL    HW1 9464   1.610   1.816   4.591
 2855SOL    HW2 9465   1.547   1.774   4.447
 2856SOL     OW 9466   1.341   3.998   2.713
 2856SOL    HW1 9467   1.367   4.057   2.636
 2856SOL    HW2 9468   1.413   4.001   2.782
 2857SOL     OW 9469   0.487   3.143   0.911
 2857SOL    HW1 9470   0.454   3.128   0.818
 2857SOL    HW2 9471   0.413   3.126   0.975
 2858SOL     OW 9472   4.649   5.130   2.498
 2858SOL    HW1 9473   4.661   5.118   2.399
 2858SOL    HW2 9474   4.690   5.052   2.546
 2859SOL     OW 9475   5.208   5.936   1.411
 2859SOL    HW1 9476   5.125   5.901   1.369
 2859SOL    HW2 9477   5.249   5.866   1.469
 2860SOL     OW 9478   1.357   6.150   1.350
 2860SOL    HW1 9479   1.349   6.186   1.256
 2860SOL    HW2 9480   1.318   6.058   1.353
 2861SOL     OW 9481   4.065   4.674   6.395
 2861SOL    HW1 9482   4.136   4.689   6.327
 2861SOL    HW2 9483   4.107   4.660   6.485
 2862SOL     OW 9484   4.603   3.383   1.441
 2862SOL    HW1 9485   4.567   3.301   1.486
 2862SOL    HW2 9486   4.700   3.372   1.424
 2863SOL     OW 9487   6.189   6.842   5.847
 2863SOL    HW1 9488   6.238   6.859   5.932
 2863SOL    HW2 9489   6.109   6.903   5.842
 2864SOL     OW 9490   4.020   3.133   1.472
 2864SOL    HW1 9491   4.095   3.101   1.414
 2864SOL    HW2 9492   3.933   3.119   1.425
 2865SOL     OW 9493   5.186   6.033   4.528
 2865SOL    HW1 9494   5.128   6.104   4.566
 2865SOL    HW2 9495   5.153   5.943   4.557
 2866SOL     OW 9496   4.978   4.154   6.441
 2866SOL    HW1 9497   5.045   4.171   6.369
 2866SOL    HW2 9498   4.894   4.204   6.421
 2867SOL     OW 9499   6.190   6.740   1.854
 2867SOL    HW1 9500   6.218   6.716   1.947
 2867SOL    HW2 9501   6.247   6.690   1.789
 2868SOL     OW 9502   1.659   0.934   6.105
 2868SOL    HW1 9503   1.684   0.943   6.202
 2868SOL    HW2 9504   1.730   0.885   6.056
 2869SOL     OW 9505   5.592   6.177   3.658
 2869SOL    HW1 9506   5.563   6.215   3.570
 2869SOL    HW2 9507   5.545   6.225   3.732
 2870SOL     OW 9508   1.317   1.519   1.236
 2870SOL    HW1 9509   1.403   1.491   1.279
 2870SOL    HW2 9510   1.294   1.456   1.162
 2871SOL     OW 9511   6.713   2.010   1.479
 2871SOL    HW1 9512   6.675   2.099   1.456
 2871SOL    HW2 9513   6.661   1.938   1.433
 2872SOL     OW 9514   2.763   1.552   2.466
 2872SOL    HW1 9515   2.745   1.642   2.505
 2872SOL    HW2 9516   2.688   1.490   2.487
 2873SOL     OW 9517   0.626   5.908   1.271
 2873SOL    HW1 9518   0.539   5.895   1.223
 2873SOL    HW2 9519   0.702   5.889   1.210
 2874SOL     OW 9520   2.638   0.510   2.952
 2874SOL    HW1 9521   2.565   0.577   2.963
 2874SOL    HW2 9522   2.712   0.549   2.897
 2875SOL     OW 9523   2.915   6.957   2.426
 2875SOL    HW1 9524   2.937   0.033   2.416
 2875SOL    HW2 9525   2.830   6.948   2.478
 2876SOL     OW 9526   1.667   6.395   1.888
 2876SOL    HW1 9527   1.643   6.319   1.827
 2876SOL    HW2 9528   1.713   6.359   1.969
 2877SOL     OW 9529   1.536   0.927   5.762
 2877SOL    HW1 9530   1.516   0.831   5.745
 2877SOL    HW2 9531   1.615   0.934   5.822
 2878SOL     OW 9532   3.902   3.069   5.016
 2878SOL    HW1 9533   3.982   3.025   5.056
 2878SOL    HW2 9534   3.884   3.031   4.926
 2879SOL     OW 9535   3.952   4.193   5.585
 2879SOL    HW1 9536   3.973   4.247   5.667
 2879SOL    HW2 9537   4.011   4.112   5.583
 2880SOL     OW 9538   1.222   2.029   4.022
 2880SOL    HW1 9539   1.288   2.098   3.993
 2880SOL    HW2 9540   1.173   2.061   4.103
 2881SOL     OW 9541   3.258   6.136   6.383
 2881SOL    HW1 9542   3.168   6.142   6.426
 2881SOL    HW2 9543   3.311   6.218   6.405
 2882SOL     OW 9544   4.605   6.542   0.213
 2882SOL    HW1 9545   4.613   6.455   0.262
 2882SOL    HW2 9546   4.579   6.614   0.278
 2883SOL     OW 9547   6.073   6.415   3.099
 2883SOL    HW1 9548   5.984   6.451   3.128
 2883SOL    HW2 9549   6.132   6.490   3.071
 2884SOL     OW 9550   6.835   5.668   2.487
 2884SOL    HW1 9551   6.807   5.632   2.576
 2884SOL    HW2 9552   6.864   5.763   2.497
 2885SOL     OW 9553   1.162   3.225   2.697
 2885SOL    HW1 9554   1.169   3.185   2.605
 2885SOL    HW2 9555   1.245   3.204   2.749
 2886SOL     OW 9556   2.906   4.610   6.456
 2886SOL    HW1 9557   2.939   4.517   6.467
 2886SOL    HW2 9558   2.936   4.646   6.367
 2887SOL     OW 9559   0.857   6.787   4.267
 2887SOL    HW1 9560   0.806   6.798   4.353
 2887SOL    HW2 9561   0.793   6.782   4.191
 2888SOL     OW 9562   6.577   6.352   0.336
 2888SOL    HW1 9563   6.483   6.376   0.362
 2888SOL    HW2 9564   6.578   6.265   0.287
 2889SOL     OW 9565   2.963   6.938   3.050
 2889SOL    HW1 9566   2.870   6.955   3.080
 2889SOL    HW2 9567   2.998   6.855   3.092
 2890SOL     OW 9568   1.862   6.989   1.364
 2890SOL    HW1 9569   1.923   0.011   1.430
 2890SOL    HW2 9570   1.914   6.962   1.283
 2891SOL     OW 9571   6.694   3.298   2.649
 2891SOL    HW1 9572   6.745   3.252   2.721
 2891SOL    HW2 9573   6.607   3.252   2.634
 2892SOL     OW 9574   6.169   4.065   0.800
 2892SOL    HW1 9575   6.268   4.074   0.814
 2892SOL    HW2 9576   6.121   4.127   0.862
 2893SOL     OW 9577   0.405   5.580   4.874
 2893SOL    HW1 9578   0.362   5.549   4.790
 2893SOL    HW2 9579   0.336   5.616   4.936
 2894SOL     OW 9580   1.292   5.073   1.957
 2894SOL    HW1 9581   1.218   5.007   1.945
 2894SOL    HW2 9582   1.377   5.024   1.978
 2895SOL     OW 9583   3.783   0.134   5.961
 2895SOL    HW1 9584   3.766   0.047   5.914
 2895SOL    HW2 9585   3.799   0.206   5.893
 2896SOL     OW 9586   5.352   6.448   5.177
 2896SOL    HW1 9587   5.427   6.388   5.205
 2896SOL    HW2 9588   5.383   6.505   5.100
 2897SOL     OW 9589   2.947   4.945   3.388
 2897SOL    HW1 9590   3.015   4.906   3.325
 2897SOL    HW2 9591   2.858   4.950   3.341
 2898SOL     OW 9592   5.748   4.355   2.354
 2898SOL    HW1 9593   5.785   4.280   2.409
 2898SOL    HW2 9594   5.793   4.355   2.264
 2899SOL     OW 9595   6.632   2.384   0.923
 2899SOL    HW1 9596   6.617   2.438   1.005
 2899SOL    HW2 9597   6.729   2.360   0.916
 2900SOL     OW 9598   2.964   3.863   6.795
 2900SOL    HW1 9599   3.056   3.833   6.769
 2900SOL    HW2 9600   2.942   3.947   6.746
 2901SOL     OW 9601   1.663   4.402   3.320
 2901SOL    HW1 9602   1.632   4.317   3.277
 2901SOL    HW2 9603   1.729   4.447   3.260
 2902SOL     OW 9604   0.346   5.475   3.880
 2902SOL    HW1 9605   0.319   5.569   3.858
 2902SOL    HW2 9606   0.433   5.476   3.930
 2903SOL     OW 9607   4.243   5.983   0.607
 2903SOL    HW1 9608   4.307   5.907   0.589
 2903SOL    HW2 9609   4.272   6.063   0.555
 2904SOL     OW 9610   2.770   4.401   5.394
 2904SOL    HW1 9611   2.795   4.449   5.310
 2904SOL    HW2 9612   2.815   4.312   5.395
 2905SOL     OW 9613   1.047   4.311   2.312
 2905SOL    HW1 9614   0.998   4.388   2.272
 2905SOL    HW2 9615   0.985   4.257   2.368
 2906SOL     OW 9616   5.688   5.825   3.066
 2906SOL    HW1 9617   5.734   5.774   3.139
 2906SOL    HW2 9618   5.635   5.900   3.106
 2907SOL     OW 9619   0.865   0.382   3.596
 2907SOL    HW1 9620   0.915   0.395   3.510
 2907SOL    HW2 9621   0.927   0.343   3.664
 2908SOL     OW 9622   4.983   6.875   3.086
 2908SOL    HW1 9623   5.040   6.801   3.120
 2908SOL    HW2 9624   4.973   6.945   3.157
 2909SOL     OW 9625   1.143   5.730   1.753
 2909SOL    HW1 9626   1.120   5.638   1.783
 2909SOL    HW2 9627   1.067   5.792   1.772
 2910SOL     OW 9628   0.178   1.145   3.319
 2910SOL    HW1 9629   0.272   1.161   3.347
 2910SOL    HW2 9630   0.171   1.055   3.276
 2911SOL     OW 9631   6.675   4.474   3.463
 2911SOL    HW1 9632   6.699   4.534   3.540
 2911SOL    HW2 9633   6.737   4.494   3.387
 2912SOL     OW 9634   6.757   6.559   0.286
 2912SOL    HW1 9635   6.709   6.489   0.339
 2912SOL    HW2 9636   6.691   6.615   0.237
 2913SOL     OW 9637   1.985   5.160   1.507
 2913SOL    HW1 9638   1.985   5.152   1.408
 2913SOL    HW2 9639   1.894   5.140   1.542
 2914SOL     OW 9640   5.744   4.834   0.636
 2914SOL    HW1 9641   5.698   4.758   0.591
 2914SOL    HW2 9642   5.797   4.886   0.569
 2915SOL     OW 9643   3.759   1.791   2.736
 2915SOL    HW1 9644   3.681   1.820   2.680
 2915SOL    HW2 9645   3.764   1.846   2.818
 2916SOL     OW 9646   2.415   5.645   0.301
 2916SOL    HW1 9647   2.360   5.585   0.243
 2916SOL    HW2 9648   2.362   5.727   0.324
 2917SOL     OW 9649   2.315   6.959   3.106
 2917SOL    HW1 9650   2.405   6.918   3.125
 2917SOL    HW2 9651   2.327   0.036   3.090
 2918SOL     OW 9652   6.035   4.272   0.910
 2918SOL    HW1 9653   6.039   4.371   0.898
 2918SOL    HW2 9654   5.943   4.246   0.939
 2919SOL     OW 9655   0.793   6.562   4.585
 2919SOL    HW1 9656   0.841   6.474   4.581
 2919SOL    HW2 9657   0.849   6.628   4.635
 2920SOL     OW 9658   1.421   0.477   2.029
 2920SOL    HW1 9659   1.392   0.545   2.096
 2920SOL    HW2 9660   1.498   0.513   1.976
 2921SOL     OW 9661   0.127   0.190   5.801
 2921SOL    HW1 9662   0.041   0.181   5.852
 2921SOL    HW2 9663   0.202   0.211   5.864
 2922SOL     OW 9664   4.581   0.994   3.535
 2922SOL    HW1 9665   4.502   1.048   3.564
 2922SOL    HW2 9666   4.551   0.903   3.507
 2923SOL     OW 9667   6.282   4.805   5.193
 2923SOL    HW1 9668   6.307   4.724   5.140
 2923SOL    HW2 9669   6.248   4.776   5.283
 2924SOL     OW 9670   6.947   2.277   5.281
 2924SOL    HW1 9671   7.003   2.233   5.210
 2924SOL    HW2 9672   6.968   2.375   5.284
 2925SOL     OW 9673   5.578   1.149   5.629
 2925SOL    HW1 9674   5.543   1.163   5.722
 2925SOL    HW2 9675   5.614   1.056   5.621
 2926SOL     OW 9676   0.641   1.510   4.780
 2926SOL    HW1 9677   0.641   1.584   4.846
 2926SOL    HW2 9678   0.555   1.511   4.729
 2927SOL     OW 9679   1.786   2.582   1.665
 2927SOL    HW1 9680   1.878   2.602   1.700
 2927SOL    HW2 9681   1.718   2.629   1.721
 2928SOL     OW 9682   6.412   2.025   0.089
 2928SOL    HW1 9683   6.403   2.068   0.179
 2928SOL    HW2 9684   6.508   2.027   0.060
 2929SOL     OW 9685   1.997   2.339   4.579
 2929SOL    HW1 9686   2.086   2.317   4.619
 2929SOL    HW2 9687   1.926   2.334   4.649
 2930SOL     OW 9688   6.690   5.624   4.885
 2930SOL    HW1 9689   6.669   5.693   4.954
 2930SOL    HW2 9690   6.726   5.669   4.803
 2931SOL     OW 9691   4.179   4.045   6.567
 2931SOL    HW1 9692   4.113   3.988   6.517
 2931SOL    HW2 9693   4.160   4.039   6.665
 2932SOL     OW 9694   6.766   5.717   0.714
 2932SOL    HW1 9695   6.729   5.757   0.630
 2932SOL    HW2 9696   6.734   5.623   0.723
 2933SOL     OW 9697   0.987   6.940   0.912
 2933SOL    HW1 9698   0.994   6.845   0.883
 2933SOL    HW2 9699   0.923   6.947   0.989
 2934SOL     OW 9700   4.163   3.423   0.616
 2934SOL    HW1 9701   4.140   3.360   0.690
 2934SOL    HW2 9702   4.200   3.507   0.655
 2935SOL     OW 9703   0.520   2.442   6.412
 2935SOL    HW1 9704   0.555   2.522   6.364
 2935SOL    HW2 9705   0.452   2.396   6.355
 2936SOL     OW 9706   4.745   0.586   0.619
 2936SOL    HW1 9707   4.777   0.625   0.706
 2936SOL    HW2 9708   4.700   0.657   0.565
 2937SOL     OW 9709   4.030   5.601   1.639
 2937SOL    HW1 9710   4.073   5.512   1.629
 2937SOL    HW2 9711   4.026   5.626   1.736
 2938SOL     OW 9712   6.437   6.259   6.334
 2938SOL    HW1 9713   6.479   6.247   6.243
 2938SOL    HW2 9714   6.343   6.292   6.323
 2939SOL     OW 9715   0.094   5.551   1.591
 2939SOL    HW1 9716   0.002   5.522   1.618
 2939SOL    HW2 9717   0.096   5.566   1.492
 2940SOL     OW 9718   5.733   5.956   4.051
 2940SOL    HW1 9719   5.803   5.885   4.037
 2940SOL    HW2 9720   5.658   5.919   4.105
 2941SOL     OW 9721   1.956   3.151   3.610
 2941SOL    HW1 9722   1.869   3.145   3.562
 2941SOL    HW2 9723   1.998   3.060   3.613
 2942SOL     OW 9724   2.656   1.422   7.006
 2942SOL    HW1 9725   2.636   1.380   0.073
 2942SOL    HW2 9726   2.587   1.491   6.985
 2943SOL     OW 9727   6.174   4.371   3.554
 2943SOL    HW1 9728   6.274   4.365   3.543
 2943SOL    HW2 9729   6.138   4.281   3.579
 2944SOL     OW 9730   2.743   6.224   4.176
 2944SOL    HW1 9731   2.834   6.257   4.197
 2944SOL    HW2 9732   2.709   6.167   4.251
 2945SOL     OW 9733   5.400   4.372   1.379
 2945SOL    HW1 9734   5.308   4.343   1.351
 2945SOL    HW2 9735   5.461   4.293   1.381
 2946SOL     OW 9736   2.955   3.992   6.135
 2946SOL    HW1 9737   2.941   4.045   6.052
 2946SOL    HW2 9738   2.926   3.897   6.119
 2947SOL     OW 9739   6.073   6.183   0.860
 2947SOL    HW1 9740   6.038   6.147   0.946
 2947SOL    HW2 9741   6.005   6.170   0.788
 2948SOL     OW 9742   5.721   4.410   3.037
 2948SOL    HW1 9743   5.740   4.459   3.122
 2948SOL    HW2 9744   5.806   4.370   3.002
 2949SOL     OW 9745   1.222   6.907   1.261
 2949SOL    HW1 9746   1.261   6.959   1.337
 2949SOL    HW2 9747   1.126   6.885   1.281
 2950SOL     OW 9748   4.734   4.884   2.572
 2950SOL    HW1 9749   4.827   4.912   2.593
 2950SOL    HW2 9750   4.735   4.805   2.512
 2951SOL     OW 9751   5.762   0.776   1.171
 2951SOL    HW1 9752   5.696   0.733   1.232
 2951SOL    HW2 9753   5.788   0.712   1.099
 2952SOL     OW 9754   5.832   0.939   4.389
 2952SOL    HW1 9755   5.782   0.931   4.302
 2952SOL    HW2 9756   5.928   0.920   4.373
 2953SOL     OW 9757   0.880   6.023   3.273
 2953SOL    HW1 9758   0.786   5.988   3.266
 2953SOL    HW2 9759   0.930   6.001   3.189
 2954SOL     OW 9760   0.991   4.371   6.359
 2954SOL    HW1 9761   1.032   4.280   6.358
 2954SOL    HW2 9762   0.936   4.382   6.442
 2955SOL     OW 9763   1.330   3.944   6.965
 2955SOL    HW1 9764   1.231   3.945   6.969
 2955SOL    HW2 9765   1.362   3.849   6.958
 2956SOL     OW 9766   6.764   4.553   3.722
 2956SOL    HW1 9767   6.830   4.478   3.730
 2956SOL    HW2 9768   6.780   4.621   3.793
 2957SOL     OW 9769   3.007   4.968   1.667
 2957SOL    HW1 9770   2.952   5.000   1.590
 2957SOL    HW2 9771   3.009   4.868   1.667
 2958SOL     OW 9772   2.078   5.042   3.180
 2958SOL    HW1 9773   2.009   5.000   3.239
 2958SOL    HW2 9774   2.169   5.026   3.219
 2959SOL     OW 9775   6.102   2.350   2.716
 2959SOL    HW1 9776   6.181   2.392   2.671
 2959SOL    HW2 9777   6.125   2.256   2.741
 2960SOL     OW 9778   4.270   0.788   0.377
 2960SOL    HW1 9779   4.306   0.814   0.467
 2960SOL    HW2 9780   4.236   0.694   0.380
 2961SOL     OW 9781   5.441   4.284   2.085
 2961SOL    HW1 9782   5.348   4.305   2.114
 2961SOL    HW2 9783   5.445   4.188   2.055
 2962SOL     OW 9784   6.484   6.580   2.298
 2962SOL    HW1 9785   6.467   6.510   2.368
 2962SOL    HW2 9786   6.397   6.622   2.271
 2963SOL     OW 9787   1.263   0.992   5.708
 2963SOL    HW1 9788   1.355   0.973   5.740
 2963SOL    HW2 9789   1.208   0.908   5.711
 2964SOL     OW 9790   0.715   3.071   6.864
 2964SOL    HW1 9791   0.692   3.003   6.934
 2964SOL    HW2 9792   0.631   3.118   6.836
 2965SOL     OW 9793   0.702   0.479   4.956
 2965SOL    HW1 9794   0.766   0.502   4.882
 2965SOL    HW2 9795   0.634   0.552   4.965
 2966SOL     OW 9796   4.112   5.623   3.485
 2966SOL    HW1 9797   4.159   5.541   3.454
 2966SOL    HW2 9798   4.083   5.678   3.407
 2967SOL     OW 9799   6.508   1.114   5.774
 2967SOL    HW1 9800   6.570   1.038   5.794
 2967SOL    HW2 9801   6.556   1.200   5.788
 2968SOL     OW 9802   1.837   2.252   1.302
 2968SOL    HW1 9803   1.747   2.290   1.277
 2968SOL    HW2 9804   1.856   2.272   1.398
 2969SOL     OW 9805   5.282   3.988   4.631
 2969SOL    HW1 9806   5.258   3.918   4.698
 2969SOL    HW2 9807   5.221   4.067   4.641
 2970SOL     OW 9808   2.164   2.832   4.961
 2970SOL    HW1 9809   2.099   2.884   4.904
 2970SOL    HW2 9810   2.234   2.895   4.997
 2971SOL     OW 9811   5.739   3.883   6.980
 2971SOL    HW1 9812   5.672   3.812   7.003
 2971SOL    HW2 9813   5.811   3.884   0.027
 2972SOL     OW 9814   5.940   5.612   6.135
 2972SOL    HW1 9815   5.986   5.523   6.133
 2972SOL    HW2 9816   5.841   5.599   6.124
 2973SOL     OW 9817   5.169   6.907   2.058
 2973SOL    HW1 9818   5.222   6.969   2.117
 2973SOL    HW2 9819   5.219   6.820   2.048
 2974SOL     OW 9820   5.730   4.920   3.784
 2974SOL    HW1 9821   5.666   4.853   3.821
 2974SOL    HW2 9822   5.681   4.982   3.723
 2975SOL     OW 9823   4.829   4.660   4.238
 2975SOL    HW1 9824   4.859   4.606   4.317
 2975SOL    HW2 9825   4.819   4.755   4.266
 2976SOL     OW 9826   4.950   2.256   2.590
 2976SOL    HW1 9827   5.049   2.242   2.580
 2976SOL    HW2 9828   4.918   2.318   2.519
 2977SOL     OW 9829   0.177   0.093   1.638
 2977SOL    HW1 9830   0.248   0.107   1.708
 2977SOL    HW2 9831   0.212   0.122   1.549
 2978SOL     OW 9832   4.138   4.330   5.898
 2978SOL    HW1 9833   4.206   4.378   5.843
 2978SOL    HW2 9834   4.124   4.380   5.984
 2979SOL     OW 9835   2.872   1.767   4.615
 2979SOL    HW1 9836   2.938   1.814   4.557
 2979SOL    HW2 9837   2.787   1.819   4.618
 2980SOL     OW 9838   4.064   3.905   6.357
 2980SOL    HW1 9839   4.033   3.822   6.313
 2980SOL    HW2 9840   4.147   3.938   6.312
 2981SOL     OW 9841   1.971   1.171   0.794
 2981SOL    HW1 9842   2.061   1.160   0.751
 2981SOL    HW2 9843   1.938   1.082   0.825
 2982SOL     OW 9844   1.606   6.679   2.144
 2982SOL    HW1 9845   1.586   6.664   2.047
 2982SOL    HW2 9846   1.521   6.705   2.192
 2983SOL     OW 9847   6.157   3.145   0.169
 2983SOL    HW1 9848   6.145   3.113   0.075
 2983SOL    HW2 9849   6.110   3.232   0.182
 2984SOL     OW 9850   6.320   4.945   6.923
 2984SOL    HW1 9851   6.374   5.029   6.919
 2984SOL    HW2 9852   6.231   4.964   6.965
 2985SOL     OW 9853   0.512   0.398   4.740
 2985SOL    HW1 9854   0.423   0.367   4.774
 2985SOL    HW2 9855   0.556   0.456   4.809
 2986SOL     OW 9856   3.415   4.120   2.587
 2986SOL    HW1 9857   3.472   4.078   2.516
 2986SOL    HW2 9858   3.474   4.160   2.657
 2987SOL     OW 9859   0.789   2.070   4.275
 2987SOL    HW1 9860   0.708   2.053   4.219
 2987SOL    HW2 9861   0.773   2.148   4.335
 2988SOL     OW 9862   1.253   1.340   0.999
 2988SOL    HW1 9863   1.160   1.326   0.967
 2988SOL    HW2 9864   1.296   1.413   0.945
 2989SOL     OW 9865   5.163   3.194   4.974
 2989SOL    HW1 9866   5.206   3.282   4.990
 2989SOL    HW2 9867   5.081   3.185   5.031
 2990SOL     OW 9868   4.964   1.801   4.861
 2990SOL    HW1 9869   5.004   1.864   4.928
 2990SOL    HW2 9870   4.870   1.828   4.842
 2991SOL     OW 9871   5.796   3.085   0.706
 2991SOL    HW1 9872   5.797   2.988   0.680
 2991SOL    HW2 9873   5.890   3.120   0.706
 2992SOL     OW 9874   0.540   3.709   5.410
 2992SOL    HW1 9875   0.515   3.646   5.337
 2992SOL    HW2 9876   0.556   3.800   5.372
 2993SOL     OW 9877   0.771   4.805   6.615
 2993SOL    HW1 9878   0.797   4.750   6.535
 2993SOL    HW2 9879   0.853   4.846   6.655
 2994SOL     OW 9880   4.641   6.303   0.010
 2994SOL    HW1 9881   4.738   6.307   7.007
 2994SOL    HW2 9882   4.612   6.392   0.044
 2995SOL     OW 9883   4.592   0.347   0.588
 2995SOL    HW1 9884   4.652   0.424   0.611
 2995SOL    HW2 9885   4.622   0.266   0.638
 2996SOL     OW 9886   1.716   1.932   4.661
 2996SOL    HW1 9887   1.816   1.933   4.653
 2996SOL    HW2 9888   1.683   2.023   4.683
 2997SOL     OW 9889   5.229   0.818   3.350
 2997SOL    HW1 9890   5.144   0.869   3.343
 2997SOL    HW2 9891   5.245   0.794   3.446
 2998SOL     OW 9892   2.664   0.862   3.180
 2998SOL    HW1 9893   2.631   0.817   3.097
 2998SOL    HW2 9894   2.759   0.836   3.197
 2999SOL     OW 9895   2.571   4.331   0.438
 2999SOL    HW1 9896   2.533   4.242   0.463
 2999SOL    HW2 9897   2.661   4.318   0.395
 3000SOL     OW 9898   2.889   3.589   5.166
 3000SOL    HW1 9899   2.838   3.673   5.179
 3000SOL    HW2 9900   2.987   3.608   5.172
 3001SOL     OW 9901   6.089   1.763   6.302
 3001SOL    HW1 9902   6.110   1.685   6.361
 3001SOL    HW2 9903   6.152   1.838   6.322
 3002SOL     OW 9904   2.918   1.259   1.522
 3002SOL    HW1 9905   2.961   1.224   1.438
 3002SOL    HW2 9906   2.876   1.183   1.572
 3003SOL     OW 9907   1.134   6.100   0.514
 3003SOL    HW1 9908   1.088   6.031   0.458
 3003SOL    HW2 9909   1.226   6.115   0.479
 3004SOL     OW 9910   2.732   5.073   4.061
 3004SOL    HW1 9911   2.692   5.039   4.146
 3004SOL    HW2 9912   2.787   5.001   4.019
 3005SOL     OW 9913   1.396   2.921   5.971
 3005SOL    HW1 9914   1.340   3.003   5.983
 3005SOL    HW2 9915   1.339   2.847   5.935
 3006SOL     OW 9916   4.972   2.121   5.423
 3006SOL    HW1 9917   4.893   2.097   5.479
 3006SOL    HW2 9918   5.003   2.041   5.373
 3007SOL     OW 9919   5.591   5.498   0.065
 3007SOL    HW1 9920   5.629   5.417   0.022
 3007SOL    HW2 9921   5.509   5.527   0.016
 3008SOL     OW 9922   4.042   2.502   5.862
 3008SOL    HW1 9923   4.011   2.412   5.894
 3008SOL    HW2 9924   4.091   2.491   5.776
 3009SOL     OW 9925   0.447   2.961   3.096
 3009SOL    HW1 9926   0.402   2.934   3.181
 3009SOL    HW2 9927   0.441   2.885   3.031
 3010SOL     OW 9928   4.180   5.671   6.366
 3010SOL    HW1 9929   4.185   5.585   6.314
 3010SOL    HW2 9930   4.207   5.654   6.461
 3011SOL     OW 9931   5.978   0.150   1.134
 3011SOL    HW1 9932   6.040   0.083   1.175
 3011SOL    HW2 9933   5.912   0.103   1.076
 3012SOL     OW 9934   2.693   3.151   6.095
 3012SOL    HW1 9935   2.748   3.234   6.084
 3012SOL    HW2 9936   2.656   3.148   6.188
 3013SOL     OW 9937   0.167   6.302   4.278
 3013SOL    HW1 9938   0.186   6.379   4.218
 3013SOL    HW2 9939   0.126   6.227   4.226
 3014SOL     OW 9940   4.836   1.155   5.449
 3014SOL    HW1 9941   4.896   1.213   5.394
 3014SOL    HW2 9942   4.767   1.211   5.495
 3015SOL     OW 9943   1.380   0.764   0.617
 3015SOL    HW1 9944   1.291   0.784   0.576
 3015SOL    HW2 9945   1.452   0.802   0.560
 3016SOL     OW 9946   2.886   6.595   4.333
 3016SOL    HW1 9947   2.946   6.548   4.398
 3016SOL    HW2 9948   2.877   6.691   4.358
 3017SOL     OW 9949   6.173   5.825   1.992
 3017SOL    HW1 9950   6.250   5.789   2.043
 3017SOL    HW2 9951   6.191   5.818   1.894
 3018SOL     OW 9952   3.427   0.154   0.337
 3018SOL    HW1 9953   3.415   0.089   0.262
 3018SOL    HW2 9954   3.508   0.129   0.390
 3019SOL     OW 9955   1.535   6.479   6.540
 3019SOL    HW1 9956   1.628   6.513   6.526
 3019SOL    HW2 9957   1.486   6.541   6.601
 3020SOL     OW 9958   5.208   3.443   6.979
 3020SOL    HW1 9959   5.225   3.484   6.889
 3020SOL    HW2 9960   5.263   3.360   6.989
 3021SOL     OW 9961   3.423   6.440   5.161
 3021SOL    HW1 9962   3.518   6.431   5.192
 3021SOL    HW2 9963   3.417   6.411   5.065
 3022SOL     OW 9964   3.816   5.807   3.484
 3022SOL    HW1 9965   3.862   5.803   3.395
 3022SOL    HW2 9966   3.717   5.812   3.470
 3023SOL     OW 9967   4.370   6.639   2.843
 3023SOL    HW1 9968   4.315   6.685   2.773
 3023SOL    HW2 9969   4.379   6.542   2.820
 3024SOL     OW 9970   0.277   6.608   6.192
 3024SOL    HW1 9971   0.234   6.554   6.119
 3024SOL    HW2 9972   0.220   6.605   6.274
 3025SOL     OW 9973   4.117   6.017   0.858
 3025SOL    HW1 9974   4.135   5.994   0.762
 3025SOL    HW2 9975   4.203   6.021   0.908
 3026SOL     OW 9976   5.553   1.440   0.314
 3026SOL    HW1 9977   5.573   1.457   0.411
 3026SOL    HW2 9978   5.553   1.527   0.265
 3027SOL     OW 9979   4.974   1.668   1.690
 3027SOL    HW1 9980   4.889   1.694   1.736
 3027SOL    HW2 9981   4.969   1.572   1.663
 3028SOL     OW 9982   2.442   4.356   6.517
 3028SOL    HW1 9983   2.474   4.414   6.442
 3028SOL    HW2 9984   2.450   4.260   6.491
 3029SOL     OW 9985   1.003   2.469   4.329
 3029SOL    HW1 9986   1.026   2.547   4.270
 3029SOL    HW2 9987   0.999   2.499   4.424
 3030SOL     OW 9988   1.398   4.160   1.366
 3030SOL    HW1 9989   1.470   4.199   1.424
 3030SOL    HW2 9990   1.430   4.073   1.328
 3031SOL     OW 9991   1.663   5.676   1.080
 3031SOL    HW1 9992   1.752   5.641   1.107
 3031SOL    HW2 9993   1.650   5.768   1.117
 3032SOL     OW 9994   1.565   0.346   2.810
 3032SOL    HW1 9995   1.520   0.379   2.727
 3032SOL    HW2 9996   1.537   0.252   2.829
 3033SOL     OW 9997   6.394   2.429   4.772
 3033SOL    HW1 9998   6.365   2.380   4.855
 3033SOL    HW2 9999   6.459   2.501   4.797
 3034SOL     OW10000   0.601   6.137   3.718
 3034SOL    HW110001   0.613   6.230   3.752
 3034SOL    HW210002   0.689   6.090   3.719
 3035SOL     OW10003   1.739   2.475   6.194
 3035SOL    HW110004   1.824   2.459   6.143
 3035SOL    HW210005   1.671   2.516   6.134
 3036SOL     OW10006   2.025   2.340   6.435
 3036SOL    HW110007   2.063   2.369   6.522
 3036SOL    HW210008   2.037   2.412   6.367
 3037SOL     OW10009   0.688   5.491   6.039
 3037SOL    HW110010   0.667   5.537   5.953
 3037SOL    HW210011   0.749   5.548   6.093
 3038SOL     OW10012   4.877   5.072   6.255
 3038SOL    HW110013   4.908   5.135   6.327
 3038SOL    HW210014   4.957   5.036   6.207
 3039SOL     OW10015   6.058   3.913   6.676
 3039SOL    HW110016   6.081   3.853   6.752
 3039SOL    HW210017   6.000   3.988   6.708
 3040SOL     OW10018   3.670   4.149   5.776
 3040SOL    HW110019   3.609   4.227   5.792
 3040SOL    HW210020   3.765   4.177   5.790
 3041SOL     OW10021   2.016   4.182   5.155
 3041SOL    HW110022   1.975   4.092   5.168
 3041SOL    HW210023   2.113   4.179   5.179
 3042SOL     OW10024   0.497   4.997   3.220
 3042SOL    HW110025   0.548   4.958   3.143
 3042SOL    HW210026   0.561   5.017   3.294
 3043SOL     OW10027   3.052   3.936   1.048
 3043SOL    HW110028   3.106   3.932   1.132
 3043SOL    HW210029   3.082   4.013   0.992
 3044SOL     OW10030   3.342   3.787   4.859
 3044SOL    HW110031   3.342   3.688   4.847
 3044SOL    HW210032   3.393   3.811   4.941
 3045SOL     OW10033   5.037   1.400   3.010
 3045SOL    HW110034   5.091   1.474   2.970
 3045SOL    HW210035   4.947   1.435   3.036
 3046SOL     OW10036   5.532   5.377   0.604
 3046SOL    HW110037   5.562   5.317   0.678
 3046SOL    HW210038   5.536   5.327   0.518
 3047SOL     OW10039   6.092   0.142   7.020
 3047SOL    HW110040   6.011   0.195   6.996
 3047SOL    HW210041   6.147   0.193   0.063
 3048SOL     OW10042   4.217   3.077   1.283
 3048SOL    HW110043   4.223   3.095   1.184
 3048SOL    HW210044   4.303   3.105   1.326
 3049SOL     OW10045   1.521   0.694   4.261
 3049SOL    HW110046   1.480   0.611   4.223
 3049SOL    HW210047   1.511   0.769   4.195
 3050SOL     OW10048   3.083   2.381   0.986
 3050SOL    HW110049   3.176   2.372   0.952
 3050SOL    HW210050   3.022   2.320   0.935
 3051SOL     OW10051   2.387   6.844   4.987
 3051SOL    HW110052   2.448   6.903   4.935
 3051SOL    HW210053   2.430   6.754   5.000
 3052SOL     OW10054   5.763   6.270   2.538
 3052SOL    HW110055   5.688   6.259   2.604
 3052SOL    HW210056   5.831   6.333   2.576
 3053SOL     OW10057   2.042   4.151   0.259
 3053SOL    HW110058   2.012   4.247   0.257
 3053SOL    HW210059   2.137   4.146   0.229
 3054SOL     OW10060   5.521   1.380   2.674
 3054SOL    HW110061   5.594   1.417   2.730
 3054SOL    HW210062   5.481   1.452   2.618
 3055SOL     OW10063   5.998   6.156   6.554
 3055SOL    HW110064   5.958   6.227   6.613
 3055SOL    HW210065   6.040   6.085   6.611
 3056SOL     OW10066   4.871   1.755   6.610
 3056SOL    HW110067   4.894   1.690   6.683
 3056SOL    HW210068   4.943   1.752   6.541
 3057SOL     OW10069   6.128   5.526   3.487
 3057SOL    HW110070   6.078   5.604   3.523
 3057SOL    HW210071   6.065   5.449   3.474
 3058SOL     OW10072   5.791   4.224   0.388
 3058SOL    HW110073   5.742   4.222   0.475
 3058SOL    HW210074   5.818   4.317   0.368
 3059SOL     OW10075   2.259   2.755   4.546
 3059SOL    HW110076   2.324   2.699   4.494
 3059SOL    HW210077   2.261   2.849   4.511
 3060SOL     OW10078   3.562   5.035   5.536
 3060SOL    HW110079   3.476   4.988   5.554
 3060SOL    HW210080   3.631   4.969   5.508
 3061SOL     OW10081   5.328   4.649   5.726
 3061SOL    HW110082   5.261   4.699   5.670
 3061SOL    HW210083   5.420   4.669   5.692
 3062SOL     OW10084   4.317   4.431   1.439
 3062SOL    HW110085   4.397   4.480   1.406
 3062SOL    HW210086   4.303   4.451   1.536
 3063SOL     OW10087   0.197   4.176   1.355
 3063SOL    HW110088   0.127   4.115   1.393
 3063SOL    HW210089   0.257   4.208   1.428
 3064SOL     OW10090   3.931   2.624   6.869
 3064SOL    HW110091   3.879   2.700   6.908
 3064SOL    HW210092   3.938   2.636   6.770
 3065SOL     OW10093   1.123   0.951   0.296
 3065SOL    HW110094   1.205   0.993   0.335
 3065SOL    HW210095   1.135   0.941   0.197
 3066SOL     OW10096   4.951   5.528   5.309
 3066SOL    HW110097   4.940   5.620   5.346
 3066SOL    HW210098   4.874   5.507   5.248
 3067SOL     OW10099   2.681   1.945   6.861
 3067SOL    HW110100   2.768   1.941   6.813
 3067SOL    HW210101   2.630   1.861   6.846
 3068SOL     OW10102   0.480   1.181   1.204
 3068SOL    HW110103   0.553   1.166   1.138
 3068SOL    HW210104   0.495   1.124   1.285
 3069SOL     OW10105   5.237   6.877   2.843
 3069SOL    HW110106   5.236   6.947   2.772
 3069SOL    HW210107   5.182   6.909   2.921
 3070SOL     OW10108   3.084   1.547   0.811
 3070SOL    HW110109   3.165   1.526   0.865
 3070SOL    HW210110   3.002   1.516   0.861
 3071SOL     OW10111   0.265   3.195   3.501
 3071SOL    HW110112   0.216   3.154   3.579
 3071SOL    HW210113   0.345   3.139   3.479
 3072SOL     OW10114   2.130   6.441   6.756
 3072SOL    HW110115   2.130   6.343   6.737
 3072SOL    HW210116   2.061   6.462   6.825
 3073SOL     OW10117   6.125   4.718   0.629
 3073SOL    HW110118   6.100   4.718   0.726
 3073SOL    HW210119   6.196   4.787   0.613
 3074SOL     OW10120   0.991   3.740   1.031
 3074SOL    HW110121   1.022   3.646   1.048
 3074SOL    HW210122   1.068   3.802   1.043
 3075SOL     OW10123   2.244   5.426   3.812
 3075SOL    HW110124   2.149   5.396   3.802
 3075SOL    HW210125   2.292   5.413   3.726
 3076SOL     OW10126   0.368   1.496   4.681
 3076SOL    HW110127   0.297   1.556   4.644
 3076SOL    HW210128   0.344   1.401   4.661
 3077SOL     OW10129   6.610   3.963   1.043
 3077SOL    HW110130   6.596   3.989   1.138
 3077SOL    HW210131   6.706   3.977   1.019
 3078SOL     OW10132   6.457   2.806   1.746
 3078SOL    HW110133   6.508   2.874   1.693
 3078SOL    HW210134   6.452   2.721   1.695
 3079SOL     OW10135   2.111   2.775   5.221
 3079SOL    HW110136   2.093   2.687   5.265
 3079SOL    HW210137   2.124   2.761   5.122
 3080SOL     OW10138   4.668   4.917   0.967
 3080SOL    HW110139   4.663   4.964   1.055
 3080SOL    HW210140   4.755   4.939   0.923
 3081SOL     OW10141   1.358   4.048   0.799
 3081SOL    HW110142   1.434   4.108   0.772
 3081SOL    HW210143   1.331   3.991   0.721
 3082SOL     OW10144   3.498   5.265   4.427
 3082SOL    HW110145   3.443   5.296   4.350
 3082SOL    HW210146   3.503   5.166   4.427
 3083SOL     OW10147   2.014   5.851   2.888
 3083SOL    HW110148   1.920   5.838   2.920
 3083SOL    HW210149   2.043   5.945   2.905
 3084SOL     OW10150   1.134   3.753   3.356
 3084SOL    HW110151   1.188   3.836   3.370
 3084SOL    HW210152   1.124   3.704   3.443
 3085SOL     OW10153   4.563   5.023   0.685
 3085SOL    HW110154   4.632   5.094   0.703
 3085SOL    HW210155   4.509   5.049   0.605
 3086SOL     OW10156   6.153   1.206   6.786
 3086SOL    HW110157   6.235   1.156   6.815
 3086SOL    HW210158   6.174   1.259   6.704
 3087SOL     OW10159   3.070   6.811   1.892
 3087SOL    HW110160   3.033   6.810   1.985
 3087SOL    HW210161   3.030   6.735   1.840
 3088SOL     OW10162   0.488   2.907   5.601
 3088SOL    HW110163   0.514   2.995   5.641
 3088SOL    HW210164   0.570   2.862   5.564
 3089SOL     OW10165   4.835   0.150   4.981
 3089SOL    HW110166   4.770   0.171   5.054
 3089SOL    HW210167   4.919   0.202   4.995
 3090SOL     OW10168   0.977   1.761   1.556
 3090SOL    HW110169   1.039   1.825   1.602
 3090SOL    HW210170   0.896   1.811   1.523
 3091SOL     OW10171   1.654   1.686   1.096
 3091SOL    HW110172   1.645   1.699   0.997
 3091SOL    HW210173   1.623   1.769   1.143
 3092SOL     OW10174   5.770   0.163   2.424
 3092SOL    HW110175   5.734   0.083   2.472
 3092SOL    HW210176   5.837   0.209   2.482
 3093SOL     OW10177   5.622   5.255   6.118
 3093SOL    HW110178   5.590   5.263   6.024
 3093SOL    HW210179   5.559   5.198   6.171
 3094SOL     OW10180   2.675   0.972   5.951
 3094SOL    HW110181   2.636   1.064   5.964
 3094SOL    HW210182   2.643   0.934   5.864
 3095SOL     OW10183   2.395   2.841   5.295
 3095SOL    HW110184   2.439   2.914   5.243
 3095SOL    HW210185   2.298   2.836   5.270
 3096SOL     OW10186   0.748   3.432   4.951
 3096SOL    HW110187   0.768   3.462   5.045
 3096SOL    HW210188   0.784   3.340   4.938
 3097SOL     OW10189   5.920   2.242   6.605
 3097SOL    HW110190   5.972   2.312   6.654
 3097SOL    HW210191   5.944   2.152   6.640
 3098SOL     OW10192   2.064   1.679   2.217
 3098SOL    HW110193   2.163   1.678   2.200
 3098SOL    HW210194   2.024   1.593   2.185
 3099SOL     OW10195   0.789   6.652   3.840
 3099SOL    HW110196   0.859   6.724   3.839
 3099SOL    HW210197   0.718   6.674   3.773
 3100SOL     OW10198   6.444   6.318   2.869
 3100SOL    HW110199   6.437   6.346   2.774
 3100SOL    HW210200   6.357   6.334   2.916
 3101SOL     OW10201   4.393   6.720   5.874
 3101SOL    HW110202   4.375   6.685   5.782
 3101SOL    HW210203   4.492   6.724   5.888
 3102SOL     OW10204   0.097   5.205   0.406
 3102SOL    HW110205   0.095   5.303   0.427
 3102SOL    HW210206   0.170   5.161   0.459
 3103SOL     OW10207   3.101   0.076   1.399
 3103SOL    HW110208   3.075   0.106   1.490
 3103SOL    HW210209   3.154   0.148   1.353
 3104SOL     OW10210   4.620   0.459   6.317
 3104SOL    HW110211   4.659   0.489   6.230
 3104SOL    HW210212   4.674   0.382   6.352
 3105SOL     OW10213   5.334   3.176   6.971
 3105SOL    HW110214   5.267   3.109   7.005
 3105SOL    HW210215   5.368   3.147   6.882
 3106SOL     OW10216   5.517   1.285   4.873
 3106SOL    HW110217   5.523   1.185   4.881
 3106SOL    HW210218   5.572   1.327   4.945
 3107SOL     OW10219   4.122   1.293   5.333
 3107SOL    HW110220   4.214   1.274   5.299
 3107SOL    HW210221   4.057   1.286   5.257
 3108SOL     OW10222   2.281   4.358   4.396
 3108SOL    HW110223   2.316   4.396   4.481
 3108SOL    HW210224   2.272   4.259   4.404
 3109SOL     OW10225   6.580   6.824   4.217
 3109SOL    HW110226   6.679   6.816   4.217
 3109SOL    HW210227   6.550   6.877   4.138
 3110SOL     OW10228   2.314   4.259   3.481
 3110SOL    HW110229   2.286   4.212   3.397
 3110SOL    HW210230   2.373   4.336   3.458
 3111SOL     OW10231   6.333   4.790   4.834
 3111SOL    HW110232   6.236   4.812   4.840
 3111SOL    HW210233   6.359   4.738   4.915
 3112SOL     OW10234   3.553   1.999   0.128
 3112SOL    HW110235   3.499   2.068   0.176
 3112SOL    HW210236   3.622   1.962   0.190
 3113SOL     OW10237   2.432   5.519   3.167
 3113SOL    HW110238   2.480   5.568   3.241
 3113SOL    HW210239   2.477   5.538   3.080
 3114SOL     OW10240   3.550   1.760   0.409
 3114SOL    HW110241   3.464   1.750   0.359
 3114SOL    HW210242   3.542   1.716   0.498
 3115SOL     OW10243   4.066   4.354   5.264
 3115SOL    HW110244   4.150   4.397   5.229
 3115SOL    HW210245   4.067   4.256   5.240
 3116SOL     OW10246   0.356   2.346   0.726
 3116SOL    HW110247   0.438   2.291   0.717
 3116SOL    HW210248   0.374   2.439   0.693
 3117SOL     OW10249   4.691   2.121   5.576
 3117SOL    HW110250   4.677   2.059   5.499
 3117SOL    HW210251   4.625   2.196   5.571
 3118SOL     OW10252   1.593   0.712   2.653
 3118SOL    HW110253   1.636   0.759   2.731
 3118SOL    HW210254   1.506   0.755   2.631
 3119SOL     OW10255   4.109   3.567   5.795
 3119SOL    HW110256   4.166   3.572   5.713
 3119SOL    HW210257   4.166   3.585   5.875
 3120SOL     OW10258   2.814   0.106   5.219
 3120SOL    HW110259   2.860   0.129   5.133
 3120SOL    HW210260   2.762   0.022   5.207
 3121SOL     OW10261   4.930   1.338   4.414
 3121SOL    HW110262   4.892   1.324   4.505
 3121SOL    HW210263   4.862   1.312   4.345
 3122SOL     OW10264   4.225   4.781   4.359
 3122SOL    HW110265   4.251   4.740   4.272
 3122SOL    HW210266   4.275   4.735   4.433
 3123SOL     OW10267   2.507   1.574   2.786
 3123SOL    HW110268   2.606   1.570   2.776
 3123SOL    HW210269   2.467   1.614   2.703
 3124SOL     OW10270   4.781   6.770   4.548
 3124SOL    HW110271   4.711   6.835   4.579
 3124SOL    HW210272   4.743   6.678   4.547
 3125SOL     OW10273   1.291   2.785   5.542
 3125SOL    HW110274   1.388   2.762   5.549
 3125SOL    HW210275   1.274   2.831   5.455
 3126SOL     OW10276   5.621   5.835   4.428
 3126SOL    HW110277   5.557   5.904   4.461
 3126SOL    HW210278   5.593   5.804   4.337
 3127SOL     OW10279   0.757   2.319   4.667
 3127SOL    HW110280   0.778   2.223   4.684
 3127SOL    HW210281   0.837   2.365   4.630
 3128SOL     OW10282   4.010   0.193   0.457
 3128SOL    HW110283   4.109   0.194   0.471
 3128SOL    HW210284   3.972   0.283   0.478
 3129SOL     OW10285   4.587   3.117   1.238
 3129SOL    HW110286   4.584   3.032   1.291
 3129SOL    HW210287   4.646   3.183   1.285
 3130SOL     OW10288   1.820   4.033   1.071
 3130SOL    HW110289   1.901   4.092   1.069
 3130SOL    HW210290   1.814   3.988   1.160
 3131SOL     OW10291   6.617   4.041   1.589
 3131SOL    HW110292   6.653   4.134   1.592
 3131SOL    HW210293   6.681   3.979   1.636
 3132SOL     OW10294   4.039   3.928   0.301
 3132SOL    HW110295   4.009   4.019   0.330
 3132SOL    HW210296   4.097   3.888   0.372
 3133SOL     OW10297   4.010   6.900   3.189
 3133SOL    HW110298   3.970   6.936   3.104
 3133SOL    HW210299   3.943   6.910   3.264
 3134SOL     OW10300   3.400   5.205   2.342
 3134SOL    HW110301   3.422   5.236   2.250
 3134SOL    HW210302   3.334   5.267   2.384
 3135SOL     OW10303   5.833   6.733   5.919
 3135SOL    HW110304   5.852   6.828   5.893
 3135SOL    HW210305   5.911   6.696   5.970
 3136SOL     OW10306   6.134   1.289   2.849
 3136SOL    HW110307   6.074   1.257   2.776
 3136SOL    HW210308   6.185   1.212   2.886
 3137SOL     OW10309   6.417   6.932   0.040
 3137SOL    HW110310   6.401   6.851   0.096
 3137SOL    HW210311   6.462   7.003   0.095
 3138SOL     OW10312   5.363   5.264   4.014
 3138SOL    HW110313   5.387   5.173   4.047
 3138SOL    HW210314   5.397   5.275   3.920
 3139SOL     OW10315   2.151   5.264   1.284
 3139SOL    HW110316   2.106   5.269   1.195
 3139SOL    HW210317   2.202   5.348   1.301
 3140SOL     OW10318   6.493   6.676   5.588
 3140SOL    HW110319   6.455   6.625   5.666
 3140SOL    HW210320   6.446   6.647   5.504
 3141SOL     OW10321   0.465   2.361   6.680
 3141SOL    HW110322   0.378   2.312   6.671
 3141SOL    HW210323   0.493   2.395   6.590
 3142SOL     OW10324   5.176   0.930   1.810
 3142SOL    HW110325   5.216   0.848   1.851
 3142SOL    HW210326   5.077   0.918   1.802
 3143SOL     OW10327   5.805   1.667   0.332
 3143SOL    HW110328   5.886   1.670   0.390
 3143SOL    HW210329   5.816   1.730   0.255
 3144SOL     OW10330   4.393   3.936   6.372
 3144SOL    HW110331   4.331   3.956   6.447
 3144SOL    HW210332   4.388   3.839   6.348
 3145SOL     OW10333   2.614   6.214   2.018
 3145SOL    HW110334   2.646   6.133   1.970
 3145SOL    HW210335   2.564   6.187   2.100
 3146SOL     OW10336   0.680   1.273   5.439
 3146SOL    HW110337   0.674   1.197   5.374
 3146SOL    HW210338   0.669   1.237   5.532
 3147SOL     OW10339   3.500   4.711   6.166
 3147SOL    HW110340   3.408   4.674   6.151
 3147SOL    HW210341   3.546   4.657   6.236
 3148SOL     OW10342   0.334   6.385   2.770
 3148SOL    HW110343   0.411   6.351   2.825
 3148SOL    HW210344   0.311   6.477   2.800
 3149SOL     OW10345   3.290   1.200   0.598
 3149SOL    HW110346   3.292   1.161   0.691
 3149SOL    HW210347   3.255   1.131   0.534
 3150SOL     OW10348   6.136   6.700   5.186
 3150SOL    HW110349   6.128   6.730   5.091
 3150SOL    HW210350   6.058   6.736   5.238
 3151SOL     OW10351   6.291   1.931   6.194
 3151SOL    HW110352   6.235   1.950   6.113
 3151SOL    HW210353   6.385   1.958   6.176
 3152SOL     OW10354   1.707   4.007   6.734
 3152SOL    HW110355   1.709   3.919   6.781
 3152SOL    HW210356   1.615   4.046   6.741
 3153SOL     OW10357   6.754   5.165   0.398
 3153SOL    HW110358   6.730   5.171   0.495
 3153SOL    HW210359   6.826   5.096   0.386
 3154SOL     OW10360   5.614   1.447   1.505
 3154SOL    HW110361   5.676   1.525   1.514
 3154SOL    HW210362   5.522   1.474   1.533
 3155SOL     OW10363   6.521   4.740   0.154
 3155SOL    HW110364   6.442   4.711   0.101
 3155SOL    HW210365   6.571   4.810   0.104
 3156SOL     OW10366   3.580   4.159   2.241
 3156SOL    HW110367   3.596   4.255   2.217
 3156SOL    HW210368   3.667   4.109   2.238
 3157SOL     OW10369   1.089   1.886   5.318
 3157SOL    HW110370   1.123   1.834   5.240
 3157SOL    HW210371   0.990   1.874   5.325
 3158SOL     OW10372   2.950   2.019   5.516
 3158SOL    HW110373   2.928   2.036   5.420
 3158SOL    HW210374   2.994   2.100   5.555
 3159SOL     OW10375   4.539   6.741   0.385
 3159SOL    HW110376   4.465   6.752   0.452
 3159SOL    HW210377   4.576   6.832   0.363
 3160SOL     OW10378   2.457   6.871   5.753
 3160SOL    HW110379   2.459   6.971   5.751
 3160SOL    HW210380   2.532   6.836   5.697
 3161SOL     OW10381   1.914   2.572   2.576
 3161SOL    HW110382   1.939   2.487   2.623
 3161SOL    HW210383   1.959   2.574   2.486
 3162SOL     OW10384   1.568   5.485   0.346
 3162SOL    HW110385   1.506   5.492   0.425
 3162SOL    HW210386   1.606   5.393   0.342
 3163SOL     OW10387   3.890   3.722   0.435
 3163SOL    HW110388   3.941   3.639   0.413
 3163SOL    HW210389   3.879   3.777   0.352
 3164SOL     OW10390   2.961   5.311   2.854
 3164SOL    HW110391   2.870   5.287   2.821
 3164SOL    HW210392   3.028   5.248   2.813
 3165SOL     OW10393   0.352   5.193   0.143
 3165SOL    HW110394   0.409   5.130   0.090
 3165SOL    HW210395   0.290   5.140   0.201
 3166SOL     OW10396   3.785   0.998   4.867
 3166SOL    HW110397   3.767   0.979   4.964
 3166SOL    HW210398   3.875   0.963   4.843
 3167SOL     OW10399   4.742   3.914   0.236
 3167SOL    HW110400   4.803   3.950   0.307
 3167SOL    HW210401   4.745   3.974   0.157
 3168SOL     OW10402   5.018   2.667   0.584
 3168SOL    HW110403   5.107   2.631   0.613
 3168SOL    HW210404   5.002   2.755   0.629
 3169SOL     OW10405   1.688   4.727   2.401
 3169SOL    HW110406   1.742   4.780   2.467
 3169SOL    HW210407   1.702   4.629   2.417
 3170SOL     OW10408   3.708   5.758   2.843
 3170SOL    HW110409   3.798   5.782   2.807
 3170SOL    HW210410   3.670   5.682   2.789
 3171SOL     OW10411   5.299   3.166   2.600
 3171SOL    HW110412   5.368   3.230   2.633
 3171SOL    HW210413   5.272   3.191   2.507
 3172SOL     OW10414   6.924   4.962   0.345
 3172SOL    HW110415   6.984   4.983   0.268
 3172SOL    HW210416   6.980   4.938   0.425
 3173SOL     OW10417   3.331   1.778   0.003
 3173SOL    HW110418   3.320   1.750   0.099
 3173SOL    HW210419   3.341   1.878   7.020
 3174SOL     OW10420   2.722   3.117   5.556
 3174SOL    HW110421   2.804   3.060   5.565
 3174SOL    HW210422   2.701   3.158   5.645
 3175SOL     OW10423   6.444   1.599   3.775
 3175SOL    HW110424   6.364   1.630   3.828
 3175SOL    HW210425   6.444   1.644   3.686
 3176SOL     OW10426   0.013   4.231   4.721
 3176SOL    HW110427   6.988   4.250   4.807
 3176SOL    HW210428   0.080   4.158   4.735
 3177SOL     OW10429   5.289   4.011   3.054
 3177SOL    HW110430   5.389   4.010   3.056
 3177SOL    HW210431   5.257   4.034   2.962
 3178SOL     OW10432   5.516   1.214   0.167
 3178SOL    HW110433   5.539   1.288   0.230
 3178SOL    HW210434   5.460   1.250   0.092
 3179SOL     OW10435   0.734   2.071   2.121
 3179SOL    HW110436   0.818   2.108   2.161
 3179SOL    HW210437   0.663   2.066   2.191
 3180SOL     OW10438   5.699   6.675   6.414
 3180SOL    HW110439   5.650   6.675   6.326
 3180SOL    HW210440   5.754   6.592   6.422
 3181SOL     OW10441   0.406   1.353   4.339
 3181SOL    HW110442   0.322   1.309   4.306
 3181SOL    HW210443   0.465   1.285   4.382
 3182SOL     OW10444   3.254   0.195   0.832
 3182SOL    HW110445   3.172   0.145   0.860
 3182SOL    HW210446   3.266   0.186   0.733
 3183SOL     OW10447   4.347   4.670   2.476
 3183SOL    HW110448   4.344   4.725   2.392
 3183SOL    HW210449   4.427   4.697   2.530
 3184SOL     OW10450   0.744   2.271   3.313
 3184SOL    HW110451   0.843   2.279   3.318
 3184SOL    HW210452   0.701   2.347   3.362
 3185SOL     OW10453   6.832   6.962   5.588
 3185SOL    HW110454   6.894   6.993   5.660
 3185SOL    HW210455   6.791   6.875   5.616
 3186SOL     OW10456   1.630   0.793   0.474
 3186SOL    HW110457   1.698   0.847   0.424
 3186SOL    HW210458   1.586   0.729   0.411
 3187SOL     OW10459   3.699   5.524   2.574
 3187SOL    HW110460   3.684   5.474   2.659
 3187SOL    HW210461   3.629   5.594   2.564
 3188SOL     OW10462   2.315   4.806   5.094
 3188SOL    HW110463   2.366   4.868   5.154
 3188SOL    HW210464   2.289   4.724   5.145
 3189SOL     OW10465   2.274   1.174   0.247
 3189SOL    HW110466   2.175   1.170   0.261
 3189SOL    HW210467   2.319   1.105   0.304
 3190SOL     OW10468   6.733   5.800   5.362
 3190SOL    HW110469   6.670   5.724   5.377
 3190SOL    HW210470   6.723   5.867   5.436
 3191SOL     OW10471   4.022   5.461   2.155
 3191SOL    HW110472   4.017   5.365   2.130
 3191SOL    HW210473   3.980   5.475   2.244
 3192SOL     OW10474   6.777   2.619   1.638
 3192SOL    HW110475   6.765   2.700   1.696
 3192SOL    HW210476   6.743   2.538   1.686
 3193SOL     OW10477   4.083   1.051   4.967
 3193SOL    HW110478   4.142   1.029   5.044
 3193SOL    HW210479   4.047   0.966   4.927
 3194SOL     OW10480   1.212   1.260   5.384
 3194SOL    HW110481   1.197   1.165   5.412
 3194SOL    HW210482   1.124   1.306   5.372
 3195SOL     OW10483   0.317   1.152   2.044
 3195SOL    HW110484   0.323   1.060   2.084
 3195SOL    HW210485   0.382   1.212   2.090
 3196SOL     OW10486   6.515   1.038   5.491
 3196SOL    HW110487   6.605   1.021   5.532
 3196SOL    HW210488   6.475   1.120   5.531
 3197SOL     OW10489   1.879   6.741   6.004
 3197SOL    HW110490   1.861   6.837   5.986
 3197SOL    HW210491   1.978   6.727   6.013
 3198SOL     OW10492   6.473   2.277   3.951
 3198SOL    HW110493   6.480   2.374   3.970
 3198SOL    HW210494   6.415   2.233   4.020
 3199SOL     OW10495   5.374   5.045   2.793
 3199SOL    HW110496   5.345   5.125   2.741
 3199SOL    HW210497   5.305   4.973   2.785
 3200SOL     OW10498   6.055   3.278   4.262
 3200SOL    HW110499   5.993   3.304   4.188
 3200SOL    HW210500   6.147   3.313   4.243
 3201SOL     OW10501   6.148   4.504   2.986
 3201SOL    HW110502   6.197   4.561   3.052
 3201SOL    HW210503   6.211   4.438   2.945
 3202SOL     OW10504   1.087   5.083   0.717
 3202SOL    HW110505   1.059   5.012   0.781
 3202SOL    HW210506   1.104   5.168   0.767
 3203SOL     OW10507   4.393   6.676   1.305
 3203SOL    HW110508   4.384   6.722   1.393
 3203SOL    HW210509   4.337   6.593   1.305
 3204SOL     OW10510   2.783   1.541   3.599
 3204SOL    HW110511   2.773   1.626   3.548
 3204SOL    HW210512   2.871   1.542   3.647
 3205SOL     OW10513   5.591   3.582   5.807
 3205SOL    HW110514   5.550   3.586   5.716
 3205SOL    HW210515   5.567   3.664   5.858
 3206SOL     OW10516   2.564   3.060   1.473
 3206SOL    HW110517   2.565   2.961   1.459
 3206SOL    HW210518   2.573   3.081   1.570
 3207SOL     OW10519   1.100   0.755   5.746
 3207SOL    HW110520   1.064   0.671   5.705
 3207SOL    HW210521   1.135   0.735   5.838
 3208SOL     OW10522   5.757   5.864   5.376
 3208SOL    HW110523   5.736   5.932   5.306
 3208SOL    HW210524   5.746   5.904   5.467
 3209SOL     OW10525   4.007   5.147   5.339
 3209SOL    HW110526   3.917   5.112   5.313
 3209SOL    HW210527   4.039   5.099   5.420
 3210SOL     OW10528   0.295   4.924   1.690
 3210SOL    HW110529   0.228   4.993   1.661
 3210SOL    HW210530   0.288   4.911   1.789
 3211SOL     OW10531   1.346   4.981   0.602
 3211SOL    HW110532   1.257   4.999   0.644
 3211SOL    HW210533   1.341   4.897   0.549
 3212SOL     OW10534   2.958   0.222   2.388
 3212SOL    HW110535   2.989   0.298   2.446
 3212SOL    HW210536   3.003   0.228   2.299
 3213SOL     OW10537   1.931   0.545   6.392
 3213SOL    HW110538   1.851   0.485   6.400
 3213SOL    HW210539   1.920   0.623   6.454
 3214SOL     OW10540   4.692   6.894   3.717
 3214SOL    HW110541   4.659   6.859   3.630
 3214SOL    HW210542   4.776   6.846   3.743
 3215SOL     OW10543   1.210   3.586   0.330
 3215SOL    HW110544   1.304   3.553   0.314
 3215SOL    HW210545   1.150   3.548   0.260
 3216SOL     OW10546   5.719   5.094   1.412
 3216SOL    HW110547   5.651   5.132   1.350
 3216SOL    HW210548   5.684   5.096   1.506
 3217SOL     OW10549   0.031   5.531   3.142
 3217SOL    HW110550   0.046   5.612   3.200
 3217SOL    HW210551   6.954   5.517   3.129
 3218SOL     OW10552   5.903   2.402   3.614
 3218SOL    HW110553   5.980   2.434   3.669
 3218SOL    HW210554   5.875   2.311   3.645
 3219SOL     OW10555   6.937   0.896   4.807
 3219SOL    HW110556   6.874   0.860   4.738
 3219SOL    HW210557   6.962   0.990   4.784
 3220SOL     OW10558   0.082   5.953   6.400
 3220SOL    HW110559   0.125   5.888   6.337
 3220SOL    HW210560   0.020   6.013   6.349
 3221SOL     OW10561   3.987   6.994   2.710
 3221SOL    HW110562   3.900   0.012   2.740
 3221SOL    HW210563   3.985   6.978   2.611
 3222SOL     OW10564   3.187   1.289   3.403
 3222SOL    HW110565   3.253   1.358   3.374
 3222SOL    HW210566   3.236   1.210   3.439
 3223SOL     OW10567   2.124   6.574   0.669
 3223SOL    HW110568   2.040   6.529   0.700
 3223SOL    HW210569   2.107   6.621   0.583
 3224SOL     OW10570   5.067   2.534   4.889
 3224SOL    HW110571   5.141   2.556   4.952
 3224SOL    HW210572   5.010   2.615   4.874
 3225SOL     OW10573   4.150   1.289   4.026
 3225SOL    HW110574   4.130   1.308   3.929
 3225SOL    HW210575   4.065   1.272   4.074
 3226SOL     OW10576   1.714   6.924   2.124
 3226SOL    HW110577   1.723   6.826   2.140
 3226SOL    HW210578   1.630   6.958   2.166
 3227SOL     OW10579   3.457   2.590   6.455
 3227SOL    HW110580   3.543   2.541   6.447
 3227SOL    HW210581   3.384   2.539   6.409
 3228SOL     OW10582   0.523   4.236   0.789
 3228SOL    HW110583   0.532   4.220   0.691
 3228SOL    HW210584   0.613   4.254   0.828
 3229SOL     OW10585   3.320   0.507   5.721
 3229SOL    HW110586   3.407   0.463   5.742
 3229SOL    HW210587   3.326   0.549   5.631
 3230SOL     OW10588   2.152   5.517   6.180
 3230SOL    HW110589   2.243   5.479   6.200
 3230SOL    HW210590   2.093   5.506   6.260
 3231SOL     OW10591   3.229   1.138   2.601
 3231SOL    HW110592   3.282   1.053   2.588
 3231SOL    HW210593   3.178   1.132   2.687
 3232SOL     OW10594   3.784   5.952   4.120
 3232SOL    HW110595   3.816   5.885   4.053
 3232SOL    HW210596   3.696   5.923   4.157
 3233SOL     OW10597   6.943   2.675   0.520
 3233SOL    HW110598   6.913   2.748   0.581
 3233SOL    HW210599   6.867   2.613   0.501
 3234SOL     OW10600   1.568   2.750   0.169
 3234SOL    HW110601   1.471   2.725   0.174
 3234SOL    HW210602   1.601   2.774   0.261
 3235SOL     OW10603   5.844   5.782   1.699
 3235SOL    HW110604   5.760   5.786   1.646
 3235SOL    HW210605   5.907   5.853   1.668
 3236SOL     OW10606   2.316   3.547   0.344
 3236SOL    HW110607   2.283   3.561   0.437
 3236SOL    HW210608   2.351   3.634   0.308
 3237SOL     OW10609   6.066   1.838   4.223
 3237SOL    HW110610   5.974   1.802   4.206
 3237SOL    HW210611   6.063   1.898   4.303
 3238SOL     OW10612   6.109   5.292   0.240
 3238SOL    HW110613   6.191   5.340   0.210
 3238SOL    HW210614   6.104   5.292   0.340
 3239SOL     OW10615   0.166   6.978   3.661
 3239SOL    HW110616   0.187   0.036   3.605
 3239SOL    HW210617   0.106   7.005   3.736
 3240SOL     OW10618   7.013   0.910   6.302
 3240SOL    HW110619   6.970   0.831   6.346
 3240SOL    HW210620   6.979   0.994   6.345
 3241SOL     OW10621   5.081   2.316   0.062
 3241SOL    HW110622   5.010   2.312   7.014
 3241SOL    HW210623   5.103   2.224   0.093
 3242SOL     OW10624   4.980   3.876   5.682
 3242SOL    HW110625   5.077   3.899   5.679
 3242SOL    HW210626   4.956   3.825   5.600
 3243SOL     OW10627   4.351   5.686   6.578
 3243SOL    HW110628   4.395   5.703   6.489
 3243SOL    HW210629   4.385   5.601   6.616
 3244SOL     OW10630   5.633   6.102   0.362
 3244SOL    HW110631   5.595   6.194   0.349
 3244SOL    HW210632   5.713   6.090   0.303
 3245SOL     OW10633   4.859   2.445   4.314
 3245SOL    HW110634   4.935   2.510   4.303
 3245SOL    HW210635   4.779   2.494   4.350
 3246SOL     OW10636   6.932   0.065   2.545
 3246SOL    HW110637   7.017   0.020   2.572
 3246SOL    HW210638   6.885   0.009   2.476
 3247SOL     OW10639   0.210   4.249   2.598
 3247SOL    HW110640   0.271   4.327   2.614
 3247SOL    HW210641   0.163   4.261   2.511
 3248SOL     OW10642   5.719   2.562   2.844
 3248SOL    HW110643   5.714   2.554   2.943
 3248SOL    HW210644   5.650   2.502   2.802
 3249SOL     OW10645   3.791   3.540   3.736
 3249SOL    HW110646   3.734   3.598   3.794
 3249SOL    HW210647   3.826   3.593   3.660
 3250SOL     OW10648   5.151   6.340   3.702
 3250SOL    HW110649   5.182   6.416   3.759
 3250SOL    HW210650   5.073   6.295   3.746
 3251SOL     OW10651   2.698   1.067   4.858
 3251SOL    HW110652   2.750   1.090   4.775
 3251SOL    HW210653   2.662   1.151   4.898
 3252SOL     OW10654   3.065   1.363   3.151
 3252SOL    HW110655   3.116   1.284   3.184
 3252SOL    HW210656   2.972   1.334   3.127
 3253SOL     OW10657   4.990   3.875   0.983
 3253SOL    HW110658   5.081   3.874   0.943
 3253SOL    HW210659   4.992   3.831   1.073
 3254SOL     OW10660   5.218   6.958   6.349
 3254SOL    HW110661   5.171   6.913   6.425
 3254SOL    HW210662   5.313   6.926   6.346
 3255SOL     OW10663   5.717   5.884   0.528
 3255SOL    HW110664   5.815   5.878   0.507
 3255SOL    HW210665   5.676   5.956   0.473
 3256SOL     OW10666   4.412   2.194   1.204
 3256SOL    HW110667   4.372   2.166   1.291
 3256SOL    HW210668   4.338   2.222   1.142
 3257SOL     OW10669   2.969   2.091   2.135
 3257SOL    HW110670   3.052   2.072   2.082
 3257SOL    HW210671   2.927   2.175   2.101
 3258SOL     OW10672   3.183   5.183   3.575
 3258SOL    HW110673   3.175   5.084   3.592
 3258SOL    HW210674   3.098   5.228   3.603
 3259SOL     OW10675   5.369   4.590   3.932
 3259SOL    HW110676   5.451   4.563   3.984
 3259SOL    HW210677   5.287   4.559   3.981
 3260SOL     OW10678   1.857   3.955   1.952
 3260SOL    HW110679   1.833   3.872   1.901
 3260SOL    HW210680   1.845   3.938   2.050
 3261SOL     OW10681   5.631   0.616   2.521
 3261SOL    HW110682   5.565   0.547   2.551
 3261SOL    HW210683   5.661   0.669   2.600
 3262SOL     OW10684   4.067   2.160   2.262
 3262SOL    HW110685   4.121   2.115   2.191
 3262SOL    HW210686   3.975   2.122   2.263
 3263SOL     OW10687   3.196   1.002   3.320
 3263SOL    HW110688   3.229   0.958   3.237
 3263SOL    HW210689   3.270   1.008   3.387
 3264SOL     OW10690   1.776   4.905   0.734
 3264SOL    HW110691   1.714   4.892   0.656
 3264SOL    HW210692   1.871   4.902   0.702
 3265SOL     OW10693   6.190   6.461   5.523
 3265SOL    HW110694   6.245   6.493   5.446
 3265SOL    HW210695   6.147   6.539   5.568
 3266SOL     OW10696   2.780   4.669   0.105
 3266SOL    HW110697   2.816   4.659   0.012
 3266SOL    HW210698   2.851   4.647   0.171
 3267SOL     OW10699   3.857   0.332   1.608
 3267SOL    HW110700   3.757   0.338   1.600
 3267SOL    HW210701   3.887   0.244   1.572
 3268SOL     OW10702   0.958   4.758   1.573
 3268SOL    HW110703   1.022   4.784   1.500
 3268SOL    HW210704   0.879   4.820   1.570
 3269SOL     OW10705   0.542   5.378   2.539
 3269SOL    HW110706   0.540   5.473   2.568
 3269SOL    HW210707   0.583   5.371   2.448
 3270SOL     OW10708   1.300   3.381   6.275
 3270SOL    HW110709   1.279   3.478   6.277
 3270SOL    HW210710   1.370   3.363   6.206
 3271SOL     OW10711   6.445   3.365   1.715
 3271SOL    HW110712   6.403   3.386   1.803
 3271SOL    HW210713   6.468   3.268   1.711
 3272SOL     OW10714   3.704   5.206   6.868
 3272SOL    HW110715   3.687   5.214   6.966
 3272SOL    HW210716   3.637   5.143   6.827
 3273SOL     OW10717   5.066   4.361   6.027
 3273SOL    HW110718   5.055   4.405   6.116
 3273SOL    HW210719   5.108   4.270   6.041
 3274SOL     OW10720   6.142   0.386   0.160
 3274SOL    HW110721   6.045   0.402   0.174
 3274SOL    HW210722   6.186   0.471   0.131
 3275SOL     OW10723   4.380   0.897   0.599
 3275SOL    HW110724   4.383   0.921   0.696
 3275SOL    HW210725   4.354   0.978   0.546
 3276SOL     OW10726   4.584   6.738   6.982
 3276SOL    HW110727   4.517   6.809   7.007
 3276SOL    HW210728   4.574   6.660   0.022
 3277SOL     OW10729   3.003   1.110   1.328
 3277SOL    HW110730   2.945   1.078   1.252
 3277SOL    HW210731   3.039   1.031   1.377
 3278SOL     OW10732   0.028   0.701   5.925
 3278SOL    HW110733   0.111   0.685   5.978
 3278SOL    HW210734   0.018   0.628   5.857
 3279SOL     OW10735   4.433   6.337   1.080
 3279SOL    HW110736   4.435   6.406   1.153
 3279SOL    HW210737   4.362   6.361   1.014
 3280SOL     OW10738   5.465   4.264   4.142
 3280SOL    HW110739   5.534   4.247   4.072
 3280SOL    HW210740   5.410   4.181   4.155
 3281SOL     OW10741   6.913   4.872   1.413
 3281SOL    HW110742   6.986   4.815   1.453
 3281SOL    HW210743   6.902   4.847   1.317
 3282SOL     OW10744   0.372   3.844   4.705
 3282SOL    HW110745   0.358   3.748   4.731
 3282SOL    HW210746   0.456   3.852   4.651
 3283SOL     OW10747   3.842   1.370   1.180
 3283SOL    HW110748   3.787   1.299   1.136
 3283SOL    HW210749   3.834   1.362   1.279
 3284SOL     OW10750   1.099   5.109   4.628
 3284SOL    HW110751   1.185   5.160   4.632
 3284SOL    HW210752   1.095   5.046   4.706
 3285SOL     OW10753   5.747   1.859   4.717
 3285SOL    HW110754   5.674   1.796   4.688
 3285SOL    HW210755   5.810   1.810   4.778
 3286SOL     OW10756   3.473   2.269   1.675
 3286SOL    HW110757   3.407   2.224   1.736
 3286SOL    HW210758   3.550   2.303   1.729
 3287SOL     OW10759   0.731   0.446   0.205
 3287SOL    HW110760   0.633   0.449   0.189
 3287SOL    HW210761   0.763   0.536   0.237
 3288SOL     OW10762   1.831   6.540   0.791
 3288SOL    HW110763   1.752   6.573   0.841
 3288SOL    HW210764   1.873   6.464   0.840
 3289SOL     OW10765   2.921   1.823   6.798
 3289SOL    HW110766   2.987   1.822   6.723
 3289SOL    HW210767   2.969   1.840   6.884
 3290SOL     OW10768   6.665   5.517   0.417
 3290SOL    HW110769   6.684   5.615   0.424
 3290SOL    HW210770   6.703   5.470   0.497
 3291SOL     OW10771   3.885   0.848   6.367
 3291SOL    HW110772   3.974   0.809   6.391
 3291SOL    HW210773   3.813   0.789   6.404
 3292SOL     OW10774   0.206   1.179   0.892
 3292SOL    HW110775   0.290   1.144   0.850
 3292SOL    HW210776   0.134   1.184   0.823
 3293SOL     OW10777   6.569   4.561   2.383
 3293SOL    HW110778   6.583   4.482   2.443
 3293SOL    HW210779   6.482   4.551   2.335
 3294SOL     OW10780   5.277   1.984   6.019
 3294SOL    HW110781   5.213   2.036   5.963
 3294SOL    HW210782   5.331   2.047   6.075
 3295SOL     OW10783   1.839   3.094   0.631
 3295SOL    HW110784   1.858   3.039   0.713
 3295SOL    HW210785   1.753   3.143   0.644
 3296SOL     OW10786   6.210   0.271   5.028
 3296SOL    HW110787   6.281   0.253   5.097
 3296SOL    HW210788   6.248   0.330   4.957
 3297SOL     OW10789   3.533   1.837   5.063
 3297SOL    HW110790   3.525   1.937   5.063
 3297SOL    HW210791   3.592   1.808   5.138
 3298SOL     OW10792   6.707   3.416   5.258
 3298SOL    HW110793   6.697   3.357   5.338
 3298SOL    HW210794   6.640   3.490   5.264
 3299SOL     OW10795   4.460   5.869   3.302
 3299SOL    HW110796   4.378   5.903   3.347
 3299SOL    HW210797   4.451   5.771   3.285
 3300SOL     OW10798   2.035   0.500   5.644
 3300SOL    HW110799   1.947   0.540   5.621
 3300SOL    HW210800   2.098   0.572   5.673
 3301SOL     OW10801   1.388   3.216   2.882
 3301SOL    HW110802   1.404   3.314   2.896
 3301SOL    HW210803   1.475   3.167   2.882
 3302SOL     OW10804   1.280   4.667   6.481
 3302SOL    HW110805   1.191   4.663   6.526
 3302SOL    HW210806   1.277   4.617   6.394
 3303SOL     OW10807   3.809   3.265   0.476
 3303SOL    HW110808   3.777   3.303   0.563
 3303SOL    HW210809   3.848   3.174   0.491
 3304SOL     OW10810   2.267   4.976   6.318
 3304SOL    HW110811   2.223   4.888   6.303
 3304SOL    HW210812   2.224   5.045   6.260
 3305SOL     OW10813   3.163   0.479   1.452
 3305SOL    HW110814   3.156   0.448   1.547
 3305SOL    HW210815   3.071   0.482   1.412
 3306SOL     OW10816   1.250   6.003   5.979
 3306SOL    HW110817   1.201   5.946   5.913
 3306SOL    HW210818   1.209   5.991   6.070
 3307SOL     OW10819   1.145   0.241   6.100
 3307SOL    HW110820   1.188   0.296   6.172
 3307SOL    HW210821   1.195   0.155   6.090
 3308SOL     OW10822   4.057   4.793   0.975
 3308SOL    HW110823   4.025   4.767   0.884
 3308SOL    HW210824   4.000   4.748   1.044
 3309SOL     OW10825   5.178   4.296   3.842
 3309SOL    HW110826   5.083   4.296   3.875
 3309SOL    HW210827   5.204   4.389   3.816
 3310SOL     OW10828   0.493   4.274   4.787
 3310SOL    HW110829   0.488   4.253   4.689
 3310SOL    HW210830   0.470   4.370   4.802
 3311SOL     OW10831   3.578   3.322   1.104
 3311SOL    HW110832   3.525   3.271   1.172
 3311SOL    HW210833   3.674   3.326   1.132
 3312SOL     OW10834   4.198   2.870   5.816
 3312SOL    HW110835   4.107   2.898   5.786
 3312SOL    HW210836   4.267   2.927   5.770
 3313SOL     OW10837   0.741   0.695   3.248
 3313SOL    HW110838   0.828   0.717   3.204
 3313SOL    HW210839   0.727   0.752   3.328
 3314SOL     OW10840   2.620   0.229   2.927
 3314SOL    HW110841   2.629   0.328   2.932
 3314SOL    HW210842   2.536   0.201   2.972
 3315SOL     OW10843   0.854   4.302   5.049
 3315SOL    HW110844   0.915   4.379   5.068
 3315SOL    HW210845   0.779   4.301   5.116
 3316SOL     OW10846   3.771   0.884   5.799
 3316SOL    HW110847   3.691   0.935   5.828
 3316SOL    HW210848   3.838   0.946   5.759
 3317SOL     OW10849   5.524   1.632   2.549
 3317SOL    HW110850   5.606   1.689   2.554
 3317SOL    HW210851   5.519   1.589   2.459
 3318SOL     OW10852   2.150   1.515   6.768
 3318SOL    HW110853   2.144   1.603   6.815
 3318SOL    HW210854   2.060   1.471   6.767
 3319SOL     OW10855   6.839   0.039   2.953
 3319SOL    HW110856   6.810   0.084   3.038
 3319SOL    HW210857   6.918   0.088   2.916
 3320SOL     OW10858   6.622   0.303   6.970
 3320SOL    HW110859   6.690   0.254   6.916
 3320SOL    HW210860   6.633   0.279   0.045
 3321SOL     OW10861   6.224   1.486   1.067
 3321SOL    HW110862   6.188   1.557   1.128
 3321SOL    HW210863   6.163   1.407   1.068
 3322SOL     OW10864   6.707   3.269   0.861
 3322SOL    HW110865   6.694   3.364   0.832
 3322SOL    HW210866   6.731   3.267   0.958
 3323SOL     OW10867   2.639   1.381   0.890
 3323SOL    HW110868   2.620   1.362   0.987
 3323SOL    HW210869   2.728   1.424   0.881
 3324SOL     OW10870   4.008   5.424   5.403
 3324SOL    HW110871   3.998   5.334   5.362
 3324SOL    HW210872   4.068   5.481   5.345
 3325SOL     OW10873   0.207   3.287   6.235
 3325SOL    HW110874   0.176   3.339   6.155
 3325SOL    HW210875   0.224   3.350   6.311
 3326SOL     OW10876   4.742   1.197   2.281
 3326SOL    HW110877   4.714   1.116   2.229
 3326SOL    HW210878   4.683   1.208   2.360
 3327SOL     OW10879   2.211   5.938   1.950
 3327SOL    HW110880   2.147   5.961   2.023
 3327SOL    HW210881   2.204   5.840   1.929
 3328SOL     OW10882   3.485   1.681   1.374
 3328SOL    HW110883   3.575   1.647   1.345
 3328SOL    HW210884   3.451   1.747   1.307
 3329SOL     OW10885   5.948   0.373   5.405
 3329SOL    HW110886   5.975   0.427   5.325
 3329SOL    HW210887   6.011   0.391   5.481
 3330SOL     OW10888   6.805   3.642   2.173
 3330SOL    HW110889   6.823   3.638   2.271
 3330SOL    HW210890   6.709   3.665   2.158
 3331SOL     OW10891   2.174   2.622   1.155
 3331SOL    HW110892   2.252   2.683   1.160
 3331SOL    HW210893   2.142   2.601   1.248
 3332SOL     OW10894   5.368   5.589   6.928
 3332SOL    HW110895   5.431   5.562   6.855
 3332SOL    HW210896   5.285   5.627   6.888
 3333SOL     OW10897   4.700   5.572   6.592
 3333SOL    HW110898   4.763   5.536   6.660
 3333SOL    HW210899   4.611   5.528   6.601
 3334SOL     OW10900   3.420   3.230   1.309
 3334SOL    HW110901   3.384   3.321   1.331
 3334SOL    HW210902   3.344   3.168   1.290
 3335SOL     OW10903   4.697   5.546   5.126
 3335SOL    HW110904   4.680   5.639   5.093
 3335SOL    HW210905   4.691   5.482   5.049
 3336SOL     OW10906   3.014   5.108   5.686
 3336SOL    HW110907   3.024   5.190   5.742
 3336SOL    HW210908   3.092   5.101   5.623
 3337SOL     OW10909   3.403   2.453   1.486
 3337SOL    HW110910   3.389   2.382   1.554
 3337SOL    HW210911   3.501   2.458   1.463
 3338SOL     OW10912   6.618   3.692   1.136
 3338SOL    HW110913   6.588   3.767   1.077
 3338SOL    HW210914   6.601   3.604   1.090
 3339SOL     OW10915   6.814   6.301   6.844
 3339SOL    HW110916   6.845   6.210   6.869
 3339SOL    HW210917   6.823   6.362   6.922
 3340SOL     OW10918   3.859   6.471   1.621
 3340SOL    HW110919   3.808   6.546   1.663
 3340SOL    HW210920   3.798   6.418   1.562
 3341SOL     OW10921   0.724   0.122   3.363
 3341SOL    HW110922   0.679   0.153   3.446
 3341SOL    HW210923   0.702   0.184   3.288
 3342SOL     OW10924   2.070   0.100   3.457
 3342SOL    HW110925   2.151   0.047   3.482
 3342SOL    HW210926   2.063   0.105   3.357
 3343SOL     OW10927   5.063   3.128   0.288
 3343SOL    HW110928   5.151   3.081   0.286
 3343SOL    HW210929   5.059   3.190   0.367
 3344SOL     OW10930   5.659   4.047   5.126
 3344SOL    HW110931   5.714   3.966   5.145
 3344SOL    HW210932   5.693   4.124   5.180
 3345SOL     OW10933   2.779   3.451   6.123
 3345SOL    HW110934   2.823   3.455   6.213
 3345SOL    HW210935   2.848   3.460   6.052
 3346SOL     OW10936   0.863   1.098   2.284
 3346SOL    HW110937   0.924   1.027   2.247
 3346SOL    HW210938   0.883   1.112   2.381
 3347SOL     OW10939   6.650   4.563   2.882
 3347SOL    HW110940   6.722   4.629   2.861
 3347SOL    HW210941   6.563   4.596   2.845
 3348SOL     OW10942   3.425   2.891   4.122
 3348SOL    HW110943   3.401   2.949   4.044
 3348SOL    HW210944   3.520   2.907   4.147
 3349SOL     OW10945   0.160   4.921   4.351
 3349SOL    HW110946   0.240   4.980   4.341
 3349SOL    HW210947   0.190   4.826   4.359
 3350SOL     OW10948   1.476   1.487   6.818
 3350SOL    HW110949   1.493   1.391   6.842
 3350SOL    HW210950   1.501   1.545   6.896
 3351SOL     OW10951   5.500   0.501   1.577
 3351SOL    HW110952   5.424   0.486   1.513
 3351SOL    HW210953   5.486   0.444   1.658
 3352SOL     OW10954   0.086   3.743   0.190
 3352SOL    HW110955   7.008   3.746   0.195
 3352SOL    HW210956   0.116   3.648   0.187
 3353SOL     OW10957   1.543   6.745   1.503
 3353SOL    HW110958   1.574   6.813   1.436
 3353SOL    HW210959   1.540   6.787   1.594
 3354SOL     OW10960   6.580   2.722   3.637
 3354SOL    HW110961   6.655   2.758   3.692
 3354SOL    HW210962   6.517   2.796   3.613
 3355SOL     OW10963   0.837   1.796   0.231
 3355SOL    HW110964   0.756   1.779   0.287
 3355SOL    HW210965   0.869   1.710   0.191
 3356SOL     OW10966   2.732   3.173   0.224
 3356SOL    HW110967   2.781   3.086   0.214
 3356SOL    HW210968   2.769   3.223   0.302
 3357SOL     OW10969   2.091   4.884   1.390
 3357SOL    HW110970   2.007   4.938   1.397
 3357SOL    HW210971   2.077   4.794   1.432
 3358SOL     OW10972   4.779   6.244   1.777
 3358SOL    HW110973   4.772   6.154   1.821
 3358SOL    HW210974   4.687   6.278   1.757
 3359SOL     OW10975   0.219   0.161   3.475
 3359SOL    HW110976   0.168   0.239   3.512
 3359SOL    HW210977   0.209   0.158   3.376
 3360SOL     OW10978   0.437   1.081   0.802
 3360SOL    HW110979   0.458   0.991   0.838
 3360SOL    HW210980   0.521   1.123   0.767
 3361SOL     OW10981   6.416   5.264   2.980
 3361SOL    HW110982   6.375   5.335   3.037
 3361SOL    HW210983   6.505   5.295   2.946
 3362SOL     OW10984   2.875   1.202   5.085
 3362SOL    HW110985   2.947   1.263   5.118
 3362SOL    HW210986   2.842   1.235   4.997
 3363SOL     OW10987   0.396   0.821   6.482
 3363SOL    HW110988   0.336   0.880   6.428
 3363SOL    HW210989   0.341   0.747   6.522
 3364SOL     OW10990   0.891   5.675   5.742
 3364SOL    HW110991   0.869   5.578   5.755
 3364SOL    HW210992   0.858   5.728   5.820
 3365SOL     OW10993   0.730   2.419   4.259
 3365SOL    HW110994   0.827   2.438   4.272
 3365SOL    HW210995   0.702   2.344   4.319
 3366SOL     OW10996   5.313   0.976   4.456
 3366SOL    HW110997   5.253   1.055   4.447
 3366SOL    HW210998   5.407   1.006   4.470
 3367SOL     OW10999   2.097   2.744   1.655
 3367SOL    HW111000   2.074   2.680   1.729
 3367SOL    HW211001   2.197   2.748   1.645
 3368SOL     OW11002   6.816   5.413   6.434
 3368SOL    HW111003   6.757   5.340   6.469
 3368SOL    HW211004   6.839   5.475   6.509
 3369SOL     OW11005   3.273   1.657   0.267
 3369SOL    HW111006   3.189   1.612   0.237
 3369SOL    HW211007   3.309   1.609   0.348
 3370SOL     OW11008   6.585   6.594   5.233
 3370SOL    HW111009   6.536   6.578   5.148
 3370SOL    HW211010   6.677   6.554   5.228
 3371SOL     OW11011   1.646   4.457   2.446
 3371SOL    HW111012   1.688   4.384   2.500
 3371SOL    HW211013   1.620   4.421   2.356
 3372SOL     OW11014   0.433   1.415   2.133
 3372SOL    HW111015   0.524   1.381   2.110
 3372SOL    HW211016   0.403   1.373   2.218
 3373SOL     OW11017   6.083   1.260   4.344
 3373SOL    HW111018   6.029   1.275   4.427
 3373SOL    HW211019   6.051   1.178   4.297
 3374SOL     OW11020   3.530   6.087   5.325
 3374SOL    HW111021   3.613   6.129   5.363
 3374SOL    HW211022   3.507   6.006   5.379
 3375SOL     OW11023   4.194   4.804   4.792
 3375SOL    HW111024   4.238   4.751   4.719
 3375SOL    HW211025   4.226   4.771   4.880
 3376SOL     OW11026   4.103   3.201   2.992
 3376SOL    HW111027   4.128   3.295   2.967
 3376SOL    HW211028   4.054   3.202   3.079
 3377SOL     OW11029   0.927   6.370   4.706
 3377SOL    HW111030   1.024   6.342   4.709
 3377SOL    HW211031   0.884   6.351   4.794
 3378SOL     OW11032   6.438   0.874   0.619
 3378SOL    HW111033   6.368   0.868   0.689
 3378SOL    HW211034   6.521   0.828   0.650
 3379SOL     OW11035   0.377   3.981   5.713
 3379SOL    HW111036   0.364   3.917   5.637
 3379SOL    HW211037   0.435   4.057   5.683
 3380SOL     OW11038   6.771   5.622   5.822
 3380SOL    HW111039   6.713   5.649   5.899
 3380SOL    HW211040   6.788   5.702   5.764
 3381SOL     OW11041   2.105   2.011   0.317
 3381SOL    HW111042   2.182   2.039   0.260
 3381SOL    HW211043   2.032   2.080   0.311
 3382SOL     OW11044   0.615   1.457   0.441
 3382SOL    HW111045   0.537   1.432   0.498
 3382SOL    HW211046   0.652   1.375   0.397
 3383SOL     OW11047   5.893   5.022   2.571
 3383SOL    HW111048   5.917   4.954   2.640
 3383SOL    HW211049   5.802   5.002   2.534
 3384SOL     OW11050   3.001   3.109   5.221
 3384SOL    HW111051   2.919   3.164   5.239
 3384SOL    HW211052   3.023   3.054   5.302
 3385SOL     OW11053   0.070   4.157   3.741
 3385SOL    HW111054   0.110   4.151   3.649
 3385SOL    HW211055   0.128   4.107   3.805
 3386SOL     OW11056   6.059   3.708   5.428
 3386SOL    HW111057   6.121   3.692   5.504
 3386SOL    HW211058   5.965   3.687   5.455
 3387SOL     OW11059   2.331   1.529   2.986
 3387SOL    HW111060   2.401   1.544   2.915
 3387SOL    HW211061   2.373   1.488   3.066
 3388SOL     OW11062   5.539   3.407   1.302
 3388SOL    HW111063   5.504   3.318   1.330
 3388SOL    HW211064   5.474   3.451   1.240
 3389SOL     OW11065   4.465   4.543   4.381
 3389SOL    HW111066   4.561   4.547   4.353
 3389SOL    HW211067   4.406   4.557   4.302
 3390SOL     OW11068   5.173   3.540   5.699
 3390SOL    HW111069   5.220   3.600   5.764
 3390SOL    HW211070   5.212   3.448   5.705
 3391SOL     OW11071   4.344   1.709   4.719
 3391SOL    HW111072   4.386   1.764   4.792
 3391SOL    HW211073   4.404   1.633   4.696
 3392SOL     OW11074   2.623   0.955   4.244
 3392SOL    HW111075   2.686   0.976   4.169
 3392SOL    HW211076   2.650   0.868   4.286
 3393SOL     OW11077   6.154   6.592   0.481
 3393SOL    HW111078   6.215   6.671   0.489
 3393SOL    HW211079   6.116   6.569   0.570
 3394SOL     OW11080   5.648   3.250   0.905
 3394SOL    HW111081   5.675   3.178   0.842
 3394SOL    HW211082   5.694   3.237   0.993
 3395SOL     OW11083   6.502   3.004   4.191
 3395SOL    HW111084   6.557   3.047   4.119
 3395SOL    HW211085   6.439   2.938   4.151
 3396SOL     OW11086   0.810   2.988   3.481
 3396SOL    HW111087   0.899   3.023   3.510
 3396SOL    HW211088   0.781   3.036   3.397
 3397SOL     OW11089   3.470   1.225   5.388
 3397SOL    HW111090   3.391   1.278   5.419
 3397SOL    HW211091   3.440   1.156   5.322
 3398SOL     OW11092   1.011   0.026   4.222
 3398SOL    HW111093   0.958   0.053   4.141
 3398SOL    HW211094   0.995   6.951   4.242
 3399SOL     OW11095   4.513   4.458   4.083
 3399SOL    HW111096   4.542   4.393   4.013
 3399SOL    HW211097   4.540   4.426   4.173
 3400SOL     OW11098   3.906   1.794   5.886
 3400SOL    HW111099   3.875   1.802   5.791
 3400SOL    HW211100   4.001   1.763   5.887
 3401SOL     OW11101   0.030   4.056   0.658
 3401SOL    HW111102   7.017   4.027   0.569
 3401SOL    HW211103   0.058   3.976   0.711
 3402SOL     OW11104   5.196   5.830   1.130
 3402SOL    HW111105   5.175   5.926   1.116
 3402SOL    HW211106   5.260   5.820   1.206
 3403SOL     OW11107   3.735   0.613   5.300
 3403SOL    HW111108   3.661   0.576   5.244
 3403SOL    HW211109   3.697   0.664   5.377
 3404SOL     OW11110   4.075   1.636   0.713
 3404SOL    HW111111   4.118   1.608   0.800
 3404SOL    HW211112   4.109   1.578   0.639
 3405SOL     OW11113   6.468   3.386   4.839
 3405SOL    HW111114   6.444   3.345   4.752
 3405SOL    HW211115   6.542   3.335   4.882
 3406SOL     OW11116   1.999   3.924   1.633
 3406SOL    HW111117   1.914   3.891   1.674
 3406SOL    HW211118   2.077   3.888   1.685
 3407SOL     OW11119   1.570   5.246   1.367
 3407SOL    HW111120   1.571   5.167   1.429
 3407SOL    HW211121   1.617   5.323   1.410
 3408SOL     OW11122   4.671   4.345   4.313
 3408SOL    HW111123   4.636   4.348   4.406
 3408SOL    HW211124   4.703   4.253   4.292
 3409SOL     OW11125   3.839   6.994   5.503
 3409SOL    HW111126   3.831   0.019   5.415
 3409SOL    HW211127   3.754   6.944   5.522
 3410SOL     OW11128   5.882   6.188   6.819
 3410SOL    HW111129   5.924   6.222   6.903
 3410SOL    HW211130   5.862   6.266   6.759
 3411SOL     OW11131   6.447   3.075   2.083
 3411SOL    HW111132   6.476   3.170   2.079
 3411SOL    HW211133   6.381   3.057   2.010
 3412SOL     OW11134   4.156   3.022   6.843
 3412SOL    HW111135   4.093   3.094   6.871
 3412SOL    HW211136   4.185   3.038   6.748
 3413SOL     OW11137   4.304   1.566   2.655
 3413SOL    HW111138   4.244   1.552   2.576
 3413SOL    HW211139   4.268   1.517   2.734
 3414SOL     OW11140   3.160   1.231   5.358
 3414SOL    HW111141   3.136   1.216   5.262
 3414SOL    HW211142   3.141   1.147   5.410
 3415SOL     OW11143   1.260   3.775   4.675
 3415SOL    HW111144   1.182   3.822   4.634
 3415SOL    HW211145   1.339   3.836   4.676
 3416SOL     OW11146   6.695   4.689   6.238
 3416SOL    HW111147   6.719   4.628   6.313
 3416SOL    HW211148   6.679   4.781   6.273
 3417SOL     OW11149   6.019   5.974   2.676
 3417SOL    HW111150   6.056   5.881   2.677
 3417SOL    HW211151   5.973   5.993   2.763
 3418SOL     OW11152   4.559   0.851   4.360
 3418SOL    HW111153   4.598   0.840   4.268
 3418SOL    HW211154   4.601   0.784   4.421
 3419SOL     OW11155   3.633   5.605   5.953
 3419SOL    HW111156   3.698   5.596   6.028
 3419SOL    HW211157   3.618   5.515   5.911
 3420SOL     OW11158   4.833   2.139   3.850
 3420SOL    HW111159   4.816   2.044   3.873
 3420SOL    HW211160   4.814   2.197   3.930
 3421SOL     OW11161   6.432   0.774   5.561
 3421SOL    HW111162   6.481   0.860   5.574
 3421SOL    HW211163   6.353   0.789   5.502
 3422SOL     OW11164   3.297   6.907   1.241
 3422SOL    HW111165   3.251   6.818   1.248
 3422SOL    HW211166   3.229   6.980   1.253
 3423SOL     OW11167   1.841   0.468   0.713
 3423SOL    HW111168   1.787   0.389   0.684
 3423SOL    HW211169   1.908   0.490   0.642
 3424SOL     OW11170   3.726   0.690   2.005
 3424SOL    HW111171   3.710   0.682   1.907
 3424SOL    HW211172   3.639   0.688   2.054
 3425SOL     OW11173   5.163   4.204   2.234
 3425SOL    HW111174   5.160   4.270   2.159
 3425SOL    HW211175   5.108   4.124   2.210
 3426SOL     OW11176   3.495   3.302   0.334
 3426SOL    HW111177   3.433   3.334   0.262
 3426SOL    HW211178   3.563   3.240   0.295
 3427SOL     OW11179   6.370   6.316   6.990
 3427SOL    HW111180   6.327   6.238   0.013
 3427SOL    HW211181   6.314   6.345   6.912
 3428SOL     OW11182   3.990   4.696   1.770
 3428SOL    HW111183   4.071   4.663   1.819
 3428SOL    HW211184   3.971   4.790   1.797
 3429SOL     OW11185   0.747   1.673   6.895
 3429SOL    HW111186   0.661   1.626   6.874
 3429SOL    HW211187   0.728   1.760   6.940
 3430SOL     OW11188   0.786   6.706   6.221
 3430SOL    HW111189   0.788   6.805   6.210
 3430SOL    HW211190   0.692   6.673   6.213
 3431SOL     OW11191   2.605   6.627   0.698
 3431SOL    HW111192   2.536   6.612   0.769
 3431SOL    HW211193   2.659   6.544   0.686
 3432SOL     OW11194   2.818   2.432   5.536
 3432SOL    HW111195   2.843   2.515   5.486
 3432SOL    HW211196   2.719   2.419   5.532
 3433SOL     OW11197   2.090   0.388   6.609
 3433SOL    HW111198   2.175   0.436   6.588
 3433SOL    HW211199   2.013   0.437   6.568
 3434SOL     OW11200   3.409   2.694   0.694
 3434SOL    HW111201   3.404   2.706   0.793
 3434SOL    HW211202   3.336   2.747   0.650
 3435SOL     OW11203   0.037   1.860   2.036
 3435SOL    HW111204   6.997   1.908   2.099
 3435SOL    HW211205   0.131   1.886   2.056
 3436SOL     OW11206   4.311   6.781   5.361
 3436SOL    HW111207   4.256   6.847   5.310
 3436SOL    HW211208   4.255   6.739   5.433
 3437SOL     OW11209   4.720   1.160   6.285
 3437SOL    HW111210   4.703   1.253   6.319
 3437SOL    HW211211   4.747   1.102   6.361
 3438SOL     OW11212   1.446   2.584   6.221
 3438SOL    HW111213   1.358   2.549   6.188
 3438SOL    HW211214   1.480   2.525   6.294
 3439SOL     OW11215   2.656   0.437   5.019
 3439SOL    HW111216   2.583   0.501   4.995
 3439SOL    HW211217   2.695   0.463   5.108
 3440SOL     OW11218   5.272   3.176   1.462
 3440SOL    HW111219   5.362   3.175   1.506
 3440SOL    HW211220   5.201   3.186   1.531
 3441SOL     OW11221   5.044   0.439   3.226
 3441SOL    HW111222   5.029   0.534   3.198
 3441SOL    HW211223   4.965   0.384   3.199
 3442SOL     OW11224   2.653   4.889   3.262
 3442SOL    HW111225   2.633   4.967   3.321
 3442SOL    HW211226   2.579   4.822   3.268
 3443SOL     OW11227   5.311   0.859   2.640
 3443SOL    HW111228   5.214   0.866   2.615
 3443SOL    HW211229   5.322   0.792   2.714
 3444SOL     OW11230   5.118   5.130   6.611
 3444SOL    HW111231   5.146   5.084   6.527
 3444SOL    HW211232   5.161   5.220   6.617
 3445SOL     OW11233   6.329   4.270   3.993
 3445SOL    HW111234   6.358   4.335   3.923
 3445SOL    HW211235   6.233   4.246   3.979
 3446SOL     OW11236   5.722   0.920   3.013
 3446SOL    HW111237   5.771   1.001   3.045
 3446SOL    HW211238   5.642   0.948   2.959
 3447SOL     OW11239   4.900   4.895   0.089
 3447SOL    HW111240   4.944   4.982   0.067
 3447SOL    HW211241   4.929   4.825   0.024
 3448SOL     OW11242   3.457   6.801   1.026
 3448SOL    HW111243   3.402   6.820   1.108
 3448SOL    HW211244   3.502   6.712   1.037
 3449SOL     OW11245   5.453   6.448   2.987
 3449SOL    HW111246   5.402   6.364   3.003
 3449SOL    HW211247   5.458   6.501   3.072
 3450SOL     OW11248   0.678   2.977   0.565
 3450SOL    HW111249   0.592   3.007   0.608
 3450SOL    HW211250   0.755   3.020   0.612
 3451SOL     OW11251   0.428   5.530   2.844
 3451SOL    HW111252   0.388   5.569   2.926
 3451SOL    HW211253   0.471   5.602   2.790
 3452SOL     OW11254   5.955   1.424   0.407
 3452SOL    HW111255   6.015   1.401   0.330
 3452SOL    HW211256   5.875   1.472   0.373
 3453SOL     OW11257   6.199   6.189   5.587
 3453SOL    HW111258   6.178   6.168   5.683
 3453SOL    HW211259   6.176   6.285   5.569
 3454SOL     OW11260   2.031   0.716   6.205
 3454SOL    HW111261   2.099   0.748   6.271
 3454SOL    HW211262   1.962   0.660   6.251
 3455SOL     OW11263   1.262   3.003   4.283
 3455SOL    HW111264   1.342   3.060   4.295
 3455SOL    HW211265   1.242   2.993   4.185
 3456SOL     OW11266   5.490   6.618   2.346
 3456SOL    HW111267   5.550   6.591   2.421
 3456SOL    HW211268   5.543   6.624   2.261
 3457SOL     OW11269   2.309   5.085   4.144
 3457SOL    HW111270   2.352   5.125   4.063
 3457SOL    HW211271   2.254   5.006   4.117
 3458SOL     OW11272   5.590   6.698   6.854
 3458SOL    HW111273   5.551   6.707   6.762
 3458SOL    HW211274   5.681   6.657   6.848
 3459SOL     OW11275   0.494   4.261   3.017
 3459SOL    HW111276   0.564   4.229   2.952
 3459SOL    HW211277   0.456   4.183   3.066
 3460SOL     OW11278   3.233   3.035   0.571
 3460SOL    HW111279   3.211   3.070   0.663
 3460SOL    HW211280   3.321   3.073   0.542
 3461SOL     OW11281   4.664   5.450   3.900
 3461SOL    HW111282   4.695   5.502   3.820
 3461SOL    HW211283   4.602   5.506   3.955
 3462SOL     OW11284   6.019   3.825   1.554
 3462SOL    HW111285   5.984   3.784   1.470
 3462SOL    HW211286   6.006   3.924   1.551
 3463SOL     OW11287   0.695   3.268   2.696
 3463SOL    HW111288   0.766   3.292   2.762
 3463SOL    HW211289   0.627   3.210   2.740
 3464SOL     OW11290   5.787   2.255   0.044
 3464SOL    HW111291   5.872   2.216   0.010
 3464SOL    HW211292   5.792   2.355   0.043
 3465SOL     OW11293   1.144   2.965   1.921
 3465SOL    HW111294   1.182   2.936   1.834
 3465SOL    HW211295   1.047   2.941   1.925
 3466SOL     OW11296   5.437   5.072   5.739
 3466SOL    HW111297   5.517   5.012   5.733
 3466SOL    HW211298   5.426   5.122   5.654
 3467SOL     OW11299   2.285   1.570   1.142
 3467SOL    HW111300   2.294   1.594   1.045
 3467SOL    HW211301   2.305   1.650   1.198
 3468SOL     OW11302   5.937   1.975   2.881
 3468SOL    HW111303   5.978   2.006   2.967
 3468SOL    HW211304   5.838   1.973   2.891
 3469SOL     OW11305   5.184   1.294   5.907
 3469SOL    HW111306   5.217   1.278   6.000
 3469SOL    HW211307   5.258   1.333   5.853
 3470SOL     OW11308   0.225   2.766   2.110
 3470SOL    HW111309   0.130   2.776   2.078
 3470SOL    HW211310   0.225   2.722   2.199
 3471SOL     OW11311   4.620   4.311   3.863
 3471SOL    HW111312   4.633   4.372   3.784
 3471SOL    HW211313   4.626   4.216   3.832
 3472SOL     OW11314   3.903   0.866   1.274
 3472SOL    HW111315   3.899   0.916   1.187
 3472SOL    HW211316   3.918   0.931   1.348
 3473SOL     OW11317   5.947   3.436   3.483
 3473SOL    HW111318   5.980   3.401   3.570
 3473SOL    HW211319   5.990   3.525   3.464
 3474SOL     OW11320   0.580   4.030   3.931
 3474SOL    HW111321   0.542   4.072   3.849
 3474SOL    HW211322   0.590   3.932   3.917
 3475SOL     OW11323   0.748   4.170   4.862
 3475SOL    HW111324   0.793   4.230   4.928
 3475SOL    HW211325   0.659   4.209   4.837
 3476SOL     OW11326   1.922   2.338   2.685
 3476SOL    HW111327   1.984   2.260   2.676
 3476SOL    HW211328   1.829   2.309   2.664
 3477SOL     OW11329   0.940   4.387   0.634
 3477SOL    HW111330   0.870   4.414   0.568
 3477SOL    HW211331   0.997   4.315   0.595
 3478SOL     OW11332   2.802   6.319   6.744
 3478SOL    HW111333   2.733   6.361   6.685
 3478SOL    HW211334   2.832   6.385   6.813
 3479SOL     OW11335   0.721   0.906   2.953
 3479SOL    HW111336   0.691   1.001   2.962
 3479SOL    HW211337   0.799   0.890   3.013
 3480SOL     OW11338   0.897   6.055   5.550
 3480SOL    HW111339   0.938   6.143   5.527
 3480SOL    HW211340   0.831   6.029   5.480
 3481SOL     OW11341   5.138   0.314   0.279
 3481SOL    HW111342   5.071   0.315   0.353
 3481SOL    HW211343   5.196   0.233   0.287
 3482SOL     OW11344   5.773   1.274   2.279
 3482SOL    HW111345   5.680   1.239   2.288
 3482SOL    HW211346   5.778   1.336   2.200
 3483SOL     OW11347   5.682   1.901   3.036
 3483SOL    HW111348   5.587   1.927   3.054
 3483SOL    HW211349   5.707   1.823   3.093
 3484SOL     OW11350   1.129   3.070   6.747
 3484SOL    HW111351   1.084   3.114   6.825
 3484SOL    HW211352   1.153   2.976   6.772
 3485SOL     OW11353   1.171   2.175   4.450
 3485SOL    HW111354   1.181   2.237   4.528
 3485SOL    HW211355   1.247   2.110   4.448
 3486SOL     OW11356   1.938   0.466   4.023
 3486SOL    HW111357   1.874   0.428   3.957
 3486SOL    HW211358   1.943   0.406   4.103
 3487SOL     OW11359   6.494   2.390   6.982
 3487SOL    HW111360   6.548   2.404   0.043
 3487SOL    HW211361   6.397   2.398   7.004
 3488SOL     OW11362   5.521   1.009   4.859
 3488SOL    HW111363   5.599   0.981   4.916
 3488SOL    HW211364   5.511   0.946   4.782
 3489SOL     OW11365   3.807   0.110   1.801
 3489SOL    HW111366   3.709   0.119   1.784
 3489SOL    HW211367   3.845   0.200   1.823
 3490SOL     OW11368   3.345   4.693   1.372
 3490SOL    HW111369   3.358   4.665   1.468
 3490SOL    HW211370   3.277   4.633   1.329
 3491SOL     OW11371   4.110   3.284   6.147
 3491SOL    HW111372   4.014   3.293   6.120
 3491SOL    HW211373   4.164   3.252   6.069
 3492SOL     OW11374   5.769   4.500   0.469
 3492SOL    HW111375   5.688   4.558   0.463
 3492SOL    HW211376   5.782   4.471   0.564
 3493SOL     OW11377   5.781   3.818   4.098
 3493SOL    HW111378   5.840   3.778   4.168
 3493SOL    HW211379   5.803   3.915   4.088
 3494SOL     OW11380   2.462   0.617   2.039
 3494SOL    HW111381   2.493   0.700   1.993
 3494SOL    HW211382   2.372   0.590   2.004
 3495SOL     OW11383   0.447   4.075   2.354
 3495SOL    HW111384   0.371   4.091   2.291
 3495SOL    HW211385   0.448   3.979   2.382
 3496SOL     OW11386   5.828   5.497   1.202
 3496SOL    HW111387   5.809   5.458   1.292
 3496SOL    HW211388   5.926   5.493   1.184
 3497SOL     OW11389   2.568   1.362   4.180
 3497SOL    HW111390   2.511   1.285   4.211
 3497SOL    HW211391   2.644   1.327   4.126
 3498SOL     OW11392   3.158   1.288   2.386
 3498SOL    HW111393   3.197   1.235   2.462
 3498SOL    HW211394   3.156   1.385   2.411
 3499SOL     OW11395   6.724   4.969   4.097
 3499SOL    HW111396   6.737   4.907   4.020
 3499SOL    HW211397   6.794   4.952   4.166
 3500SOL     OW11398   1.826   2.802   2.933
 3500SOL    HW111399   1.878   2.824   2.850
 3500SOL    HW211400   1.752   2.739   2.910
 3501SOL     OW11401   3.610   6.939   6.363
 3501SOL    HW111402   3.692   6.996   6.365
 3501SOL    HW211403   3.580   6.926   6.269
 3502SOL     OW11404   6.807   2.795   1.827
 3502SOL    HW111405   6.862   2.870   1.792
 3502SOL    HW211406   6.761   2.825   1.911
 3503SOL     OW11407   6.853   6.211   5.749
 3503SOL    HW111408   6.802   6.296   5.737
 3503SOL    HW211409   6.877   6.173   5.660
 3504SOL     OW11410   1.980   0.735   1.915
 3504SOL    HW111411   1.935   0.650   1.888
 3504SOL    HW211412   1.924   0.782   1.982
 3505SOL     OW11413   5.358   4.761   5.084
 3505SOL    HW111414   5.439   4.812   5.054
 3505SOL    HW211415   5.279   4.821   5.087
 3506SOL     OW11416   5.634   4.634   4.942
 3506SOL    HW111417   5.702   4.599   4.877
 3506SOL    HW211418   5.568   4.691   4.894
 3507SOL     OW11419   2.859   0.321   0.854
 3507SOL    HW111420   2.789   0.265   0.898
 3507SOL    HW211421   2.819   0.406   0.820
 3508SOL     OW11422   2.163   1.846   6.393
 3508SOL    HW111423   2.263   1.838   6.398
 3508SOL    HW211424   2.126   1.859   6.485
 3509SOL     OW11425   5.638   0.029   6.522
 3509SOL    HW111426   5.726   0.004   6.563
 3509SOL    HW211427   5.611   0.120   6.552
 3510SOL     OW11428   1.353   0.524   1.762
 3510SOL    HW111429   1.358   0.483   1.853
 3510SOL    HW211430   1.380   0.457   1.693
 3511SOL     OW11431   2.147   4.165   1.577
 3511SOL    HW111432   2.111   4.076   1.604
 3511SOL    HW211433   2.124   4.233   1.646
 3512SOL     OW11434   0.307   4.393   0.831
 3512SOL    HW111435   0.380   4.324   0.829
 3512SOL    HW211436   0.342   4.479   0.793
 3513SOL     OW11437   6.003   2.104   0.878
 3513SOL    HW111438   6.034   2.014   0.908
 3513SOL    HW211439   6.036   2.122   0.786
 3514SOL     OW11440   6.679   0.940   1.463
 3514SOL    HW111441   6.717   0.975   1.378
 3514SOL    HW211442   6.728   0.856   1.489
 3515SOL     OW11443   5.341   6.169   3.002
 3515SOL    HW111444   5.372   6.175   3.097
 3515SOL    HW211445   5.373   6.084   2.961
 3516SOL     OW11446   4.624   6.206   0.925
 3516SOL    HW111447   4.553   6.239   0.988
 3516SOL    HW211448   4.657   6.283   0.869
 3517SOL     OW11449   0.281   1.348   1.095
 3517SOL    HW111450   0.356   1.314   1.152
 3517SOL    HW211451   0.256   1.277   1.029
 3518SOL     OW11452   4.991   2.859   5.049
 3518SOL    HW111453   4.966   2.792   5.119
 3518SOL    HW211454   5.072   2.909   5.079
 3519SOL     OW11455   1.767   0.375   5.608
 3519SOL    HW111456   1.768   0.411   5.701
 3519SOL    HW211457   1.732   0.446   5.546
 3520SOL     OW11458   3.462   6.337   0.357
 3520SOL    HW111459   3.516   6.345   0.273
 3520SOL    HW211460   3.365   6.348   0.334
 3521SOL     OW11461   4.427   2.551   0.448
 3521SOL    HW111462   4.393   2.632   0.496
 3521SOL    HW211463   4.499   2.579   0.384
 3522SOL     OW11464   6.751   5.975   6.610
 3522SOL    HW111465   6.833   6.011   6.565
 3522SOL    HW211466   6.690   6.051   6.633
 3523SOL     OW11467   1.600   4.118   4.966
 3523SOL    HW111468   1.526   4.111   5.033
 3523SOL    HW211469   1.687   4.096   5.011
 3524SOL     OW11470   5.025   2.070   1.680
 3524SOL    HW111471   5.030   2.163   1.715
 3524SOL    HW211472   5.077   2.009   1.740
 3525SOL     OW11473   6.591   3.680   4.087
 3525SOL    HW111474   6.622   3.716   4.174
 3525SOL    HW211475   6.647   3.719   4.013
 3526SOL     OW11476   2.201   6.748   3.970
 3526SOL    HW111477   2.210   6.785   4.063
 3526SOL    HW211478   2.291   6.738   3.929
 3527SOL     OW11479   5.795   3.543   6.484
 3527SOL    HW111480   5.740   3.460   6.497
 3527SOL    HW211481   5.869   3.524   6.420
 3528SOL     OW11482   2.258   6.869   5.438
 3528SOL    HW111483   2.196   6.896   5.365
 3528SOL    HW211484   2.238   6.921   5.520
 3529SOL     OW11485   3.934   6.571   1.057
 3529SOL    HW111486   3.907   6.665   1.037
 3529SOL    HW211487   3.853   6.514   1.064
 3530SOL     OW11488   6.839   5.614   1.279
 3530SOL    HW111489   6.938   5.613   1.263
 3530SOL    HW211490   6.820   5.653   1.369
 3531SOL     OW11491   5.328   2.279   0.646
 3531SOL    HW111492   5.425   2.263   0.628
 3531SOL    HW211493   5.276   2.263   0.563
 3532SOL     OW11494   2.761   0.482   1.572
 3532SOL    HW111495   2.812   0.399   1.551
 3532SOL    HW211496   2.777   0.508   1.667
 3533SOL     OW11497   0.196   1.071   2.487
 3533SOL    HW111498   0.150   1.087   2.399
 3533SOL    HW211499   0.164   0.985   2.526
 3534SOL     OW11500   0.582   1.999   0.674
 3534SOL    HW111501   0.523   1.931   0.629
 3534SOL    HW211502   0.588   2.081   0.617
 3535SOL     OW11503   1.843   5.211   6.351
 3535SOL    HW111504   1.880   5.130   6.305
 3535SOL    HW211505   1.892   5.226   6.437
 3536SOL     OW11506   3.423   1.808   2.858
 3536SOL    HW111507   3.431   1.763   2.769
 3536SOL    HW211508   3.494   1.773   2.919
 3537SOL     OW11509   2.321   5.474   2.689
 3537SOL    HW111510   2.294   5.549   2.628
 3537SOL    HW211511   2.273   5.483   2.776
 3538SOL     OW11512   2.561   6.238   5.363
 3538SOL    HW111513   2.562   6.320   5.306
 3538SOL    HW211514   2.512   6.165   5.315
 3539SOL     OW11515   3.868   3.660   5.034
 3539SOL    HW111516   3.822   3.578   5.069
 3539SOL    HW211517   3.825   3.688   4.948
 3540SOL     OW11518   1.814   2.818   4.703
 3540SOL    HW111519   1.840   2.893   4.763
 3540SOL    HW211520   1.740   2.766   4.746
 3541SOL     OW11521   2.593   2.513   6.111
 3541SOL    HW111522   2.688   2.484   6.112
 3541SOL    HW211523   2.583   2.597   6.165
 3542SOL     OW11524   1.322   5.488   3.456
 3542SOL    HW111525   1.298   5.461   3.550
 3542SOL    HW211526   1.381   5.418   3.416
 3543SOL     OW11527   0.338   2.793   5.053
 3543SOL    HW111528   0.360   2.814   5.148
 3543SOL    HW211529   0.398   2.720   5.019
 3544SOL     OW11530   1.144   3.853   6.165
 3544SOL    HW111531   1.202   3.859   6.084
 3544SOL    HW211532   1.149   3.939   6.216
 3545SOL     OW11533   3.904   5.983   6.510
 3545SOL    HW111534   3.837   5.928   6.460
 3545SOL    HW211535   3.948   5.927   6.580
 3546SOL     OW11536   1.111   4.879   4.040
 3546SOL    HW111537   1.132   4.793   3.992
 3546SOL    HW211538   1.194   4.912   4.086
 3547SOL     OW11539   5.306   4.366   3.516
 3547SOL    HW111540   5.319   4.403   3.424
 3547SOL    HW211541   5.291   4.441   3.580
 3548SOL     OW11542   5.791   1.535   6.129
 3548SOL    HW111543   5.790   1.635   6.125
 3548SOL    HW211544   5.826   1.498   6.043
 3549SOL     OW11545   6.450   4.643   5.026
 3549SOL    HW111546   6.505   4.713   5.072
 3549SOL    HW211547   6.506   4.562   5.011
 3550SOL     OW11548   5.577   1.995   2.642
 3550SOL    HW111549   5.610   2.038   2.726
 3550SOL    HW211550   5.494   1.942   2.661
 3551SOL     OW11551   4.085   6.629   2.502
 3551SOL    HW111552   3.998   6.676   2.488
 3551SOL    HW211553   4.074   6.531   2.486
 3552SOL     OW11554   4.987   5.977   1.835
 3552SOL    HW111555   4.995   6.033   1.917
 3552SOL    HW211556   5.078   5.948   1.806
 3553SOL     OW11557   5.775   3.556   1.242
 3553SOL    HW111558   5.766   3.610   1.158
 3553SOL    HW211559   5.689   3.509   1.260
 3554SOL     OW11560   3.882   2.562   1.062
 3554SOL    HW111561   3.897   2.547   1.160
 3554SOL    HW211562   3.783   2.571   1.045
 3555SOL     OW11563   1.075   3.311   3.179
 3555SOL    HW111564   0.999   3.284   3.238
 3555SOL    HW211565   1.054   3.400   3.137
 3556SOL     OW11566   3.999   0.853   4.832
 3556SOL    HW111567   3.954   0.771   4.868
 3556SOL    HW211568   4.001   0.848   4.732
 3557SOL     OW11569   0.474   0.218   3.528
 3557SOL    HW111570   0.382   0.208   3.490
 3557SOL    HW211571   0.493   0.315   3.543
 3558SOL     OW11572   0.818   5.717   0.886
 3558SOL    HW111573   0.891   5.686   0.948
 3558SOL    HW211574   0.859   5.746   0.800
 3559SOL     OW11575   0.650   0.108   4.860
 3559SOL    HW111576   0.635   0.206   4.870
 3559SOL    HW211577   0.729   0.092   4.802
 3560SOL     OW11578   1.215   5.267   0.901
 3560SOL    HW111579   1.152   5.239   0.973
 3560SOL    HW211580   1.309   5.260   0.934
 3561SOL     OW11581   3.775   5.022   5.232
 3561SOL    HW111582   3.764   5.057   5.139
 3561SOL    HW211583   3.688   4.984   5.264
 3562SOL     OW11584   5.189   0.802   3.990
 3562SOL    HW111585   5.153   0.861   3.918
 3562SOL    HW211586   5.185   0.850   4.078
 3563SOL     OW11587   5.036   0.334   1.476
 3563SOL    HW111588   4.982   0.389   1.540
 3563SOL    HW211589   5.116   0.385   1.447
 3564SOL     OW11590   1.434   4.847   4.558
 3564SOL    HW111591   1.532   4.846   4.578
 3564SOL    HW211592   1.413   4.775   4.492
 3565SOL     OW11593   4.037   6.289   4.449
 3565SOL    HW111594   4.107   6.320   4.385
 3565SOL    HW211595   4.042   6.344   4.533
 3566SOL     OW11596   6.253   3.661   6.773
 3566SOL    HW111597   6.305   3.727   6.718
 3566SOL    HW211598   6.297   3.649   6.861
 3567SOL     OW11599   0.921   2.632   0.134
 3567SOL    HW111600   0.970   2.545   0.141
 3567SOL    HW211601   0.918   2.661   0.039
 3568SOL     OW11602   5.063   5.209   3.520
 3568SOL    HW111603   5.026   5.279   3.581
 3568SOL    HW211604   5.141   5.247   3.471
 3569SOL     OW11605   2.792   2.691   5.912
 3569SOL    HW111606   2.785   2.779   5.958
 3569SOL    HW211607   2.727   2.688   5.836
 3570SOL     OW11608   5.394   0.605   4.507
 3570SOL    HW111609   5.317   0.568   4.455
 3570SOL    HW211610   5.459   0.531   4.527
 3571SOL     OW11611   2.161   0.766   5.189
 3571SOL    HW111612   2.152   0.828   5.267
 3571SOL    HW211613   2.203   0.814   5.112
 3572SOL     OW11614   5.583   3.730   2.901
 3572SOL    HW111615   5.622   3.640   2.919
 3572SOL    HW211616   5.621   3.767   2.816
 3573SOL     OW11617   6.167   4.013   2.497
 3573SOL    HW111618   6.127   4.000   2.406
 3573SOL    HW211619   6.198   3.925   2.532
 3574SOL     OW11620   1.374   3.825   0.222
 3574SOL    HW111621   1.421   3.760   0.163
 3574SOL    HW211622   1.285   3.788   0.249
 3575SOL     OW11623   5.030   5.744   1.957
 3575SOL    HW111624   5.024   5.784   1.866
 3575SOL    HW211625   4.946   5.763   2.008
 3576SOL     OW11626   0.464   2.100   0.232
 3576SOL    HW111627   0.484   2.186   0.280
 3576SOL    HW211628   0.385   2.056   0.274
 3577SOL     OW11629   2.608   2.754   6.269
 3577SOL    HW111630   2.520   2.795   6.244
 3577SOL    HW211631   2.681   2.820   6.251
 3578SOL     OW11632   4.610   2.397   1.237
 3578SOL    HW111633   4.579   2.437   1.323
 3578SOL    HW211634   4.551   2.319   1.214
 3579SOL     OW11635   6.882   2.713   2.841
 3579SOL    HW111636   6.843   2.777   2.774
 3579SOL    HW211637   6.839   2.623   2.829
 3580SOL     OW11638   6.634   3.521   0.752
 3580SOL    HW111639   6.599   3.521   0.659
 3580SOL    HW211640   6.660   3.615   0.778
 3581SOL     OW11641   0.464   6.641   2.532
 3581SOL    HW111642   0.507   6.551   2.522
 3581SOL    HW211643   0.520   6.699   2.591
 3582SOL     OW11644   2.514   4.734   5.908
 3582SOL    HW111645   2.472   4.703   5.994
 3582SOL    HW211646   2.507   4.833   5.902
 3583SOL     OW11647   1.132   4.357   0.299
 3583SOL    HW111648   1.203   4.349   0.229
 3583SOL    HW211649   1.174   4.350   0.390
 3584SOL     OW11650   5.559   4.689   5.581
 3584SOL    HW111651   5.530   4.722   5.490
 3584SOL    HW211652   5.653   4.657   5.576
 3585SOL     OW11653   3.413   1.731   4.729
 3585SOL    HW111654   3.446   1.638   4.712
 3585SOL    HW211655   3.490   1.788   4.757
 3586SOL     OW11656   0.030   2.795   4.935
 3586SOL    HW111657   0.119   2.774   4.976
 3586SOL    HW211658   0.043   2.839   4.846
 3587SOL     OW11659   3.043   5.429   6.386
 3587SOL    HW111660   3.100   5.349   6.404
 3587SOL    HW211661   3.098   5.512   6.392
 3588SOL     OW11662   6.816   3.938   4.438
 3588SOL    HW111663   6.881   3.902   4.505
 3588SOL    HW211664   6.866   3.984   4.365
 3589SOL     OW11665   5.830   6.398   6.628
 3589SOL    HW111666   5.855   6.480   6.678
 3589SOL    HW211667   5.852   6.410   6.531
 3590SOL     OW11668   0.448   3.899   0.527
 3590SOL    HW111669   0.399   3.812   0.529
 3590SOL    HW211670   0.493   3.914   0.615
 3591SOL     OW11671   5.462   2.948   1.031
 3591SOL    HW111672   5.494   3.029   0.982
 3591SOL    HW211673   5.426   2.975   1.120
 3592SOL     OW11674   0.370   0.108   2.517
 3592SOL    HW111675   0.359   0.131   2.614
 3592SOL    HW211676   0.348   0.012   2.504
 3593SOL     OW11677   0.708   4.647   6.095
 3593SOL    HW111678   0.615   4.613   6.079
 3593SOL    HW211679   0.703   4.739   6.133
 3594SOL     OW11680   4.969   0.354   4.408
 3594SOL    HW111681   4.933   0.370   4.317
 3594SOL    HW211682   4.911   0.398   4.476
 3595SOL     OW11683   6.153   5.903   0.317
 3595SOL    HW111684   6.216   5.837   0.275
 3595SOL    HW211685   6.129   5.872   0.409
 3596SOL     OW11686   4.312   2.295   3.479
 3596SOL    HW111687   4.372   2.311   3.557
 3596SOL    HW211688   4.340   2.355   3.404
 3597SOL     OW11689   2.024   2.662   5.781
 3597SOL    HW111690   2.086   2.738   5.760
 3597SOL    HW211691   2.042   2.630   5.874
 3598SOL     OW11692   1.794   6.298   5.394
 3598SOL    HW111693   1.843   6.336   5.472
 3598SOL    HW211694   1.807   6.357   5.314
 3599SOL     OW11695   4.926   2.257   6.863
 3599SOL    HW111696   4.858   2.207   6.916
 3599SOL    HW211697   4.951   2.204   6.782
 3600SOL     OW11698   1.467   3.537   1.864
 3600SOL    HW111699   1.476   3.597   1.943
 3600SOL    HW211700   1.372   3.511   1.851
 3601SOL     OW11701   5.545   2.137   5.847
 3601SOL    HW111702   5.616   2.068   5.836
 3601SOL    HW211703   5.471   2.100   5.904
 3602SOL     OW11704   1.980   3.021   0.404
 3602SOL    HW111705   1.968   3.087   0.477
 3602SOL    HW211706   1.934   3.053   0.321
 3603SOL     OW11707   3.393   0.859   5.993
 3603SOL    HW111708   3.490   0.839   6.006
 3603SOL    HW211709   3.339   0.779   6.017
 3604SOL     OW11710   5.983   1.223   3.684
 3604SOL    HW111711   6.052   1.286   3.719
 3604SOL    HW211712   5.901   1.274   3.658
 3605SOL     OW11713   1.037   5.278   4.114
 3605SOL    HW111714   1.047   5.259   4.211
 3605SOL    HW211715   0.970   5.215   4.075
 3606SOL     OW11716   1.603   6.583   2.515
 3606SOL    HW111717   1.546   6.559   2.594
 3606SOL    HW211718   1.630   6.679   2.521
 3607SOL     OW11719   5.308   2.549   2.638
 3607SOL    HW111720   5.210   2.534   2.633
 3607SOL    HW211721   5.332   2.632   2.588
 3608SOL     OW11722   5.135   1.308   3.795
 3608SOL    HW111723   5.095   1.228   3.751
 3608SOL    HW211724   5.087   1.326   3.881
 3609SOL     OW11725   2.043   6.794   4.610
 3609SOL    HW111726   2.059   6.879   4.560
 3609SOL    HW211727   1.948   6.790   4.640
 3610SOL     OW11728   1.634   0.532   5.417
 3610SOL    HW111729   1.547   0.573   5.388
 3610SOL    HW211730   1.689   0.511   5.336
 3611SOL     OW11731   4.324   4.654   4.131
 3611SOL    HW111732   4.374   4.570   4.113
 3611SOL    HW211733   4.281   4.687   4.047
 3612SOL     OW11734   6.587   1.369   6.827
 3612SOL    HW111735   6.616   1.430   6.901
 3612SOL    HW211736   6.667   1.320   6.792
 3613SOL     OW11737   4.042   5.131   2.175
 3613SOL    HW111738   3.987   5.174   2.104
 3613SOL    HW211739   4.074   5.042   2.142
 3614SOL     OW11740   3.069   3.335   6.796
 3614SOL    HW111741   3.007   3.379   6.861
 3614SOL    HW211742   3.143   3.398   6.773
 3615SOL     OW11743   5.826   2.760   5.982
 3615SOL    HW111744   5.785   2.740   6.071
 3615SOL    HW211745   5.762   2.734   5.909
 3616SOL     OW11746   1.756   1.282   6.558
 3616SOL    HW111747   1.695   1.266   6.480
 3616SOL    HW211748   1.829   1.214   6.558
 3617SOL     OW11749   4.734   0.453   6.060
 3617SOL    HW111750   4.669   0.381   6.086
 3617SOL    HW211751   4.811   0.412   6.012
 3618SOL     OW11752   2.337   3.386   5.379
 3618SOL    HW111753   2.423   3.341   5.356
 3618SOL    HW211754   2.356   3.479   5.411
 3619SOL     OW11755   5.572   3.071   0.565
 3619SOL    HW111756   5.650   3.070   0.628
 3619SOL    HW211757   5.522   3.157   0.577
 3620SOL     OW11758   6.341   5.824   4.738
 3620SOL    HW111759   6.374   5.746   4.791
 3620SOL    HW211760   6.247   5.807   4.708
 3621SOL     OW11761   3.355   3.241   4.122
 3621SOL    HW111762   3.381   3.166   4.182
 3621SOL    HW211763   3.434   3.271   4.069
 3622SOL     OW11764   0.866   0.356   1.259
 3622SOL    HW111765   0.866   0.262   1.292
 3622SOL    HW211766   0.882   0.358   1.161
 3623SOL     OW11767   0.564   6.001   4.975
 3623SOL    HW111768   0.655   5.972   4.946
 3623SOL    HW211769   0.537   5.949   5.056
 3624SOL     OW11770   1.471   6.867   1.783
 3624SOL    HW111771   1.480   6.773   1.815
 3624SOL    HW211772   1.402   6.872   1.711
 3625SOL     OW11773   0.334   3.332   6.986
 3625SOL    HW111774   0.249   3.381   6.971
 3625SOL    HW211775   0.411   3.395   6.982
 3626SOL     OW11776   0.491   3.613   4.492
 3626SOL    HW111777   0.590   3.602   4.479
 3626SOL    HW211778   0.465   3.574   4.580
 3627SOL     OW11779   5.097   3.259   1.657
 3627SOL    HW111780   5.038   3.197   1.707
 3627SOL    HW211781   5.079   3.353   1.686
 3628SOL     OW11782   1.646   1.344   2.236
 3628SOL    HW111783   1.662   1.443   2.243
 3628SOL    HW211784   1.733   1.298   2.218
 3629SOL     OW11785   1.331   0.508   4.133
 3629SOL    HW111786   1.379   0.573   4.074
 3629SOL    HW211787   1.234   0.531   4.135
 3630SOL     OW11788   6.733   2.707   3.254
 3630SOL    HW111789   6.665   2.653   3.205
 3630SOL    HW211790   6.752   2.665   3.343
 3631SOL     OW11791   1.970   6.626   3.937
 3631SOL    HW111792   1.979   6.579   3.850
 3631SOL    HW211793   2.059   6.660   3.966
 3632SOL     OW11794   4.469   4.006   1.083
 3632SOL    HW111795   4.504   3.978   1.172
 3632SOL    HW211796   4.374   4.036   1.092
 3633SOL     OW11797   3.518   2.452   5.441
 3633SOL    HW111798   3.594   2.508   5.409
 3633SOL    HW211799   3.447   2.511   5.481
 3634SOL     OW11800   1.980   6.292   6.242
 3634SOL    HW111801   2.072   6.319   6.216
 3634SOL    HW211802   1.930   6.371   6.277
 3635SOL     OW11803   2.559   1.354   1.165
 3635SOL    HW111804   2.475   1.318   1.124
 3635SOL    HW211805   2.597   1.286   1.227
 3636SOL     OW11806   0.128   5.494   0.909
 3636SOL    HW111807   0.095   5.428   0.976
 3636SOL    HW211808   0.057   5.562   0.890
 3637SOL     OW11809   1.096   2.418   0.385
 3637SOL    HW111810   1.108   2.515   0.405
 3637SOL    HW211811   1.095   2.404   0.286
 3638SOL     OW11812   6.791   3.743   2.663
 3638SOL    HW111813   6.719   3.687   2.622
 3638SOL    HW211814   6.758   3.785   2.747
 3639SOL     OW11815   3.824   4.446   5.569
 3639SOL    HW111816   3.883   4.488   5.500
 3639SOL    HW211817   3.852   4.351   5.584
 3640SOL     OW11818   5.683   2.429   0.330
 3640SOL    HW111819   5.636   2.516   0.349
 3640SOL    HW211820   5.639   2.383   0.253
 3641SOL     OW11821   5.149   4.698   1.117
 3641SOL    HW111822   5.210   4.775   1.135
 3641SOL    HW211823   5.106   4.669   1.203
 3642SOL     OW11824   5.331   1.855   6.528
 3642SOL    HW111825   5.307   1.947   6.497
 3642SOL    HW211826   5.277   1.832   6.609
 3643SOL     OW11827   4.141   6.810   5.947
 3643SOL    HW111828   4.221   6.764   5.910
 3643SOL    HW211829   4.158   6.908   5.951
 3644SOL     OW11830   3.485   1.312   1.526
 3644SOL    HW111831   3.386   1.313   1.540
 3644SOL    HW211832   3.510   1.228   1.478
 3645SOL     OW11833   1.466   3.753   3.973
 3645SOL    HW111834   1.550   3.807   3.968
 3645SOL    HW211835   1.394   3.807   4.015
 3646SOL     OW11836   2.455   4.940   4.812
 3646SOL    HW111837   2.377   4.878   4.823
 3646SOL    HW211838   2.507   4.943   4.898
 3647SOL     OW11839   2.860   0.093   6.739
 3647SOL    HW111840   2.901   0.157   6.675
 3647SOL    HW211841   2.774   0.058   6.701
 3648SOL     OW11842   5.242   5.968   3.261
 3648SOL    HW111843   5.226   5.920   3.174
 3648SOL    HW211844   5.262   6.064   3.242
 3649SOL     OW11845   5.765   4.167   0.111
 3649SOL    HW111846   5.742   4.072   0.091
 3649SOL    HW211847   5.793   4.175   0.207
 3650SOL     OW11848   5.536   4.260   0.986
 3650SOL    HW111849   5.629   4.238   0.955
 3650SOL    HW211850   5.525   4.360   0.991
 3651SOL     OW11851   2.108   1.400   5.946
 3651SOL    HW111852   2.155   1.387   5.858
 3651SOL    HW211853   2.069   1.492   5.949
 3652SOL     OW11854   5.855   0.848   2.309
 3652SOL    HW111855   5.827   0.752   2.317
 3652SOL    HW211856   5.778   0.908   2.329
 3653SOL     OW11857   0.934   0.949   2.733
 3653SOL    HW111858   0.843   0.933   2.772
 3653SOL    HW211859   0.998   0.882   2.770
 3654SOL     OW11860   4.723   6.055   0.414
 3654SOL    HW111861   4.808   6.020   0.374
 3654SOL    HW211862   4.727   6.049   0.513
 3655SOL     OW11863   2.976   1.259   4.113
 3655SOL    HW111864   2.921   1.262   4.030
 3655SOL    HW211865   2.922   1.292   4.190
 3656SOL     OW11866   0.382   5.240   1.461
 3656SOL    HW111867   0.353   5.226   1.366
 3656SOL    HW211868   0.355   5.332   1.491
 3657SOL     OW11869   4.525   6.266   5.478
 3657SOL    HW111870   4.504   6.353   5.433
 3657SOL    HW211871   4.624   6.250   5.474
 3658SOL     OW11872   1.172   5.094   6.272
 3658SOL    HW111873   1.189   4.997   6.255
 3658SOL    HW211874   1.181   5.146   6.187
 3659SOL     OW11875   0.495   1.241   6.446
 3659SOL    HW111876   0.484   1.188   6.362
 3659SOL    HW211877   0.534   1.330   6.424
 3660SOL     OW11878   5.930   6.461   5.419
 3660SOL    HW111879   5.841   6.425   5.448
 3660SOL    HW211880   6.000   6.433   5.485
 3661SOL     OW11881   0.050   0.959   4.441
 3661SOL    HW111882   0.072   0.912   4.356
 3661SOL    HW211883   6.983   0.928   4.475
 3662SOL     OW11884   4.092   1.129   5.758
 3662SOL    HW111885   4.141   1.077   5.689
 3662SOL    HW211886   3.997   1.142   5.730
 3663SOL     OW11887   2.316   2.093   6.619
 3663SOL    HW111888   2.294   2.190   6.608
 3663SOL    HW211889   2.385   2.066   6.552
 3664SOL     OW11890   4.335   1.680   2.271
 3664SOL    HW111891   4.401   1.750   2.301
 3664SOL    HW211892   4.346   1.664   2.173
 3665SOL     OW11893   0.539   6.161   5.533
 3665SOL    HW111894   0.592   6.160   5.448
 3665SOL    HW211895   0.495   6.250   5.544
 3666SOL     OW11896   1.604   2.412   3.304
 3666SOL    HW111897   1.682   2.399   3.242
 3666SOL    HW211898   1.569   2.505   3.295
 3667SOL     OW11899   1.122   1.638   3.082
 3667SOL    HW111900   1.195   1.572   3.100
 3667SOL    HW211901   1.109   1.646   2.983
 3668SOL     OW11902   1.156   0.336   1.882
 3668SOL    HW111903   1.171   0.269   1.809
 3668SOL    HW211904   1.081   0.396   1.857
 3669SOL     OW11905   5.901   1.768   4.467
 3669SOL    HW111906   5.863   1.815   4.547
 3669SOL    HW211907   5.998   1.750   4.483
 3670SOL     OW11908   3.111   4.859   1.438
 3670SOL    HW111909   3.126   4.912   1.522
 3670SOL    HW211910   3.198   4.824   1.405
 3671SOL     OW11911   6.425   1.327   3.322
 3671SOL    HW111912   6.373   1.244   3.300
 3671SOL    HW211913   6.450   1.374   3.238
 3672SOL     OW11914   5.892   1.417   2.487
 3672SOL    HW111915   5.857   1.382   2.400
 3672SOL    HW211916   5.965   1.483   2.470
 3673SOL     OW11917   4.318   5.997   0.284
 3673SOL    HW111918   4.320   6.033   0.191
 3673SOL    HW211919   4.230   6.019   0.326
 3674SOL     OW11920   0.917   6.184   5.834
 3674SOL    HW111921   0.887   6.234   5.915
 3674SOL    HW211922   0.844   6.124   5.802
 3675SOL     OW11923   0.389   2.241   3.517
 3675SOL    HW111924   0.405   2.162   3.459
 3675SOL    HW211925   0.468   2.256   3.576
 3676SOL     OW11926   4.787   3.108   2.945
 3676SOL    HW111927   4.736   3.171   3.002
 3676SOL    HW211928   4.835   3.158   2.873
 3677SOL     OW11929   2.078   1.139   5.092
 3677SOL    HW111930   2.142   1.080   5.041
 3677SOL    HW211931   2.116   1.160   5.182
 3678SOL     OW11932   1.475   0.695   3.976
 3678SOL    HW111933   1.452   0.682   3.880
 3678SOL    HW211934   1.574   0.709   3.984
 3679SOL     OW11935   6.133   0.415   2.779
 3679SOL    HW111936   6.084   0.412   2.692
 3679SOL    HW211937   6.203   0.487   2.775
 3680SOL     OW11938   4.869   1.974   3.096
 3680SOL    HW111939   4.899   2.012   3.184
 3680SOL    HW211940   4.784   2.018   3.068
 3681SOL     OW11941   1.023   0.516   5.652
 3681SOL    HW111942   0.942   0.554   5.608
 3681SOL    HW211943   1.100   0.519   5.589
 3682SOL     OW11944   5.520   2.489   1.454
 3682SOL    HW111945   5.514   2.455   1.361
 3682SOL    HW211946   5.598   2.552   1.462
 3683SOL     OW11947   0.290   0.934   4.090
 3683SOL    HW111948   0.199   0.949   4.052
 3683SOL    HW211949   0.294   0.843   4.132
 3684SOL     OW11950   1.810   6.494   6.212
 3684SOL    HW111951   1.755   6.414   6.189
 3684SOL    HW211952   1.803   6.561   6.139
 3685SOL     OW11953   2.634   6.033   5.540
 3685SOL    HW111954   2.544   5.994   5.562
 3685SOL    HW211955   2.625   6.095   5.462
 3686SOL     OW11956   0.042   3.832   3.637
 3686SOL    HW111957   0.131   3.830   3.684
 3686SOL    HW211958   0.057   3.846   3.539
 3687SOL     OW11959   5.106   6.650   3.204
 3687SOL    HW111960   5.041   6.575   3.190
 3687SOL    HW211961   5.198   6.613   3.217
 3688SOL     OW11962   5.868   3.738   0.188
 3688SOL    HW111963   5.946   3.740   0.250
 3688SOL    HW211964   5.829   3.646   0.187
 3689SOL     OW11965   2.182   1.500   5.696
 3689SOL    HW111966   2.112   1.445   5.650
 3689SOL    HW211967   2.170   1.596   5.671
 3690SOL     OW11968   5.209   5.089   0.596
 3690SOL    HW111969   5.126   5.096   0.541
 3690SOL    HW211970   5.191   5.124   0.688
 3691SOL     OW11971   2.423   2.081   6.054
 3691SOL    HW111972   2.354   2.009   6.066
 3691SOL    HW211973   2.456   2.079   5.959
 3692SOL     OW11974   6.544   3.995   6.348
 3692SOL    HW111975   6.631   4.000   6.397
 3692SOL    HW211976   6.533   3.902   6.311
 3693SOL     OW11977   0.807   1.780   2.735
 3693SOL    HW111978   0.821   1.873   2.769
 3693SOL    HW211979   0.833   1.776   2.639
 3694SOL     OW11980   0.825   0.549   1.802
 3694SOL    HW111981   0.792   0.641   1.821
 3694SOL    HW211982   0.909   0.554   1.747
 3695SOL     OW11983   6.940   2.322   2.245
 3695SOL    HW111984   6.966   2.396   2.307
 3695SOL    HW211985   6.853   2.344   2.201
 3696SOL     OW11986   5.187   1.216   5.158
 3696SOL    HW111987   5.227   1.256   5.240
 3696SOL    HW211988   5.227   1.126   5.141
 3697SOL     OW11989   6.247   5.754   3.302
 3697SOL    HW111990   6.203   5.682   3.355
 3697SOL    HW211991   6.341   5.767   3.334
 3698SOL     OW11992   1.906   0.818   3.774
 3698SOL    HW111993   1.974   0.744   3.782
 3698SOL    HW211994   1.953   0.906   3.778
 3699SOL     OW11995   2.498   2.109   3.901
 3699SOL    HW111996   2.416   2.117   3.843
 3699SOL    HW211997   2.543   2.022   3.881
 3700SOL     OW11998   1.626   5.312   5.475
 3700SOL    HW111999   1.529   5.332   5.489
 3700SOL    HW212000   1.636   5.252   5.395
 3701SOL     OW12001   0.762   6.059   1.847
 3701SOL    HW112002   0.712   6.017   1.771
 3701SOL    HW212003   0.768   6.157   1.833
 3702SOL     OW12004   5.972   6.633   3.814
 3702SOL    HW112005   6.039   6.608   3.884
 3702SOL    HW212006   5.960   6.557   3.751
 3703SOL     OW12007   1.206   1.224   6.351
 3703SOL    HW112008   1.265   1.304   6.344
 3703SOL    HW212009   1.131   1.232   6.285
 3704SOL     OW12010   5.485   3.019   1.295
 3704SOL    HW112011   5.518   3.089   1.358
 3704SOL    HW212012   5.557   2.951   1.279
 3705SOL     OW12013   4.952   4.733   3.599
 3705SOL    HW112014   4.998   4.813   3.637
 3705SOL    HW212015   5.011   4.691   3.530
 3706SOL     OW12016   0.571   3.931   0.286
 3706SOL    HW112017   0.509   3.870   0.236
 3706SOL    HW212018   0.554   3.923   0.384
 3707SOL     OW12019   3.414   4.935   3.847
 3707SOL    HW112020   3.471   4.934   3.929
 3707SOL    HW212021   3.318   4.934   3.872
 3708SOL     OW12022   4.318   6.426   1.424
 3708SOL    HW112023   4.259   6.475   1.488
 3708SOL    HW212024   4.269   6.347   1.388
 3709SOL     OW12025   1.376   0.035   1.455
 3709SOL    HW112026   1.459   7.022   1.413
 3709SOL    HW212027   1.399   0.109   1.519
 3710SOL     OW12028   0.754   4.920   5.355
 3710SOL    HW112029   0.663   4.888   5.331
 3710SOL    HW212030   0.796   4.855   5.419
 3711SOL     OW12031   1.841   6.242   4.840
 3711SOL    HW112032   1.870   6.187   4.918
 3711SOL    HW212033   1.742   6.238   4.831
 3712SOL     OW12034   2.284   5.716   6.850
 3712SOL    HW112035   2.367   5.661   6.837
 3712SOL    HW212036   2.304   5.793   6.910
 3713SOL     OW12037   0.047   0.001   4.897
 3713SOL    HW112038   7.009   0.078   4.874
 3713SOL    HW212039   0.050   6.959   4.821
 3714SOL     OW12040   0.851   4.672   6.384
 3714SOL    HW112041   0.931   4.613   6.370
 3714SOL    HW212042   0.848   4.741   6.313
 3715SOL     OW12043   0.623   6.078   3.455
 3715SOL    HW112044   0.658   5.984   3.460
 3715SOL    HW212045   0.603   6.111   3.547
 3716SOL     OW12046   6.223   5.547   4.056
 3716SOL    HW112047   6.180   5.564   4.144
 3716SOL    HW212048   6.158   5.570   3.983
 3717SOL     OW12049   4.779   1.354   0.485
 3717SOL    HW112050   4.823   1.438   0.519
 3717SOL    HW212051   4.833   1.317   0.409
 3718SOL     OW12052   0.382   0.072   6.874
 3718SOL    HW112053   0.365   0.104   6.967
 3718SOL    HW212054   0.380   6.994   6.872
 3719SOL     OW12055   4.351   3.284   6.288
 3719SOL    HW112056   4.354   3.357   6.357
 3719SOL    HW212057   4.265   3.290   6.238
 3720SOL     OW12058   5.740   3.752   1.037
 3720SOL    HW112059   5.821   3.744   0.978
 3720SOL    HW212060   5.664   3.789   0.983
 3721SOL     OW12061   6.137   5.592   6.710
 3721SOL    HW112062   6.128   5.660   6.638
 3721SOL    HW212063   6.126   5.636   6.799
 3722SOL     OW12064   4.240   6.924   1.290
 3722SOL    HW112065   4.259   6.826   1.289
 3722SOL    HW212066   4.325   6.974   1.304
 3723SOL     OW12067   4.245   5.055   7.020
 3723SOL    HW112068   4.199   5.144   0.005
 3723SOL    HW212069   4.287   5.046   6.930
 3724SOL     OW12070   1.942   5.240   5.333
 3724SOL    HW112071   1.889   5.159   5.354
 3724SOL    HW212072   1.947   5.252   5.233
 3725SOL     OW12073   0.274   5.914   0.042
 3725SOL    HW112074   0.274   5.820   0.009
 3725SOL    HW212075   0.185   5.935   0.082
 3726SOL     OW12076   5.407   4.958   4.583
 3726SOL    HW112077   5.387   5.056   4.594
 3726SOL    HW212078   5.405   4.935   4.486
 3727SOL     OW12079   6.833   3.545   4.645
 3727SOL    HW112080   6.846   3.643   4.626
 3727SOL    HW212081   6.771   3.506   4.577
 3728SOL     OW12082   2.955   3.125   6.978
 3728SOL    HW112083   2.971   3.080   0.044
 3728SOL    HW212084   2.905   3.210   6.993
 3729SOL     OW12085   0.706   0.341   4.590
 3729SOL    HW112086   0.693   0.249   4.554
 3729SOL    HW212087   0.646   0.354   4.669
 3730SOL     OW12088   4.733   6.485   5.895
 3730SOL    HW112089   4.712   6.555   5.963
 3730SOL    HW212090   4.662   6.414   5.898
 3731SOL     OW12091   0.911   1.107   6.920
 3731SOL    HW112092   0.822   1.082   6.957
 3731SOL    HW212093   0.938   1.042   6.850
 3732SOL     OW12094   1.478   2.135   0.929
 3732SOL    HW112095   1.427   2.175   0.853
 3732SOL    HW212096   1.459   2.186   1.013
 3733SOL     OW12097   1.865   2.878   3.316
 3733SOL    HW112098   1.796   2.920   3.375
 3733SOL    HW212099   1.889   2.941   3.243
 3734SOL     OW12100   4.465   0.398   0.996
 3734SOL    HW112101   4.495   0.489   0.967
 3734SOL    HW212102   4.370   0.403   1.029
 3735SOL     OW12103   4.461   0.016   2.101
 3735SOL    HW112104   4.476   0.034   2.003
 3735SOL    HW212105   4.548   7.013   2.144
 3736SOL     OW12106   6.746   0.484   0.674
 3736SOL    HW112107   6.702   0.572   0.693
 3736SOL    HW212108   6.763   0.476   0.576
 3737SOL     OW12109   5.863   2.739   3.870
 3737SOL    HW112110   5.765   2.759   3.878
 3737SOL    HW212111   5.904   2.799   3.801
 3738SOL     OW12112   6.643   5.792   1.080
 3738SOL    HW112113   6.698   5.719   1.120
 3738SOL    HW212114   6.694   5.835   1.005
 3739SOL     OW12115   3.080   4.705   1.741
 3739SOL    HW112116   3.124   4.622   1.706
 3739SOL    HW212117   2.995   4.681   1.789
 3740SOL     OW12118   5.789   6.077   0.068
 3740SOL    HW112119   5.829   6.101   7.001
 3740SOL    HW212120   5.755   5.983   0.064
 3741SOL     OW12121   5.073   2.670   0.041
 3741SOL    HW112122   4.974   2.688   0.046
 3741SOL    HW212123   5.101   2.615   0.119
 3742SOL     OW12124   4.841   5.604   6.965
 3742SOL    HW112125   4.861   5.655   0.026
 3742SOL    HW212126   4.747   5.570   6.969
 3743SOL     OW12127   4.639   4.385   1.561
 3743SOL    HW112128   4.683   4.354   1.646
 3743SOL    HW212129   4.590   4.309   1.520
 3744SOL     OW12130   0.827   6.346   1.906
 3744SOL    HW112131   0.898   6.361   1.838
 3744SOL    HW212132   0.864   6.363   1.997
 3745SOL     OW12133   4.856   3.523   2.459
 3745SOL    HW112134   4.763   3.503   2.489
 3745SOL    HW212135   4.864   3.504   2.361
 3746SOL     OW12136   6.941   0.564   3.714
 3746SOL    HW112137   6.850   0.570   3.673
 3746SOL    HW212138   6.998   0.639   3.682
 3747SOL     OW12139   4.626   6.684   6.043
 3747SOL    HW112140   4.639   6.783   6.041
 3747SOL    HW212141   4.613   6.654   6.137
 3748SOL     OW12142   5.971   1.085   2.352
 3748SOL    HW112143   5.904   1.149   2.313
 3748SOL    HW212144   5.946   0.992   2.327
 3749SOL     OW12145   1.154   5.653   2.548
 3749SOL    HW112146   1.193   5.732   2.499
 3749SOL    HW212147   1.060   5.674   2.575
 3750SOL     OW12148   5.520   4.846   0.842
 3750SOL    HW112149   5.577   4.848   0.760
 3750SOL    HW212150   5.456   4.922   0.841
 3751SOL     OW12151   1.165   3.094   0.642
 3751SOL    HW112152   1.209   3.179   0.670
 3751SOL    HW212153   1.228   3.017   0.657
 3752SOL     OW12154   0.442   0.379   0.094
 3752SOL    HW112155   0.461   0.422   0.006
 3752SOL    HW212156   0.405   0.288   0.079
 3753SOL     OW12157   0.464   6.392   5.388
 3753SOL    HW112158   0.442   6.420   5.295
 3753SOL    HW212159   0.382   6.401   5.445
 3754SOL     OW12160   5.539   6.437   1.632
 3754SOL    HW112161   5.467   6.488   1.679
 3754SOL    HW212162   5.552   6.349   1.677
 3755SOL     OW12163   5.845   5.680   4.342
 3755SOL    HW112164   5.773   5.722   4.398
 3755SOL    HW212165   5.823   5.691   4.245
 3756SOL     OW12166   2.281   0.459   6.115
 3756SOL    HW112167   2.286   0.552   6.079
 3756SOL    HW212168   2.359   0.442   6.175
 3757SOL     OW12169   3.779   5.838   5.563
 3757SOL    HW112170   3.706   5.852   5.496
 3757SOL    HW212171   3.823   5.750   5.548
 3758SOL     OW12172   1.914   1.698   4.373
 3758SOL    HW112173   1.867   1.627   4.320
 3758SOL    HW212174   1.927   1.666   4.466
 3759SOL     OW12175   4.332   5.424   5.432
 3759SOL    HW112176   4.270   5.355   5.469
 3759SOL    HW212177   4.287   5.473   5.357
 3760SOL     OW12178   1.040   3.677   3.052
 3760SOL    HW112179   1.027   3.707   3.146
 3760SOL    HW212180   1.137   3.685   3.027
 3761SOL     OW12181   0.864   0.023   4.718
 3761SOL    HW112182   0.893   6.950   4.734
 3761SOL    HW212183   0.890   0.051   4.626
 3762SOL     OW12184   0.701   4.309   6.760
 3762SOL    HW112185   0.688   4.216   6.725
 3762SOL    HW212186   0.697   4.308   6.860
 3763SOL     OW12187   6.936   4.593   6.686
 3763SOL    HW112188   6.876   4.671   6.673
 3763SOL    HW212189   6.962   4.586   6.782
 3764SOL     OW12190   2.103   0.902   4.767
 3764SOL    HW112191   2.113   0.826   4.702
 3764SOL    HW212192   2.007   0.929   4.772
 3765SOL     OW12193   4.709   1.001   2.910
 3765SOL    HW112194   4.705   1.100   2.897
 3765SOL    HW212195   4.618   0.967   2.935
 3766SOL     OW12196   0.881   0.778   3.821
 3766SOL    HW112197   0.828   0.854   3.786
 3766SOL    HW212198   0.834   0.737   3.899
 3767SOL     OW12199   1.898   4.410   0.305
 3767SOL    HW112200   1.880   4.500   0.344
 3767SOL    HW212201   1.811   4.363   0.290
 3768SOL     OW12202   3.773   6.575   6.057
 3768SOL    HW112203   3.857   6.540   6.098
 3768SOL    HW212204   3.712   6.608   6.129
 3769SOL     OW12205   5.236   5.600   5.260
 3769SOL    HW112206   5.136   5.594   5.260
 3769SOL    HW212207   5.275   5.508   5.260
 3770SOL     OW12208   2.265   0.915   6.747
 3770SOL    HW112209   2.335   0.918   6.675
 3770SOL    HW212210   2.286   0.984   6.816
 3771SOL     OW12211   5.463   2.003   0.924
 3771SOL    HW112212   5.449   1.918   0.975
 3771SOL    HW212213   5.375   2.033   0.886
 3772SOL     OW12214   6.510   1.344   0.656
 3772SOL    HW112215   6.424   1.347   0.708
 3772SOL    HW212216   6.510   1.264   0.597
 3773SOL     OW12217   5.584   3.298   5.803
 3773SOL    HW112218   5.524   3.255   5.871
 3773SOL    HW212219   5.578   3.398   5.811
 3774SOL     OW12220   1.143   6.798   6.908
 3774SOL    HW112221   1.074   6.729   6.887
 3774SOL    HW212222   1.119   6.884   6.861
 3775SOL     OW12223   5.522   3.714   2.468
 3775SOL    HW112224   5.442   3.680   2.516
 3775SOL    HW212225   5.557   3.644   2.406
 3776SOL     OW12226   2.620   1.249   1.893
 3776SOL    HW112227   2.539   1.191   1.884
 3776SOL    HW212228   2.645   1.285   1.804
 3777SOL     OW12229   2.794   4.845   4.572
 3777SOL    HW112230   2.855   4.821   4.647
 3777SOL    HW212231   2.742   4.927   4.595
 3778SOL     OW12232   2.073   5.812   3.139
 3778SOL    HW112233   1.981   5.826   3.174
 3778SOL    HW212234   2.070   5.803   3.039
 3779SOL     OW12235   2.781   5.133   6.780
 3779SOL    HW112236   2.717   5.194   6.827
 3779SOL    HW212237   2.836   5.084   6.848
 3780SOL     OW12238   3.504   4.995   4.730
 3780SOL    HW112239   3.573   4.962   4.795
 3780SOL    HW212240   3.415   4.997   4.775
 3781SOL     OW12241   1.631   6.155   4.107
 3781SOL    HW112242   1.598   6.229   4.167
 3781SOL    HW212243   1.645   6.072   4.162
 3782SOL     OW12244   2.735   2.394   4.221
 3782SOL    HW112245   2.825   2.398   4.177
 3782SOL    HW212246   2.678   2.327   4.173
 3783SOL     OW12247   6.768   6.825   4.778
 3783SOL    HW112248   6.801   6.765   4.851
 3783SOL    HW212249   6.842   6.843   4.714
 3784SOL     OW12250   5.184   1.588   3.323
 3784SOL    HW112251   5.160   1.493   3.342
 3784SOL    HW212252   5.107   1.648   3.347
 3785SOL     OW12253   2.289   1.569   0.401
 3785SOL    HW112254   2.298   1.538   0.496
 3785SOL    HW212255   2.193   1.576   0.377
 3786SOL     OW12256   2.827   5.047   3.610
 3786SOL    HW112257   2.880   5.129   3.636
 3786SOL    HW212258   2.867   5.007   3.528
 3787SOL     OW12259   5.486   6.817   3.635
 3787SOL    HW112260   5.486   6.748   3.707
 3787SOL    HW212261   5.491   6.908   3.676
 3788SOL     OW12262   6.519   3.407   3.640
 3788SOL    HW112263   6.434   3.397   3.590
 3788SOL    HW212264   6.587   3.454   3.583
 3789SOL     OW12265   1.719   4.336   4.172
 3789SOL    HW112266   1.665   4.371   4.248
 3789SOL    HW212267   1.758   4.247   4.198
 3790SOL     OW12268   2.061   3.807   4.828
 3790SOL    HW112269   2.099   3.750   4.755
 3790SOL    HW212270   2.109   3.895   4.831
 3791SOL     OW12271   5.465   6.738   1.018
 3791SOL    HW112272   5.504   6.649   0.994
 3791SOL    HW212273   5.521   6.780   1.090
 3792SOL     OW12274   6.697   0.325   4.980
 3792SOL    HW112275   6.648   0.405   4.945
 3792SOL    HW212276   6.696   0.252   4.911
 3793SOL     OW12277   2.250   1.045   2.790
 3793SOL    HW112278   2.320   1.116   2.787
 3793SOL    HW212279   2.293   0.955   2.792
 3794SOL     OW12280   3.747   5.401   1.729
 3794SOL    HW112281   3.705   5.465   1.665
 3794SOL    HW212282   3.680   5.331   1.754
 3795SOL     OW12283   4.255   6.711   6.241
 3795SOL    HW112284   4.335   6.770   6.254
 3795SOL    HW212285   4.233   6.706   6.144
 3796SOL     OW12286   1.862   1.792   1.358
 3796SOL    HW112287   1.819   1.880   1.336
 3796SOL    HW212288   1.886   1.746   1.273
 3797SOL     OW12289   6.641   5.499   2.358
 3797SOL    HW112290   6.666   5.404   2.378
 3797SOL    HW212291   6.679   5.559   2.428
 3798SOL     OW12292   2.425   4.987   2.947
 3798SOL    HW112293   2.444   4.995   2.850
 3798SOL    HW212294   2.401   4.892   2.969
 3799SOL     OW12295   1.344   2.293   4.156
 3799SOL    HW112296   1.273   2.275   4.224
 3799SOL    HW212297   1.304   2.344   4.080
 3800SOL     OW12298   5.102   2.283   5.066
 3800SOL    HW112299   5.113   2.365   5.010
 3800SOL    HW212300   5.047   2.216   5.016
 3801SOL     OW12301   6.411   5.778   5.551
 3801SOL    HW112302   6.447   5.686   5.533
 3801SOL    HW212303   6.342   5.800   5.482
 3802SOL     OW12304   1.325   2.180   4.908
 3802SOL    HW112305   1.238   2.189   4.957
 3802SOL    HW212306   1.327   2.092   4.861
 3803SOL     OW12307   3.823   0.966   1.938
 3803SOL    HW112308   3.781   1.022   1.867
 3803SOL    HW212309   3.784   0.874   1.936
 3804SOL     OW12310   4.301   2.221   4.644
 3804SOL    HW112311   4.246   2.214   4.561
 3804SOL    HW212312   4.389   2.175   4.630
 3805SOL     OW12313   3.298   4.118   1.791
 3805SOL    HW112314   3.311   4.165   1.878
 3805SOL    HW212315   3.341   4.028   1.795
 3806SOL     OW12316   2.816   2.611   0.028
 3806SOL    HW112317   2.755   2.532   0.026
 3806SOL    HW212318   2.894   2.591   0.086
 3807SOL     OW12319   1.939   1.548   4.651
 3807SOL    HW112320   1.866   1.502   4.601
 3807SOL    HW212321   2.018   1.487   4.658
 3808SOL     OW12322   3.074   0.510   2.226
 3808SOL    HW112323   3.112   0.455   2.300
 3808SOL    HW212324   3.072   0.456   2.142
 3809SOL     OW12325   5.817   1.915   0.170
 3809SOL    HW112326   5.916   1.905   0.155
 3809SOL    HW212327   5.772   1.939   0.084
 3810SOL     OW12328   4.204   2.959   5.349
 3810SOL    HW112329   4.114   2.926   5.322
 3810SOL    HW212330   4.219   3.050   5.312
 3811SOL     OW12331   0.671   4.478   3.697
 3811SOL    HW112332   0.713   4.388   3.699
 3811SOL    HW212333   0.601   4.481   3.625
 3812SOL     OW12334   5.748   1.473   5.615
 3812SOL    HW112335   5.843   1.444   5.607
 3812SOL    HW212336   5.692   1.426   5.547
 3813SOL     OW12337   4.319   4.346   0.816
 3813SOL    HW112338   4.419   4.343   0.818
 3813SOL    HW212339   4.283   4.333   0.908
 3814SOL     OW12340   6.967   6.137   1.136
 3814SOL    HW112341   7.017   6.064   1.089
 3814SOL    HW212342   0.005   6.216   1.146
 3815SOL     OW12343   4.964   2.281   0.716
 3815SOL    HW112344   4.903   2.317   0.787
 3815SOL    HW212345   4.979   2.183   0.732
 3816SOL     OW12346   6.909   6.111   1.744
 3816SOL    HW112347   6.994   6.159   1.765
 3816SOL    HW212348   6.885   6.051   1.821
 3817SOL     OW12349   4.789   2.981   4.101
 3817SOL    HW112350   4.730   2.905   4.128
 3817SOL    HW212351   4.885   2.955   4.116
 3818SOL     OW12352   4.315   6.422   1.769
 3818SOL    HW112353   4.226   6.386   1.795
 3818SOL    HW212354   4.378   6.347   1.752
 3819SOL     OW12355   5.409   5.300   0.250
 3819SOL    HW112356   5.324   5.350   0.265
 3819SOL    HW212357   5.476   5.360   0.207
 3820SOL     OW12358   6.341   6.030   3.743
 3820SOL    HW112359   6.242   6.017   3.737
 3820SOL    HW212360   6.388   5.944   3.724
 3821SOL     OW12361   1.577   3.271   1.960
 3821SOL    HW112362   1.498   3.209   1.964
 3821SOL    HW212363   1.553   3.352   1.906
 3822SOL     OW12364   1.483   5.483   2.126
 3822SOL    HW112365   1.555   5.528   2.180
 3822SOL    HW212366   1.491   5.513   2.031
 3823SOL     OW12367   4.200   2.152   5.028
 3823SOL    HW112368   4.101   2.143   5.028
 3823SOL    HW212369   4.225   2.249   5.019
 3824SOL     OW12370   6.173   1.997   5.648
 3824SOL    HW112371   6.250   1.974   5.708
 3824SOL    HW212372   6.143   2.090   5.667
 3825SOL     OW12373   6.781   0.198   6.792
 3825SOL    HW112374   6.877   0.190   6.766
 3825SOL    HW212375   6.723   0.163   6.719
 3826SOL     OW12376   0.214   3.696   0.500
 3826SOL    HW112377   0.184   3.789   0.479
 3826SOL    HW212378   0.252   3.654   0.417
 3827SOL     OW12379   3.988   4.273   1.179
 3827SOL    HW112380   3.909   4.212   1.185
 3827SOL    HW212381   3.963   4.356   1.129
 3828SOL     OW12382   4.427   2.167   0.782
 3828SOL    HW112383   4.492   2.154   0.707
 3828SOL    HW212384   4.448   2.253   0.829
 3829SOL     OW12385   2.560   5.213   3.885
 3829SOL    HW112386   2.504   5.147   3.835
 3829SOL    HW212387   2.626   5.164   3.942
 3830SOL     OW12388   1.309   0.102   5.476
 3830SOL    HW112389   1.293   0.080   5.572
 3830SOL    HW212390   1.394   0.059   5.447
 3831SOL     OW12391   4.250   1.924   2.093
 3831SOL    HW112392   4.186   1.849   2.108
 3831SOL    HW212393   4.274   1.929   1.996
 3832SOL     OW12394   6.303   0.970   1.659
 3832SOL    HW112395   6.380   0.944   1.717
 3832SOL    HW212396   6.327   0.954   1.563
 3833SOL     OW12397   0.512   5.051   6.924
 3833SOL    HW112398   0.567   4.970   6.947
 3833SOL    HW212399   0.423   5.023   6.890
 3834SOL     OW12400   2.990   2.220   0.161
 3834SOL    HW112401   3.032   2.182   0.078
 3834SOL    HW212402   2.892   2.197   0.162
 3835SOL     OW12403   3.635   5.389   5.204
 3835SOL    HW112404   3.584   5.315   5.247
 3835SOL    HW212405   3.573   5.463   5.179
 3836SOL     OW12406   2.197   3.697   5.946
 3836SOL    HW112407   2.121   3.666   6.002
 3836SOL    HW212408   2.194   3.652   5.857
 3837SOL     OW12409   4.685   3.384   0.439
 3837SOL    HW112410   4.654   3.462   0.493
 3837SOL    HW212411   4.665   3.400   0.343
 3838SOL     OW12412   5.135   3.131   4.300
 3838SOL    HW112413   5.085   3.211   4.334
 3838SOL    HW212414   5.233   3.150   4.303
 3839SOL     OW12415   5.337   0.315   5.212
 3839SOL    HW112416   5.434   0.321   5.233
 3839SOL    HW212417   5.288   0.284   5.293
 3840SOL     OW12418   1.451   0.964   4.949
 3840SOL    HW112419   1.397   0.948   4.867
 3840SOL    HW212420   1.456   1.062   4.968
 3841SOL     OW12421   0.662   3.935   5.027
 3841SOL    HW112422   0.661   4.032   5.006
 3841SOL    HW212423   0.657   3.882   4.943
 3842SOL     OW12424   0.660   5.580   0.082
 3842SOL    HW112425   0.743   5.584   0.026
 3842SOL    HW212426   0.580   5.578   0.023
 3843SOL     OW12427   7.017   3.295   0.576
 3843SOL    HW112428   6.960   3.231   0.629
 3843SOL    HW212429   0.051   3.243   0.511
 3844SOL     OW12430   1.324   5.600   5.634
 3844SOL    HW112431   1.399   5.646   5.586
 3844SOL    HW212432   1.355   5.570   5.724
 3845SOL     OW12433   3.267   2.913   2.744
 3845SOL    HW112434   3.190   2.973   2.766
 3845SOL    HW212435   3.321   2.897   2.826
 3846SOL     OW12436   6.941   4.836   3.737
 3846SOL    HW112437   6.920   4.922   3.690
 3846SOL    HW212438   6.964   4.766   3.669
 3847SOL     OW12439   6.416   1.137   6.820
 3847SOL    HW112440   6.439   1.230   6.849
 3847SOL    HW212441   6.490   1.076   6.846
 3848SOL     OW12442   2.192   5.190   2.251
 3848SOL    HW112443   2.135   5.109   2.266
 3848SOL    HW212444   2.202   5.240   2.336
 3849SOL     OW12445   0.868   1.586   5.776
 3849SOL    HW112446   0.967   1.598   5.779
 3849SOL    HW212447   0.828   1.656   5.716
 3850SOL     OW12448   3.152   3.745   1.752
 3850SOL    HW112449   3.214   3.777   1.823
 3850SOL    HW212450   3.188   3.661   1.711
 3851SOL     OW12451   2.290   4.230   2.962
 3851SOL    HW112452   2.310   4.139   2.996
 3851SOL    HW212453   2.229   4.224   2.882
 3852SOL     OW12454   4.460   1.070   5.262
 3852SOL    HW112455   4.518   1.002   5.308
 3852SOL    HW212456   4.505   1.102   5.179
 3853SOL     OW12457   0.533   3.106   2.862
 3853SOL    HW112458   0.522   3.057   2.948
 3853SOL    HW212459   0.448   3.102   2.809
 3854SOL     OW12460   1.139   3.627   3.608
 3854SOL    HW112461   1.218   3.574   3.576
 3854SOL    HW212462   1.113   3.596   3.700
 3855SOL     OW12463   5.898   5.175   6.096
 3855SOL    HW112464   5.882   5.093   6.041
 3855SOL    HW212465   5.810   5.212   6.126
 3856SOL     OW12466   0.257   0.661   6.100
 3856SOL    HW112467   0.352   0.630   6.096
 3856SOL    HW212468   0.252   0.742   6.158
 3857SOL     OW12469   1.208   6.951   5.014
 3857SOL    HW112470   1.122   6.961   4.964
 3857SOL    HW212471   1.216   6.859   5.050
 3858SOL     OW12472   0.987   6.032   6.135
 3858SOL    HW112473   1.011   6.092   6.058
 3858SOL    HW212474   0.953   6.087   6.211
 3859SOL     OW12475   6.820   2.770   3.781
 3859SOL    HW112476   6.862   2.687   3.816
 3859SOL    HW212477   6.834   2.845   3.846
 3860SOL     OW12478   1.955   5.525   5.268
 3860SOL    HW112479   2.039   5.578   5.276
 3860SOL    HW212480   1.975   5.428   5.282
 3861SOL     OW12481   5.617   4.635   1.563
 3861SOL    HW112482   5.636   4.709   1.498
 3861SOL    HW212483   5.696   4.575   1.570
 3862SOL     OW12484   0.401   0.156   6.353
 3862SOL    HW112485   0.409   0.064   6.314
 3862SOL    HW212486   0.385   0.149   6.452
 3863SOL     OW12487   3.288   3.677   0.826
 3863SOL    HW112488   3.217   3.745   0.814
 3863SOL    HW212489   3.378   3.718   0.810
 3864SOL     OW12490   3.710   2.091   6.927
 3864SOL    HW112491   3.635   2.056   6.983
 3864SOL    HW212492   3.796   2.081   6.977
 3865SOL     OW12493   3.650   0.397   2.105
 3865SOL    HW112494   3.724   0.390   2.172
 3865SOL    HW212495   3.562   0.390   2.153
 3866SOL     OW12496   3.989   6.973   1.236
 3866SOL    HW112497   4.087   6.958   1.252
 3866SOL    HW212498   3.936   6.924   1.305
 3867SOL     OW12499   2.121   3.496   3.138
 3867SOL    HW112500   2.103   3.514   3.042
 3867SOL    HW212501   2.086   3.572   3.193
 3868SOL     OW12502   2.439   6.403   1.716
 3868SOL    HW112503   2.492   6.434   1.794
 3868SOL    HW212504   2.390   6.481   1.676
 3869SOL     OW12505   0.235   2.403   3.349
 3869SOL    HW112506   0.295   2.355   3.413
 3869SOL    HW212507   0.172   2.338   3.307
 3870SOL     OW12508   2.874   5.005   7.010
 3870SOL    HW112509   2.957   4.956   6.983
 3870SOL    HW212510   2.857   4.990   0.086
 3871SOL     OW12511   3.536   0.018   2.493
 3871SOL    HW112512   3.563   6.957   2.542
 3871SOL    HW212513   3.446   0.005   2.453
 3872SOL     OW12514   4.151   3.254   0.833
 3872SOL    HW112515   4.132   3.281   0.927
 3872SOL    HW212516   4.195   3.164   0.832
 3873SOL     OW12517   5.343   5.502   1.147
 3873SOL    HW112518   5.318   5.486   1.242
 3873SOL    HW212519   5.352   5.600   1.130
 3874SOL     OW12520   4.204   6.413   6.957
 3874SOL    HW112521   4.298   6.436   6.935
 3874SOL    HW212522   4.188   6.315   6.940
 3875SOL     OW12523   1.565   4.464   1.431
 3875SOL    HW112524   1.509   4.428   1.505
 3875SOL    HW212525   1.655   4.420   1.432
 3876SOL     OW12526   6.057   5.138   4.907
 3876SOL    HW112527   5.981   5.147   4.972
 3876SOL    HW212528   6.081   5.041   4.897
 3877SOL     OW12529   6.278   1.291   2.540
 3877SOL    HW112530   6.300   1.257   2.448
 3877SOL    HW212531   6.199   1.242   2.576
 3878SOL     OW12532   3.946   6.859   6.143
 3878SOL    HW112533   3.988   6.832   6.057
 3878SOL    HW212534   3.952   6.784   6.209
 3879SOL     OW12535   4.227   5.299   1.856
 3879SOL    HW112536   4.219   5.374   1.922
 3879SOL    HW212537   4.149   5.302   1.793
 3880SOL     OW12538   5.731   3.316   2.646
 3880SOL    HW112539   5.723   3.354   2.553
 3880SOL    HW212540   5.827   3.321   2.675
 3881SOL     OW12541   0.740   4.537   0.517
 3881SOL    HW112542   0.654   4.499   0.484
 3881SOL    HW212543   0.802   4.553   0.440
 3882SOL     OW12544   6.251   1.353   5.730
 3882SOL    HW112545   6.340   1.354   5.685
 3882SOL    HW212546   6.221   1.259   5.743
 3883SOL     OW12547   4.089   1.319   3.759
 3883SOL    HW112548   4.019   1.389   3.775
 3883SOL    HW212549   4.143   1.344   3.678
 3884SOL     OW12550   1.557   6.036   5.023
 3884SOL    HW112551   1.512   5.979   5.090
 3884SOL    HW212552   1.649   6.002   5.006
 3885SOL     OW12553   6.882   1.411   3.767
 3885SOL    HW112554   6.874   1.463   3.683
 3885SOL    HW212555   6.926   1.323   3.749
 3886SOL     OW12556   6.753   0.339   5.279
 3886SOL    HW112557   6.826   0.405   5.299
 3886SOL    HW212558   6.767   0.300   5.188
 3887SOL     OW12559   4.026   2.029   5.419
 3887SOL    HW112560   3.982   2.082   5.491
 3887SOL    HW212561   4.031   1.933   5.446
 3888SOL     OW12562   6.299   1.834   0.881
 3888SOL    HW112563   6.218   1.837   0.939
 3888SOL    HW212564   6.371   1.781   0.926
 3889SOL     OW12565   0.840   5.686   6.216
 3889SOL    HW112566   0.846   5.764   6.154
 3889SOL    HW212567   0.920   5.685   6.276
 3890SOL     OW12568   5.501   4.834   2.615
 3890SOL    HW112569   5.434   4.853   2.687
 3890SOL    HW212570   5.549   4.749   2.637
 3891SOL     OW12571   5.323   5.221   4.698
 3891SOL    HW112572   5.242   5.165   4.716
 3891SOL    HW212573   5.302   5.290   4.629
 3892SOL     OW12574   5.825   0.013   2.845
 3892SOL    HW112575   5.737   0.061   2.838
 3892SOL    HW212576   5.865   0.030   2.935
 3893SOL     OW12577   3.174   5.475   4.630
 3893SOL    HW112578   3.257   5.434   4.669
 3893SOL    HW212579   3.101   5.474   4.698
 3894SOL     OW12580   4.275   3.453   0.365
 3894SOL    HW112581   4.227   3.374   0.328
 3894SOL    HW212582   4.250   3.465   0.462
 3895SOL     OW12583   2.262   1.322   6.149
 3895SOL    HW112584   2.251   1.223   6.155
 3895SOL    HW212585   2.215   1.355   6.067
 3896SOL     OW12586   6.966   3.056   5.215
 3896SOL    HW112587   6.911   3.053   5.132
 3896SOL    HW212588   6.974   3.151   5.246
 3897SOL     OW12589   3.544   0.182   1.928
 3897SOL    HW112590   3.477   0.126   1.976
 3897SOL    HW212591   3.596   0.236   1.994
 3898SOL     OW12592   4.123   3.280   4.121
 3898SOL    HW112593   4.075   3.211   4.175
 3898SOL    HW212594   4.159   3.239   4.037
 3899SOL     OW12595   4.556   1.888   5.787
 3899SOL    HW112596   4.557   1.839   5.874
 3899SOL    HW212597   4.647   1.927   5.770
 3900SOL     OW12598   5.897   2.759   3.285
 3900SOL    HW112599   5.927   2.718   3.372
 3900SOL    HW212600   5.828   2.700   3.244
 3901SOL     OW12601   1.201   6.880   5.278
 3901SOL    HW112602   1.203   6.946   5.202
 3901SOL    HW212603   1.143   6.915   5.351
 3902SOL     OW12604   4.793   5.122   1.779
 3902SOL    HW112605   4.788   5.085   1.686
 3902SOL    HW212606   4.876   5.177   1.788
 3903SOL     OW12607   4.606   2.489   6.711
 3903SOL    HW112608   4.541   2.434   6.657
 3903SOL    HW212609   4.697   2.480   6.672
 3904SOL     OW12610   0.742   6.106   0.734
 3904SOL    HW112611   0.716   6.161   0.654
 3904SOL    HW212612   0.783   6.020   0.704
 3905SOL     OW12613   0.184   0.651   5.588
 3905SOL    HW112614   0.246   0.694   5.521
 3905SOL    HW212615   0.238   0.611   5.662
 3906SOL     OW12616   1.903   4.947   4.233
 3906SOL    HW112617   1.988   4.934   4.182
 3906SOL    HW212618   1.827   4.956   4.169
 3907SOL     OW12619   6.529   1.456   4.129
 3907SOL    HW112620   6.484   1.519   4.192
 3907SOL    HW212621   6.579   1.508   4.060
 3908SOL     OW12622   1.551   0.515   4.731
 3908SOL    HW112623   1.626   0.468   4.779
 3908SOL    HW212624   1.464   0.483   4.766
 3909SOL     OW12625   5.616   2.956   5.859
 3909SOL    HW112626   5.601   3.004   5.773
 3909SOL    HW212627   5.678   2.879   5.843
 3910SOL     OW12628   3.569   2.332   0.514
 3910SOL    HW112629   3.482   2.335   0.564
 3910SOL    HW212630   3.643   2.355   0.577
 3911SOL     OW12631   6.415   0.888   1.423
 3911SOL    HW112632   6.513   0.902   1.441
 3911SOL    HW212633   6.388   0.942   1.344
 3912SOL     OW12634   4.168   2.162   0.086
 3912SOL    HW112635   4.139   2.252   0.052
 3912SOL    HW212636   4.251   2.134   0.038
 3913SOL     OW12637   4.541   5.379   0.718
 3913SOL    HW112638   4.551   5.458   0.779
 3913SOL    HW212639   4.497   5.304   0.768
 3914SOL     OW12640   5.684   0.858   0.887
 3914SOL    HW112641   5.620   0.896   0.821
 3914SOL    HW212642   5.660   0.891   0.979
 3915SOL     OW12643   4.558   5.223   6.927
 3915SOL    HW112644   4.594   5.220   6.834
 3915SOL    HW212645   4.569   5.133   6.970
 3916SOL     OW12646   1.634   0.619   2.387
 3916SOL    HW112647   1.632   0.680   2.467
 3916SOL    HW212648   1.705   0.550   2.400
 3917SOL     OW12649   2.948   4.999   0.642
 3917SOL    HW112650   2.863   5.028   0.597
 3917SOL    HW212651   3.014   5.074   0.641
 3918SOL     OW12652   5.615   0.608   0.735
 3918SOL    HW112653   5.537   0.572   0.786
 3918SOL    HW212654   5.659   0.681   0.787
 3919SOL     OW12655   3.980   6.954   1.690
 3919SOL    HW112656   3.923   0.003   1.731
 3919SOL    HW212657   4.054   6.996   1.638
 3920SOL     OW12658   3.296   1.044   6.131
 3920SOL    HW112659   3.341   0.967   6.086
 3920SOL    HW212660   3.270   1.112   6.062
 3921SOL     OW12661   0.752   2.674   6.550
 3921SOL    HW112662   0.781   2.756   6.599
 3921SOL    HW212663   0.741   2.695   6.453
 3922SOL     OW12664   4.863   4.872   2.854
 3922SOL    HW112665   4.906   4.827   2.776
 3922SOL    HW212666   4.767   4.888   2.835
 3923SOL     OW12667   5.350   0.867   1.279
 3923SOL    HW112668   5.344   0.848   1.181
 3923SOL    HW212669   5.296   0.948   1.300
 3924SOL     OW12670   6.322   4.422   4.265
 3924SOL    HW112671   6.332   4.516   4.298
 3924SOL    HW212672   6.344   4.419   4.167
 3925SOL     OW12673   4.519   3.896   0.835
 3925SOL    HW112674   4.617   3.878   0.838
 3925SOL    HW212675   4.491   3.946   0.917
 3926SOL     OW12676   0.202   0.107   5.522
 3926SOL    HW112677   0.160   0.019   5.542
 3926SOL    HW212678   0.164   0.177   5.584
 3927SOL     OW12679   6.497   2.886   5.010
 3927SOL    HW112680   6.413   2.931   5.041
 3927SOL    HW212681   6.568   2.897   5.080
 3928SOL     OW12682   2.029   6.125   2.895
 3928SOL    HW112683   2.112   6.144   2.841
 3928SOL    HW212684   2.005   6.206   2.948
 3929SOL     OW12685   0.361   1.861   5.371
 3929SOL    HW112686   0.392   1.799   5.299
 3929SOL    HW212687   0.272   1.900   5.346
 3930SOL     OW12688   1.009   3.948   3.982
 3930SOL    HW112689   0.948   4.027   3.970
 3930SOL    HW212690   1.070   3.965   4.059
 3931SOL     OW12691   1.403   2.580   1.346
 3931SOL    HW112692   1.469   2.512   1.312
 3931SOL    HW212693   1.437   2.620   1.431
 3932SOL     OW12694   1.757   5.867   4.258
 3932SOL    HW112695   1.856   5.857   4.252
 3932SOL    HW212696   1.715   5.846   4.170
 3933SOL     OW12697   2.060   4.807   0.637
 3933SOL    HW112698   2.080   4.787   0.541
 3933SOL    HW212699   2.038   4.722   0.685
 3934SOL     OW12700   0.554   1.158   1.557
 3934SOL    HW112701   0.606   1.208   1.626
 3934SOL    HW212702   0.467   1.127   1.595
 3935SOL     OW12703   6.020   3.480   6.914
 3935SOL    HW112704   6.071   3.507   6.832
 3935SOL    HW212705   5.923   3.470   6.892
 3936SOL     OW12706   0.624   5.282   5.519
 3936SOL    HW112707   0.534   5.238   5.526
 3936SOL    HW212708   0.654   5.283   5.424
 3937SOL     OW12709   0.229   0.389   2.112
 3937SOL    HW112710   0.196   0.369   2.020
 3937SOL    HW212711   0.277   0.310   2.149
 3938SOL     OW12712   0.634   4.523   2.921
 3938SOL    HW112713   0.655   4.455   2.851
 3938SOL    HW212714   0.601   4.477   3.003
 3939SOL     OW12715   1.112   0.902   2.461
 3939SOL    HW112716   1.078   0.954   2.539
 3939SOL    HW212717   1.185   0.953   2.415
 3940SOL     OW12718   2.935   5.450   1.408
 3940SOL    HW112719   2.870   5.516   1.372
 3940SOL    HW212720   3.028   5.477   1.383
 3941SOL     OW12721   5.912   6.914   3.770
 3941SOL    HW112722   5.944   6.819   3.767
 3941SOL    HW212723   5.898   6.947   3.676
 3942SOL     OW12724   6.984   5.877   5.978
 3942SOL    HW112725   6.962   5.850   5.885
 3942SOL    HW212726   7.002   5.796   6.033
 3943SOL     OW12727   1.332   2.886   7.002
 3943SOL    HW112728   1.322   2.830   0.062
 3943SOL    HW212729   1.278   2.847   6.928
 3944SOL     OW12730   6.190   1.849   6.690
 3944SOL    HW112731   6.223   1.923   6.631
 3944SOL    HW212732   6.255   1.835   6.765
 3945SOL     OW12733   6.591   1.094   3.447
 3945SOL    HW112734   6.548   1.128   3.530
 3945SOL    HW212735   6.688   1.077   3.464
 3946SOL     OW12736   1.412   2.924   0.638
 3946SOL    HW112737   1.422   2.826   0.654
 3946SOL    HW212738   1.455   2.949   0.552
 3947SOL     OW12739   5.939   4.956   1.444
 3947SOL    HW112740   5.892   4.883   1.494
 3947SOL    HW212741   5.874   5.004   1.385
 3948SOL     OW12742   1.109   2.580   6.469
 3948SOL    HW112743   1.066   2.499   6.430
 3948SOL    HW212744   1.184   2.610   6.410
 3949SOL     OW12745   5.959   6.454   2.644
 3949SOL    HW112746   5.948   6.523   2.573
 3949SOL    HW212747   6.045   6.470   2.693
 3950SOL     OW12748   2.883   4.638   1.503
 3950SOL    HW112749   2.852   4.645   1.409
 3950SOL    HW212750   2.934   4.720   1.528
 3951SOL     OW12751   0.741   2.484   5.584
 3951SOL    HW112752   0.700   2.394   5.596
 3951SOL    HW212753   0.824   2.491   5.639
 3952SOL     OW12754   6.447   3.853   5.231
 3952SOL    HW112755   6.464   3.948   5.203
 3952SOL    HW212756   6.466   3.792   5.155
 3953SOL     OW12757   3.630   4.246   6.244
 3953SOL    HW112758   3.660   4.164   6.195
 3953SOL    HW212759   3.668   4.246   6.336
 3954SOL     OW12760   0.809   3.124   5.195
 3954SOL    HW112761   0.903   3.157   5.192
 3954SOL    HW212762   0.797   3.054   5.125
 3955SOL     OW12763   5.737   5.032   6.805
 3955SOL    HW112764   5.686   5.091   6.867
 3955SOL    HW212765   5.731   4.937   6.837
 3956SOL     OW12766   1.081   2.634   5.518
 3956SOL    HW112767   1.040   2.600   5.602
 3956SOL    HW212768   1.154   2.699   5.540
 3957SOL     OW12769   1.526   0.388   3.224
 3957SOL    HW112770   1.579   0.409   3.141
 3957SOL    HW212771   1.523   0.469   3.283
 3958SOL     OW12772   5.177   6.396   4.802
 3958SOL    HW112773   5.130   6.384   4.889
 3958SOL    HW212774   5.255   6.458   4.814
 3959SOL     OW12775   2.650   4.856   0.565
 3959SOL    HW112776   2.663   4.769   0.518
 3959SOL    HW212777   2.578   4.908   0.519
 3960SOL     OW12778   4.140   3.231   0.278
 3960SOL    HW112779   4.168   3.135   0.277
 3960SOL    HW212780   4.046   3.239   0.244
 3961SOL     OW12781   4.984   0.870   1.517
 3961SOL    HW112782   4.943   0.882   1.426
 3961SOL    HW212783   4.912   0.860   1.585
 3962SOL     OW12784   0.348   0.428   6.279
 3962SOL    HW112785   0.372   0.344   6.327
 3962SOL    HW212786   0.425   0.457   6.223
 3963SOL     OW12787   4.852   5.700   3.165
 3963SOL    HW112788   4.904   5.669   3.245
 3963SOL    HW212789   4.875   5.796   3.146
 3964SOL     OW12790   5.559   6.031   4.970
 3964SOL    HW112791   5.477   6.062   4.922
 3964SOL    HW212792   5.594   5.949   4.926
 3965SOL     OW12793   3.485   3.542   0.470
 3965SOL    HW112794   3.479   3.449   0.432
 3965SOL    HW212795   3.491   3.537   0.569
 3966SOL     OW12796   5.882   3.950   5.262
 3966SOL    HW112797   5.927   3.996   5.186
 3966SOL    HW212798   5.877   3.852   5.244
 3967SOL     OW12799   0.453   5.558   6.286
 3967SOL    HW112800   0.414   5.577   6.195
 3967SOL    HW212801   0.512   5.478   6.280
 3968SOL     OW12802   6.120   0.694   1.910
 3968SOL    HW112803   6.070   0.617   1.870
 3968SOL    HW212804   6.074   0.725   1.992
 3969SOL     OW12805   0.484   5.038   2.347
 3969SOL    HW112806   0.491   5.028   2.446
 3969SOL    HW212807   0.388   5.053   2.322
 3970SOL     OW12808   5.392   4.334   2.664
 3970SOL    HW112809   5.473   4.310   2.611
 3970SOL    HW212810   5.418   4.355   2.758
 3971SOL     OW12811   1.367   6.312   3.085
 3971SOL    HW112812   1.450   6.255   3.090
 3971SOL    HW212813   1.379   6.392   3.143
 3972SOL     OW12814   1.343   6.705   0.041
 3972SOL    HW112815   1.432   6.689   7.021
 3972SOL    HW212816   1.273   6.709   6.992
 3973SOL     OW12817   3.171   3.524   4.380
 3973SOL    HW112818   3.089   3.576   4.401
 3973SOL    HW212819   3.248   3.586   4.369
 3974SOL     OW12820   5.965   1.987   6.755
 3974SOL    HW112821   6.048   1.942   6.722
 3974SOL    HW212822   5.885   1.937   6.724
 3975SOL     OW12823   0.083   0.979   5.247
 3975SOL    HW112824   0.102   0.948   5.154
 3975SOL    HW212825   0.166   1.018   5.286
 3976SOL     OW12826   1.060   3.482   0.523
 3976SOL    HW112827   1.096   3.544   0.454
 3976SOL    HW212828   0.966   3.456   0.499
 3977SOL     OW12829   3.827   6.038   6.005
 3977SOL    HW112830   3.874   6.005   6.087
 3977SOL    HW212831   3.778   5.962   5.962
 3978SOL     OW12832   5.712   3.158   6.018
 3978SOL    HW112833   5.811   3.145   6.009
 3978SOL    HW212834   5.664   3.082   5.975
 3979SOL     OW12835   0.684   6.844   2.351
 3979SOL    HW112836   0.741   6.924   2.331
 3979SOL    HW212837   0.591   6.860   2.319
 3980SOL     OW12838   5.173   3.560   4.383
 3980SOL    HW112839   5.125   3.551   4.296
 3980SOL    HW212840   5.124   3.510   4.454
 3981SOL     OW12841   6.755   1.803   6.964
 3981SOL    HW112842   6.678   1.752   6.927
 3981SOL    HW212843   6.839   1.750   6.952
 3982SOL     OW12844   2.283   1.895   3.914
 3982SOL    HW112845   2.328   1.867   3.830
 3982SOL    HW212846   2.193   1.933   3.892
 3983SOL     OW12847   3.281   6.232   4.259
 3983SOL    HW112848   3.360   6.292   4.268
 3983SOL    HW212849   3.251   6.202   4.349
 3984SOL     OW12850   2.212   6.930   1.351
 3984SOL    HW112851   2.157   6.952   1.431
 3984SOL    HW212852   2.154   6.932   1.269
 3985SOL     OW12853   2.365   2.776   1.677
 3985SOL    HW112854   2.373   2.875   1.690
 3985SOL    HW212855   2.456   2.737   1.664
 3986SOL     OW12856   0.724   2.215   1.566
 3986SOL    HW112857   0.711   2.182   1.660
 3986SOL    HW212858   0.677   2.303   1.556
 3987SOL     OW12859   2.980   4.854   6.608
 3987SOL    HW112860   2.926   4.771   6.595
 3987SOL    HW212861   3.012   4.858   6.703
 3988SOL     OW12862   4.112   2.952   0.668
 3988SOL    HW112863   4.086   2.911   0.580
 3988SOL    HW212864   4.055   3.032   0.685
 3989SOL     OW12865   4.871   6.809   6.545
 3989SOL    HW112866   4.844   6.795   6.640
 3989SOL    HW212867   4.970   6.810   6.538
 3990SOL     OW12868   0.815   3.284   3.272
 3990SOL    HW112869   0.780   3.362   3.325
 3990SOL    HW212870   0.739   3.227   3.243
 3991SOL     OW12871   0.292   2.498   4.173
 3991SOL    HW112872   0.303   2.497   4.074
 3991SOL    HW212873   0.313   2.408   4.210
 3992SOL     OW12874   4.340   3.664   6.357
 3992SOL    HW112875   4.380   3.623   6.439
 3992SOL    HW212876   4.256   3.615   6.334
 3993SOL     OW12877   2.445   2.328   2.895
 3993SOL    HW112878   2.523   2.293   2.844
 3993SOL    HW212879   2.382   2.374   2.832
 3994SOL     OW12880   2.261   3.052   3.726
 3994SOL    HW112881   2.221   3.111   3.655
 3994SOL    HW212882   2.343   3.007   3.690
 3995SOL     OW12883   2.083   3.927   2.664
 3995SOL    HW112884   2.017   3.856   2.689
 3995SOL    HW212885   2.088   3.934   2.564
 3996SOL     OW12886   6.910   1.030   2.971
 3996SOL    HW112887   6.970   1.110   2.963
 3996SOL    HW212888   6.834   1.052   3.033
 3997SOL     OW12889   5.750   4.078   2.771
 3997SOL    HW112890   5.850   4.084   2.762
 3997SOL    HW212891   5.718   3.991   2.733
 3998SOL     OW12892   6.449   1.813   2.905
 3998SOL    HW112893   6.495   1.827   2.817
 3998SOL    HW212894   6.431   1.716   2.919
 3999SOL     OW12895   5.502   2.886   2.513
 3999SOL    HW112896   5.449   2.890   2.598
 3999SOL    HW212897   5.446   2.844   2.442
 4000SOL     OW12898   2.051   5.968   2.170
 4000SOL    HW112899   2.093   6.026   2.240
 4000SOL    HW212900   2.081   5.873   2.184
 4001SOL     OW12901   2.477   3.875   5.406
 4001SOL    HW112902   2.455   3.958   5.457
 4001SOL    HW212903   2.451   3.886   5.310
 4002SOL     OW12904   3.480   3.140   4.456
 4002SOL    HW112905   3.457   3.042   4.453
 4002SOL    HW212906   3.400   3.192   4.484
 4003SOL     OW12907   2.563   1.020   5.471
 4003SOL    HW112908   2.660   1.041   5.459
 4003SOL    HW212909   2.546   0.994   5.566
 4004SOL     OW12910   0.907   3.905   3.251
 4004SOL    HW112911   0.959   3.838   3.304
 4004SOL    HW212912   0.940   3.997   3.274
 4005SOL     OW12913   4.409   3.544   1.547
 4005SOL    HW112914   4.382   3.556   1.452
 4005SOL    HW212915   4.508   3.527   1.551
 4006SOL     OW12916   4.925   5.562   3.405
 4006SOL    HW112917   4.838   5.518   3.384
 4006SOL    HW212918   4.939   5.563   3.504
 4007SOL     OW12919   0.249   1.779   2.953
 4007SOL    HW112920   0.201   1.805   2.869
 4007SOL    HW212921   0.223   1.686   2.979
 4008SOL     OW12922   2.742   6.963   0.088
 4008SOL    HW112923   2.758   6.944   0.185
 4008SOL    HW212924   2.703   6.882   0.044
 4009SOL     OW12925   4.378   1.763   0.820
 4009SOL    HW112926   4.311   1.834   0.842
 4009SOL    HW212927   4.350   1.677   0.864
 4010SOL     OW12928   2.503   4.527   1.415
 4010SOL    HW112929   2.566   4.493   1.345
 4010SOL    HW212930   2.432   4.459   1.432
 4011SOL     OW12931   6.287   6.143   0.683
 4011SOL    HW112932   6.217   6.150   0.754
 4011SOL    HW212933   6.340   6.060   0.697
 4012SOL     OW12934   4.068   6.349   1.853
 4012SOL    HW112935   4.072   6.407   1.934
 4012SOL    HW212936   4.052   6.254   1.880
 4013SOL     OW12937   1.416   1.054   1.468
 4013SOL    HW112938   1.387   1.148   1.447
 4013SOL    HW212939   1.390   0.994   1.393
 4014SOL     OW12940   2.182   5.757   3.731
 4014SOL    HW112941   2.133   5.676   3.697
 4014SOL    HW212942   2.271   5.762   3.687
 4015SOL     OW12943   4.543   5.306   6.139
 4015SOL    HW112944   4.582   5.357   6.215
 4015SOL    HW212945   4.616   5.275   6.078
 4016SOL     OW12946   3.754   5.836   5.851
 4016SOL    HW112947   3.712   5.748   5.874
 4016SOL    HW212948   3.745   5.853   5.753
 4017SOL     OW12949   0.318   5.363   5.512
 4017SOL    HW112950   0.313   5.383   5.414
 4017SOL    HW212951   0.390   5.418   5.553
 4018SOL     OW12952   3.815   6.175   1.978
 4018SOL    HW112953   3.859   6.106   2.035
 4018SOL    HW212954   3.798   6.137   1.887
 4019SOL     OW12955   5.150   3.397   3.047
 4019SOL    HW112956   5.061   3.440   3.066
 4019SOL    HW212957   5.163   3.319   3.108
 4020SOL     OW12958   6.703   4.453   4.234
 4020SOL    HW112959   6.678   4.511   4.312
 4020SOL    HW212960   6.748   4.370   4.266
 4021SOL     OW12961   3.417   3.671   6.120
 4021SOL    HW112962   3.324   3.696   6.096
 4021SOL    HW212963   3.476   3.679   6.040
 4022SOL     OW12964   3.309   6.936   0.541
 4022SOL    HW112965   3.403   6.922   0.510
 4022SOL    HW212966   3.301   6.909   0.636
 4023SOL     OW12967   0.302   2.030   5.773
 4023SOL    HW112968   0.233   2.035   5.700
 4023SOL    HW212969   0.384   1.984   5.737
 4024SOL     OW12970   1.088   4.987   3.777
 4024SOL    HW112971   1.086   4.979   3.876
 4024SOL    HW212972   0.994   4.986   3.741
 4025SOL     OW12973   1.391   6.046   4.269
 4025SOL    HW112974   1.327   5.981   4.310
 4025SOL    HW212975   1.426   6.107   4.339
 4026SOL     OW12976   6.835   6.394   4.295
 4026SOL    HW112977   6.844   6.336   4.376
 4026SOL    HW212978   6.925   6.426   4.267
 4027SOL     OW12979   2.324   2.383   6.573
 4027SOL    HW112980   2.394   2.383   6.645
 4027SOL    HW212981   2.359   2.430   6.493
 4028SOL     OW12982   4.665   1.661   3.443
 4028SOL    HW112983   4.608   1.619   3.373
 4028SOL    HW212984   4.614   1.734   3.489
 4029SOL     OW12985   2.862   4.095   6.680
 4029SOL    HW112986   2.874   4.089   6.581
 4029SOL    HW212987   2.800   4.170   6.702
 4030SOL     OW12988   6.856   1.092   2.094
 4030SOL    HW112989   6.850   1.038   2.178
 4030SOL    HW212990   6.946   1.135   2.088
 4031SOL     OW12991   5.675   0.326   1.931
 4031SOL    HW112992   5.665   0.409   1.986
 4031SOL    HW212993   5.593   0.314   1.874
 4032SOL     OW12994   6.492   6.509   1.445
 4032SOL    HW112995   6.475   6.605   1.424
 4032SOL    HW212996   6.578   6.480   1.404
 4033SOL     OW12997   2.889   2.229   2.835
 4033SOL    HW112998   2.919   2.220   2.930
 4033SOL    HW212999   2.967   2.255   2.778
 4034SOL     OW13000   6.673   2.908   5.220
 4034SOL    HW113001   6.671   2.976   5.293
 4034SOL    HW213002   6.765   2.872   5.210
 4035SOL     OW13003   6.711   2.506   1.187
 4035SOL    HW113004   6.777   2.580   1.198
 4035SOL    HW213005   6.753   2.419   1.212
 4036SOL     OW13006   3.674   4.911   2.911
 4036SOL    HW113007   3.663   5.000   2.867
 4036SOL    HW213008   3.769   4.881   2.904
 4037SOL     OW13009   3.206   0.752   6.225
 4037SOL    HW113010   3.230   0.696   6.145
 4037SOL    HW213011   3.285   0.759   6.285
 4038SOL     OW13012   4.315   3.302   6.635
 4038SOL    HW113013   4.359   3.306   6.725
 4038SOL    HW213014   4.291   3.207   6.614
 4039SOL     OW13015   5.290   5.734   1.584
 4039SOL    HW113016   5.319   5.657   1.641
 4039SOL    HW213017   5.194   5.722   1.559
 4040SOL     OW13018   3.059   5.272   5.403
 4040SOL    HW113019   3.104   5.234   5.484
 4040SOL    HW213020   3.126   5.323   5.349
 4041SOL     OW13021   1.977   6.202   1.211
 4041SOL    HW113022   1.944   6.294   1.193
 4041SOL    HW213023   1.979   6.186   1.310
 4042SOL     OW13024   6.068   6.679   2.851
 4042SOL    HW113025   6.100   6.767   2.818
 4042SOL    HW213026   6.137   6.638   2.911
 4043SOL     OW13027   6.211   2.374   6.993
 4043SOL    HW113028   6.192   2.277   6.977
 4043SOL    HW213029   6.145   2.411   0.037
 4044SOL     OW13030   4.525   4.732   2.683
 4044SOL    HW113031   4.602   4.786   2.648
 4044SOL    HW213032   4.523   4.740   2.783
 4045SOL     OW13033   4.851   6.621   6.324
 4045SOL    HW113034   4.833   6.712   6.361
 4045SOL    HW213035   4.902   6.567   6.390
 4046SOL     OW13036   0.657   1.199   2.944
 4046SOL    HW113037   0.581   1.212   3.008
 4046SOL    HW213038   0.737   1.250   2.975
 4047SOL     OW13039   1.680   2.964   0.057
 4047SOL    HW113040   1.623   2.907   0.116
 4047SOL    HW213041   1.636   2.974   6.989
 4048SOL     OW13042   4.966   1.127   1.975
 4048SOL    HW113043   4.890   1.169   1.926
 4048SOL    HW213044   5.052   1.165   1.941
 4049SOL     OW13045   4.240   5.867   6.745
 4049SOL    HW113046   4.302   5.898   6.818
 4049SOL    HW213047   4.291   5.810   6.680
 4050SOL     OW13048   0.912   5.636   2.333
 4050SOL    HW113049   0.935   5.733   2.339
 4050SOL    HW213050   0.835   5.623   2.270
 4051SOL     OW13051   5.000   1.440   6.277
 4051SOL    HW113052   5.030   1.398   6.362
 4051SOL    HW213053   4.905   1.472   6.287
 4052SOL     OW13054   6.291   2.358   3.325
 4052SOL    HW113055   6.258   2.297   3.397
 4052SOL    HW213056   6.376   2.401   3.355
 4053SOL     OW13057   1.119   6.058   4.924
 4053SOL    HW113058   1.126   6.104   4.836
 4053SOL    HW213059   1.093   5.962   4.910
 4054SOL     OW13060   4.936   4.548   1.249
 4054SOL    HW113061   4.856   4.608   1.254
 4054SOL    HW213062   4.959   4.531   1.153
 4055SOL     OW13063   1.250   3.965   1.896
 4055SOL    HW113064   1.157   3.930   1.885
 4055SOL    HW213065   1.252   4.061   1.868
 4056SOL     OW13066   5.288   3.639   1.178
 4056SOL    HW113067   5.264   3.591   1.262
 4056SOL    HW213068   5.363   3.703   1.196
 4057SOL     OW13069   6.164   3.268   6.696
 4057SOL    HW113070   6.255   3.284   6.734
 4057SOL    HW213071   6.143   3.340   6.630
 4058SOL     OW13072   2.880   6.380   4.948
 4058SOL    HW113073   2.914   6.371   5.042
 4058SOL    HW213074   2.956   6.389   4.885
 4059SOL     OW13075   0.100   3.032   3.652
 4059SOL    HW113076   0.167   2.981   3.706
 4059SOL    HW213077   0.023   2.973   3.630
 4060SOL     OW13078   6.104   5.871   4.939
 4060SOL    HW113079   6.135   5.781   4.967
 4060SOL    HW213080   6.071   5.868   4.845
 4061SOL     OW13081   2.412   4.840   1.790
 4061SOL    HW113082   2.457   4.834   1.879
 4061SOL    HW213083   2.433   4.929   1.748
 4062SOL     OW13084   3.100   0.899   1.604
 4062SOL    HW113085   3.031   0.934   1.668
 4062SOL    HW213086   3.062   0.821   1.554
 4063SOL     OW13087   5.770   6.803   0.959
 4063SOL    HW113088   5.743   6.711   0.985
 4063SOL    HW213089   5.870   6.811   0.963
 4064SOL     OW13090   2.789   1.758   5.003
 4064SOL    HW113091   2.831   1.839   4.962
 4064SOL    HW213092   2.691   1.757   4.985
 4065SOL     OW13093   0.831   0.120   0.637
 4065SOL    HW113094   0.910   0.174   0.610
 4065SOL    HW213095   0.836   0.029   0.595
 4066SOL     OW13096   6.580   4.025   3.193
 4066SOL    HW113097   6.634   3.975   3.261
 4066SOL    HW213098   6.640   4.056   3.119
 4067SOL     OW13099   5.901   4.244   3.355
 4067SOL    HW113100   5.932   4.336   3.378
 4067SOL    HW213101   5.912   4.184   3.435
 4068SOL     OW13102   2.126   2.699   4.251
 4068SOL    HW113103   2.182   2.619   4.228
 4068SOL    HW213104   2.092   2.691   4.344
 4069SOL     OW13105   3.098   5.980   6.948
 4069SOL    HW113106   3.002   6.005   6.958
 4069SOL    HW213107   3.108   5.916   6.872
 4070SOL     OW13108   1.073   3.136   2.925
 4070SOL    HW113109   1.143   3.165   2.989
 4070SOL    HW213110   1.099   3.160   2.832
 4071SOL     OW13111   1.746   0.371   4.888
 4071SOL    HW113112   1.800   0.449   4.853
 4071SOL    HW213113   1.809   0.301   4.922
 4072SOL     OW13114   1.311   4.759   4.823
 4072SOL    HW113115   1.395   4.791   4.780
 4072SOL    HW213116   1.239   4.827   4.811
 4073SOL     OW13117   2.731   5.550   6.197
 4073SOL    HW113118   2.666   5.602   6.141
 4073SOL    HW213119   2.683   5.478   6.246
 4074SOL     OW13120   0.749   4.624   1.404
 4074SOL    HW113121   0.723   4.528   1.411
 4074SOL    HW213122   0.802   4.650   1.486
 4075SOL     OW13123   5.052   1.527   1.017
 4075SOL    HW113124   4.968   1.498   0.972
 4075SOL    HW213125   5.035   1.610   1.070
 4076SOL     OW13126   3.581   3.606   5.631
 4076SOL    HW113127   3.487   3.585   5.605
 4076SOL    HW213128   3.581   3.671   5.707
 4077SOL     OW13129   4.563   1.034   1.536
 4077SOL    HW113130   4.641   0.989   1.492
 4077SOL    HW213131   4.491   0.967   1.552
 4078SOL     OW13132   2.579   5.308   2.302
 4078SOL    HW113133   2.518   5.358   2.241
 4078SOL    HW213134   2.674   5.329   2.278
 4079SOL     OW13135   1.885   1.620   3.718
 4079SOL    HW113136   1.844   1.673   3.792
 4079SOL    HW213137   1.982   1.605   3.737
 4080SOL     OW13138   5.120   2.341   5.327
 4080SOL    HW113139   5.041   2.281   5.343
 4080SOL    HW213140   5.141   2.343   5.229
 4081SOL     OW13141   1.633   2.979   4.133
 4081SOL    HW113142   1.594   3.035   4.207
 4081SOL    HW213143   1.717   2.935   4.165
 4082SOL     OW13144   1.246   3.367   0.715
 4082SOL    HW113145   1.184   3.369   0.636
 4082SOL    HW213146   1.261   3.461   0.747
 4083SOL     OW13147   5.966   2.955   3.693
 4083SOL    HW113148   6.030   2.997   3.757
 4083SOL    HW213149   5.973   3.000   3.605
 4084SOL     OW13150   5.800   1.811   3.935
 4084SOL    HW113151   5.814   1.758   4.019
 4084SOL    HW213152   5.717   1.780   3.889
 4085SOL     OW13153   3.888   5.643   0.688
 4085SOL    HW113154   3.845   5.572   0.744
 4085SOL    HW213155   3.822   5.677   0.621
 4086SOL     OW13156   2.234   6.144   1.454
 4086SOL    HW113157   2.198   6.192   1.534
 4086SOL    HW213158   2.230   6.046   1.469
 4087SOL     OW13159   2.573   2.296   3.325
 4087SOL    HW113160   2.515   2.229   3.371
 4087SOL    HW213161   2.523   2.336   3.248
 4088SOL     OW13162   6.784   1.362   0.684
 4088SOL    HW113163   6.832   1.450   0.685
 4088SOL    HW213164   6.686   1.377   0.699
 4089SOL     OW13165   6.654   6.342   3.287
 4089SOL    HW113166   6.636   6.390   3.373
 4089SOL    HW213167   6.743   6.297   3.291
 4090SOL     OW13168   2.737   3.951   5.556
 4090SOL    HW113169   2.827   3.932   5.595
 4090SOL    HW213170   2.674   3.878   5.581
 4091SOL     OW13171   6.276   6.854   0.419
 4091SOL    HW113172   6.176   6.854   0.409
 4091SOL    HW213173   6.318   6.881   0.332
 4092SOL     OW13174   6.670   3.036   5.451
 4092SOL    HW113175   6.596   3.074   5.506
 4092SOL    HW213176   6.755   3.035   5.504
 4093SOL     OW13177   4.765   0.143   3.728
 4093SOL    HW113178   4.753   0.052   3.767
 4093SOL    HW213179   4.700   0.206   3.770
 4094SOL     OW13180   2.499   5.353   5.060
 4094SOL    HW113181   2.422   5.309   5.105
 4094SOL    HW213182   2.545   5.414   5.125
 4095SOL     OW13183   1.078   4.201   6.687
 4095SOL    HW113184   1.039   4.289   6.659
 4095SOL    HW213185   1.157   4.180   6.630
 4096SOL     OW13186   4.193   5.526   1.124
 4096SOL    HW113187   4.133   5.603   1.104
 4096SOL    HW213188   4.219   5.528   1.221
 4097SOL     OW13189   3.943   3.704   6.129
 4097SOL    HW113190   3.851   3.684   6.163
 4097SOL    HW213191   3.937   3.730   6.033
 4098SOL     OW13192   0.021   2.904   2.328
 4098SOL    HW113193   7.021   2.980   2.267
 4098SOL    HW213194   0.111   2.919   2.369
 4099SOL     OW13195   2.668   4.919   1.103
 4099SOL    HW113196   2.658   5.019   1.101
 4099SOL    HW213197   2.665   4.883   1.010
 4100SOL     OW13198   5.743   5.997   4.676
 4100SOL    HW113199   5.790   6.039   4.754
 4100SOL    HW213200   5.787   5.910   4.654
 4101SOL     OW13201   5.840   0.670   6.961
 4101SOL    HW113202   5.857   0.635   6.869
 4101SOL    HW213203   5.743   0.687   6.973
 4102SOL     OW13204   6.939   0.741   1.762
 4102SOL    HW113205   6.935   0.715   1.859
 4102SOL    HW213206   6.942   0.841   1.755
 4103SOL     OW13207   0.560   0.471   1.890
 4103SOL    HW113208   0.542   0.459   1.988
 4103SOL    HW213209   0.655   0.500   1.876
 4104SOL     OW13210   1.453   4.405   2.646
 4104SOL    HW113211   1.544   4.431   2.614
 4104SOL    HW213212   1.402   4.364   2.570
 4105SOL     OW13213   4.017   5.220   0.912
 4105SOL    HW113214   4.026   5.152   0.985
 4105SOL    HW213215   3.921   5.226   0.885
 4106SOL     OW13216   0.449   2.872   5.299
 4106SOL    HW113217   0.534   2.824   5.278
 4106SOL    HW213218   0.421   2.852   5.393
 4107SOL     OW13219   1.004   6.066   0.793
 4107SOL    HW113220   0.922   6.123   0.803
 4107SOL    HW213221   1.035   6.068   0.698
 4108SOL     OW13222   0.441   4.506   5.981
 4108SOL    HW113223   0.399   4.595   6.002
 4108SOL    HW213224   0.486   4.471   6.064
 4109SOL     OW13225   4.788   6.248   4.764
 4109SOL    HW113226   4.743   6.217   4.848
 4109SOL    HW213227   4.815   6.344   4.774
 4110SOL     OW13228   4.483   3.486   6.484
 4110SOL    HW113229   4.567   3.432   6.483
 4110SOL    HW213230   4.434   3.470   6.570
 4111SOL     OW13231   3.628   3.051   6.915
 4111SOL    HW113232   3.571   3.004   6.848
 4111SOL    HW213233   3.707   2.995   6.938
 4112SOL     OW13234   5.127   1.708   5.934
 4112SOL    HW113235   5.139   1.800   5.897
 4112SOL    HW213236   5.060   1.659   5.878
 4113SOL     OW13237   4.060   5.906   5.023
 4113SOL    HW113238   4.063   6.005   5.009
 4113SOL    HW213239   3.982   5.882   5.080
 4114SOL     OW13240   3.754   2.177   3.632
 4114SOL    HW113241   3.835   2.214   3.587
 4114SOL    HW213242   3.764   2.078   3.644
 4115SOL     OW13243   4.855   5.851   2.134
 4115SOL    HW113244   4.821   5.869   2.226
 4115SOL    HW213245   4.890   5.935   2.094
 4116SOL     OW13246   4.334   2.542   1.679
 4116SOL    HW113247   4.257   2.478   1.674
 4116SOL    HW213248   4.387   2.524   1.762
 4117SOL     OW13249   0.376   4.811   1.970
 4117SOL    HW113250   0.318   4.752   1.914
 4117SOL    HW213251   0.445   4.755   2.015
 4118SOL     OW13252   1.819   5.964   0.210
 4118SOL    HW113253   1.823   6.060   0.237
 4118SOL    HW213254   1.800   5.907   0.290
 4119SOL     OW13255   4.146   1.515   3.350
 4119SOL    HW113256   4.122   1.611   3.339
 4119SOL    HW213257   4.224   1.493   3.291
 4120SOL     OW13258   4.572   6.945   0.909
 4120SOL    HW113259   4.648   6.909   0.964
 4120SOL    HW213260   4.485   6.916   0.949
 4121SOL     OW13261   6.143   1.217   4.777
 4121SOL    HW113262   6.174   1.130   4.738
 4121SOL    HW213263   6.061   1.202   4.832
 4122SOL     OW13264   0.940   6.741   5.463
 4122SOL    HW113265   0.912   6.700   5.376
 4122SOL    HW213266   0.959   6.839   5.450
 4123SOL     OW13267   4.784   4.553   5.442
 4123SOL    HW113268   4.790   4.562   5.343
 4123SOL    HW213269   4.757   4.641   5.482
 4124SOL     OW13270   6.205   5.808   5.360
 4124SOL    HW113271   6.164   5.900   5.358
 4124SOL    HW213272   6.133   5.739   5.357
 4125SOL     OW13273   4.834   0.788   2.060
 4125SOL    HW113274   4.908   0.828   2.115
 4125SOL    HW213275   4.747   0.828   2.087
 4126SOL     OW13276   1.058   4.384   4.078
 4126SOL    HW113277   1.099   4.442   4.148
 4126SOL    HW213278   1.128   4.358   4.011
 4127SOL     OW13279   5.028   4.165   4.392
 4127SOL    HW113280   5.052   4.178   4.296
 4127SOL    HW213281   5.088   4.096   4.432
 4128SOL     OW13282   2.003   3.642   2.370
 4128SOL    HW113283   2.000   3.722   2.430
 4128SOL    HW213284   2.065   3.574   2.409
 4129SOL     OW13285   5.757   1.501   6.435
 4129SOL    HW113286   5.740   1.442   6.356
 4129SOL    HW213287   5.772   1.595   6.405
 4130SOL     OW13288   6.803   3.723   5.829
 4130SOL    HW113289   6.861   3.678   5.897
 4130SOL    HW213290   6.820   3.822   5.830
 4131SOL     OW13291   0.942   5.893   3.819
 4131SOL    HW113292   0.926   5.794   3.821
 4131SOL    HW213293   0.972   5.921   3.728
 4132SOL     OW13294   5.392   4.168   3.716
 4132SOL    HW113295   5.328   4.199   3.786
 4132SOL    HW213296   5.378   4.219   3.631
 4133SOL     OW13297   2.943   6.445   1.575
 4133SOL    HW113298   3.000   6.427   1.495
 4133SOL    HW213299   2.909   6.359   1.612
 4134SOL     OW13300   1.609   2.439   0.718
 4134SOL    HW113301   1.655   2.371   0.660
 4134SOL    HW213302   1.649   2.529   0.702
 4135SOL     OW13303   2.250   0.886   2.499
 4135SOL    HW113304   2.243   0.790   2.473
 4135SOL    HW213305   2.279   0.893   2.595
 4136SOL     OW13306   0.390   2.104   3.945
 4136SOL    HW113307   0.358   2.066   3.859
 4136SOL    HW213308   0.437   2.191   3.928
 4137SOL     OW13309   2.249   3.559   1.249
 4137SOL    HW113310   2.302   3.622   1.193
 4137SOL    HW213311   2.266   3.465   1.219
 4138SOL     OW13312   3.911   5.352   3.690
 4138SOL    HW113313   3.905   5.449   3.712
 4138SOL    HW213314   4.002   5.332   3.653
 4139SOL     OW13315   2.267   1.786   6.106
 4139SOL    HW113316   2.202   1.858   6.133
 4139SOL    HW213317   2.320   1.757   6.185
 4140SOL     OW13318   3.472   0.408   5.268
 4140SOL    HW113319   3.499   0.328   5.321
 4140SOL    HW213320   3.415   0.468   5.325
 4141SOL     OW13321   4.949   5.423   0.869
 4141SOL    HW113322   4.983   5.496   0.928
 4141SOL    HW213323   4.896   5.463   0.794
 4142SOL     OW13324   6.390   5.758   0.983
 4142SOL    HW113325   6.482   5.772   1.020
 4142SOL    HW213326   6.326   5.820   1.027
 4143SOL     OW13327   6.732   3.775   0.772
 4143SOL    HW113328   6.811   3.763   0.712
 4143SOL    HW213329   6.748   3.854   0.832
 4144SOL     OW13330   5.886   2.317   1.026
 4144SOL    HW113331   5.910   2.229   0.986
 4144SOL    HW213332   5.811   2.359   0.973
 4145SOL     OW13333   0.116   5.819   1.732
 4145SOL    HW113334   0.104   5.875   1.650
 4145SOL    HW213335   0.159   5.732   1.707
 4146SOL     OW13336   6.020   0.493   5.186
 4146SOL    HW113337   6.013   0.433   5.107
 4146SOL    HW213338   6.105   0.545   5.182
 4147SOL     OW13339   3.674   1.777   5.295
 4147SOL    HW113340   3.755   1.731   5.258
 4147SOL    HW213341   3.630   1.717   5.362
 4148SOL     OW13342   0.759   0.451   3.884
 4148SOL    HW113343   0.767   0.436   3.786
 4148SOL    HW213344   0.845   0.427   3.929
 4149SOL     OW13345   0.688   3.683   0.365
 4149SOL    HW113346   0.766   3.729   0.323
 4149SOL    HW213347   0.619   3.662   0.295
 4150SOL     OW13348   5.932   0.766   5.985
 4150SOL    HW113349   5.939   0.853   6.034
 4150SOL    HW213350   5.882   0.700   6.041
 4151SOL     OW13351   5.180   6.348   6.749
 4151SOL    HW113352   5.088   6.386   6.741
 4151SOL    HW213353   5.212   6.356   6.843
 4152SOL     OW13354   2.944   5.325   1.650
 4152SOL    HW113355   2.934   5.358   1.556
 4152SOL    HW213356   2.956   5.226   1.650
 4153SOL     OW13357   5.346   5.364   6.310
 4153SOL    HW113358   5.387   5.279   6.279
 4153SOL    HW213359   5.247   5.359   6.299
 4154SOL     OW13360   6.877   4.024   5.503
 4154SOL    HW113361   6.813   4.065   5.568
 4154SOL    HW213362   6.852   4.051   5.410
 4155SOL     OW13363   0.017   3.354   3.455
 4155SOL    HW113364   6.965   3.313   3.402
 4155SOL    HW213365   0.078   3.282   3.489
 4156SOL     OW13366   5.267   6.937   5.034
 4156SOL    HW113367   5.310   6.880   4.965
 4156SOL    HW213368   5.324   7.017   5.051
 4157SOL     OW13369   3.808   0.074   3.552
 4157SOL    HW113370   3.734   0.075   3.619
 4157SOL    HW213371   3.836   0.168   3.532
 4158SOL     OW13372   1.328   5.313   4.125
 4158SOL    HW113373   1.241   5.282   4.086
 4158SOL    HW213374   1.310   5.382   4.195
 4159SOL     OW13375   1.776   3.240   4.017
 4159SOL    HW113376   1.735   3.322   3.977
 4159SOL    HW213377   1.708   3.167   4.022
 4160SOL     OW13378   6.463   0.324   0.655
 4160SOL    HW113379   6.550   0.310   0.702
 4160SOL    HW213380   6.478   0.326   0.556
 4161SOL     OW13381   1.979   6.566   6.402
 4161SOL    HW113382   1.942   6.520   6.483
 4161SOL    HW213383   1.908   6.575   6.332
 4162SOL     OW13384   6.306   0.050   4.768
 4162SOL    HW113385   6.367   7.013   4.822
 4162SOL    HW213386   6.345   0.141   4.762
 4163SOL     OW13387   5.824   1.773   3.468
 4163SOL    HW113388   5.768   1.710   3.521
 4163SOL    HW213389   5.799   1.768   3.372
 4164SOL     OW13390   1.788   0.240   6.363
 4164SOL    HW113391   1.756   0.148   6.343
 4164SOL    HW213392   1.887   0.245   6.348
 4165SOL     OW13393   4.715   0.101   0.741
 4165SOL    HW113394   4.778   0.056   0.678
 4165SOL    HW213395   4.650   0.034   0.778
 4166SOL     OW13396   5.594   2.262   1.017
 4166SOL    HW113397   5.635   2.304   0.937
 4166SOL    HW213398   5.545   2.179   0.991
 4167SOL     OW13399   2.763   3.206   1.113
 4167SOL    HW113400   2.827   3.137   1.077
 4167SOL    HW213401   2.676   3.162   1.135
 4168SOL     OW13402   0.298   5.184   1.145
 4168SOL    HW113403   0.213   5.231   1.123
 4168SOL    HW213404   0.277   5.100   1.196
 4169SOL     OW13405   5.461   3.901   4.458
 4169SOL    HW113406   5.399   3.864   4.389
 4169SOL    HW213407   5.408   3.946   4.530
 4170SOL     OW13408   3.872   2.959   4.776
 4170SOL    HW113409   3.838   3.007   4.695
 4170SOL    HW213410   3.910   2.871   4.749
 4171SOL     OW13411   5.473   4.572   1.201
 4171SOL    HW113412   5.524   4.646   1.245
 4171SOL    HW213413   5.464   4.495   1.264
 4172SOL     OW13414   6.868   2.252   6.287
 4172SOL    HW113415   6.967   2.238   6.276
 4172SOL    HW213416   6.836   2.319   6.220
 4173SOL     OW13417   5.733   3.341   5.056
 4173SOL    HW113418   5.654   3.379   5.104
 4173SOL    HW213419   5.701   3.287   4.978
 4174SOL     OW13420   5.306   0.844   3.665
 4174SOL    HW113421   5.307   0.745   3.681
 4174SOL    HW213422   5.338   0.891   3.747
 4175SOL     OW13423   3.052   6.496   4.510
 4175SOL    HW113424   3.125   6.563   4.502
 4175SOL    HW213425   3.034   6.478   4.607
 4176SOL     OW13426   3.372   0.293   2.226
 4176SOL    HW113427   3.319   0.322   2.305
 4176SOL    HW213428   3.373   0.193   2.221
 4177SOL     OW13429   0.573   5.350   5.201
 4177SOL    HW113430   0.500   5.284   5.186
 4177SOL    HW213431   0.601   5.389   5.113
 4178SOL     OW13432   3.719   0.919   5.156
 4178SOL    HW113433   3.715   0.987   5.229
 4178SOL    HW213434   3.804   0.866   5.164
 4179SOL     OW13435   5.363   3.557   4.062
 4179SOL    HW113436   5.269   3.527   4.081
 4179SOL    HW213437   5.362   3.652   4.031
 4180SOL     OW13438   5.536   4.532   1.934
 4180SOL    HW113439   5.503   4.462   1.998
 4180SOL    HW213440   5.459   4.574   1.887
 4181SOL     OW13441   1.867   1.632   6.120
 4181SOL    HW113442   1.941   1.648   6.055
 4181SOL    HW213443   1.886   1.679   6.206
 4182SOL     OW13444   0.104   0.457   2.924
 4182SOL    HW113445   0.064   0.369   2.897
 4182SOL    HW213446   0.065   0.486   3.012
 4183SOL     OW13447   2.919   1.284   1.925
 4183SOL    HW113448   2.966   1.345   1.988
 4183SOL    HW213449   2.824   1.315   1.913
 4184SOL     OW13450   3.991   4.642   1.201
 4184SOL    HW113451   4.080   4.604   1.179
 4184SOL    HW213452   3.995   4.686   1.291
 4185SOL     OW13453   0.764   5.545   3.466
 4185SOL    HW113454   0.810   5.530   3.378
 4185SOL    HW213455   0.828   5.523   3.540
 4186SOL     OW13456   2.296   4.187   0.186
 4186SOL    HW113457   2.354   4.266   0.170
 4186SOL    HW213458   2.353   4.106   0.199
 4187SOL     OW13459   3.769   3.371   5.612
 4187SOL    HW113460   3.701   3.441   5.635
 4187SOL    HW213461   3.837   3.366   5.686
 4188SOL     OW13462   4.628   0.466   4.186
 4188SOL    HW113463   4.705   0.524   4.214
 4188SOL    HW213464   4.570   0.517   4.123
 4189SOL     OW13465   3.093   1.902   4.506
 4189SOL    HW113466   3.091   1.994   4.545
 4189SOL    HW213467   3.041   1.901   4.420
 4190SOL     OW13468   2.742   0.107   6.291
 4190SOL    HW113469   2.656   0.158   6.299
 4190SOL    HW213470   2.816   0.160   6.331
 4191SOL     OW13471   5.407   3.320   2.950
 4191SOL    HW113472   5.313   3.335   2.981
 4191SOL    HW213473   5.469   3.326   3.028
 4192SOL     OW13474   6.614   2.081   3.384
 4192SOL    HW113475   6.524   2.036   3.381
 4192SOL    HW213476   6.684   2.018   3.350
 4193SOL     OW13477   2.208   6.244   1.702
 4193SOL    HW113478   2.186   6.223   1.797
 4193SOL    HW213479   2.303   6.272   1.695
 4194SOL     OW13480   6.652   2.268   4.841
 4194SOL    HW113481   6.649   2.331   4.919
 4194SOL    HW213482   6.733   2.210   4.848
 4195SOL     OW13483   3.924   0.541   1.125
 4195SOL    HW113484   3.925   0.638   1.149
 4195SOL    HW213485   3.886   0.488   1.201
 4196SOL     OW13486   5.589   2.678   4.156
 4196SOL    HW113487   5.560   2.586   4.128
 4196SOL    HW213488   5.542   2.703   4.240
 4197SOL     OW13489   5.224   4.565   3.694
 4197SOL    HW113490   5.284   4.616   3.755
 4197SOL    HW213491   5.210   4.616   3.610
 4198SOL     OW13492   6.393   3.984   6.973
 4198SOL    HW113493   6.296   4.012   6.972
 4198SOL    HW213494   6.417   3.951   0.042
 4199SOL     OW13495   2.942   2.950   5.623
 4199SOL    HW113496   3.007   2.967   5.549
 4199SOL    HW213497   2.979   2.880   5.684
 4200SOL     OW13498   2.735   6.436   6.234
 4200SOL    HW113499   2.655   6.471   6.186
 4200SOL    HW213500   2.785   6.512   6.276
 4201SOL     OW13501   6.306   6.599   3.376
 4201SOL    HW113502   6.239   6.658   3.331
 4201SOL    HW213503   6.345   6.647   3.454
 4202SOL     OW13504   4.920   4.514   5.858
 4202SOL    HW113505   4.935   4.469   5.770
 4202SOL    HW213506   4.961   4.459   5.931
 4203SOL     OW13507   4.474   5.988   3.023
 4203SOL    HW113508   4.404   5.933   2.978
 4203SOL    HW213509   4.461   5.985   3.122
 4204SOL     OW13510   3.241   2.883   2.168
 4204SOL    HW113511   3.223   2.785   2.157
 4204SOL    HW213512   3.339   2.898   2.181
 4205SOL     OW13513   3.608   4.913   4.038
 4205SOL    HW113514   3.676   4.873   3.976
 4205SOL    HW213515   3.586   4.847   4.110
 4206SOL     OW13516   4.962   0.817   6.398
 4206SOL    HW113517   4.867   0.785   6.398
 4206SOL    HW213518   5.015   0.765   6.464
 4207SOL     OW13519   1.901   1.185   1.751
 4207SOL    HW113520   1.953   1.268   1.732
 4207SOL    HW213521   1.906   1.123   1.672
 4208SOL     OW13522   1.331   2.267   1.117
 4208SOL    HW113523   1.256   2.226   1.169
 4208SOL    HW213524   1.294   2.327   1.047
 4209SOL     OW13525   1.528   0.945   5.452
 4209SOL    HW113526   1.567   0.882   5.519
 4209SOL    HW213527   1.588   1.024   5.442
 4210SOL     OW13528   3.441   3.458   1.850
 4210SOL    HW113529   3.454   3.361   1.835
 4210SOL    HW213530   3.382   3.496   1.779
 4211SOL     OW13531   4.673   5.206   5.165
 4211SOL    HW113532   4.644   5.215   5.261
 4211SOL    HW213533   4.655   5.113   5.133
 4212SOL     OW13534   6.840   1.313   2.453
 4212SOL    HW113535   6.865   1.244   2.520
 4212SOL    HW213536   6.778   1.274   2.385
 4213SOL     OW13537   2.375   0.774   2.787
 4213SOL    HW113538   2.341   0.680   2.790
 4213SOL    HW213539   2.463   0.776   2.739
 4214SOL     OW13540   0.268   3.836   6.420
 4214SOL    HW113541   0.306   3.914   6.469
 4214SOL    HW213542   0.189   3.800   6.470
 4215SOL     OW13543   0.581   6.061   4.305
 4215SOL    HW113544   0.566   6.054   4.206
 4215SOL    HW213545   0.534   6.142   4.340
 4216SOL     OW13546   1.662   2.109   4.067
 4216SOL    HW113547   1.741   2.157   4.028
 4216SOL    HW213548   1.580   2.134   4.015
 4217SOL     OW13549   6.972   6.654   2.993
 4217SOL    HW113550   6.997   6.562   3.023
 4217SOL    HW213551   6.903   6.647   2.920
 4218SOL     OW13552   4.889   0.056   2.288
 4218SOL    HW113553   4.822   7.016   2.247
 4218SOL    HW213554   4.924   0.118   2.218
 4219SOL     OW13555   3.072   4.576   5.432
 4219SOL    HW113556   3.148   4.628   5.393
 4219SOL    HW213557   3.008   4.552   5.359
 4220SOL     OW13558   6.502   3.441   3.299
 4220SOL    HW113559   6.538   3.415   3.209
 4220SOL    HW213560   6.422   3.500   3.286
 4221SOL     OW13561   5.596   6.042   6.630
 4221SOL    HW113562   5.497   6.030   6.637
 4221SOL    HW213563   5.616   6.136   6.604
 4222SOL     OW13564   6.076   1.498   1.925
 4222SOL    HW113565   6.149   1.442   1.965
 4222SOL    HW213566   5.995   1.494   1.984
 4223SOL     OW13567   3.278   3.353   3.159
 4223SOL    HW113568   3.377   3.355   3.144
 4223SOL    HW213569   3.253   3.425   3.224
 4224SOL     OW13570   4.849   3.181   4.345
 4224SOL    HW113571   4.849   3.117   4.422
 4224SOL    HW213572   4.862   3.131   4.259
 4225SOL     OW13573   5.236   1.021   4.920
 4225SOL    HW113574   5.238   0.960   4.999
 4225SOL    HW213575   5.327   1.060   4.904
 4226SOL     OW13576   1.596   1.400   3.825
 4226SOL    HW113577   1.689   1.376   3.852
 4226SOL    HW213578   1.570   1.488   3.866
 4227SOL     OW13579   3.968   4.763   6.667
 4227SOL    HW113580   3.948   4.807   6.755
 4227SOL    HW213581   3.985   4.665   6.682
 4228SOL     OW13582   5.947   6.365   4.104
 4228SOL    HW113583   5.867   6.378   4.162
 4228SOL    HW213584   5.977   6.270   4.110
 4229SOL     OW13585   3.793   4.561   6.035
 4229SOL    HW113586   3.714   4.560   6.097
 4229SOL    HW213587   3.874   4.530   6.085
 4230SOL     OW13588   2.537   0.219   5.196
 4230SOL    HW113589   2.596   0.148   5.234
 4230SOL    HW213590   2.574   0.250   5.109
 4231SOL     OW13591   4.867   6.250   5.185
 4231SOL    HW113592   4.889   6.220   5.277
 4231SOL    HW213593   4.945   6.299   5.146
 4232SOL     OW13594   1.082   5.464   1.826
 4232SOL    HW113595   1.097   5.414   1.911
 4232SOL    HW213596   0.997   5.435   1.784
 4233SOL     OW13597   6.585   0.957   6.915
 4233SOL    HW113598   6.669   0.906   6.931
 4233SOL    HW213599   6.506   0.901   6.941
 4234SOL     OW13600   2.165   5.167   6.159
 4234SOL    HW113601   2.069   5.146   6.178
 4234SOL    HW213602   2.178   5.180   6.061
 4235SOL     OW13603   6.363   4.447   5.673
 4235SOL    HW113604   6.365   4.351   5.701
 4235SOL    HW213605   6.433   4.498   5.723
 4236SOL     OW13606   0.234   2.518   3.914
 4236SOL    HW113607   0.199   2.425   3.897
 4236SOL    HW213608   0.218   2.575   3.834
 4237SOL     OW13609   6.053   3.920   4.593
 4237SOL    HW113610   5.981   3.974   4.549
 4237SOL    HW213611   6.098   3.863   4.524
 4238SOL     OW13612   4.286   4.956   3.570
 4238SOL    HW113613   4.253   5.016   3.642
 4238SOL    HW213614   4.280   5.003   3.482
 4239SOL     OW13615   4.535   0.155   4.554
 4239SOL    HW113616   4.575   0.194   4.471
 4239SOL    HW213617   4.608   0.131   4.618
 4240SOL     OW13618   2.883   5.879   6.634
 4240SOL    HW113619   2.909   5.837   6.721
 4240SOL    HW213620   2.904   5.817   6.559
 4241SOL     OW13621   5.112   0.227   1.215
 4241SOL    HW113622   5.047   0.260   1.283
 4241SOL    HW213623   5.161   0.305   1.176
 4242SOL     OW13624   2.278   6.517   2.758
 4242SOL    HW113625   2.220   6.589   2.795
 4242SOL    HW213626   2.343   6.488   2.828
 4243SOL     OW13627   0.556   3.792   2.382
 4243SOL    HW113628   0.589   3.796   2.287
 4243SOL    HW213629   0.631   3.814   2.444
 4244SOL     OW13630   5.253   6.414   0.715
 4244SOL    HW113631   5.154   6.416   0.726
 4244SOL    HW213632   5.275   6.380   0.624
 4245SOL     OW13633   6.346   3.157   0.369
 4245SOL    HW113634   6.291   3.212   0.432
 4245SOL    HW213635   6.307   3.162   0.277
 4246SOL     OW13636   5.435   2.659   3.138
 4246SOL    HW113637   5.383   2.574   3.134
 4246SOL    HW213638   5.387   2.726   3.193
 4247SOL     OW13639   2.442   5.445   4.779
 4247SOL    HW113640   2.398   5.524   4.735
 4247SOL    HW213641   2.417   5.443   4.876
 4248SOL     OW13642   1.689   0.760   3.059
 4248SOL    HW113643   1.666   0.784   3.153
 4248SOL    HW213644   1.699   0.661   3.051
 4249SOL     OW13645   0.281   1.845   4.262
 4249SOL    HW113646   0.268   1.761   4.210
 4249SOL    HW213647   0.232   1.920   4.217
 4250SOL     OW13648   0.536   5.511   4.071
 4250SOL    HW113649   0.544   5.462   4.158
 4250SOL    HW213650   0.628   5.535   4.038
 4251SOL     OW13651   5.752   2.881   7.003
 4251SOL    HW113652   5.779   2.938   0.059
 4251SOL    HW213653   5.818   2.893   6.929
 4252SOL     OW13654   5.954   6.176   5.212
 4252SOL    HW113655   5.901   6.180   5.296
 4252SOL    HW213656   5.958   6.267   5.171
 4253SOL     OW13657   3.641   6.171   2.201
 4253SOL    HW113658   3.659   6.089   2.256
 4253SOL    HW213659   3.676   6.157   2.108
 4254SOL     OW13660   2.163   3.341   0.296
 4254SOL    HW113661   2.197   3.279   0.367
 4254SOL    HW213662   2.205   3.431   0.307
 4255SOL     OW13663   0.881   4.685   3.198
 4255SOL    HW113664   0.801   4.631   3.224
 4255SOL    HW213665   0.891   4.683   3.098
 4256SOL     OW13666   0.446   4.728   1.557
 4256SOL    HW113667   0.470   4.678   1.640
 4256SOL    HW213668   0.392   4.809   1.580
 4257SOL     OW13669   6.112   2.008   5.251
 4257SOL    HW113670   6.100   2.107   5.254
 4257SOL    HW213671   6.053   1.965   5.319
 4258SOL     OW13672   3.159   5.574   0.756
 4258SOL    HW113673   3.143   5.637   0.680
 4258SOL    HW213674   3.246   5.598   0.801
 4259SOL     OW13675   1.665   6.881   1.077
 4259SOL    HW113676   1.653   6.784   1.055
 4259SOL    HW213677   1.655   6.935   0.993
 4260SOL     OW13678   4.757   0.162   4.314
 4260SOL    HW113679   4.792   0.197   4.400
 4260SOL    HW213680   4.802   0.209   4.238
 4261SOL     OW13681   2.287   0.402   5.016
 4261SOL    HW113682   2.316   0.312   4.983
 4261SOL    HW213683   2.351   0.471   4.982
 4262SOL     OW13684   1.252   4.829   6.178
 4262SOL    HW113685   1.180   4.833   6.109
 4262SOL    HW213686   1.252   4.739   6.222
 4263SOL     OW13687   2.822   2.103   3.306
 4263SOL    HW113688   2.779   2.013   3.319
 4263SOL    HW213689   2.750   2.173   3.298
 4264SOL     OW13690   5.232   1.256   4.338
 4264SOL    HW113691   5.328   1.250   4.367
 4264SOL    HW213692   5.181   1.311   4.405
 4265SOL     OW13693   2.917   0.007   1.195
 4265SOL    HW113694   3.003   0.032   1.241
 4265SOL    HW213695   2.910   6.929   1.190
 4266SOL     OW13696   1.150   6.817   0.513
 4266SOL    HW113697   1.201   6.886   0.565
 4266SOL    HW213698   1.115   6.859   0.429
 4267SOL     OW13699   2.271   4.019   3.640
 4267SOL    HW113700   2.307   4.081   3.570
 4267SOL    HW213701   2.277   4.063   3.730
 4268SOL     OW13702   0.998   4.887   6.773
 4268SOL    HW113703   1.072   4.948   6.744
 4268SOL    HW213704   0.979   4.901   6.870
 4269SOL     OW13705   3.259   1.738   4.280
 4269SOL    HW113706   3.166   1.745   4.315
 4269SOL    HW213707   3.302   1.655   4.316
 4270SOL     OW13708   3.553   3.017   1.434
 4270SOL    HW113709   3.593   2.965   1.359
 4270SOL    HW213710   3.504   3.096   1.396
 4271SOL     OW13711   6.355   0.568   1.138
 4271SOL    HW113712   6.331   0.518   1.055
 4271SOL    HW213713   6.345   0.666   1.123
 4272SOL     OW13714   7.016   3.440   5.591
 4272SOL    HW113715   0.084   3.465   5.627
 4272SOL    HW213716   6.975   3.369   5.649
 4273SOL     OW13717   4.373   6.409   4.739
 4273SOL    HW113718   4.334   6.452   4.658
 4273SOL    HW213719   4.443   6.469   4.779
 4274SOL     OW13720   6.726   6.447   1.749
 4274SOL    HW113721   6.714   6.452   1.848
 4274SOL    HW213722   6.755   6.354   1.723
 4275SOL     OW13723   0.812   2.481   3.717
 4275SOL    HW113724   0.891   2.420   3.708
 4275SOL    HW213725   0.793   2.497   3.814
 4276SOL     OW13726   2.948   5.236   4.116
 4276SOL    HW113727   2.949   5.284   4.203
 4276SOL    HW213728   2.862   5.187   4.105
 4277SOL     OW13729   6.556   5.173   4.020
 4277SOL    HW113730   6.612   5.102   4.062
 4277SOL    HW213731   6.596   5.263   4.040
 4278SOL     OW13732   6.993   6.202   2.874
 4278SOL    HW113733   7.007   6.191   2.776
 4278SOL    HW213734   6.913   6.149   2.902
 4279SOL     OW13735   1.423   1.507   2.481
 4279SOL    HW113736   1.395   1.578   2.417
 4279SOL    HW213737   1.520   1.487   2.468
 4280SOL     OW13738   6.352   6.703   6.460
 4280SOL    HW113739   6.382   6.660   6.375
 4280SOL    HW213740   6.312   6.793   6.441
 4281SOL     OW13741   4.456   5.633   3.832
 4281SOL    HW113742   4.463   5.682   3.919
 4281SOL    HW213743   4.376   5.665   3.782
 4282SOL     OW13744   2.795   4.061   1.118
 4282SOL    HW113745   2.792   4.034   1.215
 4282SOL    HW213746   2.866   4.008   1.071
 4283SOL     OW13747   5.070   0.704   3.158
 4283SOL    HW113748   5.124   0.744   3.233
 4283SOL    HW213749   4.999   0.768   3.130
 4284SOL     OW13750   4.493   5.418   0.442
 4284SOL    HW113751   4.534   5.457   0.524
 4284SOL    HW213752   4.504   5.481   0.366
 4285SOL     OW13753   3.374   0.355   6.219
 4285SOL    HW113754   3.401   0.270   6.264
 4285SOL    HW213755   3.452   0.392   6.170
 4286SOL     OW13756   6.485   1.334   0.137
 4286SOL    HW113757   6.434   1.372   0.059
 4286SOL    HW213758   6.421   1.286   0.198
 4287SOL     OW13759   4.190   0.756   0.104
 4287SOL    HW113760   4.219   0.799   0.189
 4287SOL    HW213761   4.121   0.687   0.123
 4288SOL     OW13762   6.005   6.057   1.900
 4288SOL    HW113763   5.980   6.018   1.811
 4288SOL    HW213764   6.094   6.021   1.928
 4289SOL     OW13765   0.691   2.735   5.515
 4289SOL    HW113766   0.762   2.756   5.447
 4289SOL    HW213767   0.698   2.639   5.542
 4290SOL     OW13768   0.376   0.383   2.933
 4290SOL    HW113769   0.446   0.450   2.910
 4290SOL    HW213770   0.286   0.426   2.931
 4291SOL     OW13771   4.923   3.026   5.668
 4291SOL    HW113772   4.853   2.970   5.712
 4291SOL    HW213773   4.983   2.968   5.613
 4292SOL     OW13774   4.958   1.880   0.486
 4292SOL    HW113775   4.952   1.934   0.570
 4292SOL    HW213776   5.052   1.848   0.473
 4293SOL     OW13777   5.081   3.771   6.803
 4293SOL    HW113778   5.115   3.777   6.709
 4293SOL    HW213779   5.157   3.773   6.867
 4294SOL     OW13780   3.062   2.211   5.972
 4294SOL    HW113781   3.135   2.277   5.957
 4294SOL    HW213782   3.002   2.209   5.892
 4295SOL     OW13783   4.646   6.471   2.016
 4295SOL    HW113784   4.638   6.561   1.974
 4295SOL    HW213785   4.560   6.447   2.059
 4296SOL     OW13786   2.927   6.422   1.043
 4296SOL    HW113787   2.928   6.355   0.969
 4296SOL    HW213788   2.834   6.457   1.055
 4297SOL     OW13789   6.471   5.317   1.007
 4297SOL    HW113790   6.482   5.218   1.004
 4297SOL    HW213791   6.561   5.360   1.004
 4298SOL     OW13792   3.485   6.180   1.372
 4298SOL    HW113793   3.415   6.214   1.310
 4298SOL    HW213794   3.517   6.090   1.341
 4299SOL     OW13795   0.288   2.730   6.900
 4299SOL    HW113796   0.360   2.753   6.834
 4299SOL    HW213797   0.240   2.813   6.928
 4300SOL     OW13798   3.520   0.539   1.017
 4300SOL    HW113799   3.430   0.520   0.978
 4300SOL    HW213800   3.571   0.454   1.028
 4301SOL     OW13801   3.265   6.040   1.816
 4301SOL    HW113802   3.329   6.101   1.863
 4301SOL    HW213803   3.194   6.095   1.770
 4302SOL     OW13804   1.209   6.637   6.503
 4302SOL    HW113805   1.132   6.691   6.467
 4302SOL    HW213806   1.261   6.600   6.427
 4303SOL     OW13807   6.577   4.568   4.012
 4303SOL    HW113808   6.622   4.515   4.084
 4303SOL    HW213809   6.634   4.646   3.987
 4304SOL     OW13810   3.327   3.469   1.369
 4304SOL    HW113811   3.409   3.523   1.390
 4304SOL    HW213812   3.272   3.518   1.301
 4305SOL     OW13813   6.891   0.066   5.991
 4305SOL    HW113814   6.914   0.024   6.079
 4305SOL    HW213815   6.795   0.092   5.990
 4306SOL     OW13816   5.016   3.868   4.539
 4306SOL    HW113817   5.020   3.777   4.578
 4306SOL    HW213818   5.034   3.936   4.610
 4307SOL     OW13819   6.461   3.200   5.468
 4307SOL    HW113820   6.373   3.165   5.499
 4307SOL    HW213821   6.454   3.227   5.372
 4308SOL     OW13822   5.597   5.035   1.644
 4308SOL    HW113823   5.607   4.947   1.690
 4308SOL    HW213824   5.573   5.105   1.711
 4309SOL     OW13825   0.798   3.309   0.245
 4309SOL    HW113826   0.897   3.306   0.233
 4309SOL    HW213827   0.763   3.215   0.253
 4310SOL     OW13828   0.524   1.967   2.290
 4310SOL    HW113829   0.552   2.035   2.358
 4310SOL    HW213830   0.507   1.880   2.335
 4311SOL     OW13831   0.584   6.387   2.110
 4311SOL    HW113832   0.619   6.398   2.203
 4311SOL    HW213833   0.554   6.292   2.096
 4312SOL     OW13834   0.877   4.939   2.172
 4312SOL    HW113835   0.783   4.971   2.179
 4312SOL    HW213836   0.878   4.841   2.152
 4313SOL     OW13837   5.616   1.560   0.559
 4313SOL    HW113838   5.640   1.467   0.586
 4313SOL    HW213839   5.697   1.619   0.567
 4314SOL     OW13840   6.494   2.932   5.755
 4314SOL    HW113841   6.396   2.942   5.773
 4314SOL    HW213842   6.541   3.018   5.776
 4315SOL     OW13843   2.208   1.431   3.594
 4315SOL    HW113844   2.288   1.373   3.611
 4315SOL    HW213845   2.230   1.500   3.525
 4316SOL     OW13846   5.184   0.610   2.052
 4316SOL    HW113847   5.218   0.693   2.096
 4316SOL    HW213848   5.255   0.539   2.057
 4317SOL     OW13849   4.528   0.741   5.710
 4317SOL    HW113850   4.552   0.673   5.640
 4317SOL    HW213851   4.499   0.694   5.793
 4318SOL     OW13852   0.750   0.997   3.723
 4318SOL    HW113853   0.759   1.042   3.812
 4318SOL    HW213854   0.656   1.006   3.690
 4319SOL     OW13855   1.262   2.886   1.678
 4319SOL    HW113856   1.345   2.835   1.655
 4319SOL    HW213857   1.194   2.872   1.607
 4320SOL     OW13858   3.470   6.355   0.622
 4320SOL    HW113859   3.447   6.338   0.526
 4320SOL    HW213860   3.386   6.353   0.676
 4321SOL     OW13861   6.920   5.926   2.516
 4321SOL    HW113862   6.860   5.996   2.556
 4321SOL    HW213863   7.013   5.940   2.549
 4322SOL     OW13864   0.561   2.213   5.202
 4322SOL    HW113865   0.640   2.271   5.224
 4322SOL    HW213866   0.546   2.148   5.277
 4323SOL     OW13867   4.073   5.594   0.240
 4323SOL    HW113868   4.042   5.533   0.313
 4323SOL    HW213869   4.146   5.653   0.274
 4324SOL     OW13870   0.326   3.808   5.525
 4324SOL    HW113871   0.246   3.758   5.491
 4324SOL    HW213872   0.408   3.774   5.480
 4325SOL     OW13873   3.046   0.605   3.348
 4325SOL    HW113874   2.969   0.578   3.290
 4325SOL    HW213875   3.132   0.586   3.299
 4326SOL     OW13876   5.522   2.398   2.717
 4326SOL    HW113877   5.460   2.475   2.697
 4326SOL    HW213878   5.494   2.318   2.664
 4327SOL     OW13879   3.386   5.335   3.981
 4327SOL    HW113880   3.397   5.296   3.889
 4327SOL    HW213881   3.299   5.383   3.987
 4328SOL     OW13882   6.259   5.432   5.430
 4328SOL    HW113883   6.159   5.429   5.440
 4328SOL    HW213884   6.299   5.353   5.476
 4329SOL     OW13885   5.662   3.246   5.366
 4329SOL    HW113886   5.584   3.291   5.408
 4329SOL    HW213887   5.638   3.215   5.274
 4330SOL     OW13888   2.257   5.868   5.125
 4330SOL    HW113889   2.257   5.830   5.217
 4330SOL    HW213890   2.280   5.796   5.059
 4331SOL     OW13891   6.536   0.637   1.594
 4331SOL    HW113892   6.544   0.546   1.553
 4331SOL    HW213893   6.492   0.699   1.528
 4332SOL     OW13894   6.446   3.654   3.095
 4332SOL    HW113895   6.394   3.589   3.039
 4332SOL    HW213896   6.397   3.670   3.181
 4333SOL     OW13897   4.364   1.943   4.997
 4333SOL    HW113898   4.310   2.025   5.017
 4333SOL    HW213899   4.312   1.861   5.023
 4334SOL     OW13900   1.231   2.761   3.062
 4334SOL    HW113901   1.162   2.781   2.992
 4334SOL    HW213902   1.239   2.662   3.073
 4335SOL     OW13903   3.351   2.786   0.948
 4335SOL    HW113904   3.329   2.882   0.936
 4335SOL    HW213905   3.360   2.765   1.045
 4336SOL     OW13906   1.753   5.657   6.245
 4336SOL    HW113907   1.790   5.705   6.165
 4336SOL    HW213908   1.818   5.663   6.321
 4337SOL     OW13909   0.962   5.934   2.270
 4337SOL    HW113910   0.916   5.989   2.200
 4337SOL    HW213911   1.061   5.946   2.261
 4338SOL     OW13912   6.337   0.283   5.574
 4338SOL    HW113913   6.261   0.348   5.584
 4338SOL    HW213914   6.318   0.220   5.499
 4339SOL     OW13915   4.024   2.677   6.537
 4339SOL    HW113916   3.928   2.706   6.549
 4339SOL    HW213917   4.028   2.603   6.470
 4340SOL     OW13918   6.443   4.091   0.837
 4340SOL    HW113919   6.510   4.083   0.911
 4340SOL    HW213920   6.466   4.026   0.765
 4341SOL     OW13921   1.133   5.909   1.526
 4341SOL    HW113922   1.147   5.881   1.621
 4341SOL    HW213923   1.137   5.829   1.467
 4342SOL     OW13924   5.191   3.915   2.601
 4342SOL    HW113925   5.223   3.987   2.540
 4342SOL    HW213926   5.117   3.864   2.557
 4343SOL     OW13927   4.350   0.509   5.332
 4343SOL    HW113928   4.335   0.411   5.315
 4343SOL    HW213929   4.448   0.529   5.324
 4344SOL     OW13930   0.286   3.016   4.087
 4344SOL    HW113931   0.264   3.088   4.021
 4344SOL    HW213932   0.384   3.014   4.102
 4345SOL     OW13933   2.888   3.467   2.570
 4345SOL    HW113934   2.843   3.524   2.502
 4345SOL    HW213935   2.986   3.489   2.572
 4346SOL     OW13936   2.514   2.629   2.924
 4346SOL    HW113937   2.484   2.644   2.830
 4346SOL    HW213938   2.605   2.670   2.936
 4347SOL     OW13939   5.954   5.332   1.497
 4347SOL    HW113940   5.887   5.318   1.570
 4347SOL    HW213941   5.975   5.244   1.455
 4348SOL     OW13942   6.848   5.935   3.614
 4348SOL    HW113943   6.933   5.965   3.657
 4348SOL    HW213944   6.778   5.924   3.684
 4349SOL     OW13945   0.259   4.361   3.600
 4349SOL    HW113946   0.278   4.388   3.506
 4349SOL    HW213947   0.272   4.440   3.660
 4350SOL     OW13948   5.579   1.628   4.841
 4350SOL    HW113949   5.546   1.595   4.753
 4350SOL    HW213950   5.510   1.611   4.911
 4351SOL     OW13951   1.000   6.602   1.101
 4351SOL    HW113952   1.008   6.693   1.142
 4351SOL    HW213953   1.084   6.551   1.119
 4352SOL     OW13954   4.718   4.248   1.023
 4352SOL    HW113955   4.802   4.237   0.969
 4352SOL    HW213956   4.714   4.178   1.094
 4353SOL     OW13957   3.284   3.531   6.795
 4353SOL    HW113958   3.354   3.551   6.728
 4353SOL    HW213959   3.326   3.499   6.880
 4354SOL     OW13960   6.998   0.346   3.874
 4354SOL    HW113961   6.976   0.423   3.813
 4354SOL    HW213962   6.956   0.362   3.964
 4355SOL     OW13963   1.488   0.330   3.922
 4355SOL    HW113964   1.467   0.358   4.016
 4355SOL    HW213965   1.420   0.368   3.860
 4356SOL     OW13966   5.039   2.656   5.803
 4356SOL    HW113967   4.987   2.703   5.874
 4356SOL    HW213968   5.053   2.718   5.726
 4357SOL     OW13969   6.267   1.382   2.064
 4357SOL    HW113970   6.361   1.407   2.040
 4357SOL    HW213971   6.269   1.314   2.137
 4358SOL     OW13972   0.654   1.089   0.029
 4358SOL    HW113973   0.605   1.163   0.076
 4358SOL    HW213974   0.637   1.003   0.077
 4359SOL     OW13975   2.541   0.616   6.825
 4359SOL    HW113976   2.457   0.630   6.772
 4359SOL    HW213977   2.554   0.694   6.887
 4360SOL     OW13978   1.327   2.860   3.327
 4360SOL    HW113979   1.266   2.887   3.402
 4360SOL    HW213980   1.272   2.822   3.251
 4361SOL     OW13981   1.038   1.939   1.290
 4361SOL    HW113982   1.034   2.038   1.282
 4361SOL    HW213983   0.958   1.899   1.246
 4362SOL     OW13984   0.758   6.520   4.277
 4362SOL    HW113985   0.822   6.446   4.256
 4362SOL    HW213986   0.804   6.608   4.266
 4363SOL     OW13987   4.464   0.949   3.047
 4363SOL    HW113988   4.378   0.935   3.098
 4363SOL    HW213989   4.468   0.885   2.971
 4364SOL     OW13990   2.947   3.887   2.544
 4364SOL    HW113991   2.937   3.886   2.444
 4364SOL    HW213992   3.032   3.934   2.568
 4365SOL     OW13993   3.259   2.181   1.809
 4365SOL    HW113994   3.235   2.271   1.771
 4365SOL    HW213995   3.268   2.188   1.908
 4366SOL     OW13996   5.048   5.466   4.999
 4366SOL    HW113997   5.077   5.561   4.990
 4366SOL    HW213998   5.063   5.436   5.093
 4367SOL     OW13999   2.964   5.306   3.669
 4367SOL    HW114000   2.978   5.346   3.579
 4367SOL    HW214001   2.893   5.357   3.718
 4368SOL     OW14002   5.190   5.905   2.691
 4368SOL    HW114003   5.249   5.965   2.637
 4368SOL    HW214004   5.192   5.813   2.651
 4369SOL     OW14005   5.275   5.283   2.668
 4369SOL    HW114006   5.185   5.291   2.625
 4369SOL    HW214007   5.273   5.327   2.758
 4370SOL     OW14008   3.628   4.419   1.521
 4370SOL    HW114009   3.725   4.415   1.496
 4370SOL    HW214010   3.613   4.493   1.586
 4371SOL     OW14011   2.452   0.844   1.844
 4371SOL    HW114012   2.549   0.848   1.821
 4371SOL    HW214013   2.400   0.810   1.765
 4372SOL     OW14014   1.828   2.293   4.795
 4372SOL    HW114015   1.732   2.266   4.787
 4372SOL    HW214016   1.856   2.286   4.891
 4373SOL     OW14017   4.511   1.302   6.084
 4373SOL    HW114018   4.465   1.355   6.155
 4373SOL    HW214019   4.554   1.222   6.124
 4374SOL     OW14020   2.776   1.994   1.562
 4374SOL    HW114021   2.869   2.029   1.576
 4374SOL    HW214022   2.735   1.971   1.650
 4375SOL     OW14023   3.459   0.230   3.443
 4375SOL    HW114024   3.497   0.256   3.355
 4375SOL    HW214025   3.451   0.131   3.449
 4376SOL     OW14026   6.264   6.351   1.426
 4376SOL    HW114027   6.182   6.362   1.483
 4376SOL    HW214028   6.333   6.419   1.453
 4377SOL     OW14029   5.561   6.338   0.267
 4377SOL    HW114030   5.517   6.415   0.315
 4377SOL    HW214031   5.632   6.373   0.207
 4378SOL     OW14032   1.602   5.908   2.184
 4378SOL    HW114033   1.560   5.966   2.254
 4378SOL    HW214034   1.667   5.963   2.131
 4379SOL     OW14035   1.561   0.644   1.849
 4379SOL    HW114036   1.495   0.619   1.778
 4379SOL    HW214037   1.547   0.740   1.875
 4380SOL     OW14038   2.082   5.957   5.442
 4380SOL    HW114039   2.148   5.882   5.450
 4380SOL    HW214040   2.097   6.005   5.355
 4381SOL     OW14041   4.060   6.042   4.199
 4381SOL    HW114042   4.071   6.006   4.291
 4381SOL    HW214043   3.965   6.033   4.170
 4382SOL     OW14044   5.032   4.126   4.680
 4382SOL    HW114045   4.988   4.150   4.766
 4382SOL    HW214046   5.069   4.208   4.637
 4383SOL     OW14047   1.407   1.967   6.224
 4383SOL    HW114048   1.469   2.018   6.164
 4383SOL    HW214049   1.317   1.960   6.181
 4384SOL     OW14050   3.689   6.529   1.375
 4384SOL    HW114051   3.763   6.591   1.400
 4384SOL    HW214052   3.663   6.474   1.455
 4385SOL     OW14053   0.284   1.988   3.707
 4385SOL    HW114054   0.199   2.020   3.665
 4385SOL    HW214055   0.357   1.988   3.639
 4386SOL     OW14056   0.621   4.083   6.655
 4386SOL    HW114057   0.645   4.084   6.558
 4386SOL    HW214058   0.637   3.992   6.693
 4387SOL     OW14059   6.364   3.138   1.363
 4387SOL    HW114060   6.337   3.234   1.365
 4387SOL    HW214061   6.365   3.105   1.269
 4388SOL     OW14062   3.815   0.389   6.172
 4388SOL    HW114063   3.770   0.346   6.250
 4388SOL    HW214064   3.767   0.364   6.088
 4389SOL     OW14065   5.694   2.961   1.551
 4389SOL    HW114066   5.633   2.897   1.597
 4389SOL    HW214067   5.780   2.916   1.529
 4390SOL     OW14068   4.966   2.064   1.403
 4390SOL    HW114069   4.959   2.103   1.495
 4390SOL    HW214070   4.957   2.137   1.336
 4391SOL     OW14071   0.958   5.957   0.163
 4391SOL    HW114072   0.919   6.040   0.123
 4391SOL    HW214073   1.047   5.939   0.122
 4392SOL     OW14074   4.824   3.044   4.580
 4392SOL    HW114075   4.810   2.966   4.641
 4392SOL    HW214076   4.810   3.129   4.631
 4393SOL     OW14077   5.396   0.228   3.341
 4393SOL    HW114078   5.378   0.252   3.246
 4393SOL    HW214079   5.341   0.148   3.367
 4394SOL     OW14080   6.128   6.220   2.777
 4394SOL    HW114081   6.148   6.289   2.708
 4394SOL    HW214082   6.124   6.130   2.734
 4395SOL     OW14083   4.348   1.620   1.995
 4395SOL    HW114084   4.446   1.602   1.994
 4395SOL    HW214085   4.299   1.538   1.965
 4396SOL     OW14086   1.408   1.526   4.572
 4396SOL    HW114087   1.439   1.621   4.564
 4396SOL    HW214088   1.481   1.471   4.614
 4397SOL     OW14089   0.172   1.540   4.371
 4397SOL    HW114090   0.272   1.542   4.372
 4397SOL    HW214091   0.140   1.520   4.279
 4398SOL     OW14092   0.994   3.812   4.353
 4398SOL    HW114093   0.945   3.885   4.305
 4398SOL    HW214094   1.061   3.853   4.416
 4399SOL     OW14095   2.413   0.529   0.550
 4399SOL    HW114096   2.466   0.603   0.593
 4399SOL    HW214097   2.472   0.476   0.490
 4400SOL     OW14098   2.314   6.421   4.171
 4400SOL    HW114099   2.252   6.492   4.204
 4400SOL    HW214100   2.371   6.459   4.098
 4401SOL     OW14101   5.201   5.976   5.082
 4401SOL    HW114102   5.241   6.020   5.002
 4401SOL    HW214103   5.265   5.908   5.118
 4402SOL     OW14104   0.851   5.891   2.773
 4402SOL    HW114105   0.765   5.927   2.738
 4402SOL    HW214106   0.867   5.800   2.734
 4403SOL     OW14107   6.824   0.207   3.372
 4403SOL    HW114108   6.893   0.140   3.399
 4403SOL    HW214109   6.869   0.290   3.339
 4404SOL     OW14110   1.029   4.426   3.717
 4404SOL    HW114111   1.070   4.374   3.792
 4404SOL    HW214112   0.958   4.372   3.673
 4405SOL     OW14113   3.256   4.598   6.045
 4405SOL    HW114114   3.307   4.513   6.060
 4405SOL    HW214115   3.184   4.581   5.978
 4406SOL     OW14116   4.974   4.738   1.571
 4406SOL    HW114117   4.896   4.785   1.531
 4406SOL    HW214118   4.955   4.640   1.577
 4407SOL     OW14119   6.778   6.285   0.537
 4407SOL    HW114120   6.707   6.313   0.472
 4407SOL    HW214121   6.865   6.326   0.511
 4408SOL     OW14122   4.427   0.425   0.398
 4408SOL    HW114123   4.496   0.426   0.471
 4408SOL    HW214124   4.452   0.358   0.329
 4409SOL     OW14125   4.344   1.830   1.829
 4409SOL    HW114126   4.315   1.809   1.736
 4409SOL    HW214127   4.342   1.746   1.885
 4410SOL     OW14128   2.396   4.614   0.293
 4410SOL    HW114129   2.416   4.600   0.389
 4410SOL    HW214130   2.420   4.532   0.241
 4411SOL     OW14131   3.634   3.400   2.866
 4411SOL    HW114132   3.560   3.382   2.930
 4411SOL    HW214133   3.636   3.497   2.843
 4412SOL     OW14134   3.942   1.487   5.734
 4412SOL    HW114135   3.906   1.395   5.750
 4412SOL    HW214136   3.978   1.492   5.641
 4413SOL     OW14137   3.859   5.771   3.934
 4413SOL    HW114138   3.849   5.703   4.006
 4413SOL    HW214139   3.901   5.729   3.854
 4414SOL     OW14140   4.282   4.810   2.223
 4414SOL    HW114141   4.319   4.901   2.240
 4414SOL    HW214142   4.182   4.814   2.215
 4415SOL     OW14143   5.558   3.835   5.927
 4415SOL    HW114144   5.584   3.796   6.015
 4415SOL    HW214145   5.640   3.861   5.876
 4416SOL     OW14146   3.099   1.475   4.779
 4416SOL    HW114147   3.023   1.439   4.835
 4416SOL    HW214148   3.108   1.573   4.795
 4417SOL     OW14149   6.857   4.889   2.002
 4417SOL    HW114150   6.847   4.985   2.027
 4417SOL    HW214151   6.900   4.881   1.912
 4418SOL     OW14152   4.594   6.297   4.012
 4418SOL    HW114153   4.551   6.215   4.049
 4418SOL    HW214154   4.526   6.370   4.004
 4419SOL     OW14155   6.110   5.227   0.641
 4419SOL    HW114156   6.118   5.297   0.713
 4419SOL    HW214157   6.042   5.256   0.574
 4420SOL     OW14158   4.688   0.874   0.789
 4420SOL    HW114159   4.647   0.918   0.709
 4420SOL    HW214160   4.777   0.917   0.807
 4421SOL     OW14161   2.250   1.283   2.637
 4421SOL    HW114162   2.209   1.192   2.626
 4421SOL    HW214163   2.239   1.335   2.552
 4422SOL     OW14164   3.281   3.462   5.861
 4422SOL    HW114165   3.306   3.534   5.796
 4422SOL    HW214166   3.196   3.487   5.907
 4423SOL     OW14167   1.140   1.869   6.118
 4423SOL    HW114168   1.214   1.802   6.115
 4423SOL    HW214169   1.090   1.867   6.032
 4424SOL     OW14170   5.377   6.216   3.261
 4424SOL    HW114171   5.317   6.288   3.296
 4424SOL    HW214172   5.463   6.215   3.313
 4425SOL     OW14173   3.673   5.221   5.678
 4425SOL    HW114174   3.676   5.313   5.638
 4425SOL    HW214175   3.635   5.157   5.611
 4426SOL     OW14176   6.827   1.089   5.301
 4426SOL    HW114177   6.916   1.049   5.277
 4426SOL    HW214178   6.786   1.130   5.219
 4427SOL     OW14179   0.500   0.588   3.328
 4427SOL    HW114180   0.444   0.570   3.247
 4427SOL    HW214181   0.593   0.611   3.300
 4428SOL     OW14182   2.753   4.677   4.230
 4428SOL    HW114183   2.838   4.625   4.233
 4428SOL    HW214184   2.687   4.636   4.293
 4429SOL     OW14185   3.085   6.894   3.473
 4429SOL    HW114186   3.000   6.860   3.513
 4429SOL    HW214187   3.064   6.953   3.395
 4430SOL     OW14188   4.266   2.250   2.911
 4430SOL    HW114189   4.284   2.316   2.984
 4430SOL    HW214190   4.305   2.284   2.825
 4431SOL     OW14191   3.228   1.818   3.052
 4431SOL    HW114192   3.309   1.857   3.007
 4431SOL    HW214193   3.231   1.718   3.044
 4432SOL     OW14194   3.346   2.905   2.997
 4432SOL    HW114195   3.437   2.942   2.977
 4432SOL    HW214196   3.283   2.980   3.017
 4433SOL     OW14197   5.903   0.087   3.087
 4433SOL    HW114198   5.866   0.003   3.126
 4433SOL    HW214199   5.996   0.103   3.123
 4434SOL     OW14200   5.207   1.593   4.050
 4434SOL    HW114201   5.231   1.644   3.967
 4434SOL    HW214202   5.215   1.654   4.129
 4435SOL     OW14203   3.692   3.096   1.645
 4435SOL    HW114204   3.645   3.068   1.561
 4435SOL    HW214205   3.739   3.017   1.685
 4436SOL     OW14206   3.071   2.143   0.598
 4436SOL    HW114207   3.142   2.074   0.612
 4436SOL    HW214208   2.988   2.099   0.566
 4437SOL     OW14209   4.072   0.427   4.537
 4437SOL    HW114210   4.108   0.341   4.501
 4437SOL    HW214211   4.085   0.499   4.469
 4438SOL     OW14212   4.150   2.056   0.347
 4438SOL    HW114213   4.176   2.124   0.415
 4438SOL    HW214214   4.131   2.101   0.260
 4439SOL     OW14215   0.679   5.120   1.415
 4439SOL    HW114216   0.744   5.196   1.418
 4439SOL    HW214217   0.587   5.155   1.437
 4440SOL     OW14218   2.219   5.484   0.195
 4440SOL    HW114219   2.221   5.395   0.242
 4440SOL    HW214220   2.125   5.506   0.171
 4441SOL     OW14221   6.408   2.563   2.269
 4441SOL    HW114222   6.448   2.537   2.181
 4441SOL    HW214223   6.314   2.529   2.275
 4442SOL     OW14224   3.755   6.306   3.314
 4442SOL    HW114225   3.829   6.268   3.259
 4442SOL    HW214226   3.768   6.281   3.410
 4443SOL     OW14227   2.085   1.924   6.642
 4443SOL    HW114228   2.168   1.980   6.642
 4443SOL    HW214229   2.007   1.978   6.612
 4444SOL     OW14230   4.968   6.404   0.721
 4444SOL    HW114231   4.885   6.434   0.768
 4444SOL    HW214232   4.956   6.414   0.622
 4445SOL     OW14233   1.392   0.750   6.533
 4445SOL    HW114234   1.335   0.807   6.474
 4445SOL    HW214235   1.473   0.803   6.561
 4446SOL     OW14236   5.555   0.947   1.655
 4446SOL    HW114237   5.599   0.998   1.729
 4446SOL    HW214238   5.624   0.906   1.596
 4447SOL     OW14239   5.442   3.363   5.473
 4447SOL    HW114240   5.371   3.408   5.417
 4447SOL    HW214241   5.399   3.316   5.549
 4448SOL     OW14242   2.773   3.548   0.371
 4448SOL    HW114243   2.801   3.606   0.294
 4448SOL    HW214244   2.844   3.550   0.441
 4449SOL     OW14245   3.042   0.547   5.699
 4449SOL    HW114246   2.973   0.476   5.686
 4449SOL    HW214247   3.128   0.506   5.728
 4450SOL     OW14248   2.943   3.320   2.828
 4450SOL    HW114249   2.905   3.375   2.753
 4450SOL    HW214250   3.036   3.351   2.848
 4451SOL     OW14251   6.326   4.385   2.335
 4451SOL    HW114252   6.272   4.468   2.348
 4451SOL    HW214253   6.325   4.331   2.419
 4452SOL     OW14254   5.927   6.960   5.215
 4452SOL    HW114255   5.936   6.873   5.263
 4452SOL    HW214256   6.013   7.011   5.221
 4453SOL     OW14257   6.229   2.926   1.569
 4453SOL    HW114258   6.288   2.887   1.498
 4453SOL    HW214259   6.247   2.879   1.656
 4454SOL     OW14260   5.444   2.654   1.106
 4454SOL    HW114261   5.407   2.685   1.019
 4454SOL    HW214262   5.426   2.556   1.117
 4455SOL     OW14263   3.474   6.163   1.933
 4455SOL    HW114264   3.527   6.081   1.911
 4455SOL    HW214265   3.526   6.244   1.908
 4456SOL     OW14266   2.171   5.417   2.072
 4456SOL    HW114267   2.159   5.332   2.124
 4456SOL    HW214268   2.125   5.409   1.984
 4457SOL     OW14269   4.409   2.337   6.582
 4457SOL    HW114270   4.324   2.341   6.634
 4457SOL    HW214271   4.394   2.373   6.490
 4458SOL     OW14272   2.479   3.386   6.354
 4458SOL    HW114273   2.526   3.299   6.366
 4458SOL    HW214274   2.501   3.447   6.430
 4459SOL     OW14275   5.114   0.375   3.908
 4459SOL    HW114276   5.099   0.389   3.810
 4459SOL    HW214277   5.154   0.284   3.923
 4460SOL     OW14278   2.277   3.157   6.729
 4460SOL    HW114279   2.278   3.219   6.807
 4460SOL    HW214280   2.222   3.077   6.752
 4461SOL     OW14281   0.913   6.682   2.387
 4461SOL    HW114282   0.934   6.688   2.484
 4461SOL    HW214283   0.847   6.752   2.362
 4462SOL     OW14284   6.056   4.834   0.954
 4462SOL    HW114285   6.041   4.835   1.053
 4462SOL    HW214286   6.137   4.889   0.932
 4463SOL     OW14287   1.758   2.669   6.589
 4463SOL    HW114288   1.852   2.658   6.557
 4463SOL    HW214289   1.735   2.767   6.593
 4464SOL     OW14290   6.057   4.937   6.571
 4464SOL    HW114291   6.009   4.954   6.484
 4464SOL    HW214292   6.146   4.982   6.569
 4465SOL     OW14293   2.115   6.629   2.333
 4465SOL    HW114294   2.060   6.560   2.286
 4465SOL    HW214295   2.059   6.675   2.402
 4466SOL     OW14296   0.917   1.139   2.541
 4466SOL    HW114297   0.912   1.063   2.606
 4466SOL    HW214298   0.854   1.212   2.570
 4467SOL     OW14299   1.507   6.842   3.400
 4467SOL    HW114300   1.473   6.762   3.450
 4467SOL    HW214301   1.558   6.901   3.463
 4468SOL     OW14302   1.010   2.228   6.936
 4468SOL    HW114303   1.072   2.182   6.871
 4468SOL    HW214304   0.974   2.160   7.000
 4469SOL     OW14305   3.161   0.404   1.960
 4469SOL    HW114306   3.121   0.398   1.869
 4469SOL    HW214307   3.227   0.478   1.963
 4470SOL     OW14308   5.008   3.834   1.727
 4470SOL    HW114309   4.971   3.838   1.820
 4470SOL    HW214310   5.056   3.920   1.706
 4471SOL     OW14311   0.407   3.027   0.684
 4471SOL    HW114312   0.308   3.013   0.675
 4471SOL    HW214313   0.451   2.939   0.702
 4472SOL     OW14314   1.924   4.195   2.326
 4472SOL    HW114315   1.973   4.239   2.251
 4472SOL    HW214316   1.900   4.263   2.395
 4473SOL     OW14317   0.236   0.641   4.763
 4473SOL    HW114318   0.250   0.640   4.862
 4473SOL    HW214319   0.176   0.565   4.737
 4474SOL     OW14320   3.284   0.022   2.249
 4474SOL    HW114321   3.245   6.961   2.288
 4474SOL    HW214322   3.211   0.091   2.237
 4475SOL     OW14323   0.995   3.981   1.258
 4475SOL    HW114324   1.075   3.951   1.207
 4475SOL    HW214325   0.914   3.979   1.198
 4476SOL     OW14326   5.189   6.312   2.828
 4476SOL    HW114327   5.216   6.408   2.822
 4476SOL    HW214328   5.254   6.262   2.885
 4477SOL     OW14329   2.052   0.248   6.848
 4477SOL    HW114330   2.086   0.298   6.769
 4477SOL    HW214331   2.128   0.231   6.912
 4478SOL     OW14332   2.497   6.597   2.114
 4478SOL    HW114333   2.547   6.553   2.040
 4478SOL    HW214334   2.458   6.528   2.175
 4479SOL     OW14335   1.261   0.454   6.210
 4479SOL    HW114336   1.352   0.493   6.191
 4479SOL    HW214337   1.241   0.463   6.308
 4480SOL     OW14338   1.595   3.687   4.464
 4480SOL    HW114339   1.523   3.621   4.486
 4480SOL    HW214340   1.685   3.647   4.482
 4481SOL     OW14341   1.695   6.314   4.479
 4481SOL    HW114342   1.749   6.235   4.450
 4481SOL    HW214343   1.755   6.393   4.491
 4482SOL     OW14344   0.854   4.088   4.301
 4482SOL    HW114345   0.781   4.021   4.289
 4482SOL    HW214346   0.855   4.118   4.397
 4483SOL     OW14347   6.707   3.162   1.384
 4483SOL    HW114348   6.684   3.076   1.339
 4483SOL    HW214349   6.640   3.232   1.357
 4484SOL     OW14350   3.967   2.803   5.328
 4484SOL    HW114351   3.874   2.823   5.297
 4484SOL    HW214352   3.984   2.705   5.319
 4485SOL     OW14353   5.028   2.554   6.446
 4485SOL    HW114354   5.114   2.583   6.490
 4485SOL    HW214355   5.035   2.570   6.347
 4486SOL     OW14356   0.066   4.165   5.042
 4486SOL    HW114357   0.128   4.100   5.086
 4486SOL    HW214358   0.114   4.251   5.026
 4487SOL     OW14359   2.680   3.838   6.689
 4487SOL    HW114360   2.663   3.870   6.596
 4487SOL    HW214361   2.778   3.844   6.709
 4488SOL     OW14362   5.661   2.371   5.908
 4488SOL    HW114363   5.612   2.291   5.873
 4488SOL    HW214364   5.759   2.362   5.888
 4489SOL     OW14365   5.570   5.789   4.800
 4489SOL    HW114366   5.587   5.867   4.740
 4489SOL    HW214367   5.472   5.780   4.817
 4490SOL     OW14368   6.176   1.322   1.349
 4490SOL    HW114369   6.140   1.413   1.366
 4490SOL    HW214370   6.261   1.309   1.398
 4491SOL     OW14371   1.359   3.574   2.486
 4491SOL    HW114372   1.453   3.571   2.518
 4491SOL    HW214373   1.314   3.656   2.521
 4492SOL     OW14374   5.378   2.463   0.195
 4492SOL    HW114375   5.299   2.442   0.252
 4492SOL    HW214376   5.430   2.379   0.179
 4493SOL     OW14377   4.323   5.139   4.721
 4493SOL    HW114378   4.246   5.109   4.665
 4493SOL    HW214379   4.399   5.167   4.663
 4494SOL     OW14380   6.939   3.149   5.983
 4494SOL    HW114381   6.997   3.069   5.994
 4494SOL    HW214382   6.878   3.157   6.062
 4495SOL     OW14383   5.406   6.812   2.614
 4495SOL    HW114384   5.339   6.750   2.573
 4495SOL    HW214385   5.384   6.824   2.711
 4496SOL     OW14386   5.070   5.017   6.865
 4496SOL    HW114387   5.089   5.057   6.775
 4496SOL    HW214388   5.067   4.917   6.857
 4497SOL     OW14389   5.335   5.993   6.722
 4497SOL    HW114390   5.327   5.948   6.632
 4497SOL    HW214391   5.244   6.020   6.753
 4498SOL     OW14392   6.991   3.989   6.958
 4498SOL    HW114393   7.005   4.079   6.917
 4498SOL    HW214394   0.034   3.924   6.918
 4499SOL     OW14395   6.596   2.750   4.496
 4499SOL    HW114396   6.519   2.747   4.560
 4499SOL    HW214397   6.619   2.658   4.467
 4500SOL     OW14398   3.046   3.857   3.953
 4500SOL    HW114399   3.140   3.832   3.977
 4500SOL    HW214400   3.047   3.921   3.876
 4501SOL     OW14401   1.043   3.632   5.343
 4501SOL    HW114402   0.962   3.675   5.383
 4501SOL    HW214403   1.047   3.536   5.372
 4502SOL     OW14404   1.986   2.413   6.067
 4502SOL    HW114405   2.044   2.474   6.120
 4502SOL    HW214406   2.041   2.339   6.028
 4503SOL     OW14407   2.446   1.273   3.641
 4503SOL    HW114408   2.426   1.194   3.584
 4503SOL    HW214409   2.536   1.263   3.683
 4504SOL     OW14410   6.352   2.581   5.833
 4504SOL    HW114411   6.254   2.575   5.850
 4504SOL    HW214412   6.401   2.572   5.920
 4505SOL     OW14413   0.721   6.141   4.754
 4505SOL    HW114414   0.728   6.048   4.715
 4505SOL    HW214415   0.795   6.197   4.716
 4506SOL     OW14416   3.677   1.381   4.886
 4506SOL    HW114417   3.645   1.385   4.980
 4506SOL    HW214418   3.768   1.423   4.879
 4507SOL     OW14419   5.027   5.207   1.519
 4507SOL    HW114420   5.047   5.265   1.440
 4507SOL    HW214421   4.930   5.182   1.519
 4508SOL     OW14422   1.331   4.118   0.218
 4508SOL    HW114423   1.392   4.102   0.296
 4508SOL    HW214424   1.328   4.036   0.161
 4509SOL     OW14425   4.207   1.768   4.479
 4509SOL    HW114426   4.260   1.767   4.564
 4509SOL    HW214427   4.110   1.784   4.501
 4510SOL     OW14428   5.715   0.910   5.005
 4510SOL    HW114429   5.791   0.912   5.071
 4510SOL    HW214430   5.662   0.826   5.017
 4511SOL     OW14431   0.482   3.642   0.186
 4511SOL    HW114432   0.396   3.616   0.231
 4511SOL    HW214433   0.485   3.602   0.095
 4512SOL     OW14434   2.785   6.695   6.678
 4512SOL    HW114435   2.842   6.716   6.598
 4512SOL    HW214436   2.716   6.766   6.690
 4513SOL     OW14437   4.580   6.454   1.465
 4513SOL    HW114438   4.484   6.478   1.473
 4513SOL    HW214439   4.591   6.356   1.481
 4514SOL     OW14440   3.953   1.247   5.133
 4514SOL    HW114441   3.859   1.255   5.164
 4514SOL    HW214442   3.958   1.181   5.058
 4515SOL     OW14443   6.729   4.650   6.882
 4515SOL    HW114444   6.651   4.710   6.867
 4515SOL    HW214445   6.724   4.571   6.820
 4516SOL     OW14446   1.157   0.996   5.437
 4516SOL    HW114447   1.214   0.974   5.516
 4516SOL    HW214448   1.154   0.917   5.375
 4517SOL     OW14449   2.952   6.809   6.493
 4517SOL    HW114450   3.001   6.818   6.579
 4517SOL    HW214451   3.015   6.829   6.417
 4518SOL     OW14452   0.922   2.238   4.028
 4518SOL    HW114453   0.997   2.256   3.964
 4518SOL    HW214454   0.959   2.212   4.117
 4519SOL     OW14455   0.442   1.978   3.436
 4519SOL    HW114456   0.366   1.914   3.429
 4519SOL    HW214457   0.513   1.953   3.370
 4520SOL     OW14458   5.957   4.827   2.738
 4520SOL    HW114459   6.056   4.828   2.755
 4520SOL    HW214460   5.912   4.772   2.808
 4521SOL     OW14461   4.792   2.079   6.096
 4521SOL    HW114462   4.832   2.133   6.170
 4521SOL    HW214463   4.692   2.082   6.102
 4522SOL     OW14464   5.514   6.593   3.973
 4522SOL    HW114465   5.522   6.497   4.001
 4522SOL    HW214466   5.605   6.629   3.952
 4523SOL     OW14467   2.929   4.685   6.874
 4523SOL    HW114468   3.000   4.752   6.896
 4523SOL    HW214469   2.972   4.598   6.848
 4524SOL     OW14470   5.331   1.695   5.670
 4524SOL    HW114471   5.373   1.771   5.719
 4524SOL    HW214472   5.356   1.609   5.714
 4525SOL     OW14473   6.526   1.793   4.212
 4525SOL    HW114474   6.615   1.770   4.171
 4525SOL    HW214475   6.532   1.883   4.254
 4526SOL     OW14476   5.244   0.036   1.382
 4526SOL    HW114477   5.342   0.032   1.364
 4526SOL    HW214478   5.201   0.104   1.323
 4527SOL     OW14479   4.300   0.370   3.476
 4527SOL    HW114480   4.359   0.429   3.531
 4527SOL    HW214481   4.357   0.308   3.421
 4528SOL     OW14482   4.770   6.738   6.806
 4528SOL    HW114483   4.692   6.743   6.868
 4528SOL    HW214484   4.834   6.812   6.826
 4529SOL     OW14485   2.908   1.246   3.428
 4529SOL    HW114486   2.880   1.151   3.436
 4529SOL    HW214487   3.007   1.251   3.411
 4530SOL     OW14488   0.419   3.346   5.604
 4530SOL    HW114489   0.410   3.309   5.511
 4530SOL    HW214490   0.344   3.312   5.660
 4531SOL     OW14491   1.455   3.731   2.770
 4531SOL    HW114492   1.480   3.811   2.715
 4531SOL    HW214493   1.470   3.648   2.717
 4532SOL     OW14494   6.759   1.145   1.262
 4532SOL    HW114495   6.844   1.170   1.308
 4532SOL    HW214496   6.770   1.154   1.163
 4533SOL     OW14497   1.764   0.331   3.864
 4533SOL    HW114498   1.671   0.294   3.871
 4533SOL    HW214499   1.779   0.364   3.771
 4534SOL     OW14500   6.455   3.733   4.935
 4534SOL    HW114501   6.541   3.682   4.939
 4534SOL    HW214502   6.379   3.672   4.955
 4535SOL     OW14503   4.684   2.475   2.100
 4535SOL    HW114504   4.714   2.406   2.033
 4535SOL    HW214505   4.752   2.548   2.106
 4536SOL     OW14506   4.675   1.158   4.422
 4536SOL    HW114507   4.578   1.137   4.423
 4536SOL    HW214508   4.727   1.076   4.445
 4537SOL     OW14509   3.719   3.241   6.593
 4537SOL    HW114510   3.674   3.285   6.670
 4537SOL    HW214511   3.756   3.153   6.621
 4538SOL     OW14512   3.403   1.718   3.801
 4538SOL    HW114513   3.488   1.744   3.847
 4538SOL    HW214514   3.327   1.726   3.866
 4539SOL     OW14515   2.865   2.188   3.711
 4539SOL    HW114516   2.878   2.091   3.734
 4539SOL    HW214517   2.947   2.222   3.664
 4540SOL     OW14518   3.325   3.781   3.951
 4540SOL    HW114519   3.347   3.782   3.854
 4540SOL    HW214520   3.317   3.686   3.983
 4541SOL     OW14521   5.229   0.740   0.158
 4541SOL    HW114522   5.315   0.698   0.187
 4541SOL    HW214523   5.229   0.750   0.059
 4542SOL     OW14524   6.019   5.979   1.610
 4542SOL    HW114525   5.978   6.062   1.573
 4542SOL    HW214526   6.106   5.962   1.563
 4543SOL     OW14527   4.777   1.854   0.234
 4543SOL    HW114528   4.830   1.837   0.317
 4543SOL    HW214529   4.701   1.916   0.255
 4544SOL     OW14530   2.463   6.178   0.016
 4544SOL    HW114531   2.501   6.187   6.946
 4544SOL    HW214532   2.389   6.244   0.028
 4545SOL     OW14533   4.208   2.247   5.358
 4545SOL    HW114534   4.158   2.160   5.356
 4545SOL    HW214535   4.287   2.238   5.419
 4546SOL     OW14536   0.618   0.166   6.057
 4546SOL    HW114537   0.705   0.210   6.078
 4546SOL    HW214538   0.547   0.201   6.119
 4547SOL     OW14539   5.455   2.770   1.944
 4547SOL    HW114540   5.553   2.790   1.943
 4547SOL    HW214541   5.441   2.672   1.957
 4548SOL     OW14542   0.653   4.977   4.534
 4548SOL    HW114543   0.751   4.964   4.544
 4548SOL    HW214544   0.629   5.071   4.560
 4549SOL     OW14545   6.792   3.374   3.824
 4549SOL    HW114546   6.723   3.341   3.760
 4549SOL    HW214547   6.830   3.460   3.791
 4550SOL     OW14548   0.781   6.374   3.809
 4550SOL    HW114549   0.879   6.359   3.798
 4550SOL    HW214550   0.765   6.469   3.837
 4551SOL     OW14551   0.272   2.346   5.274
 4551SOL    HW114552   0.289   2.251   5.249
 4551SOL    HW214553   0.261   2.402   5.191
 4552SOL     OW14554   0.627   3.136   5.671
 4552SOL    HW114555   0.584   3.224   5.693
 4552SOL    HW214556   0.679   3.105   5.750
 4553SOL     OW14557   4.283   4.766   0.004
 4553SOL    HW114558   4.292   4.859   0.040
 4553SOL    HW214559   4.370   4.717   0.016
 4554SOL     OW14560   3.900   0.607   2.210
 4554SOL    HW114561   3.835   0.637   2.141
 4554SOL    HW214562   3.925   0.511   2.193
 4555SOL     OW14563   4.342   2.131   6.890
 4555SOL    HW114564   4.299   2.208   6.843
 4555SOL    HW214565   4.413   2.165   6.951
 4556SOL     OW14566   3.883   0.850   3.561
 4556SOL    HW114567   3.906   0.943   3.533
 4556SOL    HW214568   3.919   0.785   3.494
 4557SOL     OW14569   5.002   0.454   4.831
 4557SOL    HW114570   5.085   0.510   4.825
 4557SOL    HW214571   5.022   0.370   4.882
 4558SOL     OW14572   6.161   3.658   6.279
 4558SOL    HW114573   6.164   3.749   6.322
 4558SOL    HW214574   6.181   3.666   6.182
 4559SOL     OW14575   1.665   6.582   0.973
 4559SOL    HW114576   1.700   6.523   1.046
 4559SOL    HW214577   1.578   6.546   0.940
 4560SOL     OW14578   4.873   3.688   3.254
 4560SOL    HW114579   4.966   3.724   3.266
 4560SOL    HW214580   4.851   3.627   3.330
 4561SOL     OW14581   2.945   1.208   0.563
 4561SOL    HW114582   2.982   1.149   0.635
 4561SOL    HW214583   2.973   1.302   0.580
 4562SOL     OW14584   3.124   5.678   5.507
 4562SOL    HW114585   3.070   5.725   5.437
 4562SOL    HW214586   3.102   5.716   5.597
 4563SOL     OW14587   5.829   2.800   0.547
 4563SOL    HW114588   5.807   2.830   0.454
 4563SOL    HW214589   5.804   2.704   0.558
 4564SOL     OW14590   0.593   5.590   0.548
 4564SOL    HW114591   0.673   5.569   0.491
 4564SOL    HW214592   0.540   5.663   0.506
 4565SOL     OW14593   0.293   1.577   5.443
 4565SOL    HW114594   0.363   1.596   5.374
 4565SOL    HW214595   0.222   1.520   5.402
 4566SOL     OW14596   6.883   0.473   7.010
 4566SOL    HW114597   6.852   0.433   0.074
 4566SOL    HW214598   6.873   0.407   6.936
 4567SOL     OW14599   0.527   0.194   1.069
 4567SOL    HW114600   0.557   0.205   0.974
 4567SOL    HW214601   0.429   0.209   1.075
 4568SOL     OW14602   2.377   4.621   5.439
 4568SOL    HW114603   2.428   4.535   5.447
 4568SOL    HW214604   2.305   4.611   5.371
 4569SOL     OW14605   1.179   2.334   3.899
 4569SOL    HW114606   1.128   2.420   3.895
 4569SOL    HW214607   1.277   2.353   3.889
 4570SOL     OW14608   6.922   6.133   3.385
 4570SOL    HW114609   6.845   6.070   3.390
 4570SOL    HW214610   7.005   6.088   3.417
 4571SOL     OW14611   2.902   3.614   4.888
 4571SOL    HW114612   2.839   3.568   4.950
 4571SOL    HW214613   2.975   3.658   4.940
 4572SOL     OW14614   0.165   6.549   0.571
 4572SOL    HW114615   0.240   6.507   0.622
 4572SOL    HW214616   0.140   6.636   0.613
 4573SOL     OW14617   5.438   6.032   0.959
 4573SOL    HW114618   5.517   6.082   0.924
 4573SOL    HW214619   5.426   5.947   0.908
 4574SOL     OW14620   6.939   4.819   1.165
 4574SOL    HW114621   6.876   4.895   1.145
 4574SOL    HW214622   6.999   4.805   1.087
 4575SOL     OW14623   6.560   2.136   0.562
 4575SOL    HW114624   6.508   2.120   0.646
 4575SOL    HW214625   6.635   2.199   0.581
 4576SOL     OW14626   2.998   6.104   6.481
 4576SOL    HW114627   2.948   6.128   6.398
 4576SOL    HW214628   2.954   6.026   6.525
 4577SOL     OW14629   0.772   3.675   3.007
 4577SOL    HW114630   0.742   3.768   2.984
 4577SOL    HW214631   0.870   3.676   3.028
 4578SOL     OW14632   0.702   3.505   3.376
 4578SOL    HW114633   0.602   3.502   3.379
 4578SOL    HW214634   0.731   3.584   3.321
 4579SOL     OW14635   4.741   1.737   2.703
 4579SOL    HW114636   4.743   1.825   2.655
 4579SOL    HW214637   4.828   1.689   2.689
 4580SOL     OW14638   6.275   4.998   0.348
 4580SOL    HW114639   6.337   5.056   0.295
 4580SOL    HW214640   6.194   4.978   0.293
 4581SOL     OW14641   3.155   4.833   3.195
 4581SOL    HW114642   3.232   4.853   3.256
 4581SOL    HW214643   3.181   4.855   3.101
 4582SOL     OW14644   5.779   7.000   4.261
 4582SOL    HW114645   5.730   0.049   4.311
 4582SOL    HW214646   5.813   0.015   4.174
 4583SOL     OW14647   2.956   2.068   5.179
 4583SOL    HW114648   2.972   2.155   5.224
 4583SOL    HW214649   3.012   2.061   5.097
 4584SOL     OW14650   0.248   5.704   5.773
 4584SOL    HW114651   0.151   5.679   5.782
 4584SOL    HW214652   0.265   5.787   5.825
 4585SOL     OW14653   3.191   6.446   2.534
 4585SOL    HW114654   3.141   6.480   2.454
 4585SOL    HW214655   3.186   6.514   2.607
 4586SOL     OW14656   3.352   4.594   1.003
 4586SOL    HW114657   3.406   4.554   0.929
 4586SOL    HW214658   3.341   4.692   0.987
 4587SOL     OW14659   4.041   3.588   1.959
 4587SOL    HW114660   4.094   3.625   2.035
 4587SOL    HW214661   4.028   3.490   1.972
 4588SOL     OW14662   3.587   3.846   5.045
 4588SOL    HW114663   3.652   3.771   5.029
 4588SOL    HW214664   3.623   3.930   5.006
 4589SOL     OW14665   6.086   2.204   2.260
 4589SOL    HW114666   6.097   2.106   2.276
 4589SOL    HW214667   6.022   2.242   2.328
 4590SOL     OW14668   4.564   6.094   2.654
 4590SOL    HW114669   4.524   6.102   2.563
 4590SOL    HW214670   4.597   6.001   2.668
 4591SOL     OW14671   6.594   5.978   5.646
 4591SOL    HW114672   6.530   5.902   5.637
 4591SOL    HW214673   6.583   6.041   5.569
 4592SOL     OW14674   4.291   3.023   0.851
 4592SOL    HW114675   4.258   3.006   0.758
 4592SOL    HW214676   4.325   2.938   0.890
 4593SOL     OW14677   4.416   5.634   3.153
 4593SOL    HW114678   4.351   5.648   3.078
 4593SOL    HW214679   4.431   5.536   3.167
 4594SOL     OW14680   3.512   1.892   2.429
 4594SOL    HW114681   3.420   1.929   2.439
 4594SOL    HW214682   3.575   1.965   2.402
 4595SOL     OW14683   3.423   2.854   6.834
 4595SOL    HW114684   3.456   2.763   6.808
 4595SOL    HW214685   3.323   2.854   6.834
 4596SOL     OW14686   6.303   6.228   2.181
 4596SOL    HW114687   6.256   6.280   2.253
 4596SOL    HW214688   6.375   6.284   2.141
 4597SOL     OW14689   5.446   5.413   6.565
 4597SOL    HW114690   5.490   5.329   6.599
 4597SOL    HW214691   5.423   5.402   6.469
 4598SOL     OW14692   1.512   4.892   6.157
 4598SOL    HW114693   1.563   4.817   6.115
 4598SOL    HW214694   1.414   4.871   6.155
 4599SOL     OW14695   1.451   3.916   1.228
 4599SOL    HW114696   1.472   3.886   1.135
 4599SOL    HW214697   1.420   3.837   1.281
 4600SOL     OW14698   2.566   5.352   6.299
 4600SOL    HW114699   2.564   5.252   6.299
 4600SOL    HW214700   2.474   5.387   6.314
 4601SOL     OW14701   1.714   0.752   5.587
 4601SOL    HW114702   1.799   0.794   5.556
 4601SOL    HW214703   1.692   0.674   5.529
 4602SOL     OW14704   1.320   6.693   1.145
 4602SOL    HW114705   1.329   6.623   1.216
 4602SOL    HW214706   1.279   6.775   1.184
 4603SOL     OW14707   3.621   6.321   1.558
 4603SOL    HW114708   3.577   6.271   1.483
 4603SOL    HW214709   3.553   6.374   1.608
 4604SOL     OW14710   4.146   0.311   1.456
 4604SOL    HW114711   4.050   0.338   1.447
 4604SOL    HW214712   4.183   0.348   1.541
 4605SOL     OW14713   4.834   0.682   3.988
 4605SOL    HW114714   4.799   0.774   4.007
 4605SOL    HW214715   4.773   0.637   3.922
 4606SOL     OW14716   0.217   6.635   3.542
 4606SOL    HW114717   0.221   6.662   3.638
 4606SOL    HW214718   0.122   6.614   3.517
 4607SOL     OW14719   2.680   2.396   1.106
 4607SOL    HW114720   2.582   2.417   1.116
 4607SOL    HW214721   2.700   2.309   1.150
 4608SOL     OW14722   1.492   4.796   5.173
 4608SOL    HW114723   1.471   4.892   5.153
 4608SOL    HW214724   1.523   4.788   5.268
 4609SOL     OW14725   4.367   5.736   6.049
 4609SOL    HW114726   4.279   5.776   6.024
 4609SOL    HW214727   4.353   5.649   6.096
 4610SOL     OW14728   6.864   2.346   0.600
 4610SOL    HW114729   6.806   2.404   0.543
 4610SOL    HW214730   6.950   2.328   0.552
 4611SOL     OW14731   6.138   4.055   0.056
 4611SOL    HW114732   6.116   4.031   0.150
 4611SOL    HW214733   6.058   4.092   0.010
 4612SOL     OW14734   1.640   5.980   6.695
 4612SOL    HW114735   1.593   6.064   6.669
 4612SOL    HW214736   1.702   5.998   6.771
 4613SOL     OW14737   2.149   5.570   3.224
 4613SOL    HW114738   2.120   5.665   3.216
 4613SOL    HW214739   2.234   5.556   3.172
 4614SOL     OW14740   1.593   5.229   6.511
 4614SOL    HW114741   1.542   5.146   6.487
 4614SOL    HW214742   1.676   5.233   6.456
 4615SOL     OW14743   1.685   1.621   0.828
 4615SOL    HW114744   1.617   1.637   0.757
 4615SOL    HW214745   1.704   1.523   0.835
 4616SOL     OW14746   6.570   0.660   6.623
 4616SOL    HW114747   6.539   0.585   6.681
 4616SOL    HW214748   6.652   0.701   6.663
 4617SOL     OW14749   0.949   2.737   2.597
 4617SOL    HW114750   0.940   2.698   2.506
 4617SOL    HW214751   1.043   2.771   2.610
 4618SOL     OW14752   1.468   1.870   5.424
 4618SOL    HW114753   1.439   1.884   5.519
 4618SOL    HW214754   1.568   1.879   5.418
 4619SOL     OW14755   4.272   0.206   3.694
 4619SOL    HW114756   4.254   0.231   3.789
 4619SOL    HW214757   4.284   0.289   3.639
 4620SOL     OW14758   3.880   4.518   0.189
 4620SOL    HW114759   3.946   4.561   0.128
 4620SOL    HW214760   3.926   4.451   0.247
 4621SOL     OW14761   6.320   1.829   4.993
 4621SOL    HW114762   6.361   1.909   5.037
 4621SOL    HW214763   6.389   1.757   4.984
 4622SOL     OW14764   1.453   2.692   1.077
 4622SOL    HW114765   1.438   2.676   1.175
 4622SOL    HW214766   1.474   2.606   1.032
 4623SOL     OW14767   0.053   5.293   1.080
 4623SOL    HW114768   7.010   5.315   1.152
 4623SOL    HW214769   0.007   5.241   1.008
 4624SOL     OW14770   4.503   0.807   3.799
 4624SOL    HW114771   4.552   0.885   3.762
 4624SOL    HW214772   4.416   0.837   3.838
 4625SOL     OW14773   1.437   4.374   6.826
 4625SOL    HW114774   1.484   4.433   6.760
 4625SOL    HW214775   1.481   4.383   6.915
 4626SOL     OW14776   6.434   4.340   1.535
 4626SOL    HW114777   6.532   4.320   1.530
 4626SOL    HW214778   6.403   4.331   1.630
 4627SOL     OW14779   4.058   5.799   5.851
 4627SOL    HW114780   4.118   5.783   5.772
 4627SOL    HW214781   3.964   5.813   5.819
 4628SOL     OW14782   6.169   4.778   2.180
 4628SOL    HW114783   6.124   4.852   2.230
 4628SOL    HW214784   6.187   4.701   2.242
 4629SOL     OW14785   2.138   4.760   6.226
 4629SOL    HW114786   2.039   4.767   6.210
 4629SOL    HW214787   2.184   4.736   6.141
 4630SOL     OW14788   2.649   5.960   4.057
 4630SOL    HW114789   2.558   5.972   4.018
 4630SOL    HW214790   2.645   5.975   4.156
 4631SOL     OW14791   2.498   6.792   3.475
 4631SOL    HW114792   2.537   6.755   3.391
 4631SOL    HW214793   2.512   6.728   3.550
 4632SOL     OW14794   4.246   5.317   3.917
 4632SOL    HW114795   4.311   5.344   3.846
 4632SOL    HW214796   4.181   5.391   3.932
 4633SOL     OW14797   6.846   2.093   4.941
 4633SOL    HW114798   6.866   2.014   4.884
 4633SOL    HW214799   6.924   2.112   5.001
 4634SOL     OW14800   2.835   4.391   0.276
 4634SOL    HW114801   2.776   4.384   0.196
 4634SOL    HW214802   2.897   4.468   0.265
 4635SOL     OW14803   5.923   3.528   2.303
 4635SOL    HW114804   5.991   3.579   2.356
 4635SOL    HW214805   5.894   3.583   2.225
 4636SOL     OW14806   2.889   5.440   6.766
 4636SOL    HW114807   2.853   5.462   6.675
 4636SOL    HW214808   2.975   5.390   6.757
 4637SOL     OW14809   1.248   0.685   0.039
 4637SOL    HW114810   1.252   0.665   6.963
 4637SOL    HW214811   1.193   0.615   0.084
 4638SOL     OW14812   3.878   3.018   6.222
 4638SOL    HW114813   3.973   2.992   6.241
 4638SOL    HW214814   3.837   2.951   6.160
 4639SOL     OW14815   1.192   3.980   5.702
 4639SOL    HW114816   1.113   3.987   5.763
 4639SOL    HW214817   1.166   3.935   5.617
 4640SOL     OW14818   5.034   4.543   4.070
 4640SOL    HW114819   4.991   4.483   4.003
 4640SOL    HW214820   4.966   4.572   4.138
 4641SOL     OW14821   2.634   4.907   4.301
 4641SOL    HW114822   2.685   4.828   4.268
 4641SOL    HW214823   2.685   4.952   4.374
 4642SOL     OW14824   6.536   5.499   5.176
 4642SOL    HW114825   6.517   5.403   5.197
 4642SOL    HW214826   6.512   5.518   5.081
 4643SOL     OW14827   4.630   2.402   0.635
 4643SOL    HW114828   4.634   2.467   0.559
 4643SOL    HW214829   4.564   2.435   0.703
 4644SOL     OW14830   1.227   5.230   4.927
 4644SOL    HW114831   1.206   5.316   4.973
 4644SOL    HW214832   1.226   5.243   4.828
 4645SOL     OW14833   2.100   6.419   4.526
 4645SOL    HW114834   2.080   6.415   4.428
 4645SOL    HW214835   2.030   6.474   4.572
 4646SOL     OW14836   2.743   0.369   2.313
 4646SOL    HW114837   2.795   0.284   2.324
 4646SOL    HW214838   2.756   0.426   2.394
 4647SOL     OW14839   1.094   6.618   3.303
 4647SOL    HW114840   1.158   6.624   3.379
 4647SOL    HW214841   1.006   6.657   3.330
 4648SOL     OW14842   3.460   6.418   1.790
 4648SOL    HW114843   3.374   6.465   1.767
 4648SOL    HW214844   3.521   6.483   1.836
 4649SOL     OW14845   4.883   1.017   5.878
 4649SOL    HW114846   4.905   1.082   5.951
 4649SOL    HW214847   4.793   1.040   5.840
 4650SOL     OW14848   3.690   6.125   2.879
 4650SOL    HW114849   3.732   6.204   2.923
 4650SOL    HW214850   3.671   6.055   2.948
 4651SOL     OW14851   0.611   2.469   1.540
 4651SOL    HW114852   0.576   2.538   1.604
 4651SOL    HW214853   0.586   2.494   1.447
 4652SOL     OW14854   0.902   7.002   3.488
 4652SOL    HW114855   0.887   6.905   3.468
 4652SOL    HW214856   0.838   0.036   3.436
 4653SOL     OW14857   6.662   6.122   0.173
 4653SOL    HW114858   6.757   6.092   0.184
 4653SOL    HW214859   6.653   6.176   0.090
 4654SOL     OW14860   0.866   7.019   0.089
 4654SOL    HW114861   0.789   6.959   0.112
 4654SOL    HW214862   0.848   0.089   0.127
 4655SOL     OW14863   0.880   4.991   2.675
 4655SOL    HW114864   0.817   5.039   2.614
 4655SOL    HW214865   0.886   4.895   2.648
 4656SOL     OW14866   1.206   0.031   3.250
 4656SOL    HW114867   1.202   7.007   3.339
 4656SOL    HW214868   1.113   0.050   3.217
 4657SOL     OW14869   4.969   0.020   1.943
 4657SOL    HW114870   4.996   0.109   1.978
 4657SOL    HW214871   5.016   6.970   1.994
 4658SOL     OW14872   4.114   0.139   2.891
 4658SOL    HW114873   4.043   0.086   2.845
 4658SOL    HW214874   4.089   0.236   2.892
 4659SOL     OW14875   1.748   2.973   5.026
 4659SOL    HW114876   1.665   3.011   4.986
 4659SOL    HW214877   1.741   2.974   5.126
 4660SOL     OW14878   1.532   2.128   5.109
 4660SOL    HW114879   1.532   2.029   5.123
 4660SOL    HW214880   1.446   2.155   5.065
 4661SOL     OW14881   3.536   3.740   4.619
 4661SOL    HW114882   3.438   3.748   4.641
 4661SOL    HW214883   3.552   3.775   4.527
 4662SOL     OW14884   4.620   0.491   5.397
 4662SOL    HW114885   4.635   0.393   5.412
 4662SOL    HW214886   4.690   0.526   5.335
 4663SOL     OW14887   0.197   1.778   2.290
 4663SOL    HW114888   0.241   1.803   2.203
 4663SOL    HW214889   0.108   1.737   2.271
 4664SOL     OW14890   2.093   2.471   6.700
 4664SOL    HW114891   2.046   2.416   6.769
 4664SOL    HW214892   2.186   2.437   6.687
 4665SOL     OW14893   4.554   0.130   6.755
 4665SOL    HW114894   4.586   0.207   6.700
 4665SOL    HW214895   4.604   0.128   6.842
 4666SOL     OW14896   2.557   1.365   0.246
 4666SOL    HW114897   2.470   1.331   0.211
 4666SOL    HW214898   2.540   1.423   0.326
 4667SOL     OW14899   6.916   4.757   6.083
 4667SOL    HW114900   6.843   4.707   6.129
 4667SOL    HW214901   6.954   4.701   6.010
 4668SOL     OW14902   0.188   1.681   4.590
 4668SOL    HW114903   0.136   1.765   4.598
 4668SOL    HW214904   0.164   1.634   4.505
 4669SOL     OW14905   2.269   5.898   0.307
 4669SOL    HW114906   2.179   5.889   0.266
 4669SOL    HW214907   2.287   5.994   0.329
 4670SOL     OW14908   3.110   1.086   4.975
 4670SOL    HW114909   3.185   1.151   4.959
 4670SOL    HW214910   3.023   1.135   4.977
 4671SOL     OW14911   6.095   3.119   1.688
 4671SOL    HW114912   6.145   3.048   1.638
 4671SOL    HW214913   6.107   3.207   1.642
 4672SOL     OW14914   2.629   4.167   5.981
 4672SOL    HW114915   2.631   4.108   6.061
 4672SOL    HW214916   2.547   4.224   5.983
 4673SOL     OW14917   3.441   6.886   1.508
 4673SOL    HW114918   3.369   6.878   1.440
 4673SOL    HW214919   3.530   6.892   1.462
 4674SOL     OW14920   5.338   6.147   5.425
 4674SOL    HW114921   5.418   6.150   5.364
 4674SOL    HW214922   5.346   6.069   5.487
 4675SOL     OW14923   1.673   3.647   0.964
 4675SOL    HW114924   1.653   3.579   1.034
 4675SOL    HW214925   1.772   3.654   0.951
 4676SOL     OW14926   0.984   5.948   3.546
 4676SOL    HW114927   1.031   5.861   3.534
 4676SOL    HW214928   0.960   5.985   3.456
 4677SOL     OW14929   1.959   1.774   0.881
 4677SOL    HW114930   1.864   1.745   0.865
 4677SOL    HW214931   1.959   1.869   0.911
 4678SOL     OW14932   1.787   4.271   2.605
 4678SOL    HW114933   1.820   4.282   2.699
 4678SOL    HW214934   1.789   4.174   2.580
 4679SOL     OW14935   5.028   6.348   1.733
 4679SOL    HW114936   5.069   6.406   1.804
 4679SOL    HW214937   4.932   6.330   1.755
 4680SOL     OW14938   3.786   0.467   1.348
 4680SOL    HW114939   3.704   0.424   1.309
 4680SOL    HW214940   3.759   0.553   1.393
 4681SOL     OW14941   4.812   4.647   6.816
 4681SOL    HW114942   4.742   4.706   6.777
 4681SOL    HW214943   4.772   4.558   6.839
 4682SOL     OW14944   5.031   3.553   6.509
 4682SOL    HW114945   4.999   3.520   6.420
 4682SOL    HW214946   4.955   3.551   6.574
 4683SOL     OW14947   5.754   4.647   2.890
 4683SOL    HW114948   5.758   4.550   2.915
 4683SOL    HW214949   5.766   4.656   2.791
 4684SOL     OW14950   4.276   6.046   6.509
 4684SOL    HW114951   4.281   6.010   6.602
 4684SOL    HW214952   4.225   6.132   6.509
 4685SOL     OW14953   1.807   3.742   6.392
 4685SOL    HW114954   1.854   3.729   6.305
 4685SOL    HW214955   1.721   3.792   6.376
 4686SOL     OW14956   3.626   5.991   0.390
 4686SOL    HW114957   3.568   6.042   0.326
 4686SOL    HW214958   3.659   6.053   0.461
 4687SOL     OW14959   3.652   1.615   3.393
 4687SOL    HW114960   3.605   1.692   3.351
 4687SOL    HW214961   3.717   1.576   3.327
 4688SOL     OW14962   5.647   2.634   5.833
 4688SOL    HW114963   5.622   2.642   5.737
 4688SOL    HW214964   5.664   2.538   5.855
 4689SOL     OW14965   5.723   0.261   1.458
 4689SOL    HW114966   5.790   0.284   1.386
 4689SOL    HW214967   5.651   0.330   1.460
 4690SOL     OW14968   1.929   0.968   1.288
 4690SOL    HW114969   1.870   0.992   1.212
 4690SOL    HW214970   2.017   0.935   1.254
 4691SOL     OW14971   4.565   4.140   0.544
 4691SOL    HW114972   4.561   4.203   0.621
 4691SOL    HW214973   4.477   4.141   0.495
 4692SOL     OW14974   6.331   4.245   2.590
 4692SOL    HW114975   6.415   4.222   2.639
 4692SOL    HW214976   6.281   4.161   2.568
 4693SOL     OW14977   1.604   1.329   4.209
 4693SOL    HW114978   1.515   1.341   4.254
 4693SOL    HW214979   1.641   1.419   4.184
 4694SOL     OW14980   2.044   1.808   0.565
 4694SOL    HW114981   2.074   1.866   0.489
 4694SOL    HW214982   2.096   1.830   0.647
 4695SOL     OW14983   1.430   5.445   0.608
 4695SOL    HW114984   1.509   5.437   0.668
 4695SOL    HW214985   1.353   5.484   0.658
 4696SOL     OW14986   0.684   5.204   5.939
 4696SOL    HW114987   0.667   5.111   5.969
 4696SOL    HW214988   0.598   5.254   5.932
 4697SOL     OW14989   1.218   3.442   2.288
 4697SOL    HW114990   1.276   3.473   2.364
 4697SOL    HW214991   1.225   3.507   2.212
 4698SOL     OW14992   4.425   0.197   3.201
 4698SOL    HW114993   4.423   0.161   3.295
 4698SOL    HW214994   4.436   0.121   3.137
 4699SOL     OW14995   0.290   0.070   1.984
 4699SOL    HW114996   0.199   0.036   2.009
 4699SOL    HW214997   0.332   0.116   2.062
 4700SOL     OW14998   6.697   1.717   2.733
 4700SOL    HW114999   6.757   1.666   2.671
 4700SOL    HW215000   6.746   1.741   2.816
 4701SOL     OW15001   3.343   2.028   2.246
 4701SOL    HW115002   3.432   2.020   2.202
 4701SOL    HW215003   3.272   2.030   2.176
 4702SOL     OW15004   4.616   4.910   7.010
 4702SOL    HW115005   4.597   4.833   6.948
 4702SOL    HW215006   4.712   4.908   0.015
 4703SOL     OW15007   1.262   5.623   2.208
 4703SOL    HW115008   1.331   5.581   2.149
 4703SOL    HW215009   1.175   5.575   2.197
 4704SOL     OW15010   0.197   6.378   5.721
 4704SOL    HW115011   0.294   6.378   5.744
 4704SOL    HW215012   0.178   6.306   5.654
 4705SOL     OW15013   3.091   2.663   0.843
 4705SOL    HW115014   3.166   2.713   0.888
 4705SOL    HW215015   3.070   2.581   0.895
 4706SOL     OW15016   1.380   6.991   1.056
 4706SOL    HW115017   1.309   6.964   1.121
 4706SOL    HW215018   1.455   0.015   1.105
 4707SOL     OW15019   1.450   6.391   1.440
 4707SOL    HW115020   1.550   6.402   1.441
 4707SOL    HW215021   1.427   6.305   1.394
 4708SOL     OW15022   1.578   2.189   4.755
 4708SOL    HW115023   1.587   2.256   4.681
 4708SOL    HW215024   1.482   2.173   4.774
 4709SOL     OW15025   4.767   5.038   4.765
 4709SOL    HW115026   4.776   5.068   4.860
 4709SOL    HW215027   4.815   5.102   4.706
 4710SOL     OW15028   6.037   6.931   4.041
 4710SOL    HW115029   5.992   6.911   3.954
 4710SOL    HW215030   6.024   0.006   4.064
 4711SOL     OW15031   6.417   2.929   3.586
 4711SOL    HW115032   6.362   2.858   3.541
 4711SOL    HW215033   6.424   3.008   3.525
 4712SOL     OW15034   4.498   4.569   6.111
 4712SOL    HW115035   4.552   4.541   6.031
 4712SOL    HW215036   4.539   4.651   6.151
 4713SOL     OW15037   5.321   5.665   0.903
 4713SOL    HW115038   5.303   5.581   0.954
 4713SOL    HW215039   5.262   5.738   0.937
 4714SOL     OW15040   6.752   1.859   6.549
 4714SOL    HW115041   6.709   1.926   6.609
 4714SOL    HW215042   6.705   1.771   6.558
 4715SOL     OW15043   6.349   1.951   1.449
 4715SOL    HW115044   6.344   1.914   1.356
 4715SOL    HW215045   6.267   1.924   1.499
 4716SOL     OW15046   4.566   5.587   5.419
 4716SOL    HW115047   4.602   5.587   5.325
 4716SOL    HW215048   4.503   5.511   5.430
 4717SOL     OW15049   2.128   5.816   5.890
 4717SOL    HW115050   2.093   5.735   5.938
 4717SOL    HW215051   2.211   5.790   5.839
 4718SOL     OW15052   5.123   2.820   1.037
 4718SOL    HW115053   5.171   2.778   0.961
 4718SOL    HW215054   5.177   2.809   1.121
 4719SOL     OW15055   5.709   3.570   3.606
 4719SOL    HW115056   5.782   3.584   3.674
 4719SOL    HW215057   5.743   3.511   3.533
 4720SOL     OW15058   3.215   4.752   6.503
 4720SOL    HW115059   3.259   4.733   6.591
 4720SOL    HW215060   3.121   4.782   6.519
 4721SOL     OW15061   6.089   2.994   1.332
 4721SOL    HW115062   6.128   2.978   1.422
 4721SOL    HW215063   6.161   3.022   1.269
 4722SOL     OW15064   0.912   5.134   0.246
 4722SOL    HW115065   0.815   5.139   0.270
 4722SOL    HW215066   0.930   5.050   0.195
 4723SOL     OW15067   3.378   4.334   5.276
 4723SOL    HW115068   3.417   4.273   5.206
 4723SOL    HW215069   3.278   4.331   5.271
 4724SOL     OW15070   0.048   6.671   4.275
 4724SOL    HW115071   0.002   6.648   4.189
 4724SOL    HW215072   7.005   6.718   4.336
 4725SOL     OW15073   6.038   4.897   0.257
 4725SOL    HW115074   6.031   4.913   0.158
 4725SOL    HW215075   6.043   4.799   0.275
 4726SOL     OW15076   1.777   2.832   5.640
 4726SOL    HW115077   1.833   2.915   5.637
 4726SOL    HW215078   1.823   2.763   5.695
 4727SOL     OW15079   0.684   5.833   0.209
 4727SOL    HW115080   0.768   5.874   0.172
 4727SOL    HW215081   0.669   5.744   0.166
 4728SOL     OW15082   6.414   1.546   2.864
 4728SOL    HW115083   6.432   1.478   2.936
 4728SOL    HW215084   6.473   1.528   2.786
 4729SOL     OW15085   4.803   0.117   7.008
 4729SOL    HW115086   4.804   0.211   6.972
 4729SOL    HW215087   4.885   0.103   0.042
 4730SOL     OW15088   3.844   6.620   4.960
 4730SOL    HW115089   3.920   6.654   4.905
 4730SOL    HW215090   3.873   6.613   5.056
 4731SOL     OW15091   2.898   0.644   0.896
 4731SOL    HW115092   2.910   0.622   0.800
 4731SOL    HW215093   2.892   0.560   0.949
 4732SOL     OW15094   0.992   3.351   5.165
 4732SOL    HW115095   1.037   3.342   5.254
 4732SOL    HW215096   0.909   3.406   5.174
 4733SOL     OW15097   1.824   4.515   3.101
 4733SOL    HW115098   1.834   4.428   3.053
 4733SOL    HW215099   1.905   4.531   3.158
 4734SOL     OW15100   5.124   3.262   6.519
 4734SOL    HW115101   5.110   3.264   6.618
 4734SOL    HW215102   5.207   3.314   6.497
 4735SOL     OW15103   0.040   6.024   3.725
 4735SOL    HW115104   0.103   6.032   3.803
 4735SOL    HW215105   0.090   6.045   3.641
 4736SOL     OW15106   5.940   2.152   4.179
 4736SOL    HW115107   6.008   2.099   4.129
 4736SOL    HW215108   5.964   2.154   4.276
 4737SOL     OW15109   2.251   4.142   0.667
 4737SOL    HW115110   2.343   4.146   0.628
 4737SOL    HW215111   2.184   4.131   0.594
 4738SOL     OW15112   3.442   6.722   3.743
 4738SOL    HW115113   3.377   6.658   3.702
 4738SOL    HW215114   3.392   6.797   3.786
 4739SOL     OW15115   6.251   2.414   4.310
 4739SOL    HW115116   6.153   2.417   4.328
 4739SOL    HW215117   6.295   2.491   4.357
 4740SOL     OW15118   0.512   0.677   1.136
 4740SOL    HW115119   0.575   0.600   1.121
 4740SOL    HW215120   0.533   0.720   1.224
 4741SOL     OW15121   4.603   4.890   1.479
 4741SOL    HW115122   4.609   4.807   1.535
 4741SOL    HW215123   4.523   4.885   1.420
 4742SOL     OW15124   2.440   5.180   1.375
 4742SOL    HW115125   2.344   5.204   1.364
 4742SOL    HW215126   2.448   5.096   1.429
 4743SOL     OW15127   2.507   0.954   6.199
 4743SOL    HW115128   2.559   0.967   6.115
 4743SOL    HW215129   2.542   0.873   6.247
 4744SOL     OW15130   2.504   2.549   5.242
 4744SOL    HW115131   2.463   2.636   5.267
 4744SOL    HW215132   2.451   2.507   5.168
 4745SOL     OW15133   3.127   5.005   6.149
 4745SOL    HW115134   3.102   4.928   6.091
 4745SOL    HW215135   3.160   4.971   6.238
 4746SOL     OW15136   5.701   5.598   0.636
 4746SOL    HW115137   5.637   5.521   0.638
 4746SOL    HW215138   5.678   5.658   0.559
 4747SOL     OW15139   0.444   3.120   6.801
 4747SOL    HW115140   0.372   3.155   6.860
 4747SOL    HW215141   0.414   3.124   6.706
 4748SOL     OW15142   0.801   0.256   1.824
 4748SOL    HW115143   0.755   0.216   1.745
 4748SOL    HW215144   0.800   0.356   1.816
 4749SOL     OW15145   2.930   6.456   6.488
 4749SOL    HW115146   2.858   6.522   6.507
 4749SOL    HW215147   2.905   6.367   6.526
 4750SOL     OW15148   6.725   1.831   4.497
 4750SOL    HW115149   6.741   1.911   4.439
 4750SOL    HW215150   6.702   1.861   4.590
 4751SOL     OW15151   2.102   3.522   6.929
 4751SOL    HW115152   2.162   3.601   6.945
 4751SOL    HW215153   2.149   3.438   6.956
 4752SOL     OW15154   2.601   5.966   0.862
 4752SOL    HW115155   2.502   5.961   0.876
 4752SOL    HW215156   2.623   5.936   0.769
 4753SOL     OW15157   5.716   0.328   4.577
 4753SOL    HW115158   5.730   0.264   4.653
 4753SOL    HW215159   5.657   0.286   4.508
 4754SOL     OW15160   6.182   0.799   6.195
 4754SOL    HW115161   6.238   0.867   6.242
 4754SOL    HW215162   6.123   0.844   6.128
 4755SOL     OW15163   2.515   0.388   6.255
 4755SOL    HW115164   2.606   0.389   6.213
 4755SOL    HW215165   2.502   0.301   6.303
 4756SOL     OW15166   5.644   2.535   2.117
 4756SOL    HW115167   5.548   2.527   2.088
 4756SOL    HW215168   5.703   2.542   2.036
 4757SOL     OW15169   2.257   2.041   2.068
 4757SOL    HW115170   2.294   2.030   1.976
 4757SOL    HW215171   2.203   2.125   2.072
 4758SOL     OW15172   4.102   6.163   4.935
 4758SOL    HW115173   4.093   6.257   4.900
 4758SOL    HW215174   4.198   6.136   4.935
 4759SOL     OW15175   4.888   5.415   4.792
 4759SOL    HW115176   4.960   5.438   4.858
 4759SOL    HW215177   4.803   5.394   4.841
 4760SOL     OW15178   2.676   1.607   1.156
 4760SOL    HW115179   2.612   1.535   1.182
 4760SOL    HW215180   2.692   1.667   1.235
 4761SOL     OW15181   6.434   0.220   6.273
 4761SOL    HW115182   6.429   0.290   6.344
 4761SOL    HW215183   6.511   0.241   6.212
 4762SOL     OW15184   2.061   4.569   2.732
 4762SOL    HW115185   2.156   4.549   2.755
 4762SOL    HW215186   2.058   4.643   2.665
 4763SOL     OW15187   6.162   5.917   3.093
 4763SOL    HW115188   6.195   5.887   3.182
 4763SOL    HW215189   6.193   6.010   3.076
 4764SOL     OW15190   4.610   4.105   5.210
 4764SOL    HW115191   4.625   4.125   5.113
 4764SOL    HW215192   4.680   4.042   5.242
 4765SOL     OW15193   4.578   6.539   4.834
 4765SOL    HW115194   4.678   6.536   4.830
 4765SOL    HW215195   4.550   6.587   4.916
 4766SOL     OW15196   3.385   0.674   3.487
 4766SOL    HW115197   3.395   0.575   3.479
 4766SOL    HW215198   3.391   0.702   3.583
 4767SOL     OW15199   4.221   6.425   0.951
 4767SOL    HW115200   4.197   6.522   0.964
 4767SOL    HW215201   4.199   6.398   0.857
 4768SOL     OW15202   5.308   1.743   4.708
 4768SOL    HW115203   5.312   1.777   4.802
 4768SOL    HW215204   5.400   1.722   4.676
 4769SOL     OW15205   4.133   5.088   1.553
 4769SOL    HW115206   4.224   5.050   1.568
 4769SOL    HW215207   4.085   5.034   1.484
 4770SOL     OW15208   2.029   0.181   3.197
 4770SOL    HW115209   2.054   0.178   3.101
 4770SOL    HW215210   1.929   0.175   3.206
 4771SOL     OW15211   3.536   4.943   5.929
 4771SOL    HW115212   3.593   4.903   5.858
 4771SOL    HW215213   3.566   4.909   6.018
 4772SOL     OW15214   2.693   6.574   1.051
 4772SOL    HW115215   2.642   6.606   0.971
 4772SOL    HW215216   2.632   6.522   1.110
 4773SOL     OW15217   0.257   5.609   4.639
 4773SOL    HW115218   0.249   5.646   4.547
 4773SOL    HW215219   0.170   5.621   4.687
 4774SOL     OW15220   0.810   3.127   2.482
 4774SOL    HW115221   0.848   3.104   2.392
 4774SOL    HW215222   0.787   3.224   2.485
 4775SOL     OW15223   5.895   0.617   2.999
 4775SOL    HW115224   5.870   0.567   2.916
 4775SOL    HW215225   5.829   0.690   3.015
 4776SOL     OW15226   2.629   6.639   2.941
 4776SOL    HW115227   2.716   6.658   2.987
 4776SOL    HW215228   2.644   6.630   2.842
 4777SOL     OW15229   2.366   4.288   1.255
 4777SOL    HW115230   2.336   4.346   1.180
 4777SOL    HW215231   2.433   4.222   1.222
 4778SOL     OW15232   5.391   2.510   2.011
 4778SOL    HW115233   5.355   2.442   1.947
 4778SOL    HW215234   5.327   2.520   2.087
 4779SOL     OW15235   6.376   0.281   2.508
 4779SOL    HW115236   6.399   0.226   2.428
 4779SOL    HW215237   6.284   0.319   2.497
 4780SOL     OW15238   0.538   0.547   6.141
 4780SOL    HW115239   0.606   0.513   6.076
 4780SOL    HW215240   0.576   0.624   6.193
 4781SOL     OW15241   2.643   5.826   1.407
 4781SOL    HW115242   2.716   5.891   1.427
 4781SOL    HW215243   2.613   5.837   1.312
 4782SOL     OW15244   4.410   6.981   6.961
 4782SOL    HW115245   4.392   0.009   6.876
 4782SOL    HW215246   4.483   0.005   7.012
 4783SOL     OW15247   4.359   4.458   0.214
 4783SOL    HW115248   4.379   4.550   0.180
 4783SOL    HW215249   4.444   4.412   0.237
 4784SOL     OW15250   6.094   5.366   6.078
 4784SOL    HW115251   6.044   5.283   6.103
 4784SOL    HW215252   6.166   5.383   6.146
 4785SOL     OW15253   6.587   6.226   1.179
 4785SOL    HW115254   6.600   6.149   1.242
 4785SOL    HW215255   6.615   6.198   1.087
 4786SOL     OW15256   1.751   2.026   2.398
 4786SOL    HW115257   1.817   2.083   2.350
 4786SOL    HW215258   1.719   2.074   2.479
 4787SOL     OW15259   3.299   2.063   3.814
 4787SOL    HW115260   3.322   1.966   3.804
 4787SOL    HW215261   3.304   2.089   3.911
 4788SOL     OW15262   1.387   5.501   5.891
 4788SOL    HW115263   1.356   5.417   5.936
 4788SOL    HW215264   1.402   5.571   5.960
 4789SOL     OW15265   5.221   0.782   6.910
 4789SOL    HW115266   5.246   0.875   6.881
 4789SOL    HW215267   5.136   0.755   6.865
 4790SOL     OW15268   5.680   3.255   6.804
 4790SOL    HW115269   5.770   3.229   6.768
 4790SOL    HW215270   5.662   3.351   6.782
 4791SOL     OW15271   5.765   1.510   1.774
 4791SOL    HW115272   5.679   1.459   1.764
 4791SOL    HW215273   5.842   1.450   1.754
 4792SOL     OW15274   2.068   2.607   2.348
 4792SOL    HW115275   2.123   2.524   2.357
 4792SOL    HW215276   2.068   2.636   2.252
 4793SOL     OW15277   1.420   1.587   5.841
 4793SOL    HW115278   1.514   1.587   5.877
 4793SOL    HW215279   1.404   1.504   5.788
 4794SOL     OW15280   3.677   0.369   2.874
 4794SOL    HW115281   3.608   0.440   2.862
 4794SOL    HW215282   3.691   0.353   2.972
 4795SOL     OW15283   6.745   2.632   4.121
 4795SOL    HW115284   6.807   2.711   4.122
 4795SOL    HW215285   6.797   2.548   4.106
 4796SOL     OW15286   5.335   2.050   0.004
 4796SOL    HW115287   5.365   2.085   6.937
 4796SOL    HW215288   5.238   2.029   0.001
 4797SOL     OW15289   1.578   6.142   5.375
 4797SOL    HW115290   1.616   6.235   5.369
 4797SOL    HW215291   1.652   6.076   5.386
 4798SOL     OW15292   0.509   4.158   5.545
 4798SOL    HW115293   0.445   4.109   5.486
 4798SOL    HW215294   0.518   4.253   5.512
 4799SOL     OW15295   5.146   1.524   5.509
 4799SOL    HW115296   5.071   1.507   5.573
 4799SOL    HW215297   5.205   1.596   5.545
 4800SOL     OW15298   3.491   3.296   5.999
 4800SOL    HW115299   3.580   3.329   6.030
 4800SOL    HW215300   3.432   3.374   5.979
 4801SOL     OW15301   2.503   1.990   0.309
 4801SOL    HW115302   2.594   2.015   0.274
 4801SOL    HW215303   2.437   1.993   0.234
 4802SOL     OW15304   1.033   6.257   2.112
 4802SOL    HW115305   1.035   6.322   2.187
 4802SOL    HW215306   0.941   6.217   2.106
 4803SOL     OW15307   0.993   6.681   0.847
 4803SOL    HW115308   1.086   6.654   0.820
 4803SOL    HW215309   0.970   6.637   0.934
 4804SOL     OW15310   4.190   5.170   6.490
 4804SOL    HW115311   4.137   5.146   6.408
 4804SOL    HW215312   4.230   5.087   6.529
 4805SOL     OW15313   6.761   6.771   0.660
 4805SOL    HW115314   6.664   6.769   0.686
 4805SOL    HW215315   6.770   6.795   0.564
 4806SOL     OW15316   6.717   3.764   3.866
 4806SOL    HW115317   6.775   3.841   3.839
 4806SOL    HW215318   6.742   3.683   3.812
 4807SOL     OW15319   1.462   5.505   1.018
 4807SOL    HW115320   1.458   5.431   1.085
 4807SOL    HW215321   1.520   5.578   1.053
 4808SOL     OW15322   5.808   4.010   0.683
 4808SOL    HW115323   5.816   3.982   0.587
 4808SOL    HW215324   5.892   3.988   0.731
 4809SOL     OW15325   3.747   4.169   0.029
 4809SOL    HW115326   3.747   4.101   6.978
 4809SOL    HW215327   3.813   4.241   0.007
 4810SOL     OW15328   1.494   4.966   1.425
 4810SOL    HW115329   1.583   4.924   1.443
 4810SOL    HW215330   1.428   4.894   1.403
 4811SOL     OW15331   2.532   4.947   2.196
 4811SOL    HW115332   2.461   4.992   2.142
 4811SOL    HW215333   2.548   4.999   2.280
 4812SOL     OW15334   6.688   5.083   5.496
 4812SOL    HW115335   6.623   5.043   5.431
 4812SOL    HW215336   6.686   5.032   5.581
 4813SOL     OW15337   4.634   0.978   2.178
 4813SOL    HW115338   4.654   0.960   2.274
 4813SOL    HW215339   4.538   1.003   2.167
 4814SOL     OW15340   6.040   5.009   7.003
 4814SOL    HW115341   5.945   4.981   7.016
 4814SOL    HW215342   6.042   5.100   6.961
 4815SOL     OW15343   5.033   5.175   2.588
 4815SOL    HW115344   4.953   5.234   2.581
 4815SOL    HW215345   5.080   5.171   2.500
 4816SOL     OW15346   5.937   5.360   3.410
 4816SOL    HW115347   5.890   5.386   3.326
 4816SOL    HW215348   5.872   5.356   3.485
 4817SOL     OW15349   0.677   2.145   6.321
 4817SOL    HW115350   0.654   2.085   6.397
 4817SOL    HW215351   0.720   2.228   6.356
 4818SOL     OW15352   0.950   0.414   4.076
 4818SOL    HW115353   0.973   0.324   4.039
 4818SOL    HW215354   0.997   0.428   4.163
 4819SOL     OW15355   1.711   2.865   0.427
 4819SOL    HW115356   1.797   2.838   0.383
 4819SOL    HW215357   1.702   2.965   0.426
 4820SOL     OW15358   6.818   2.949   2.072
 4820SOL    HW115359   6.774   3.010   2.005
 4820SOL    HW215360   6.874   3.003   2.134
 4821SOL     OW15361   0.781   6.071   2.129
 4821SOL    HW115362   0.779   6.057   2.030
 4821SOL    HW215363   0.688   6.073   2.164
 4822SOL     OW15364   1.454   4.112   4.119
 4822SOL    HW115365   1.401   4.090   4.037
 4822SOL    HW215366   1.524   4.043   4.132
 4823SOL     OW15367   1.133   1.943   2.522
 4823SOL    HW115368   1.114   1.950   2.619
 4823SOL    HW215369   1.228   1.912   2.509
 4824SOL     OW15370   5.066   1.906   5.258
 4824SOL    HW115371   4.989   1.846   5.237
 4824SOL    HW215372   5.137   1.855   5.306
 4825SOL     OW15373   1.101   1.397   4.353
 4825SOL    HW115374   1.114   1.422   4.448
 4825SOL    HW215375   1.006   1.416   4.326
 4826SOL     OW15376   5.041   0.498   0.835
 4826SOL    HW115377   5.017   0.578   0.890
 4826SOL    HW215378   4.972   0.426   0.850
 4827SOL     OW15379   6.274   1.569   0.356
 4827SOL    HW115380   6.311   1.641   0.297
 4827SOL    HW215381   6.321   1.571   0.444
 4828SOL     OW15382   4.292   0.156   1.793
 4828SOL    HW115383   4.382   0.117   1.812
 4828SOL    HW215384   4.254   0.114   1.711
 4829SOL     OW15385   3.986   6.641   6.305
 4829SOL    HW115386   3.990   6.545   6.278
 4829SOL    HW215387   4.078   6.680   6.304
 4830SOL     OW15388   3.892   5.608   3.698
 4830SOL    HW115389   3.937   5.643   3.616
 4830SOL    HW215390   3.793   5.616   3.688
 4831SOL     OW15391   2.987   5.368   5.830
 4831SOL    HW115392   2.963   5.349   5.925
 4831SOL    HW215393   3.032   5.458   5.824
 4832SOL     OW15394   3.484   3.484   4.440
 4832SOL    HW115395   3.401   3.428   4.443
 4832SOL    HW215396   3.462   3.573   4.400
 4833SOL     OW15397   5.556   2.154   3.682
 4833SOL    HW115398   5.516   2.227   3.626
 4833SOL    HW215399   5.649   2.180   3.708
 4834SOL     OW15400   2.652   5.738   2.598
 4834SOL    HW115401   2.737   5.790   2.583
 4834SOL    HW215402   2.670   5.641   2.586
 4835SOL     OW15403   6.448   3.856   6.073
 4835SOL    HW115404   6.463   3.800   5.992
 4835SOL    HW215405   6.350   3.872   6.086
 4836SOL     OW15406   4.629   1.434   5.510
 4836SOL    HW115407   4.708   1.424   5.571
 4836SOL    HW215408   4.583   1.521   5.529
 4837SOL     OW15409   6.779   3.069   3.470
 4837SOL    HW115410   6.849   2.997   3.468
 4837SOL    HW215411   6.758   3.091   3.565
 4838SOL     OW15412   1.168   5.283   5.952
 4838SOL    HW115413   1.183   5.344   6.029
 4838SOL    HW215414   1.148   5.337   5.870
 4839SOL     OW15415   1.544   2.998   6.859
 4839SOL    HW115416   1.462   2.964   6.906
 4839SOL    HW215417   1.545   3.097   6.861
 4840SOL     OW15418   5.282   4.065   5.370
 4840SOL    HW115419   5.334   3.982   5.351
 4840SOL    HW215420   5.217   4.081   5.295
 4841SOL     OW15421   3.181   5.319   3.127
 4841SOL    HW115422   3.219   5.300   3.218
 4841SOL    HW215423   3.084   5.293   3.125
 4842SOL     OW15424   2.308   5.309   3.552
 4842SOL    HW115425   2.362   5.274   3.476
 4842SOL    HW215426   2.265   5.233   3.600
 4843SOL     OW15427   6.922   2.685   2.132
 4843SOL    HW115428   6.860   2.762   2.114
 4843SOL    HW215429   6.970   2.701   2.218
 4844SOL     OW15430   1.100   4.358   5.422
 4844SOL    HW115431   1.149   4.382   5.507
 4844SOL    HW215432   1.007   4.329   5.445
 4845SOL     OW15433   4.585   4.680   5.082
 4845SOL    HW115434   4.677   4.641   5.093
 4845SOL    HW215435   4.539   4.635   5.006
 4846SOL     OW15436   0.581   2.337   3.765
 4846SOL    HW115437   0.664   2.381   3.730
 4846SOL    HW215438   0.601   2.295   3.854
 4847SOL     OW15439   2.787   0.124   5.479
 4847SOL    HW115440   2.805   0.030   5.510
 4847SOL    HW215441   2.790   0.127   5.380
 4848SOL     OW15442   2.056   1.242   3.969
 4848SOL    HW115443   2.032   1.167   4.031
 4848SOL    HW215444   2.069   1.326   4.022
 4849SOL     OW15445   1.663   0.260   0.664
 4849SOL    HW115446   1.586   0.316   0.696
 4849SOL    HW215447   1.643   0.223   0.574
 4850SOL     OW15448   4.535   0.313   1.266
 4850SOL    HW115449   4.518   0.337   1.170
 4850SOL    HW215450   4.557   0.216   1.272
 4851SOL     OW15451   3.557   5.633   0.181
 4851SOL    HW115452   3.536   5.555   0.240
 4851SOL    HW215453   3.634   5.609   0.121
 4852SOL     OW15454   3.512   6.031   5.046
 4852SOL    HW115455   3.549   6.060   5.134
 4852SOL    HW215456   3.587   5.997   4.988
 4853SOL     OW15457   3.420   0.636   2.776
 4853SOL    HW115458   3.349   0.705   2.763
 4853SOL    HW215459   3.510   0.679   2.771
 4854SOL     OW15460   5.522   6.657   1.972
 4854SOL    HW115461   5.542   6.754   1.984
 4854SOL    HW215462   5.608   6.605   1.976
 4855SOL     OW15463   0.228   4.066   4.763
 4855SOL    HW115464   0.296   4.130   4.725
 4855SOL    HW215465   0.265   3.973   4.759
 4856SOL     OW15466   0.271   3.297   2.775
 4856SOL    HW115467   0.337   3.344   2.716
 4856SOL    HW215468   0.283   3.328   2.869
 4857SOL     OW15469   3.269   2.107   4.336
 4857SOL    HW115470   3.359   2.113   4.381
 4857SOL    HW215471   3.203   2.068   4.399
 4858SOL     OW15472   0.585   0.247   5.303
 4858SOL    HW115473   0.642   0.215   5.379
 4858SOL    HW215474   0.495   0.205   5.308
 4859SOL     OW15475   1.077   5.121   2.261
 4859SOL    HW115476   1.124   5.064   2.328
 4859SOL    HW215477   1.011   5.066   2.211
 4860SOL     OW15478   4.119   5.336   0.129
 4860SOL    HW115479   4.105   5.427   0.168
 4860SOL    HW215480   4.059   5.324   0.049
 4861SOL     OW15481   6.391   4.930   5.552
 4861SOL    HW115482   6.432   4.967   5.469
 4861SOL    HW215483   6.412   4.990   5.629
 4862SOL     OW15484   2.671   4.767   5.018
 4862SOL    HW115485   2.745   4.700   5.032
 4862SOL    HW215486   2.700   4.833   4.949
 4863SOL     OW15487   4.950   3.246   2.768
 4863SOL    HW115488   5.031   3.192   2.790
 4863SOL    HW215489   4.953   3.333   2.818
 4864SOL     OW15490   3.634   1.570   2.150
 4864SOL    HW115491   3.552   1.626   2.148
 4864SOL    HW215492   3.612   1.479   2.187
 4865SOL     OW15493   3.407   5.395   5.891
 4865SOL    HW115494   3.401   5.296   5.903
 4865SOL    HW215495   3.396   5.440   5.980
 4866SOL     OW15496   6.473   5.027   1.953
 4866SOL    HW115497   6.480   4.957   2.024
 4866SOL    HW215498   6.415   4.993   1.879
 4867SOL     OW15499   4.889   5.247   3.216
 4867SOL    HW115500   4.964   5.209   3.269
 4867SOL    HW215501   4.889   5.209   3.124
 4868SOL     OW15502   0.644   5.564   1.261
 4868SOL    HW115503   0.607   5.613   1.182
 4868SOL    HW215504   0.632   5.465   1.246
 4869SOL     OW15505   0.241   1.854   0.132
 4869SOL    HW115506   0.320   1.801   0.103
 4869SOL    HW215507   0.236   1.939   0.080
 4870SOL     OW15508   4.139   6.076   1.949
 4870SOL    HW115509   4.072   6.023   1.896
 4870SOL    HW215510   4.228   6.030   1.945
 4871SOL     OW15511   1.326   1.847   3.226
 4871SOL    HW115512   1.307   1.788   3.146
 4871SOL    HW215513   1.349   1.790   3.305
 4872SOL     OW15514   0.767   0.032   2.787
 4872SOL    HW115515   0.725   0.101   2.846
 4872SOL    HW215516   0.850   0.069   2.746
 4873SOL     OW15517   0.323   5.293   5.078
 4873SOL    HW115518   0.317   5.359   5.003
 4873SOL    HW215519   0.317   5.200   5.041
 4874SOL     OW15520   4.893   3.555   2.802
 4874SOL    HW115521   4.977   3.536   2.753
 4874SOL    HW215522   4.849   3.636   2.763
 4875SOL     OW15523   6.083   1.263   1.097
 4875SOL    HW115524   6.099   1.271   1.196
 4875SOL    HW215525   6.142   1.191   1.061
 4876SOL     OW15526   5.825   0.575   6.144
 4876SOL    HW115527   5.904   0.514   6.135
 4876SOL    HW215528   5.745   0.523   6.172
 4877SOL     OW15529   6.337   2.316   0.903
 4877SOL    HW115530   6.407   2.387   0.900
 4877SOL    HW215531   6.372   2.232   0.861
 4878SOL     OW15532   0.300   1.491   1.888
 4878SOL    HW115533   0.215   1.530   1.922
 4878SOL    HW215534   0.368   1.489   1.962
 4879SOL     OW15535   4.374   4.622   3.266
 4879SOL    HW115536   4.409   4.532   3.242
 4879SOL    HW215537   4.448   4.689   3.265
 4880SOL     OW15538   5.692   0.868   0.175
 4880SOL    HW115539   5.761   0.799   0.151
 4880SOL    HW215540   5.729   0.959   0.158
 4881SOL     OW15541   2.826   6.160   6.267
 4881SOL    HW115542   2.821   6.133   6.171
 4881SOL    HW215543   2.822   6.260   6.273
 4882SOL     OW15544   6.284   1.738   5.285
 4882SOL    HW115545   6.252   1.785   5.203
 4882SOL    HW215546   6.208   1.693   5.330
 4883SOL     OW15547   6.073   4.017   2.240
 4883SOL    HW115548   6.140   3.997   2.168
 4883SOL    HW215549   6.022   4.100   2.216
 4884SOL     OW15550   4.350   6.780   1.572
 4884SOL    HW115551   4.333   6.747   1.665
 4884SOL    HW215552   4.404   6.864   1.576
 4885SOL     OW15553   2.006   6.604   1.072
 4885SOL    HW115554   1.981   6.534   1.005
 4885SOL    HW215555   2.105   6.614   1.074
 4886SOL     OW15556   6.525   6.794   6.707
 4886SOL    HW115557   6.550   6.889   6.687
 4886SOL    HW215558   6.480   6.754   6.627
 4887SOL     OW15559   6.711   2.337   3.827
 4887SOL    HW115560   6.710   2.293   3.737
 4887SOL    HW215561   6.625   2.319   3.874
 4888SOL     OW15562   1.781   6.279   3.188
 4888SOL    HW115563   1.856   6.268   3.124
 4888SOL    HW215564   1.814   6.268   3.281
 4889SOL     OW15565   1.390   1.954   0.379
 4889SOL    HW115566   1.367   2.050   0.397
 4889SOL    HW215567   1.309   1.897   0.389
 4890SOL     OW15568   0.423   1.417   4.074
 4890SOL    HW115569   0.452   1.346   4.010
 4890SOL    HW215570   0.414   1.377   4.165
 4891SOL     OW15571   0.966   4.850   0.488
 4891SOL    HW115572   0.988   4.935   0.442
 4891SOL    HW215573   0.911   4.869   0.570
 4892SOL     OW15574   1.366   5.906   1.836
 4892SOL    HW115575   1.392   5.954   1.752
 4892SOL    HW215576   1.286   5.849   1.819
 4893SOL     OW15577   6.566   4.469   6.422
 4893SOL    HW115578   6.627   4.429   6.490
 4893SOL    HW215579   6.511   4.541   6.465
 4894SOL     OW15580   1.616   0.299   3.488
 4894SOL    HW115581   1.576   0.339   3.406
 4894SOL    HW215582   1.552   0.234   3.528
 4895SOL     OW15583   0.953   3.540   0.767
 4895SOL    HW115584   0.993   3.524   0.677
 4895SOL    HW215585   1.025   3.573   0.829
 4896SOL     OW15586   3.300   5.250   4.231
 4896SOL    HW115587   3.268   5.155   4.224
 4896SOL    HW215588   3.348   5.275   4.147
 4897SOL     OW15589   3.483   5.551   6.871
 4897SOL    HW115590   3.578   5.526   6.852
 4897SOL    HW215591   3.480   5.641   6.914
 4898SOL     OW15592   5.797   2.520   5.362
 4898SOL    HW115593   5.870   2.514   5.430
 4898SOL    HW215594   5.744   2.435   5.362
 4899SOL     OW15595   6.335   4.835   3.014
 4899SOL    HW115596   6.309   4.913   3.070
 4899SOL    HW215597   6.331   4.751   3.069
 4900SOL     OW15598   0.390   6.727   5.682
 4900SOL    HW115599   0.451   6.680   5.745
 4900SOL    HW215600   0.431   6.814   5.654
 4901SOL     OW15601   1.617   0.384   4.204
 4901SOL    HW115602   1.561   0.312   4.245
 4901SOL    HW215603   1.671   0.429   4.276
 4902SOL     OW15604   1.974   4.457   1.752
 4902SOL    HW115605   1.887   4.500   1.775
 4902SOL    HW215606   2.047   4.497   1.808
 4903SOL     OW15607   4.114   6.440   6.672
 4903SOL    HW115608   4.125   6.537   6.647
 4903SOL    HW215609   4.156   6.424   6.761
 4904SOL     OW15610   1.761   5.714   4.743
 4904SOL    HW115611   1.682   5.655   4.724
 4904SOL    HW215612   1.784   5.708   4.840
 4905SOL     OW15613   4.869   2.680   2.299
 4905SOL    HW115614   4.844   2.743   2.373
 4905SOL    HW215615   4.848   2.722   2.211
 4906SOL     OW15616   4.654   0.000   0.399
 4906SOL    HW115617   4.594   0.034   0.473
 4906SOL    HW215618   4.748   7.020   0.431
 4907SOL     OW15619   4.333   6.707   3.781
 4907SOL    HW115620   4.366   6.629   3.729
 4907SOL    HW215621   4.409   6.751   3.828
 4908SOL     OW15622   3.769   5.669   6.747
 4908SOL    HW115623   3.856   5.716   6.736
 4908SOL    HW215624   3.698   5.715   6.693
 4909SOL     OW15625   6.000   6.760   4.933
 4909SOL    HW115626   6.061   6.835   4.909
 4909SOL    HW215627   5.947   6.733   4.852
 4910SOL     OW15628   5.238   0.684   5.325
 4910SOL    HW115629   5.317   0.663   5.382
 4910SOL    HW215630   5.160   0.705   5.384
 4911SOL     OW15631   0.084   2.153   6.011
 4911SOL    HW115632   0.100   2.216   6.087
 4911SOL    HW215633   0.025   2.197   5.943
 4912SOL     OW15634   4.032   1.692   2.458
 4912SOL    HW115635   4.109   1.685   2.394
 4912SOL    HW215636   3.948   1.711   2.408
 4913SOL     OW15637   3.545   4.142   3.536
 4913SOL    HW115638   3.458   4.101   3.505
 4913SOL    HW215639   3.539   4.160   3.634
 4914SOL     OW15640   2.988   0.609   4.125
 4914SOL    HW115641   3.079   0.636   4.094
 4914SOL    HW215642   2.984   0.612   4.225
 4915SOL     OW15643   4.500   6.513   4.308
 4915SOL    HW115644   4.513   6.546   4.402
 4915SOL    HW215645   4.554   6.568   4.245
 4916SOL     OW15646   3.037   2.189   3.059
 4916SOL    HW115647   3.051   2.129   3.138
 4916SOL    HW215648   3.097   2.268   3.066
 4917SOL     OW15649   1.596   3.846   0.711
 4917SOL    HW115650   1.680   3.845   0.765
 4917SOL    HW215651   1.605   3.783   0.633
 4918SOL     OW15652   2.745   0.561   2.531
 4918SOL    HW115653   2.698   0.619   2.463
 4918SOL    HW215654   2.742   0.606   2.620
 4919SOL     OW15655   1.609   1.806   2.707
 4919SOL    HW115656   1.596   1.865   2.786
 4919SOL    HW215657   1.624   1.712   2.738
 4920SOL     OW15658   4.626   0.783   0.207
 4920SOL    HW115659   4.699   0.717   0.189
 4920SOL    HW215660   4.563   0.785   0.129
 4921SOL     OW15661   2.440   3.695   1.688
 4921SOL    HW115662   2.380   3.734   1.619
 4921SOL    HW215663   2.385   3.656   1.762
 4922SOL     OW15664   1.771   3.114   5.458
 4922SOL    HW115665   1.802   3.109   5.553
 4922SOL    HW215666   1.826   3.182   5.409
 4923SOL     OW15667   5.262   0.226   2.150
 4923SOL    HW115668   5.270   0.167   2.230
 4923SOL    HW215669   5.325   0.303   2.159
 4924SOL     OW15670   1.672   3.856   4.224
 4924SOL    HW115671   1.681   3.784   4.154
 4924SOL    HW215672   1.657   3.814   4.313
 4925SOL     OW15673   4.781   6.502   1.066
 4925SOL    HW115674   4.738   6.531   1.151
 4925SOL    HW215675   4.877   6.477   1.083
 4926SOL     OW15676   5.709   2.842   1.954
 4926SOL    HW115677   5.732   2.924   1.901
 4926SOL    HW215678   5.770   2.768   1.928
 4927SOL     OW15679   3.602   2.985   2.609
 4927SOL    HW115680   3.692   2.977   2.566
 4927SOL    HW215681   3.539   2.920   2.567
 4928SOL     OW15682   0.642   0.013   6.539
 4928SOL    HW115683   0.610   0.103   6.567
 4928SOL    HW215684   0.594   6.964   6.591
 4929SOL     OW15685   1.385   4.115   5.175
 4929SOL    HW115686   1.292   4.145   5.157
 4929SOL    HW215687   1.406   4.125   5.272
 4930SOL     OW15688   1.327   1.719   0.704
 4930SOL    HW115689   1.342   1.671   0.618
 4930SOL    HW215690   1.326   1.653   0.779
 4931SOL     OW15691   0.812   0.287   6.838
 4931SOL    HW115692   0.817   0.385   6.817
 4931SOL    HW215693   0.717   0.256   6.827
 4932SOL     OW15694   2.824   2.886   1.588
 4932SOL    HW115695   2.907   2.840   1.558
 4932SOL    HW215696   2.744   2.833   1.560
 4933SOL     OW15697   2.474   1.372   4.509
 4933SOL    HW115698   2.495   1.279   4.477
 4933SOL    HW215699   2.422   1.420   4.439
 4934SOL     OW15700   0.609   5.106   4.153
 4934SOL    HW115701   0.690   5.068   4.198
 4934SOL    HW215702   0.611   5.083   4.056
 4935SOL     OW15703   2.010   0.944   6.663
 4935SOL    HW115704   2.020   0.997   6.579
 4935SOL    HW215705   2.100   0.933   6.706
 4936SOL     OW15706   2.846   5.698   1.273
 4936SOL    HW115707   2.922   5.753   1.237
 4936SOL    HW215708   2.785   5.756   1.327
 4937SOL     OW15709   0.736   4.063   6.085
 4937SOL    HW115710   0.770   3.969   6.083
 4937SOL    HW215711   0.681   4.080   6.003
 4938SOL     OW15712   3.233   4.234   1.315
 4938SOL    HW115713   3.181   4.195   1.391
 4938SOL    HW215714   3.192   4.322   1.289
 4939SOL     OW15715   1.988   1.573   1.490
 4939SOL    HW115716   1.953   1.655   1.444
 4939SOL    HW215717   1.943   1.562   1.578
 4940SOL     OW15718   6.819   2.660   4.817
 4940SOL    HW115719   6.899   2.669   4.877
 4940SOL    HW215720   6.806   2.745   4.766
 4941SOL     OW15721   3.985   2.518   5.347
 4941SOL    HW115722   4.012   2.452   5.417
 4941SOL    HW215723   4.066   2.549   5.298
 4942SOL     OW15724   5.737   3.336   3.816
 4942SOL    HW115725   5.777   3.288   3.894
 4942SOL    HW215726   5.639   3.345   3.829
 4943SOL     OW15727   5.722   3.542   6.798
 4943SOL    HW115728   5.704   3.614   6.865
 4943SOL    HW215729   5.728   3.583   6.707
 4944SOL     OW15730   1.533   4.688   0.749
 4944SOL    HW115731   1.598   4.743   0.697
 4944SOL    HW215732   1.583   4.628   0.812
 4945SOL     OW15733   1.829   1.397   5.341
 4945SOL    HW115734   1.864   1.396   5.248
 4945SOL    HW215735   1.905   1.395   5.405
 4946SOL     OW15736   1.158   4.456   6.936
 4946SOL    HW115737   1.192   4.507   7.014
 4946SOL    HW215738   1.235   4.417   6.885
 4947SOL     OW15739   2.352   0.671   2.301
 4947SOL    HW115740   2.392   0.634   2.217
 4947SOL    HW215741   2.277   0.613   2.331
 4948SOL     OW15742   2.046   2.205   1.830
 4948SOL    HW115743   2.042   2.108   1.806
 4948SOL    HW215744   2.094   2.255   1.757
 4949SOL     OW15745   6.524   3.494   6.019
 4949SOL    HW115746   6.437   3.446   6.018
 4949SOL    HW215747   6.525   3.564   5.948
 4950SOL     OW15748   2.505   4.387   5.481
 4950SOL    HW115749   2.603   4.380   5.461
 4950SOL    HW215750   2.479   4.313   5.543
 4951SOL     OW15751   6.252   6.337   3.726
 4951SOL    HW115752   6.152   6.345   3.730
 4951SOL    HW215753   6.289   6.332   3.819
 4952SOL     OW15754   6.959   0.634   6.403
 4952SOL    HW115755   6.982   0.583   6.320
 4952SOL    HW215756   6.889   0.584   6.454
 4953SOL     OW15757   1.066   1.812   4.672
 4953SOL    HW115758   1.006   1.803   4.751
 4953SOL    HW215759   1.014   1.848   4.595
 4954SOL     OW15760   2.596   4.206   5.679
 4954SOL    HW115761   2.525   4.162   5.734
 4954SOL    HW215762   2.670   4.142   5.660
 4955SOL     OW15763   3.037   5.279   0.315
 4955SOL    HW115764   3.085   5.196   0.344
 4955SOL    HW215765   2.943   5.256   0.290
 4956SOL     OW15766   2.766   0.538   5.252
 4956SOL    HW115767   2.828   0.614   5.272
 4956SOL    HW215768   2.740   0.494   5.338
 4957SOL     OW15769   6.288   4.387   6.899
 4957SOL    HW115770   6.357   4.325   6.862
 4957SOL    HW215771   6.213   4.396   6.833
 4958SOL     OW15772   2.190   6.896   5.703
 4958SOL    HW115773   2.149   6.964   5.763
 4958SOL    HW215774   2.287   6.885   5.725
 4959SOL     OW15775   0.079   2.219   1.321
 4959SOL    HW115776   0.100   2.310   1.357
 4959SOL    HW215777   0.074   2.154   1.397
 4960SOL     OW15778   4.172   5.267   3.590
 4960SOL    HW115779   4.190   5.274   3.491
 4960SOL    HW215780   4.259   5.274   3.639
 4961SOL     OW15781   3.092   1.149   6.842
 4961SOL    HW115782   3.057   1.187   6.928
 4961SOL    HW215783   3.083   1.049   6.844
 4962SOL     OW15784   6.513   3.078   0.814
 4962SOL    HW115785   6.430   3.116   0.774
 4962SOL    HW215786   6.583   3.149   0.820
 4963SOL     OW15787   1.032   4.882   0.892
 4963SOL    HW115788   1.040   4.786   0.866
 4963SOL    HW215789   0.935   4.906   0.900
 4964SOL     OW15790   2.311   6.473   4.690
 4964SOL    HW115791   2.220   6.488   4.650
 4964SOL    HW215792   2.373   6.438   4.620
 4965SOL     OW15793   1.490   0.079   2.871
 4965SOL    HW115794   1.528   0.026   2.946
 4965SOL    HW215795   1.396   0.049   2.852
 4966SOL     OW15796   2.972   6.161   4.647
 4966SOL    HW115797   2.880   6.196   4.629
 4966SOL    HW215798   2.976   6.063   4.626
 4967SOL     OW15799   3.941   4.802   5.269
 4967SOL    HW115800   3.883   4.884   5.267
 4967SOL    HW215801   3.884   4.723   5.288
 4968SOL     OW15802   0.436   1.091   4.279
 4968SOL    HW115803   0.392   1.047   4.201
 4968SOL    HW215804   0.494   1.025   4.327
 4969SOL     OW15805   0.431   6.604   2.212
 4969SOL    HW115806   0.389   6.542   2.278
 4969SOL    HW215807   0.470   6.550   2.137
 4970SOL     OW15808   1.718   0.719   1.361
 4970SOL    HW115809   1.683   0.807   1.393
 4970SOL    HW215810   1.654   0.646   1.385
 4971SOL     OW15811   6.473   6.069   2.802
 4971SOL    HW115812   6.470   6.154   2.854
 4971SOL    HW215813   6.459   5.992   2.865
 4972SOL     OW15814   1.202   3.954   1.070
 4972SOL    HW115815   1.229   4.050   1.081
 4972SOL    HW215816   1.276   3.903   1.028
 4973SOL     OW15817   0.257   0.273   1.423
 4973SOL    HW115818   0.323   0.348   1.431
 4973SOL    HW215819   0.167   0.306   1.451
 4974SOL     OW15820   4.472   4.151   6.200
 4974SOL    HW115821   4.569   4.159   6.176
 4974SOL    HW215822   4.455   4.062   6.242
 4975SOL     OW15823   5.295   3.973   0.922
 4975SOL    HW115824   5.331   4.012   1.007
 4975SOL    HW215825   5.316   4.033   0.845
 4976SOL     OW15826   0.468   0.710   4.606
 4976SOL    HW115827   0.391   0.764   4.638
 4976SOL    HW215828   0.485   0.634   4.669
 4977SOL     OW15829   3.531   3.971   6.769
 4977SOL    HW115830   3.580   3.950   6.854
 4977SOL    HW215831   3.507   4.068   6.769
 4978SOL     OW15832   5.089   4.476   5.194
 4978SOL    HW115833   5.158   4.463   5.123
 4978SOL    HW215834   5.100   4.406   5.264
 4979SOL     OW15835   0.947   6.574   6.838
 4979SOL    HW115836   0.986   6.482   6.841
 4979SOL    HW215837   0.894   6.585   6.754
 4980SOL     OW15838   6.916   4.322   2.510
 4980SOL    HW115839   6.938   4.248   2.573
 4980SOL    HW215840   6.989   4.331   2.442
 4981SOL     OW15841   3.487   4.983   2.024
 4981SOL    HW115842   3.397   4.966   1.985
 4981SOL    HW215843   3.550   4.911   1.994
 4982SOL     OW15844   4.296   1.844   6.698
 4982SOL    HW115845   4.269   1.793   6.780
 4982SOL    HW215846   4.388   1.882   6.711
 4983SOL     OW15847   6.365   5.179   4.247
 4983SOL    HW115848   6.403   5.216   4.162
 4983SOL    HW215849   6.280   5.226   4.269
 4984SOL     OW15850   4.650   4.227   2.756
 4984SOL    HW115851   4.695   4.316   2.753
 4984SOL    HW215852   4.664   4.179   2.669
 4985SOL     OW15853   5.308   6.069   2.523
 4985SOL    HW115854   5.283   6.165   2.523
 4985SOL    HW215855   5.408   6.061   2.522
 4986SOL     OW15856   6.721   4.284   1.586
 4986SOL    HW115857   6.765   4.341   1.516
 4986SOL    HW215858   6.735   4.326   1.676
 4987SOL     OW15859   0.782   6.494   2.752
 4987SOL    HW115860   0.756   6.579   2.798
 4987SOL    HW215861   0.825   6.432   2.817
 4988SOL     OW15862   6.314   1.003   3.876
 4988SOL    HW115863   6.229   0.952   3.864
 4988SOL    HW215864   6.360   0.971   3.959
 4989SOL     OW15865   4.658   0.333   1.501
 4989SOL    HW115866   4.597   0.334   1.422
 4989SOL    HW215867   4.712   0.249   1.501
 4990SOL     OW15868   3.913   1.968   0.060
 4990SOL    HW115869   3.998   2.020   0.067
 4990SOL    HW215870   3.878   1.947   0.151
 4991SOL     OW15871   0.237   5.762   4.415
 4991SOL    HW115872   0.265   5.725   4.326
 4991SOL    HW215873   0.214   5.859   4.405
 4992SOL     OW15874   6.721   1.322   3.302
 4992SOL    HW115875   6.629   1.291   3.326
 4992SOL    HW215876   6.788   1.272   3.356
 4993SOL     OW15877   4.575   6.967   4.953
 4993SOL    HW115878   4.600   6.937   5.045
 4993SOL    HW215879   4.504   0.016   4.959
 4994SOL     OW15880   2.288   5.256   5.235
 4994SOL    HW115881   2.274   5.183   5.302
 4994SOL    HW215882   2.207   5.263   5.176
 4995SOL     OW15883   0.534   0.924   4.868
 4995SOL    HW115884   0.609   0.951   4.808
 4995SOL    HW215885   0.456   0.895   4.813
 4996SOL     OW15886   0.242   1.670   4.064
 4996SOL    HW115887   0.311   1.598   4.060
 4996SOL    HW215888   0.237   1.718   3.977
 4997SOL     OW15889   3.670   2.380   1.385
 4997SOL    HW115890   3.705   2.460   1.336
 4997SOL    HW215891   3.710   2.378   1.477
 4998SOL     OW15892   1.737   3.655   3.338
 4998SOL    HW115893   1.759   3.563   3.305
 4998SOL    HW215894   1.650   3.652   3.388
 4999SOL     OW15895   0.773   3.528   5.190
 4999SOL    HW115896   0.802   3.620   5.216
 4999SOL    HW215897   0.674   3.527   5.175
 5000SOL     OW15898   3.072   6.292   3.579
 5000SOL    HW115899   3.151   6.244   3.617
 5000SOL    HW215900   3.079   6.294   3.479
 5001SOL     OW15901   0.327   5.850   2.314
 5001SOL    HW115902   0.258   5.917   2.284
 5001SOL    HW215903   0.302   5.814   2.404
 5002SOL     OW15904   0.829   4.386   2.628
 5002SOL    HW115905   0.838   4.286   2.634
 5002SOL    HW215906   0.901   4.429   2.683
 5003SOL     OW15907   3.977   6.058   2.864
 5003SOL    HW115908   3.885   6.084   2.893
 5003SOL    HW215909   4.040   6.133   2.885
 5004SOL     OW15910   2.668   5.525   5.850
 5004SOL    HW115911   2.687   5.622   5.835
 5004SOL    HW215912   2.751   5.479   5.883
 5005SOL     OW15913   2.215   3.483   6.294
 5005SOL    HW115914   2.291   3.426   6.326
 5005SOL    HW215915   2.247   3.577   6.281
 5006SOL     OW15916   4.993   0.994   2.259
 5006SOL    HW115917   4.989   1.072   2.322
 5006SOL    HW215918   4.959   1.022   2.169
 5007SOL     OW15919   6.745   0.546   0.404
 5007SOL    HW115920   6.827   0.497   0.375
 5007SOL    HW215921   6.751   0.642   0.378
 5008SOL     OW15922   6.395   5.476   1.426
 5008SOL    HW115923   6.411   5.568   1.389
 5008SOL    HW215924   6.353   5.419   1.355
 5009SOL     OW15925   0.996   2.880   0.162
 5009SOL    HW115926   1.031   2.899   0.254
 5009SOL    HW215927   0.965   2.785   0.158
 5010SOL     OW15928   3.931   2.122   0.571
 5010SOL    HW115929   3.953   2.047   0.632
 5010SOL    HW215930   3.966   2.102   0.479
 5011SOL     OW15931   1.521   4.219   0.699
 5011SOL    HW115932   1.468   4.251   0.621
 5011SOL    HW215933   1.619   4.232   0.680
 5012SOL     OW15934   6.085   3.103   5.494
 5012SOL    HW115935   6.040   3.083   5.407
 5012SOL    HW215936   6.102   3.201   5.500
 5013SOL     OW15937   5.736   0.547   5.241
 5013SOL    HW115938   5.835   0.542   5.229
 5013SOL    HW215939   5.696   0.596   5.163
 5014SOL     OW15940   6.894   4.567   0.189
 5014SOL    HW115941   6.822   4.551   0.257
 5014SOL    HW215942   6.854   4.613   0.109
 5015SOL     OW15943   5.239   0.838   4.690
 5015SOL    HW115944   5.223   0.917   4.749
 5015SOL    HW215945   5.254   0.869   4.596
 5016SOL     OW15946   0.989   2.846   5.088
 5016SOL    HW115947   0.968   2.819   4.994
 5016SOL    HW215948   1.088   2.842   5.103
 5017SOL     OW15949   1.074   2.229   1.221
 5017SOL    HW115950   1.094   2.320   1.259
 5017SOL    HW215951   1.000   2.236   1.155
 5018SOL     OW15952   1.237   4.809   2.519
 5018SOL    HW115953   1.321   4.757   2.536
 5018SOL    HW215954   1.260   4.897   2.478
 5019SOL     OW15955   1.982   5.965   5.711
 5019SOL    HW115956   1.941   5.916   5.635
 5019SOL    HW215957   2.040   5.902   5.763
 5020SOL     OW15958   0.199   6.606   5.046
 5020SOL    HW115959   0.162   6.551   4.971
 5020SOL    HW215960   0.145   6.690   5.056
 5021SOL     OW15961   1.066   0.544   1.667
 5021SOL    HW115962   1.158   0.581   1.679
 5021SOL    HW215963   1.063   0.489   1.584
 5022SOL     OW15964   0.775   3.154   1.214
 5022SOL    HW115965   0.680   3.173   1.237
 5022SOL    HW215966   0.780   3.120   1.120
 5023SOL     OW15967   6.907   4.424   1.439
 5023SOL    HW115968   6.968   4.384   1.370
 5023SOL    HW215969   6.949   4.506   1.476
 5024SOL     OW15970   5.626   4.952   1.083
 5024SOL    HW115971   5.586   4.917   0.998
 5024SOL    HW215972   5.724   4.965   1.070
 5025SOL     OW15973   3.615   1.918   3.925
 5025SOL    HW115974   3.590   1.903   4.021
 5025SOL    HW215975   3.644   2.012   3.912
 5026SOL     OW15976   6.998   5.204   5.011
 5026SOL    HW115977   0.057   5.168   4.964
 5026SOL    HW215978   6.939   5.252   4.946
 5027SOL     OW15979   6.101   0.390   1.021
 5027SOL    HW115980   6.082   0.293   1.038
 5027SOL    HW215981   6.077   0.443   1.102
 5028SOL     OW15982   6.756   2.159   3.607
 5028SOL    HW115983   6.680   2.142   3.544
 5028SOL    HW215984   6.827   2.212   3.561
 5029SOL     OW15985   6.523   2.499   2.504
 5029SOL    HW115986   6.619   2.475   2.519
 5029SOL    HW215987   6.504   2.501   2.406
 5030SOL     OW15988   6.911   6.110   6.280
 5030SOL    HW115989   6.877   6.023   6.246
 5030SOL    HW215990   6.834   6.170   6.302
 5031SOL     OW15991   6.745   0.931   5.513
 5031SOL    HW115992   6.769   0.982   5.430
 5031SOL    HW215993   6.827   0.891   5.553
 5032SOL     OW15994   2.412   1.734   6.313
 5032SOL    HW115995   2.512   1.732   6.308
 5032SOL    HW215996   2.380   1.659   6.372
 5033SOL     OW15997   2.314   0.536   0.221
 5033SOL    HW115998   2.319   0.579   0.311
 5033SOL    HW215999   2.406   0.527   0.183
 5034SOL     OW16000   5.158   6.738   3.677
 5034SOL    HW116001   5.196   6.685   3.752
 5034SOL    HW216002   5.184   6.834   3.687
 5035SOL     OW16003   0.835   3.414   5.468
 5035SOL    HW116004   0.770   3.405   5.392
 5035SOL    HW216005   0.791   3.463   5.543
 5036SOL     OW16006   6.178   5.073   6.327
 5036SOL    HW116007   6.196   4.975   6.318
 5036SOL    HW216008   6.259   5.125   6.300
 5037SOL     OW16009   4.631   4.660   1.663
 5037SOL    HW116010   4.688   4.643   1.743
 5037SOL    HW216011   4.613   4.573   1.616
 5038SOL     OW16012   4.074   3.256   3.834
 5038SOL    HW116013   3.979   3.283   3.854
 5038SOL    HW216014   4.074   3.177   3.772
 5039SOL     OW16015   2.656   3.151   5.815
 5039SOL    HW116016   2.658   3.133   5.914
 5039SOL    HW216017   2.578   3.209   5.793
 5040SOL     OW16018   1.031   5.795   4.875
 5040SOL    HW116019   0.934   5.820   4.878
 5040SOL    HW216020   1.056   5.750   4.961
 5041SOL     OW16021   1.138   2.204   2.396
 5041SOL    HW116022   1.174   2.243   2.480
 5041SOL    HW216023   1.154   2.105   2.395
 5042SOL     OW16024   6.847   3.114   0.701
 5042SOL    HW116025   6.792   3.174   0.759
 5042SOL    HW216026   6.804   3.104   0.612
 5043SOL     OW16027   4.444   0.689   0.007
 5043SOL    HW116028   4.459   0.719   6.935
 5043SOL    HW216029   4.349   0.708   0.033
 5044SOL     OW16030   0.870   5.725   1.361
 5044SOL    HW116031   0.855   5.813   1.406
 5044SOL    HW216032   0.782   5.686   1.334
 5045SOL     OW16033   6.555   5.847   5.950
 5045SOL    HW116034   6.591   5.780   6.015
 5045SOL    HW216035   6.622   5.921   5.940
 5046SOL     OW16036   3.690   3.850   3.859
 5046SOL    HW116037   3.690   3.949   3.877
 5046SOL    HW216038   3.768   3.808   3.906
 5047SOL     OW16039   2.012   3.965   2.944
 5047SOL    HW116040   2.086   3.962   3.011
 5047SOL    HW216041   2.051   3.964   2.852
 5048SOL     OW16042   1.398   0.954   4.648
 5048SOL    HW116043   1.331   1.023   4.619
 5048SOL    HW216044   1.490   0.988   4.632
 5049SOL     OW16045   5.138   1.323   6.885
 5049SOL    HW116046   5.176   1.309   6.976
 5049SOL    HW216047   5.039   1.316   6.889
 5050SOL     OW16048   1.904   0.898   6.928
 5050SOL    HW116049   1.959   0.921   6.848
 5050SOL    HW216050   1.836   0.969   6.944
 5051SOL     OW16051   4.575   4.360   1.227
 5051SOL    HW116052   4.624   4.325   1.147
 5051SOL    HW216053   4.563   4.287   1.294
 5052SOL     OW16054   3.449   2.231   6.364
 5052SOL    HW116055   3.371   2.260   6.419
 5052SOL    HW216056   3.533   2.250   6.414
 5053SOL     OW16057   0.889   5.455   3.207
 5053SOL    HW116058   0.972   5.439   3.154
 5053SOL    HW216059   0.809   5.429   3.152
 5054SOL     OW16060   2.907   4.812   5.415
 5054SOL    HW116061   2.954   4.736   5.458
 5054SOL    HW216062   2.964   4.850   5.342
 5055SOL     OW16063   0.958   2.472   5.716
 5055SOL    HW116064   0.966   2.379   5.751
 5055SOL    HW216065   0.936   2.534   5.791
 5056SOL     OW16066   5.083   3.544   5.462
 5056SOL    HW116067   5.041   3.634   5.463
 5056SOL    HW216068   5.126   3.526   5.551
 5057SOL     OW16069   0.254   6.641   2.818
 5057SOL    HW116070   0.157   6.638   2.842
 5057SOL    HW216071   0.290   6.731   2.841
 5058SOL     OW16072   3.322   4.741   6.835
 5058SOL    HW116073   3.390   4.687   6.786
 5058SOL    HW216074   3.328   4.722   6.933
 5059SOL     OW16075   6.944   0.908   3.334
 5059SOL    HW116076   6.882   0.830   3.323
 5059SOL    HW216077   7.004   0.915   3.254
 5060SOL     OW16078   6.787   2.373   6.556
 5060SOL    HW116079   6.864   2.320   6.521
 5060SOL    HW216080   6.715   2.311   6.588
 5061SOL     OW16081   4.744   2.641   0.488
 5061SOL    HW116082   4.706   2.711   0.428
 5061SOL    HW216083   4.840   2.662   0.507
 5062SOL     OW16084   6.411   0.121   2.258
 5062SOL    HW116085   6.410   0.141   2.160
 5062SOL    HW216086   6.318   0.101   2.288
 5063SOL     OW16087   6.983   6.514   2.004
 5063SOL    HW116088   7.000   6.415   2.009
 5063SOL    HW216089   7.010   6.548   1.914
 5064SOL     OW16090   4.924   2.894   0.722
 5064SOL    HW116091   4.941   2.991   0.706
 5064SOL    HW216092   4.916   2.877   0.820
 5065SOL     OW16093   3.256   0.517   5.435
 5065SOL    HW116094   3.170   0.567   5.441
 5065SOL    HW216095   3.238   0.419   5.428
 5066SOL     OW16096   4.926   4.468   2.161
 5066SOL    HW116097   4.833   4.449   2.130
 5066SOL    HW216098   4.927   4.470   2.261
 5067SOL     OW16099   5.265   1.394   0.828
 5067SOL    HW116100   5.173   1.416   0.861
 5067SOL    HW216101   5.300   1.314   0.876
 5068SOL     OW16102   2.306   4.486   1.071
 5068SOL    HW116103   2.223   4.497   1.125
 5068SOL    HW216104   2.349   4.575   1.056
 5069SOL     OW16105   1.698   3.975   2.621
 5069SOL    HW116106   1.787   3.939   2.646
 5069SOL    HW216107   1.648   4.000   2.704
 5070SOL     OW16108   4.860   3.427   3.737
 5070SOL    HW116109   4.919   3.370   3.794
 5070SOL    HW216110   4.805   3.369   3.677
 5071SOL     OW16111   4.387   2.437   4.811
 5071SOL    HW116112   4.335   2.385   4.744
 5071SOL    HW216113   4.330   2.451   4.893
 5072SOL     OW16114   0.462   5.803   0.381
 5072SOL    HW116115   0.534   5.828   0.317
 5072SOL    HW216116   0.445   5.879   0.444
 5073SOL     OW16117   6.634   6.452   2.996
 5073SOL    HW116118   6.555   6.424   2.941
 5073SOL    HW216119   6.635   6.400   3.082
 5074SOL     OW16120   3.651   3.872   7.015
 5074SOL    HW116121   3.727   3.839   0.050
 5074SOL    HW216122   3.564   3.854   0.040
 5075SOL     OW16123   0.188   1.221   5.766
 5075SOL    HW116124   0.132   1.150   5.724
 5075SOL    HW216125   0.186   1.211   5.865
 5076SOL     OW16126   4.397   0.812   1.273
 5076SOL    HW116127   4.454   0.730   1.267
 5076SOL    HW216128   4.385   0.837   1.370
 5077SOL     OW16129   1.271   2.334   3.528
 5077SOL    HW116130   1.347   2.322   3.592
 5077SOL    HW216131   1.259   2.250   3.475
 5078SOL     OW16132   0.942   1.810   3.219
 5078SOL    HW116133   1.008   1.747   3.180
 5078SOL    HW216134   0.988   1.895   3.245
 5079SOL     OW16135   2.703   4.876   6.382
 5079SOL    HW116136   2.744   4.907   6.296
 5079SOL    HW216137   2.758   4.802   6.420
 5080SOL     OW16138   5.630   6.957   4.741
 5080SOL    HW116139   5.702   7.017   4.706
 5080SOL    HW216140   5.653   6.929   4.834
 5081SOL     OW16141   3.623   3.753   3.066
 5081SOL    HW116142   3.652   3.710   3.151
 5081SOL    HW216143   3.541   3.808   3.082
 5082SOL     OW16144   5.607   6.377   4.818
 5082SOL    HW116145   5.618   6.286   4.776
 5082SOL    HW216146   5.683   6.395   4.880
 5083SOL     OW16147   1.768   6.522   2.302
 5083SOL    HW116148   1.757   6.550   2.397
 5083SOL    HW216149   1.700   6.568   2.245
 5084SOL     OW16150   1.544   4.503   4.338
 5084SOL    HW116151   1.447   4.485   4.321
 5084SOL    HW216152   1.561   4.501   4.436
 5085SOL     OW16153   5.187   2.120   6.531
 5085SOL    HW116154   5.099   2.080   6.559
 5085SOL    HW216155   5.172   2.183   6.455
 5086SOL     OW16156   6.425   5.113   3.762
 5086SOL    HW116157   6.339   5.103   3.812
 5086SOL    HW216158   6.495   5.151   3.823
 5087SOL     OW16159   6.907   6.308   3.989
 5087SOL    HW116160   6.831   6.291   4.052
 5087SOL    HW216161   6.872   6.309   3.895
 5088SOL     OW16162   5.898   1.369   5.890
 5088SOL    HW116163   5.912   1.300   5.819
 5088SOL    HW216164   5.979   1.374   5.948
 5089SOL     OW16165   6.714   3.546   3.472
 5089SOL    HW116166   6.710   3.642   3.442
 5089SOL    HW216167   6.676   3.487   3.400
 5090SOL     OW16168   1.997   3.857   1.320
 5090SOL    HW116169   2.075   3.920   1.329
 5090SOL    HW216170   1.913   3.906   1.340
 5091SOL     OW16171   1.227   6.491   2.891
 5091SOL    HW116172   1.131   6.486   2.916
 5091SOL    HW216173   1.280   6.426   2.947
 5092SOL     OW16174   3.648   2.693   1.473
 5092SOL    HW116175   3.620   2.789   1.474
 5092SOL    HW216176   3.612   2.646   1.554
 5093SOL     OW16177   0.994   1.791   1.898
 5093SOL    HW116178   0.972   1.882   1.862
 5093SOL    HW216179   1.028   1.800   1.991
 5094SOL     OW16180   0.781   0.474   5.476
 5094SOL    HW116181   0.735   0.560   5.451
 5094SOL    HW216182   0.794   0.418   5.395
 5095SOL     OW16183   1.250   0.693   4.467
 5095SOL    HW116184   1.341   0.669   4.433
 5095SOL    HW216185   1.257   0.721   4.563
 5096SOL     OW16186   4.584   3.624   0.570
 5096SOL    HW116187   4.535   3.671   0.644
 5096SOL    HW216188   4.586   3.684   0.490
 5097SOL     OW16189   1.483   0.203   6.204
 5097SOL    HW116190   1.514   0.271   6.139
 5097SOL    HW216191   1.536   0.211   6.289
 5098SOL     OW16192   0.389   0.590   1.669
 5098SOL    HW116193   0.446   0.575   1.750
 5098SOL    HW216194   0.417   0.527   1.596
 5099SOL     OW16195   0.873   0.242   6.010
 5099SOL    HW116196   0.966   0.221   6.040
 5099SOL    HW216197   0.865   0.221   5.912
 5100SOL     OW16198   4.997   0.028   6.211
 5100SOL    HW116199   4.970   0.061   6.120
 5100SOL    HW216200   5.087   7.007   6.205
 5101SOL     OW16201   5.263   6.448   0.007
 5101SOL    HW116202   5.299   6.517   0.070
 5101SOL    HW216203   5.309   6.360   0.024
 5102SOL     OW16204   5.841   0.837   5.247
 5102SOL    HW116205   5.930   0.871   5.277
 5102SOL    HW216206   5.802   0.779   5.318
 5103SOL     OW16207   6.695   1.289   4.337
 5103SOL    HW116208   6.626   1.336   4.282
 5103SOL    HW216209   6.758   1.355   4.377
 5104SOL     OW16210   1.989   6.902   1.148
 5104SOL    HW116211   1.966   6.938   1.057
 5104SOL    HW216212   1.967   6.804   1.151
 5105SOL     OW16213   4.736   3.717   6.570
 5105SOL    HW116214   4.710   3.673   6.484
 5105SOL    HW216215   4.791   3.798   6.550
 5106SOL     OW16216   3.787   0.134   2.435
 5106SOL    HW116217   3.829   0.116   2.524
 5106SOL    HW216218   3.695   0.093   2.433
 5107SOL     OW16219   2.835   0.676   0.334
 5107SOL    HW116220   2.767   0.749   0.340
 5107SOL    HW216221   2.909   0.704   0.273
 5108SOL     OW16222   3.084   3.969   3.662
 5108SOL    HW116223   3.114   4.057   3.625
 5108SOL    HW216224   3.033   3.920   3.592
 5109SOL     OW16225   1.015   1.571   0.832
 5109SOL    HW116226   1.046   1.664   0.817
 5109SOL    HW216227   0.980   1.563   0.926
 5110SOL     OW16228   1.599   6.729   5.840
 5110SOL    HW116229   1.596   6.774   5.929
 5110SOL    HW216230   1.644   6.640   5.848
 5111SOL     OW16231   0.417   1.095   5.758
 5111SOL    HW116232   0.488   1.149   5.802
 5111SOL    HW216233   0.337   1.153   5.740
 5112SOL     OW16234   0.201   6.665   3.851
 5112SOL    HW116235   0.155   6.587   3.809
 5112SOL    HW216236   0.134   6.726   3.893
 5113SOL     OW16237   0.623   0.427   1.182
 5113SOL    HW116238   0.711   0.406   1.225
 5113SOL    HW216239   0.582   0.342   1.146
 5114SOL     OW16240   3.460   3.700   0.145
 5114SOL    HW116241   3.401   3.727   0.222
 5114SOL    HW216242   3.547   3.667   0.180
 5115SOL     OW16243   1.903   4.551   5.908
 5115SOL    HW116244   1.872   4.521   5.998
 5115SOL    HW216245   1.836   4.524   5.839
 5116SOL     OW16246   5.061   5.495   6.085
 5116SOL    HW116247   5.078   5.594   6.077
 5116SOL    HW216248   5.067   5.454   5.994
 5117SOL     OW16249   2.260   4.658   4.078
 5117SOL    HW116250   2.338   4.623   4.026
 5117SOL    HW216251   2.200   4.582   4.103
 5118SOL     OW16252   4.583   6.432   0.544
 5118SOL    HW116253   4.493   6.475   0.550
 5118SOL    HW216254   4.610   6.399   0.634
 5119SOL     OW16255   5.171   0.328   1.772
 5119SOL    HW116256   5.092   0.349   1.830
 5119SOL    HW216257   5.141   0.273   1.695
 5120SOL     OW16258   5.930   1.704   2.944
 5120SOL    HW116259   5.930   1.802   2.924
 5120SOL    HW216260   6.016   1.664   2.913
 5121SOL     OW16261   0.882   3.128   6.240
 5121SOL    HW116262   0.966   3.130   6.294
 5121SOL    HW216263   0.811   3.078   6.290
 5122SOL     OW16264   2.759   1.004   3.498
 5122SOL    HW116265   2.837   0.974   3.444
 5122SOL    HW216266   2.675   0.963   3.462
 5123SOL     OW16267   5.469   3.541   3.671
 5123SOL    HW116268   5.458   3.499   3.761
 5123SOL    HW216269   5.566   3.559   3.655
 5124SOL     OW16270   2.380   5.979   6.771
 5124SOL    HW116271   2.469   5.978   6.725
 5124SOL    HW216272   2.322   5.908   6.732
 5125SOL     OW16273   0.470   3.781   4.277
 5125SOL    HW116274   0.425   3.725   4.207
 5125SOL    HW216275   0.488   3.725   4.358
 5126SOL     OW16276   6.245   5.319   5.700
 5126SOL    HW116277   6.154   5.280   5.689
 5126SOL    HW216278   6.240   5.400   5.759
 5127SOL     OW16279   5.742   3.950   0.395
 5127SOL    HW116280   5.806   3.902   0.334
 5127SOL    HW216281   5.743   4.047   0.375
 5128SOL     OW16282   1.108   0.279   6.977
 5128SOL    HW116283   1.122   0.190   7.021
 5128SOL    HW216284   1.016   0.283   6.939
 5129SOL     OW16285   5.714   0.269   2.983
 5129SOL    HW116286   5.722   0.341   2.915
 5129SOL    HW216287   5.805   0.231   3.002
 5130SOL     OW16288   0.875   5.316   4.615
 5130SOL    HW116289   0.923   5.403   4.612
 5130SOL    HW216290   0.941   5.241   4.605
 5131SOL     OW16291   3.108   4.903   3.656
 5131SOL    HW116292   3.132   4.830   3.593
 5131SOL    HW216293   3.141   4.881   3.748
 5132SOL     OW16294   3.132   1.621   6.621
 5132SOL    HW116295   3.152   1.536   6.669
 5132SOL    HW216296   3.115   1.602   6.524
 5133SOL     OW16297   3.698   5.814   6.306
 5133SOL    HW116298   3.764   5.744   6.279
 5133SOL    HW216299   3.613   5.802   6.255
 5134SOL     OW16300   6.445   0.033   1.464
 5134SOL    HW116301   6.487   0.074   1.383
 5134SOL    HW216302   6.508   0.040   1.542
 5135SOL     OW16303   6.332   3.691   3.335
 5135SOL    HW116304   6.235   3.686   3.357
 5135SOL    HW216305   6.372   3.772   3.377
 5136SOL     OW16306   0.514   0.939   6.055
 5136SOL    HW116307   0.524   0.887   6.140
 5136SOL    HW216308   0.484   0.879   5.982
 5137SOL     OW16309   4.943   2.717   5.314
 5137SOL    HW116310   5.033   2.693   5.351
 5137SOL    HW216311   4.894   2.774   5.380
 5138SOL     OW16312   3.861   4.064   4.134
 5138SOL    HW116313   3.917   3.987   4.104
 5138SOL    HW216314   3.830   4.047   4.228
 5139SOL     OW16315   1.617   0.788   4.844
 5139SOL    HW116316   1.563   0.717   4.800
 5139SOL    HW216317   1.556   0.862   4.874
 5140SOL     OW16318   4.007   1.855   6.145
 5140SOL    HW116319   3.917   1.865   6.188
 5140SOL    HW216320   3.995   1.842   6.046
 5141SOL     OW16321   6.291   3.025   1.869
 5141SOL    HW116322   6.238   2.942   1.887
 5141SOL    HW216323   6.238   3.087   1.811
 5142SOL     OW16324   6.412   6.964   3.516
 5142SOL    HW116325   6.420   7.017   3.601
 5142SOL    HW216326   6.462   6.878   3.526
 5143SOL     OW16327   0.806   4.244   4.533
 5143SOL    HW116328   0.884   4.224   4.592
 5143SOL    HW216329   0.761   4.328   4.565
 5144SOL     OW16330   1.934   3.564   6.723
 5144SOL    HW116331   1.994   3.542   6.801
 5144SOL    HW216332   1.950   3.659   6.696
 5145SOL     OW16333   3.457   5.807   6.152
 5145SOL    HW116334   3.405   5.891   6.134
 5145SOL    HW216335   3.485   5.766   6.066
 5146SOL     OW16336   4.126   4.496   5.504
 5146SOL    HW116337   4.182   4.446   5.570
 5146SOL    HW216338   4.080   4.431   5.443
 5147SOL     OW16339   4.862   3.871   3.621
 5147SOL    HW116340   4.939   3.810   3.601
 5147SOL    HW216341   4.846   3.931   3.543
 5148SOL     OW16342   0.452   0.223   1.817
 5148SOL    HW116343   0.498   0.301   1.859
 5148SOL    HW216344   0.391   0.180   1.884
 5149SOL     OW16345   5.836   4.603   3.708
 5149SOL    HW116346   5.754   4.547   3.720
 5149SOL    HW216347   5.868   4.633   3.798
 5150SOL     OW16348   1.687   5.492   3.550
 5150SOL    HW116349   1.651   5.498   3.643
 5150SOL    HW216350   1.621   5.444   3.492
 5151SOL     OW16351   6.027   4.826   1.217
 5151SOL    HW116352   5.968   4.866   1.287
 5151SOL    HW216353   6.108   4.787   1.260
 5152SOL     OW16354   1.838   6.513   6.616
 5152SOL    HW116355   1.809   6.591   6.671
 5152SOL    HW216356   1.891   6.450   6.673
 5153SOL     OW16357   1.870   0.920   0.832
 5153SOL    HW116358   1.824   0.926   0.920
 5153SOL    HW216359   1.823   0.854   0.774
 5154SOL     OW16360   1.154   2.779   6.836
 5154SOL    HW116361   1.190   2.696   6.794
 5154SOL    HW216362   1.066   2.760   6.879
 5155SOL     OW16363   2.570   1.645   0.642
 5155SOL    HW116364   2.489   1.601   0.679
 5155SOL    HW216365   2.619   1.692   0.715
 5156SOL     OW16366   5.166   5.010   5.083
 5156SOL    HW116367   5.125   5.084   5.138
 5156SOL    HW216368   5.260   5.034   5.060
 5157SOL     OW16369   3.938   1.678   1.923
 5157SOL    HW116370   3.911   1.658   2.017
 5157SOL    HW216371   3.883   1.623   1.860
 5158SOL     OW16372   3.867   1.500   1.588
 5158SOL    HW116373   3.940   1.567   1.594
 5158SOL    HW216374   3.816   1.497   1.674
 5159SOL     OW16375   5.662   3.805   6.541
 5159SOL    HW116376   5.661   3.875   6.470
 5159SOL    HW216377   5.711   3.724   6.508
 5160SOL     OW16378   6.419   6.847   3.110
 5160SOL    HW116379   6.336   6.799   3.139
 5160SOL    HW216380   6.495   6.782   3.106
 5161SOL     OW16381   1.052   3.496   6.885
 5161SOL    HW116382   0.986   3.449   6.945
 5161SOL    HW216383   1.123   3.432   6.857
 5162SOL     OW16384   0.274   5.681   3.037
 5162SOL    HW116385   0.190   5.630   3.051
 5162SOL    HW216386   0.301   5.725   3.123
 5163SOL     OW16387   3.167   5.789   1.797
 5163SOL    HW116388   3.143   5.749   1.885
 5163SOL    HW216389   3.224   5.870   1.812
 5164SOL     OW16390   2.865   3.093   0.753
 5164SOL    HW116391   2.789   3.039   0.789
 5164SOL    HW216392   2.942   3.089   0.817
 5165SOL     OW16393   1.463   4.681   6.911
 5165SOL    HW116394   1.466   4.681   6.811
 5165SOL    HW216395   1.394   4.747   6.942
 5166SOL     OW16396   2.092   5.809   1.722
 5166SOL    HW116397   2.153   5.751   1.776
 5166SOL    HW216398   2.022   5.848   1.783
 5167SOL     OW16399   5.804   3.696   5.539
 5167SOL    HW116400   5.723   3.641   5.559
 5167SOL    HW216401   5.777   3.791   5.522
 5168SOL     OW16402   4.835   2.442   2.426
 5168SOL    HW116403   4.876   2.522   2.382
 5168SOL    HW216404   4.757   2.472   2.482
 5169SOL     OW16405   4.051   0.682   4.358
 5169SOL    HW116406   4.046   0.685   4.258
 5169SOL    HW216407   4.146   0.688   4.387
 5170SOL     OW16408   1.520   3.753   6.162
 5170SOL    HW116409   1.557   3.692   6.092
 5170SOL    HW216410   1.500   3.701   6.245
 5171SOL     OW16411   1.674   5.401   6.233
 5171SOL    HW116412   1.736   5.342   6.285
 5171SOL    HW216413   1.702   5.496   6.244
 5172SOL     OW16414   0.901   4.679   4.098
 5172SOL    HW116415   0.863   4.591   4.069
 5172SOL    HW216416   0.995   4.687   4.064
 5173SOL     OW16417   4.557   3.642   6.168
 5173SOL    HW116418   4.470   3.641   6.218
 5173SOL    HW216419   4.554   3.714   6.099
 5174SOL     OW16420   1.329   6.952   3.895
 5174SOL    HW116421   1.428   6.962   3.883
 5174SOL    HW216422   1.289   6.910   3.814
 5175SOL     OW16423   3.062   4.444   6.762
 5175SOL    HW116424   3.048   4.426   6.665
 5175SOL    HW216425   3.097   4.361   6.806
 5176SOL     OW16426   5.613   5.766   6.389
 5176SOL    HW116427   5.680   5.806   6.452
 5176SOL    HW216428   5.653   5.685   6.345
 5177SOL     OW16429   4.814   0.333   0.894
 5177SOL    HW116430   4.748   0.284   0.838
 5177SOL    HW216431   4.766   0.406   0.944
 5178SOL     OW16432   0.640   4.133   1.565
 5178SOL    HW116433   0.729   4.087   1.564
 5178SOL    HW216434   0.569   4.070   1.597
 5179SOL     OW16435   5.308   4.097   2.448
 5179SOL    HW116436   5.338   4.175   2.504
 5179SOL    HW216437   5.247   4.129   2.376
 5180SOL     OW16438   2.529   6.416   1.193
 5180SOL    HW116439   2.444   6.372   1.222
 5180SOL    HW216440   2.595   6.414   1.268
 5181SOL     OW16441   6.858   1.310   6.827
 5181SOL    HW116442   6.925   1.271   6.764
 5181SOL    HW216443   6.896   1.310   6.920
 5182SOL     OW16444   4.156   4.712   2.870
 5182SOL    HW116445   4.150   4.756   2.781
 5182SOL    HW216446   4.204   4.625   2.860
 5183SOL     OW16447   4.336   1.998   3.161
 5183SOL    HW116448   4.276   2.059   3.109
 5183SOL    HW216449   4.399   1.952   3.098
 5184SOL     OW16450   2.235   2.399   3.941
 5184SOL    HW116451   2.209   2.441   3.854
 5184SOL    HW216452   2.297   2.322   3.923
 5185SOL     OW16453   4.703   0.464   2.151
 5185SOL    HW116454   4.797   0.480   2.183
 5185SOL    HW216455   4.643   0.451   2.230
 5186SOL     OW16456   6.527   3.132   6.254
 5186SOL    HW116457   6.463   3.181   6.314
 5186SOL    HW216458   6.476   3.077   6.188
 5187SOL     OW16459   2.335   5.191   4.697
 5187SOL    HW116460   2.368   5.283   4.716
 5187SOL    HW216461   2.381   5.126   4.757
 5188SOL     OW16462   6.403   6.362   1.713
 5188SOL    HW116463   6.427   6.320   1.626
 5188SOL    HW216464   6.315   6.327   1.745
 5189SOL     OW16465   5.774   0.125   6.283
 5189SOL    HW116466   5.698   0.081   6.330
 5189SOL    HW216467   5.855   0.123   6.342
 5190SOL     OW16468   1.885   2.931   1.899
 5190SOL    HW116469   1.884   2.933   1.799
 5190SOL    HW216470   1.898   3.024   1.934
 5191SOL     OW16471   2.811   5.849   2.317
 5191SOL    HW116472   2.723   5.892   2.337
 5191SOL    HW216473   2.885   5.906   2.352
 5192SOL     OW16474   1.679   5.888   1.464
 5192SOL    HW116475   1.651   5.907   1.370
 5192SOL    HW216476   1.746   5.814   1.465
 5193SOL     OW16477   5.446   0.564   6.810
 5193SOL    HW116478   5.381   0.499   6.850
 5193SOL    HW216479   5.455   0.643   6.871
 5194SOL     OW16480   3.708   2.106   6.656
 5194SOL    HW116481   3.656   2.035   6.608
 5194SOL    HW216482   3.703   2.090   6.755
 5195SOL     OW16483   0.610   0.459   3.555
 5195SOL    HW116484   0.707   0.439   3.566
 5195SOL    HW216485   0.593   0.494   3.463
 5196SOL     OW16486   4.656   6.638   2.826
 5196SOL    HW116487   4.558   6.623   2.835
 5196SOL    HW216488   4.692   6.678   2.911
 5197SOL     OW16489   1.342   3.891   5.979
 5197SOL    HW116490   1.348   3.902   5.880
 5197SOL    HW216491   1.426   3.849   6.013
 5198SOL     OW16492   4.747   5.939   3.298
 5198SOL    HW116493   4.653   5.908   3.317
 5198SOL    HW216494   4.748   6.038   3.292
 5199SOL     OW16495   6.778   5.503   0.949
 5199SOL    HW116496   6.825   5.591   0.953
 5199SOL    HW216497   6.798   5.459   0.861
 5200SOL     OW16498   0.543   3.961   5.310
 5200SOL    HW116499   0.564   3.950   5.213
 5200SOL    HW216500   0.488   4.043   5.323
 5201SOL     OW16501   1.063   6.341   3.854
 5201SOL    HW116502   1.089   6.250   3.885
 5201SOL    HW216503   1.070   6.406   3.930
 5202SOL     OW16504   6.700   3.002   0.125
 5202SOL    HW116505   6.667   3.055   0.047
 5202SOL    HW216506   6.684   2.904   0.108
 5203SOL     OW16507   0.951   3.148   7.006
 5203SOL    HW116508   0.860   3.146   6.964
 5203SOL    HW216509   0.974   3.058   0.019
 5204SOL     OW16510   4.178   4.821   0.588
 5204SOL    HW116511   4.198   4.914   0.619
 5204SOL    HW216512   4.242   4.795   0.516
 5205SOL     OW16513   1.452   0.290   1.586
 5205SOL    HW116514   1.524   0.275   1.655
 5205SOL    HW216515   1.487   0.350   1.514
 5206SOL     OW16516   0.025   4.513   6.920
 5206SOL    HW116517   0.101   4.538   6.860
 5206SOL    HW216518   0.058   4.508   7.014
 5207SOL     OW16519   1.457   5.481   4.728
 5207SOL    HW116520   1.382   5.423   4.698
 5207SOL    HW216521   1.457   5.566   4.676
 5208SOL     OW16522   3.878   1.168   0.320
 5208SOL    HW116523   3.790   1.216   0.324
 5208SOL    HW216524   3.863   1.069   0.316
 5209SOL     OW16525   5.981   5.914   3.343
 5209SOL    HW116526   6.071   5.957   3.341
 5209SOL    HW216527   5.975   5.854   3.423
 5210SOL     OW16528   5.166   3.391   4.701
 5210SOL    HW116529   5.089   3.329   4.683
 5210SOL    HW216530   5.173   3.409   4.799
 5211SOL     OW16531   3.290   2.971   4.331
 5211SOL    HW116532   3.205   3.006   4.291
 5211SOL    HW216533   3.345   2.928   4.260
 5212SOL     OW16534   0.137   2.507   0.465
 5212SOL    HW116535   0.115   2.410   0.460
 5212SOL    HW216536   0.060   2.557   0.507
 5213SOL     OW16537   5.109   2.432   5.950
 5213SOL    HW116538   5.095   2.529   5.929
 5213SOL    HW216539   5.178   2.394   5.888
 5214SOL     OW16540   5.466   1.848   5.865
 5214SOL    HW116541   5.552   1.817   5.906
 5214SOL    HW216542   5.399   1.865   5.937
 5215SOL     OW16543   5.315   4.436   3.246
 5215SOL    HW116544   5.243   4.499   3.216
 5215SOL    HW216545   5.405   4.477   3.229
 5216SOL     OW16546   5.048   5.358   1.269
 5216SOL    HW116547   5.062   5.336   1.172
 5216SOL    HW216548   5.091   5.446   1.290
 5217SOL     OW16549   2.879   4.901   3.864
 5217SOL    HW116550   2.974   4.897   3.897
 5217SOL    HW216551   2.873   4.967   3.790
 5218SOL     OW16552   2.105   0.203   4.188
 5218SOL    HW116553   2.018   0.156   4.200
 5218SOL    HW216554   2.141   0.230   4.278
 5219SOL     OW16555   3.862   0.075   6.199
 5219SOL    HW116556   3.890   7.001   6.200
 5219SOL    HW216557   3.813   0.094   6.115
 5220SOL     OW16558   1.152   5.288   2.050
 5220SOL    HW116559   1.121   5.253   2.138
 5220SOL    HW216560   1.210   5.221   2.005
 5221SOL     OW16561   5.175   1.899   4.496
 5221SOL    HW116562   5.229   1.852   4.566
 5221SOL    HW216563   5.080   1.907   4.527
 5222SOL     OW16564   2.571   0.145   3.910
 5222SOL    HW116565   2.647   0.145   3.975
 5222SOL    HW216566   2.485   0.141   3.960
 5223SOL     OW16567   4.701   0.072   1.254
 5223SOL    HW116568   4.713   7.019   1.189
 5223SOL    HW216569   4.778   0.136   1.245
 5224SOL     OW16570   6.452   2.511   2.866
 5224SOL    HW116571   6.455   2.433   2.929
 5224SOL    HW216572   6.373   2.503   2.806
 5225SOL     OW16573   6.994   0.379   3.252
 5225SOL    HW116574   6.990   0.461   3.195
 5225SOL    HW216575   0.054   0.326   3.229
 5226SOL     OW16576   0.434   6.450   5.130
 5226SOL    HW116577   0.431   6.376   5.064
 5226SOL    HW216578   0.359   6.514   5.112
 5227SOL     OW16579   7.009   5.047   3.303
 5227SOL    HW116580   6.936   5.012   3.244
 5227SOL    HW216581   0.071   5.057   3.250
 5228SOL     OW16582   6.505   2.423   0.296
 5228SOL    HW116583   6.539   2.342   0.343
 5228SOL    HW216584   6.405   2.425   0.301
 5229SOL     OW16585   1.535   4.340   6.426
 5229SOL    HW116586   1.622   4.292   6.416
 5229SOL    HW216587   1.505   4.374   6.337
 5230SOL     OW16588   0.492   0.027   0.791
 5230SOL    HW116589   0.447   6.981   0.848
 5230SOL    HW216590   0.461   0.016   0.696
 5231SOL     OW16591   3.181   3.003   4.573
 5231SOL    HW116592   3.232   2.993   4.488
 5231SOL    HW216593   3.110   3.073   4.561
 5232SOL     OW16594   3.296   2.472   6.193
 5232SOL    HW116595   3.339   2.384   6.210
 5232SOL    HW216596   3.200   2.468   6.220
 5233SOL     OW16597   6.731   6.444   1.330
 5233SOL    HW116598   6.822   6.420   1.364
 5233SOL    HW216599   6.706   6.382   1.256
 5234SOL     OW16600   3.297   0.399   0.277
 5234SOL    HW116601   3.236   0.382   0.200
 5234SOL    HW216602   3.352   0.318   0.295
 5235SOL     OW16603   1.456   2.941   0.920
 5235SOL    HW116604   1.473   2.860   0.975
 5235SOL    HW216605   1.453   2.916   0.823
 5236SOL     OW16606   5.334   3.130   1.763
 5236SOL    HW116607   5.267   3.190   1.721
 5236SOL    HW216608   5.425   3.151   1.726
 5237SOL     OW16609   2.878   1.821   5.258
 5237SOL    HW116610   2.832   1.797   5.173
 5237SOL    HW216611   2.908   1.917   5.253
 5238SOL     OW16612   1.161   5.241   0.218
 5238SOL    HW116613   1.073   5.201   0.245
 5238SOL    HW216614   1.236   5.189   0.259
 5239SOL     OW16615   3.524   3.972   4.448
 5239SOL    HW116616   3.484   4.046   4.502
 5239SOL    HW216617   3.481   3.969   4.358
 5240SOL     OW16618   3.023   1.732   5.497
 5240SOL    HW116619   3.020   1.832   5.497
 5240SOL    HW216620   2.980   1.698   5.414
 5241SOL     OW16621   0.809   5.890   6.445
 5241SOL    HW116622   0.712   5.870   6.435
 5241SOL    HW216623   0.836   5.960   6.379
 5242SOL     OW16624   5.888   1.023   5.530
 5242SOL    HW116625   5.850   0.932   5.550
 5242SOL    HW216626   5.818   1.078   5.484
 5243SOL     OW16627   0.649   5.947   0.951
 5243SOL    HW116628   0.723   5.879   0.946
 5243SOL    HW216629   0.667   6.020   0.886
 5244SOL     OW16630   4.372   3.833   5.606
 5244SOL    HW116631   4.404   3.832   5.511
 5244SOL    HW216632   4.327   3.746   5.627
 5245SOL     OW16633   4.449   3.996   5.823
 5245SOL    HW116634   4.467   4.085   5.780
 5245SOL    HW216635   4.419   3.931   5.754
 5246SOL     OW16636   0.111   4.318   2.358
 5246SOL    HW116637   0.150   4.242   2.305
 5246SOL    HW216638   0.148   4.405   2.325
 5247SOL     OW16639   1.018   5.996   6.592
 5247SOL    HW116640   0.964   6.015   6.674
 5247SOL    HW216641   0.958   5.959   6.520
 5248SOL     OW16642   5.685   0.539   5.534
 5248SOL    HW116643   5.700   0.527   5.436
 5248SOL    HW216644   5.725   0.462   5.584
 5249SOL     OW16645   1.067   4.926   4.852
 5249SOL    HW116646   1.022   4.837   4.843
 5249SOL    HW216647   1.088   4.943   4.948
 5250SOL     OW16648   0.293   1.370   6.108
 5250SOL    HW116649   0.342   1.307   6.168
 5250SOL    HW216650   0.201   1.336   6.091
 5251SOL     OW16651   0.266   3.065   1.079
 5251SOL    HW116652   0.268   3.140   1.146
 5251SOL    HW216653   0.210   3.093   1.001
 5252SOL     OW16654   1.787   5.212   1.071
 5252SOL    HW116655   1.729   5.209   0.990
 5252SOL    HW216656   1.743   5.162   1.145
 5253SOL     OW16657   5.855   3.451   4.572
 5253SOL    HW116658   5.820   3.358   4.561
 5253SOL    HW216659   5.885   3.486   4.483
 5254SOL     OW16660   5.061   1.346   3.381
 5254SOL    HW116661   5.063   1.310   3.287
 5254SOL    HW216662   4.968   1.341   3.417
 5255SOL     OW16663   4.142   0.305   4.295
 5255SOL    HW116664   4.228   0.287   4.342
 5255SOL    HW216665   4.159   0.363   4.215
 5256SOL     OW16666   5.012   0.978   3.316
 5256SOL    HW116667   5.054   1.043   3.253
 5256SOL    HW216668   4.934   1.022   3.361
 5257SOL     OW16669   4.185   0.036   2.008
 5257SOL    HW116670   4.210   0.054   1.913
 5257SOL    HW216671   4.264   0.051   2.067
 5258SOL     OW16672   5.100   4.336   2.017
 5258SOL    HW116673   5.117   4.379   1.928
 5258SOL    HW216674   5.031   4.388   2.067
 5259SOL     OW16675   4.421   5.989   1.957
 5259SOL    HW116676   4.462   5.933   2.029
 5259SOL    HW216677   4.493   6.032   1.903
 5260SOL     OW16678   4.818   3.541   0.688
 5260SOL    HW116679   4.733   3.578   0.650
 5260SOL    HW216680   4.811   3.442   0.696
 5261SOL     OW16681   1.157   2.170   5.348
 5261SOL    HW116682   1.186   2.076   5.367
 5261SOL    HW216683   1.167   2.189   5.251
 5262SOL     OW16684   2.635   7.000   2.490
 5262SOL    HW116685   2.563   6.931   2.496
 5262SOL    HW216686   2.594   0.066   2.464
 5263SOL     OW16687   1.289   0.022   6.024
 5263SOL    HW116688   1.364   0.085   6.008
 5263SOL    HW216689   1.322   6.968   6.081
 5264SOL     OW16690   6.467   1.167   1.286
 5264SOL    HW116691   6.541   1.104   1.308
 5264SOL    HW216692   6.434   1.210   1.370
 5265SOL     OW16693   5.553   3.979   2.363
 5265SOL    HW116694   5.556   3.882   2.386
 5265SOL    HW216695   5.459   4.012   2.367
 5266SOL     OW16696   2.813   6.200   1.618
 5266SOL    HW116697   2.852   6.197   1.710
 5266SOL    HW216698   2.714   6.182   1.622
 5267SOL     OW16699   4.945   4.940   5.678
 5267SOL    HW116700   4.885   4.930   5.757
 5267SOL    HW216701   4.901   5.000   5.611
 5268SOL     OW16702   6.423   5.925   5.076
 5268SOL    HW116703   6.404   5.839   5.027
 5268SOL    HW216704   6.337   5.970   5.098
 5269SOL     OW16705   2.299   6.350   3.858
 5269SOL    HW116706   2.269   6.427   3.802
 5269SOL    HW216707   2.227   6.280   3.861
 5270SOL     OW16708   4.735   1.815   1.314
 5270SOL    HW116709   4.820   1.767   1.337
 5270SOL    HW216710   4.704   1.867   1.394
 5271SOL     OW16711   4.345   5.020   4.288
 5271SOL    HW116712   4.308   4.928   4.281
 5271SOL    HW216713   4.435   5.023   4.244
 5272SOL     OW16714   0.625   6.368   4.049
 5272SOL    HW116715   0.692   6.305   4.010
 5272SOL    HW216716   0.671   6.435   4.107
 5273SOL     OW16717   1.294   2.954   3.742
 5273SOL    HW116718   1.383   2.927   3.778
 5273SOL    HW216719   1.230   2.878   3.749
 5274SOL     OW16720   6.186   5.128   3.067
 5274SOL    HW116721   6.089   5.112   3.046
 5274SOL    HW216722   6.220   5.201   3.009
 5275SOL     OW16723   3.145   0.470   6.319
 5275SOL    HW116724   3.223   0.424   6.277
 5275SOL    HW216725   3.155   0.569   6.310
 5276SOL     OW16726   0.091   6.396   0.197
 5276SOL    HW116727   0.166   6.331   0.188
 5276SOL    HW216728   0.110   6.477   0.143
 5277SOL     OW16729   2.146   1.729   3.010
 5277SOL    HW116730   2.083   1.690   3.077
 5277SOL    HW216731   2.210   1.659   2.979
 5278SOL     OW16732   5.632   6.759   5.376
 5278SOL    HW116733   5.534   6.745   5.359
 5278SOL    HW216734   5.658   6.711   5.460
 5279SOL     OW16735   1.126   5.703   6.579
 5279SOL    HW116736   1.051   5.764   6.604
 5279SOL    HW216737   1.210   5.733   6.624
 5280SOL     OW16738   3.826   5.781   5.203
 5280SOL    HW116739   3.756   5.750   5.266
 5280SOL    HW216740   3.866   5.866   5.237
 5281SOL     OW16741   0.827   1.157   4.166
 5281SOL    HW116742   0.826   1.131   4.262
 5281SOL    HW216743   0.922   1.167   4.135
 5282SOL     OW16744   1.760   0.331   2.602
 5282SOL    HW116745   1.776   0.236   2.630
 5282SOL    HW216746   1.762   0.390   2.683
 5283SOL     OW16747   1.552   0.908   3.635
 5283SOL    HW116748   1.476   0.972   3.628
 5283SOL    HW216749   1.628   0.941   3.579
 5284SOL     OW16750   4.677   2.275   2.709
 5284SOL    HW116751   4.703   2.301   2.802
 5284SOL    HW216752   4.757   2.241   2.660
 5285SOL     OW16753   1.130   4.048   4.236
 5285SOL    HW116754   1.185   4.122   4.272
 5285SOL    HW216755   1.033   4.064   4.258
 5286SOL     OW16756   6.273   2.993   1.113
 5286SOL    HW116757   6.312   2.939   1.038
 5286SOL    HW216758   6.186   3.034   1.083
 5287SOL     OW16759   3.020   5.102   1.919
 5287SOL    HW116760   3.012   5.065   1.826
 5287SOL    HW216761   3.050   5.030   1.981
 5288SOL     OW16762   4.776   0.506   2.957
 5288SOL    HW116763   4.829   0.563   2.894
 5288SOL    HW216764   4.725   0.564   3.020
 5289SOL     OW16765   2.409   5.338   6.615
 5289SOL    HW116766   2.435   5.430   6.644
 5289SOL    HW216767   2.408   5.333   6.516
 5290SOL     OW16768   1.399   3.631   5.497
 5290SOL    HW116769   1.368   3.580   5.417
 5290SOL    HW216770   1.465   3.700   5.469
 5291SOL     OW16771   3.013   4.344   6.190
 5291SOL    HW116772   3.099   4.356   6.240
 5291SOL    HW216773   3.024   4.376   6.096
 5292SOL     OW16774   5.706   4.705   6.298
 5292SOL    HW116775   5.785   4.765   6.285
 5292SOL    HW216776   5.698   4.679   6.394
 5293SOL     OW16777   2.141   6.272   4.998
 5293SOL    HW116778   2.155   6.222   4.913
 5293SOL    HW216779   2.227   6.318   5.024
 5294SOL     OW16780   4.721   1.922   5.384
 5294SOL    HW116781   4.627   1.950   5.365
 5294SOL    HW216782   4.754   1.864   5.309
 5295SOL     OW16783   3.672   0.582   3.164
 5295SOL    HW116784   3.766   0.553   3.147
 5295SOL    HW216785   3.658   0.673   3.125
 5296SOL     OW16786   3.663   3.622   0.308
 5296SOL    HW116787   3.583   3.591   0.359
 5296SOL    HW216788   3.745   3.601   0.360
 5297SOL     OW16789   1.768   3.425   0.286
 5297SOL    HW116790   1.807   3.365   0.356
 5297SOL    HW216791   1.821   3.417   0.202
 5298SOL     OW16792   1.715   6.144   6.358
 5298SOL    HW116793   1.715   6.095   6.270
 5298SOL    HW216794   1.808   6.168   6.383
 5299SOL     OW16795   2.806   2.787   0.834
 5299SOL    HW116796   2.900   2.752   0.831
 5299SOL    HW216797   2.744   2.714   0.860
 5300SOL     OW16798   0.938   5.298   1.066
 5300SOL    HW116799   0.965   5.335   1.155
 5300SOL    HW216800   0.917   5.374   1.004
 5301SOL     OW16801   4.059   1.088   6.371
 5301SOL    HW116802   4.014   1.175   6.351
 5301SOL    HW216803   3.991   1.015   6.375
 5302SOL     OW16804   5.730   6.071   3.282
 5302SOL    HW116805   5.809   6.018   3.313
 5302SOL    HW216806   5.646   6.025   3.310
 5303SOL     OW16807   0.181   5.076   4.873
 5303SOL    HW116808   0.254   5.040   4.930
 5303SOL    HW216809   0.180   5.028   4.785
 5304SOL     OW16810   5.848   0.825   0.462
 5304SOL    HW116811   5.920   0.758   0.443
 5304SOL    HW216812   5.889   0.913   0.487
 5305SOL     OW16813   0.878   5.637   2.637
 5305SOL    HW116814   0.847   5.610   2.546
 5305SOL    HW216815   0.856   5.565   2.703
 5306SOL     OW16816   0.892   4.705   5.516
 5306SOL    HW116817   0.878   4.615   5.557
 5306SOL    HW216818   0.984   4.738   5.536
 5307SOL     OW16819   3.748   1.935   0.308
 5307SOL    HW116820   3.840   1.899   0.326
 5307SOL    HW216821   3.680   1.870   0.343
 5308SOL     OW16822   1.607   4.588   2.179
 5308SOL    HW116823   1.508   4.590   2.161
 5308SOL    HW216824   1.627   4.642   2.261
 5309SOL     OW16825   3.819   4.929   2.234
 5309SOL    HW116826   3.762   4.869   2.178
 5309SOL    HW216827   3.915   4.919   2.206
 5310SOL     OW16828   6.154   3.612   1.772
 5310SOL    HW116829   6.222   3.684   1.765
 5310SOL    HW216830   6.065   3.652   1.793
 5311SOL     OW16831   5.630   6.788   0.079
 5311SOL    HW116832   5.595   6.745   7.017
 5311SOL    HW216833   5.667   6.878   0.056
 5312SOL     OW16834   0.854   5.428   1.700
 5312SOL    HW116835   0.791   5.505   1.712
 5312SOL    HW216836   0.814   5.346   1.742
 5313SOL     OW16837   1.638   3.577   6.026
 5313SOL    HW116838   1.633   3.482   6.056
 5313SOL    HW216839   1.647   3.581   5.926
 5314SOL     OW16840   3.879   6.643   0.455
 5314SOL    HW116841   3.789   6.666   0.491
 5314SOL    HW216842   3.878   6.549   0.421
 5315SOL     OW16843   5.266   3.538   2.282
 5315SOL    HW116844   5.330   3.550   2.358
 5315SOL    HW216845   5.289   3.601   2.208
 5316SOL     OW16846   1.186   3.153   5.137
 5316SOL    HW116847   1.129   3.233   5.118
 5316SOL    HW216848   1.144   3.099   5.209
 5317SOL     OW16849   6.004   1.808   5.509
 5317SOL    HW116850   6.025   1.712   5.526
 5317SOL    HW216851   6.058   1.866   5.570
 5318SOL     OW16852   0.635   2.721   0.484
 5318SOL    HW116853   0.690   2.651   0.528
 5318SOL    HW216854   0.671   2.812   0.508
 5319SOL     OW16855   4.662   6.032   1.118
 5319SOL    HW116856   4.658   6.102   1.047
 5319SOL    HW216857   4.734   6.056   1.183
 5320SOL     OW16858   4.256   5.062   0.766
 5320SOL    HW116859   4.193   5.112   0.826
 5320SOL    HW216860   4.274   5.116   0.684
 5321SOL     OW16861   1.986   4.405   5.340
 5321SOL    HW116862   2.004   4.375   5.433
 5321SOL    HW216863   1.980   4.326   5.280
 5322SOL     OW16864   5.376   6.057   0.461
 5322SOL    HW116865   5.449   6.055   0.392
 5322SOL    HW216866   5.344   6.151   0.472
 5323SOL     OW16867   3.309   1.714   6.357
 5323SOL    HW116868   3.335   1.810   6.347
 5323SOL    HW216869   3.247   1.688   6.283
 5324SOL     OW16870   3.356   1.917   0.947
 5324SOL    HW116871   3.276   1.951   0.899
 5324SOL    HW216872   3.439   1.946   0.898
 5325SOL     OW16873   4.327   0.647   4.379
 5325SOL    HW116874   4.381   0.584   4.434
 5325SOL    HW216875   4.388   0.703   4.323
 5326SOL     OW16876   6.704   5.519   3.377
 5326SOL    HW116877   6.752   5.563   3.453
 5326SOL    HW216878   6.736   5.425   3.368
 5327SOL     OW16879   6.412   3.253   5.176
 5327SOL    HW116880   6.328   3.205   5.148
 5327SOL    HW216881   6.487   3.227   5.115
 5328SOL     OW16882   3.388   3.913   6.267
 5328SOL    HW116883   3.402   3.913   6.366
 5328SOL    HW216884   3.394   3.820   6.232
 5329SOL     OW16885   0.496   5.239   6.438
 5329SOL    HW116886   0.563   5.199   6.501
 5329SOL    HW216887   0.542   5.262   6.352
 5330SOL     OW16888   4.628   3.744   0.034
 5330SOL    HW116889   4.693   3.746   6.980
 5330SOL    HW216890   4.677   3.753   0.121
 5331SOL     OW16891   6.121   1.466   6.052
 5331SOL    HW116892   6.211   1.500   6.028
 5331SOL    HW216893   6.057   1.543   6.057
 5332SOL     OW16894   1.002   3.401   1.747
 5332SOL    HW116895   1.070   3.474   1.751
 5332SOL    HW216896   0.917   3.431   1.791
 5333SOL     OW16897   0.956   0.832   3.086
 5333SOL    HW116898   1.035   0.774   3.068
 5333SOL    HW216899   0.983   0.904   3.150
 5334SOL     OW16900   3.485   0.347   4.472
 5334SOL    HW116901   3.417   0.318   4.405
 5334SOL    HW216902   3.439   0.397   4.546
 5335SOL     OW16903   0.092   6.132   0.582
 5335SOL    HW116904   0.048   6.210   0.539
 5335SOL    HW216905   0.027   6.056   0.588
 5336SOL     OW16906   2.092   3.142   2.657
 5336SOL    HW116907   2.139   3.114   2.740
 5336SOL    HW216908   1.993   3.130   2.669
 5337SOL     OW16909   5.005   4.806   0.650
 5337SOL    HW116910   5.051   4.784   0.564
 5337SOL    HW216911   4.986   4.722   0.700
 5338SOL     OW16912   6.043   1.435   0.662
 5338SOL    HW116913   6.049   1.534   0.664
 5338SOL    HW216914   6.020   1.404   0.570
 5339SOL     OW16915   6.760   1.761   4.114
 5339SOL    HW116916   6.820   1.717   4.180
 5339SOL    HW216917   6.748   1.702   4.034
 5340SOL     OW16918   4.935   4.631   0.932
 5340SOL    HW116919   5.015   4.669   0.980
 5340SOL    HW216920   4.946   4.533   0.922
 5341SOL     OW16921   3.760   2.774   6.549
 5341SOL    HW116922   3.719   2.742   6.464
 5341SOL    HW216923   3.697   2.835   6.595
 5342SOL     OW16924   3.727   0.082   4.461
 5342SOL    HW116925   3.643   0.136   4.460
 5342SOL    HW216926   3.774   0.091   4.373
 5343SOL     OW16927   3.241   3.757   4.592
 5343SOL    HW116928   3.245   3.662   4.624
 5343SOL    HW216929   3.160   3.802   4.630
 5344SOL     OW16930   1.841   2.255   2.277
 5344SOL    HW116931   1.920   2.268   2.336
 5344SOL    HW216932   1.857   2.300   2.189
 5345SOL     OW16933   4.074   5.772   1.433
 5345SOL    HW116934   4.025   5.859   1.436
 5345SOL    HW216935   4.052   5.718   1.515
 5346SOL     OW16936   3.313   5.989   4.130
 5346SOL    HW116937   3.302   6.082   4.164
 5346SOL    HW216938   3.225   5.954   4.098
 5347SOL     OW16939   0.732   2.425   2.166
 5347SOL    HW116940   0.807   2.361   2.183
 5347SOL    HW216941   0.647   2.387   2.201
 5348SOL     OW16942   0.028   1.454   1.078
 5348SOL    HW116943   0.122   1.428   1.098
 5348SOL    HW216944   7.009   1.386   1.016
 5349SOL     OW16945   1.076   2.414   0.110
 5349SOL    HW116946   1.148   2.441   0.047
 5349SOL    HW216947   1.026   2.335   0.072
 5350SOL     OW16948   1.416   0.198   5.858
 5350SOL    HW116949   1.476   0.119   5.846
 5350SOL    HW216950   1.322   0.171   5.838
 5351SOL     OW16951   5.631   5.462   1.698
 5351SOL    HW116952   5.592   5.551   1.677
 5351SOL    HW216953   5.731   5.471   1.706
 5352SOL     OW16954   1.884   5.589   4.490
 5352SOL    HW116955   1.814   5.552   4.552
 5352SOL    HW216956   1.842   5.606   4.401
 5353SOL     OW16957   3.475   6.002   4.522
 5353SOL    HW116958   3.460   6.092   4.564
 5353SOL    HW216959   3.548   5.955   4.572
 5354SOL     OW16960   1.818   5.190   1.812
 5354SOL    HW116961   1.812   5.115   1.746
 5354SOL    HW216962   1.742   5.253   1.798
 5355SOL     OW16963   4.763   2.323   4.072
 5355SOL    HW116964   4.684   2.381   4.050
 5355SOL    HW216965   4.778   2.323   4.171
 5356SOL     OW16966   6.012   4.137   1.357
 5356SOL    HW116967   6.110   4.156   1.365
 5356SOL    HW216968   5.998   4.061   1.294
 5357SOL     OW16969   3.491   6.754   0.386
 5357SOL    HW116970   3.556   6.695   0.339
 5357SOL    HW216971   3.406   6.757   0.333
 5358SOL     OW16972   4.335   1.308   0.887
 5358SOL    HW116973   4.420   1.350   0.855
 5358SOL    HW216974   4.330   1.214   0.853
 5359SOL     OW16975   1.858   1.930   0.026
 5359SOL    HW116976   1.882   1.838   0.057
 5359SOL    HW216977   1.860   1.992   0.104
 5360SOL     OW16978   4.384   6.457   5.339
 5360SOL    HW116979   4.456   6.427   5.276
 5360SOL    HW216980   4.314   6.506   5.288
 5361SOL     OW16981   2.093   6.791   4.882
 5361SOL    HW116982   2.178   6.840   4.898
 5361SOL    HW216983   2.067   6.800   4.786
 5362SOL     OW16984   5.198   4.689   3.464
 5362SOL    HW116985   5.197   4.671   3.365
 5362SOL    HW216986   5.257   4.768   3.482
 5363SOL     OW16987   0.704   6.974   6.260
 5363SOL    HW116988   0.630   0.007   6.221
 5363SOL    HW216989   0.701   6.980   6.360
 5364SOL     OW16990   6.885   5.768   1.519
 5364SOL    HW116991   6.951   5.756   1.593
 5364SOL    HW216992   6.798   5.801   1.556
 5365SOL     OW16993   3.585   3.313   6.843
 5365SOL    HW116994   3.591   3.220   6.879
 5365SOL    HW216995   3.512   3.362   6.891
 5366SOL     OW16996   5.008   5.727   1.569
 5366SOL    HW116997   4.962   5.663   1.630
 5366SOL    HW216998   4.942   5.789   1.528
 5367SOL     OW16999   7.014   5.787   0.305
 5367SOL    HW117000   0.081   5.740   0.305
 5367SOL    HW217001   6.994   5.822   0.396
 5368SOL     OW17002   4.968   0.710   2.818
 5368SOL    HW117003   4.989   0.778   2.747
 5368SOL    HW217004   5.007   0.740   2.905
 5369SOL     OW17005   3.579   6.793   2.585
 5369SOL    HW117006   3.526   6.721   2.540
 5369SOL    HW217007   3.617   6.758   2.670
 5370SOL     OW17008   4.547   2.779   1.148
 5370SOL    HW117009   4.565   2.802   1.244
 5370SOL    HW217010   4.617   2.820   1.090
 5371SOL     OW17011   1.882   3.589   4.454
 5371SOL    HW117012   1.897   3.505   4.402
 5371SOL    HW217013   1.961   3.605   4.514
 5372SOL     OW17014   2.328   5.932   3.931
 5372SOL    HW117015   2.385   5.984   3.867
 5372SOL    HW217016   2.298   5.848   3.887
 5373SOL     OW17017   3.094   5.398   4.376
 5373SOL    HW117018   3.176   5.366   4.327
 5373SOL    HW217019   3.120   5.425   4.469
 5374SOL     OW17020   0.941   4.197   0.190
 5374SOL    HW117021   1.013   4.258   0.224
 5374SOL    HW217022   0.972   4.150   0.108
 5375SOL     OW17023   1.744   4.329   4.540
 5375SOL    HW117024   1.704   4.421   4.545
 5375SOL    HW217025   1.840   4.333   4.567
 5376SOL     OW17026   1.881   3.092   0.928
 5376SOL    HW117027   1.857   3.187   0.909
 5376SOL    HW217028   1.979   3.085   0.945
 5377SOL     OW17029   6.928   7.011   1.548
 5377SOL    HW117030   6.992   0.037   1.607
 5377SOL    HW217031   6.946   0.013   1.452
 5378SOL     OW17032   0.060   0.567   2.285
 5378SOL    HW117033   6.984   0.567   2.262
 5378SOL    HW217034   0.107   0.496   2.232
 5379SOL     OW17035   1.110   5.492   5.218
 5379SOL    HW117036   1.196   5.484   5.269
 5379SOL    HW217037   1.110   5.577   5.166
 5380SOL     OW17038   1.719   1.031   3.485
 5380SOL    HW117039   1.818   1.040   3.490
 5380SOL    HW217040   1.681   1.109   3.435
 5381SOL     OW17041   6.421   4.355   0.775
 5381SOL    HW117042   6.355   4.391   0.709
 5381SOL    HW217043   6.421   4.255   0.770
 5382SOL     OW17044   3.512   0.704   2.189
 5382SOL    HW117045   3.591   0.726   2.246
 5382SOL    HW217046   3.443   0.775   2.198
 5383SOL     OW17047   2.545   2.409   5.510
 5383SOL    HW117048   2.499   2.320   5.513
 5383SOL    HW217049   2.533   2.449   5.419
 5384SOL     OW17050   6.445   0.404   4.261
 5384SOL    HW117051   6.475   0.310   4.276
 5384SOL    HW217052   6.395   0.409   4.174
 5385SOL     OW17053   2.964   3.387   3.772
 5385SOL    HW117054   2.963   3.413   3.868
 5385SOL    HW217055   2.924   3.295   3.762
 5386SOL     OW17056   4.401   0.363   4.373
 5386SOL    HW117057   4.482   0.402   4.330
 5386SOL    HW217058   4.413   0.363   4.472
 5387SOL     OW17059   2.891   5.973   3.928
 5387SOL    HW117060   2.800   5.976   3.969
 5387SOL    HW217061   2.957   5.946   3.998
 5388SOL     OW17062   6.020   0.545   3.485
 5388SOL    HW117063   5.947   0.519   3.548
 5388SOL    HW217064   6.075   0.465   3.462
 5389SOL     OW17065   5.289   0.492   1.400
 5389SOL    HW117066   5.270   0.496   1.302
 5389SOL    HW217067   5.233   0.559   1.448
 5390SOL     OW17068   4.600   4.318   3.436
 5390SOL    HW117069   4.627   4.389   3.371
 5390SOL    HW217070   4.541   4.357   3.506
 5391SOL     OW17071   1.778   2.603   1.285
 5391SOL    HW117072   1.850   2.559   1.339
 5391SOL    HW217073   1.695   2.548   1.290
 5392SOL     OW17074   6.191   3.432   0.752
 5392SOL    HW117075   6.167   3.528   0.761
 5392SOL    HW217076   6.217   3.395   0.842
 5393SOL     OW17077   5.349   0.091   6.085
 5393SOL    HW117078   5.356   0.018   6.153
 5393SOL    HW217079   5.327   0.177   6.131
 5394SOL     OW17080   6.489   4.235   6.791
 5394SOL    HW117081   6.482   4.170   6.867
 5394SOL    HW217082   6.578   4.225   6.747
 5395SOL     OW17083   4.682   1.356   1.817
 5395SOL    HW117084   4.607   1.335   1.753
 5395SOL    HW217085   4.767   1.369   1.765
 5396SOL     OW17086   4.970   4.261   2.869
 5396SOL    HW117087   4.889   4.203   2.881
 5396SOL    HW217088   5.040   4.210   2.819
 5397SOL     OW17089   6.636   3.094   1.818
 5397SOL    HW117090   6.605   3.097   1.723
 5397SOL    HW217091   6.565   3.053   1.875
 5398SOL     OW17092   3.475   1.688   2.623
 5398SOL    HW117093   3.549   1.623   2.603
 5398SOL    HW217094   3.453   1.740   2.541
 5399SOL     OW17095   2.379   5.909   0.042
 5399SOL    HW117096   2.331   5.928   0.128
 5399SOL    HW217097   2.417   5.994   0.006
 5400SOL     OW17098   2.823   3.863   0.911
 5400SOL    HW117099   2.917   3.870   0.946
 5400SOL    HW217100   2.784   3.775   0.937
 5401SOL     OW17101   5.631   3.677   1.748
 5401SOL    HW117102   5.578   3.753   1.786
 5401SOL    HW217103   5.609   3.667   1.650
 5402SOL     OW17104   2.374   4.735   1.542
 5402SOL    HW117105   2.386   4.780   1.630
 5402SOL    HW217106   2.425   4.649   1.541
 5403SOL     OW17107   6.191   2.763   6.089
 5403SOL    HW117108   6.153   2.760   5.997
 5403SOL    HW217109   6.215   2.671   6.119
 5404SOL     OW17110   0.754   1.507   2.763
 5404SOL    HW117111   0.812   1.470   2.691
 5404SOL    HW217112   0.757   1.607   2.760
 5405SOL     OW17113   6.054   5.662   6.956
 5405SOL    HW117114   5.979   5.691   6.897
 5405SOL    HW217115   6.023   5.656   0.029
 5406SOL     OW17116   2.342   0.758   0.050
 5406SOL    HW117117   2.269   0.698   0.083
 5406SOL    HW217118   2.431   0.723   0.082
 5407SOL     OW17119   4.563   2.794   0.722
 5407SOL    HW117120   4.656   2.758   0.732
 5407SOL    HW217121   4.525   2.815   0.812
 5408SOL     OW17122   3.285   1.384   6.728
 5408SOL    HW117123   3.223   1.306   6.742
 5408SOL    HW217124   3.286   1.441   6.809
 5409SOL     OW17125   5.825   0.840   3.740
 5409SOL    HW117126   5.832   0.740   3.742
 5409SOL    HW217127   5.775   0.868   3.658
 5410SOL     OW17128   2.927   2.503   1.190
 5410SOL    HW117129   2.833   2.497   1.154
 5410SOL    HW217130   2.987   2.443   1.137
 5411SOL     OW17131   6.570   5.584   5.430
 5411SOL    HW117132   6.640   5.512   5.433
 5411SOL    HW217133   6.491   5.551   5.377
 5412SOL     OW17134   4.758   1.417   0.087
 5412SOL    HW117135   4.670   1.452   0.118
 5412SOL    HW217136   4.782   1.335   0.139
 5413SOL     OW17137   2.396   1.834   1.290
 5413SOL    HW117138   2.447   1.874   1.214
 5413SOL    HW217139   2.459   1.810   1.363
 5414SOL     OW17140   4.781   2.090   5.047
 5414SOL    HW117141   4.840   2.103   4.967
 5414SOL    HW217142   4.693   2.133   5.031
 5415SOL     OW17143   1.607   5.867   0.881
 5415SOL    HW117144   1.514   5.831   0.876
 5415SOL    HW217145   1.671   5.791   0.892
 5416SOL     OW17146   4.513   5.242   5.768
 5416SOL    HW117147   4.610   5.245   5.789
 5416SOL    HW217148   4.461   5.284   5.843
 5417SOL     OW17149   4.050   6.573   5.292
 5417SOL    HW117150   4.099   6.598   5.376
 5417SOL    HW217151   3.970   6.631   5.282
 5418SOL     OW17152   3.575   6.498   3.658
 5418SOL    HW117153   3.668   6.534   3.646
 5418SOL    HW217154   3.513   6.573   3.679
 5419SOL     OW17155   3.187   5.025   0.364
 5419SOL    HW117156   3.108   4.968   0.386
 5419SOL    HW217157   3.236   5.048   0.448
 5420SOL     OW17158   1.302   2.662   2.278
 5420SOL    HW117159   1.336   2.591   2.215
 5420SOL    HW217160   1.378   2.696   2.333
 5421SOL     OW17161   2.429   2.631   2.665
 5421SOL    HW117162   2.426   2.531   2.652
 5421SOL    HW217163   2.408   2.677   2.579
 5422SOL     OW17164   0.220   5.423   0.218
 5422SOL    HW117165   0.261   5.333   0.205
 5422SOL    HW217166   0.153   5.440   0.145
 5423SOL     OW17167   6.347   2.884   6.943
 5423SOL    HW117168   6.446   2.897   6.937
 5423SOL    HW217169   6.327   2.805   7.001
 5424SOL     OW17170   5.427   3.307   3.971
 5424SOL    HW117171   5.465   3.241   4.037
 5424SOL    HW217172   5.399   3.390   4.019
 5425SOL     OW17173   3.903   0.977   4.070
 5425SOL    HW117174   3.877   1.043   4.000
 5425SOL    HW217175   3.846   0.989   4.151
 5426SOL     OW17176   6.666   5.432   4.114
 5426SOL    HW117177   6.636   5.425   4.210
 5426SOL    HW217178   6.594   5.477   4.061
 5427SOL     OW17179   4.546   4.807   6.748
 5427SOL    HW117180   4.502   4.736   6.693
 5427SOL    HW217181   4.479   4.879   6.769
 5428SOL     OW17182   6.720   6.755   1.348
 5428SOL    HW117183   6.723   6.761   1.447
 5428SOL    HW217184   6.748   6.663   1.319
 5429SOL     OW17185   1.932   2.115   6.886
 5429SOL    HW117186   1.894   2.107   6.794
 5429SOL    HW217187   1.909   2.034   6.939
 5430SOL     OW17188   0.261   3.079   6.082
 5430SOL    HW117189   0.221   3.157   6.130
 5430SOL    HW217190   0.333   3.111   6.021
 5431SOL     OW17191   3.141   6.049   0.272
 5431SOL    HW117192   3.148   6.044   0.172
 5431SOL    HW217193   3.045   6.046   0.299
 5432SOL     OW17194   5.184   6.681   6.808
 5432SOL    HW117195   5.228   6.723   6.887
 5432SOL    HW217196   5.250   6.625   6.758
 5433SOL     OW17197   0.420   1.790   4.482
 5433SOL    HW117198   0.347   1.739   4.529
 5433SOL    HW217199   0.391   1.813   4.390
 5434SOL     OW17200   4.143   0.958   5.485
 5434SOL    HW117201   4.060   1.013   5.476
 5434SOL    HW217202   4.118   0.861   5.491
 5435SOL     OW17203   5.166   0.691   1.555
 5435SOL    HW117204   5.098   0.763   1.566
 5435SOL    HW217205   5.246   0.711   1.611
 5436SOL     OW17206   5.061   4.132   4.127
 5436SOL    HW117207   5.040   4.207   4.065
 5436SOL    HW217208   5.043   4.045   4.082
 5437SOL     OW17209   3.230   4.476   6.369
 5437SOL    HW117210   3.280   4.435   6.445
 5437SOL    HW217211   3.221   4.574   6.384
 5438SOL     OW17212   6.612   3.560   2.607
 5438SOL    HW117213   6.656   3.475   2.636
 5438SOL    HW217214   6.514   3.553   2.621
 5439SOL     OW17215   0.816   2.294   0.386
 5439SOL    HW117216   0.784   2.384   0.355
 5439SOL    HW217217   0.915   2.287   0.370
 5440SOL     OW17218   0.787   0.957   1.692
 5440SOL    HW117219   0.779   1.054   1.716
 5440SOL    HW217220   0.882   0.928   1.704
 5441SOL     OW17221   4.988   2.592   2.989
 5441SOL    HW117222   4.977   2.686   2.956
 5441SOL    HW217223   5.083   2.564   2.978
 5442SOL     OW17224   3.042   5.906   3.725
 5442SOL    HW117225   2.984   5.925   3.805
 5442SOL    HW217226   3.138   5.907   3.753
 5443SOL     OW17227   2.814   0.941   4.062
 5443SOL    HW117228   2.907   0.915   4.086
 5443SOL    HW217229   2.815   0.995   3.978
 5444SOL     OW17230   1.877   0.579   4.735
 5444SOL    HW117231   1.876   0.657   4.673
 5444SOL    HW217232   1.924   0.603   4.819
 5445SOL     OW17233   5.815   4.030   3.550
 5445SOL    HW117234   5.812   3.944   3.498
 5445SOL    HW217235   5.728   4.043   3.597
 5446SOL     OW17236   6.883   4.970   5.048
 5446SOL    HW117237   6.786   4.975   5.021
 5446SOL    HW217238   6.920   5.062   5.055
 5447SOL     OW17239   2.482   1.560   6.657
 5447SOL    HW117240   2.383   1.550   6.645
 5447SOL    HW217241   2.530   1.502   6.592
 5448SOL     OW17242   4.574   2.803   5.219
 5448SOL    HW117243   4.653   2.800   5.280
 5448SOL    HW217244   4.490   2.793   5.272
 5449SOL     OW17245   1.806   2.918   6.347
 5449SOL    HW117246   1.786   2.909   6.444
 5449SOL    HW217247   1.725   2.898   6.293
 5450SOL     OW17248   1.478   0.072   1.929
 5450SOL    HW117249   1.464   7.012   1.874
 5450SOL    HW217250   1.403   0.136   1.915
 5451SOL     OW17251   1.491   6.448   3.293
 5451SOL    HW117252   1.471   6.514   3.366
 5451SOL    HW217253   1.590   6.443   3.279
 5452SOL     OW17254   2.285   4.504   6.881
 5452SOL    HW117255   2.249   4.475   6.793
 5452SOL    HW217256   2.289   4.604   6.885
 5453SOL     OW17257   5.927   4.712   1.561
 5453SOL    HW117258   5.901   4.616   1.567
 5453SOL    HW217259   6.014   4.726   1.607
 5454SOL     OW17260   6.941   4.260   6.864
 5454SOL    HW117261   6.960   4.349   6.907
 5454SOL    HW217262   6.962   4.265   6.767
 5455SOL     OW17263   6.221   3.429   0.474
 5455SOL    HW117264   6.238   3.463   0.566
 5455SOL    HW217265   6.125   3.444   0.450
 5456SOL     OW17266   3.724   0.271   0.010
 5456SOL    HW117267   3.798   0.256   0.076
 5456SOL    HW217268   3.761   0.260   6.939
 5457SOL     OW17269   5.925   2.294   0.407
 5457SOL    HW117270   5.971   2.357   0.469
 5457SOL    HW217271   5.837   2.333   0.379
 5458SOL     OW17272   0.658   4.849   7.010
 5458SOL    HW117273   0.710   4.821   0.068
 5458SOL    HW217274   0.694   4.803   6.928
 5459SOL     OW17275   2.603   4.394   6.745
 5459SOL    HW117276   2.614   4.492   6.762
 5459SOL    HW217277   2.566   4.380   6.653
 5460SOL     OW17278   2.946   6.768   2.653
 5460SOL    HW117279   2.932   6.795   2.558
 5460SOL    HW217280   3.022   6.703   2.659
 5461SOL     OW17281   5.705   6.945   5.003
 5461SOL    HW117282   5.619   6.969   5.048
 5461SOL    HW217283   5.773   6.922   5.072
 5462SOL     OW17284   1.200   0.474   6.476
 5462SOL    HW117285   1.171   0.392   6.526
 5462SOL    HW217286   1.274   0.519   6.526
 5463SOL     OW17287   6.413   2.092   0.348
 5463SOL    HW117288   6.454   2.109   0.437
 5463SOL    HW217289   6.341   2.023   0.356
 5464SOL     OW17290   1.273   1.352   3.942
 5464SOL    HW117291   1.372   1.338   3.947
 5464SOL    HW217292   1.254   1.430   3.881
 5465SOL     OW17293   4.034   6.291   3.211
 5465SOL    HW117294   4.094   6.347   3.269
 5465SOL    HW217295   4.059   6.302   3.115
 5466SOL     OW17296   5.501   4.123   5.507
 5466SOL    HW117297   5.518   4.213   5.546
 5466SOL    HW217298   5.411   4.121   5.463
 5467SOL     OW17299   5.142   2.896   3.009
 5467SOL    HW117300   5.199   2.918   3.088
 5467SOL    HW217301   5.153   2.967   2.939
 5468SOL     OW17302   5.120   2.176   4.588
 5468SOL    HW117303   5.154   2.267   4.611
 5468SOL    HW217304   5.177   2.107   4.634
 5469SOL     OW17305   3.758   5.266   6.393
 5469SOL    HW117306   3.811   5.295   6.473
 5469SOL    HW217307   3.675   5.220   6.424
 5470SOL     OW17308   3.208   5.842   2.528
 5470SOL    HW117309   3.255   5.843   2.616
 5470SOL    HW217310   3.251   5.776   2.468
 5471SOL     OW17311   5.184   0.047   2.625
 5471SOL    HW117312   5.098   0.093   2.604
 5471SOL    HW217313   5.251   0.065   2.553
 5472SOL     OW17314   3.883   3.728   5.855
 5472SOL    HW117315   3.951   3.654   5.861
 5472SOL    HW217316   3.895   3.777   5.769
 5473SOL     OW17317   0.268   3.438   3.313
 5473SOL    HW117318   0.173   3.466   3.323
 5473SOL    HW217319   0.275   3.338   3.320
 5474SOL     OW17320   1.656   4.402   4.992
 5474SOL    HW117321   1.740   4.452   5.014
 5474SOL    HW217322   1.676   4.304   4.989
 5475SOL     OW17323   2.618   2.174   1.395
 5475SOL    HW117324   2.635   2.088   1.442
 5475SOL    HW217325   2.701   2.231   1.398
 5476SOL     OW17326   2.053   4.341   5.595
 5476SOL    HW117327   2.002   4.279   5.654
 5476SOL    HW217328   2.091   4.416   5.649
 5477SOL     OW17329   2.147   4.221   3.273
 5477SOL    HW117330   2.070   4.240   3.333
 5477SOL    HW217331   2.177   4.306   3.229
 5478SOL     OW17332   4.437   4.900   5.336
 5478SOL    HW117333   4.496   4.922   5.259
 5478SOL    HW217334   4.396   4.983   5.373
 5479SOL     OW17335   4.926   1.200   6.097
 5479SOL    HW117336   4.843   1.171   6.143
 5479SOL    HW217337   4.975   1.266   6.154
 5480SOL     OW17338   0.587   3.854   3.435
 5480SOL    HW117339   0.564   3.801   3.353
 5480SOL    HW217340   0.623   3.943   3.407
 5481SOL     OW17341   4.283   0.943   3.853
 5481SOL    HW117342   4.311   0.976   3.943
 5481SOL    HW217343   4.292   1.018   3.787
 5482SOL     OW17344   3.697   4.616   1.691
 5482SOL    HW117345   3.774   4.618   1.754
 5482SOL    HW217346   3.612   4.627   1.742
 5483SOL     OW17347   6.972   2.355   5.835
 5483SOL    HW117348   6.929   2.381   5.749
 5483SOL    HW217349   0.049   2.368   5.829
 5484SOL     OW17350   4.789   0.832   5.019
 5484SOL    HW117351   4.877   0.877   5.030
 5484SOL    HW217352   4.717   0.891   5.055
 5485SOL     OW17353   4.269   0.017   5.193
 5485SOL    HW117354   4.260   0.109   5.232
 5485SOL    HW217355   4.263   0.022   5.094
 5486SOL     OW17356   2.745   5.776   5.791
 5486SOL    HW117357   2.669   5.840   5.807
 5486SOL    HW217358   2.748   5.753   5.694
 5487SOL     OW17359   3.473   3.589   6.575
 5487SOL    HW117360   3.481   3.689   6.567
 5487SOL    HW217361   3.405   3.556   6.509
 5488SOL     OW17362   6.415   0.587   0.795
 5488SOL    HW117363   6.339   0.653   0.790
 5488SOL    HW217364   6.389   0.503   0.747
 5489SOL     OW17365   6.418   3.442   1.455
 5489SOL    HW117366   6.348   3.513   1.450
 5489SOL    HW217367   6.420   3.402   1.547
 5490SOL     OW17368   2.070   0.007   2.496
 5490SOL    HW117369   1.981   0.044   2.470
 5490SOL    HW217370   2.129   0.003   2.415
 5491SOL     OW17371   0.488   3.188   0.315
 5491SOL    HW117372   0.576   3.144   0.331
 5491SOL    HW217373   0.469   3.252   0.390
 5492SOL     OW17374   0.936   2.869   5.855
 5492SOL    HW117375   1.016   2.878   5.795
 5492SOL    HW217376   0.897   2.959   5.873
 5493SOL     OW17377   3.990   3.609   2.544
 5493SOL    HW117378   3.996   3.555   2.628
 5493SOL    HW217379   3.921   3.569   2.483
 5494SOL     OW17380   6.844   4.127   5.263
 5494SOL    HW117381   6.912   4.150   5.194
 5494SOL    HW217382   6.752   4.143   5.226
 5495SOL     OW17383   5.727   0.543   1.007
 5495SOL    HW117384   5.809   0.495   0.975
 5495SOL    HW217385   5.646   0.491   0.979
 5496SOL     OW17386   4.465   0.482   3.694
 5496SOL    HW117387   4.407   0.554   3.732
 5496SOL    HW217388   4.561   0.504   3.714
 5497SOL     OW17389   0.047   1.377   5.619
 5497SOL    HW117390   0.094   1.354   5.534
 5497SOL    HW217391   0.097   1.337   5.696
 5498SOL     OW17392   0.222   5.077   2.012
 5498SOL    HW117393   0.246   5.105   2.105
 5498SOL    HW217394   0.279   5.000   1.984
 5499SOL     OW17395   0.826   0.867   3.472
 5499SOL    HW117396   0.827   0.895   3.568
 5499SOL    HW217397   0.829   0.947   3.413
 5500SOL     OW17398   1.675   0.215   0.393
 5500SOL    HW117399   1.652   0.199   0.297
 5500SOL    HW217400   1.691   0.313   0.407
 5501SOL     OW17401   3.990   1.923   0.750
 5501SOL    HW117402   4.030   1.832   0.760
 5501SOL    HW217403   3.918   1.936   0.818
 5502SOL     OW17404   5.411   3.668   6.419
 5502SOL    HW117405   5.435   3.708   6.508
 5502SOL    HW217406   5.378   3.575   6.432
 5503SOL     OW17407   0.162   4.533   1.062
 5503SOL    HW117408   0.220   4.460   1.025
 5503SOL    HW217409   0.194   4.621   1.025
 5504SOL     OW17410   4.387   1.370   5.636
 5504SOL    HW117411   4.479   1.391   5.605
 5504SOL    HW217412   4.352   1.290   5.587
 5505SOL     OW17413   2.124   4.750   3.454
 5505SOL    HW117414   2.207   4.702   3.424
 5505SOL    HW217415   2.057   4.684   3.487
 5506SOL     OW17416   0.004   3.474   0.228
 5506SOL    HW117417   6.989   3.384   0.202
 5506SOL    HW217418   6.995   3.497   0.320
 5507SOL     OW17419   3.622   0.783   6.061
 5507SOL    HW117420   3.707   0.770   6.009
 5507SOL    HW217421   3.643   0.829   6.147
 5508SOL     OW17422   1.103   0.485   0.185
 5508SOL    HW117423   1.109   0.425   0.265
 5508SOL    HW217424   1.090   0.430   0.102
 5509SOL     OW17425   0.215   5.703   0.694
 5509SOL    HW117426   0.261   5.637   0.753
 5509SOL    HW217427   0.283   5.748   0.635
 5510SOL     OW17428   4.867   5.277   6.456
 5510SOL    HW117429   4.894   5.229   6.540
 5510SOL    HW217430   4.942   5.336   6.427
 5511SOL     OW17431   1.121   1.258   5.117
 5511SOL    HW117432   1.157   1.250   5.210
 5511SOL    HW217433   1.160   1.339   5.073
 5512SOL     OW17434   3.374   1.068   0.834
 5512SOL    HW117435   3.462   1.115   0.823
 5512SOL    HW217436   3.324   1.109   0.909
 5513SOL     OW17437   3.066   4.837   5.926
 5513SOL    HW117438   3.152   4.841   5.875
 5513SOL    HW217439   3.009   4.764   5.889
 5514SOL     OW17440   3.568   0.186   5.358
 5514SOL    HW117441   3.664   0.205   5.380
 5514SOL    HW217442   3.553   0.087   5.362
 5515SOL     OW17443   1.559   5.762   1.961
 5515SOL    HW117444   1.556   5.785   2.058
 5515SOL    HW217445   1.485   5.811   1.913
 5516SOL     OW17446   2.430   2.713   4.759
 5516SOL    HW117447   2.383   2.772   4.825
 5516SOL    HW217448   2.379   2.714   4.673
 5517SOL     OW17449   1.754   3.628   2.007
 5517SOL    HW117450   1.724   3.678   2.089
 5517SOL    HW217451   1.849   3.599   2.018
 5518SOL     OW17452   6.319   4.958   5.964
 5518SOL    HW117453   6.249   4.915   5.907
 5518SOL    HW217454   6.340   5.049   5.929
 5519SOL     OW17455   5.370   3.110   3.487
 5519SOL    HW117456   5.440   3.055   3.441
 5519SOL    HW217457   5.398   3.126   3.582
 5520SOL     OW17458   5.280   6.361   2.447
 5520SOL    HW117459   5.359   6.403   2.403
 5520SOL    HW217460   5.221   6.432   2.485
 5521SOL     OW17461   5.234   6.224   1.309
 5521SOL    HW117462   5.171   6.281   1.361
 5521SOL    HW217463   5.236   6.132   1.348
 5522SOL     OW17464   6.683   5.357   1.504
 5522SOL    HW117465   6.587   5.371   1.483
 5522SOL    HW217466   6.707   5.261   1.485
 5523SOL     OW17467   4.801   0.989   2.646
 5523SOL    HW117468   4.823   1.084   2.624
 5523SOL    HW217469   4.795   0.979   2.746
 5524SOL     OW17470   3.849   6.751   5.194
 5524SOL    HW117471   3.788   6.823   5.228
 5524SOL    HW217472   3.930   6.793   5.152
 5525SOL     OW17473   0.246   2.617   0.242
 5525SOL    HW117474   0.214   2.550   0.309
 5525SOL    HW217475   0.206   2.596   0.152
 5526SOL     OW17476   4.482   4.446   2.573
 5526SOL    HW117477   4.479   4.476   2.669
 5526SOL    HW217478   4.426   4.508   2.518
 5527SOL     OW17479   4.862   3.706   3.852
 5527SOL    HW117480   4.846   3.755   3.766
 5527SOL    HW217481   4.872   3.608   3.832
 5528SOL     OW17482   1.195   1.423   1.531
 5528SOL    HW117483   1.154   1.508   1.564
 5528SOL    HW217484   1.294   1.432   1.528
 5529SOL     OW17485   2.809   6.887   3.542
 5529SOL    HW117486   2.751   6.959   3.504
 5529SOL    HW217487   2.786   6.799   3.501
 5530SOL     OW17488   6.722   2.485   2.162
 5530SOL    HW117489   6.770   2.573   2.169
 5530SOL    HW217490   6.640   2.496   2.106
 5531SOL     OW17491   4.065   3.813   1.560
 5531SOL    HW117492   4.147   3.783   1.607
 5531SOL    HW217493   3.987   3.810   1.622
 5532SOL     OW17494   1.987   2.586   0.750
 5532SOL    HW117495   1.995   2.677   0.710
 5532SOL    HW217496   1.950   2.593   0.843
 5533SOL     OW17497   4.760   1.609   3.909
 5533SOL    HW117498   4.818   1.640   3.985
 5533SOL    HW217499   4.817   1.568   3.838
 5534SOL     OW17500   1.117   1.421   5.940
 5534SOL    HW117501   1.160   1.509   5.960
 5534SOL    HW217502   1.090   1.377   6.025
 5535SOL     OW17503   0.878   1.478   2.464
 5535SOL    HW117504   0.918   1.570   2.465
 5535SOL    HW217505   0.879   1.443   2.371
 5536SOL     OW17506   3.664   0.668   4.669
 5536SOL    HW117507   3.635   0.763   4.678
 5536SOL    HW217508   3.676   0.645   4.573
 5537SOL     OW17509   3.900   1.408   2.416
 5537SOL    HW117510   3.968   1.478   2.393
 5537SOL    HW217511   3.941   1.318   2.408
 5538SOL     OW17512   4.291   6.133   4.611
 5538SOL    HW117513   4.322   6.131   4.706
 5538SOL    HW217514   4.327   6.216   4.566
 5539SOL     OW17515   1.995   3.585   0.966
 5539SOL    HW117516   2.077   3.534   0.940
 5539SOL    HW217517   1.988   3.586   1.066
 5540SOL     OW17518   4.686   4.690   3.684
 5540SOL    HW117519   4.781   4.699   3.654
 5540SOL    HW217520   4.684   4.673   3.783
 5541SOL     OW17521   4.179   1.498   6.435
 5541SOL    HW117522   4.115   1.572   6.454
 5541SOL    HW217523   4.217   1.463   6.520
 5542SOL     OW17524   4.103   3.545   6.279
 5542SOL    HW117525   4.073   3.451   6.295
 5542SOL    HW217526   4.033   3.594   6.227
 5543SOL     OW17527   5.628   3.996   6.749
 5543SOL    HW117528   5.607   3.939   6.669
 5543SOL    HW217529   5.673   3.939   6.818
 5544SOL     OW17530   5.294   0.911   6.156
 5544SOL    HW117531   5.338   0.858   6.229
 5544SOL    HW217532   5.357   0.982   6.124
 5545SOL     OW17533   4.243   2.088   2.484
 5545SOL    HW117534   4.180   2.110   2.410
 5545SOL    HW217535   4.337   2.094   2.450
 5546SOL     OW17536   1.774   5.269   5.686
 5546SOL    HW117537   1.745   5.325   5.763
 5546SOL    HW217538   1.715   5.286   5.607
 5547SOL     OW17539   3.308   5.850   5.098
 5547SOL    HW117540   3.353   5.937   5.116
 5547SOL    HW217541   3.349   5.807   5.017
 5548SOL     OW17542   6.467   3.463   5.704
 5548SOL    HW117543   6.500   3.383   5.652
 5548SOL    HW217544   6.530   3.539   5.690
 5549SOL     OW17545   3.118   5.247   6.693
 5549SOL    HW117546   3.187   5.320   6.700
 5549SOL    HW217547   3.115   5.213   6.599
 5550SOL     OW17548   2.248   5.884   1.515
 5550SOL    HW117549   2.175   5.861   1.580
 5550SOL    HW217550   2.226   5.844   1.426
 5551SOL     OW17551   1.503   0.605   3.429
 5551SOL    HW117552   1.546   0.678   3.377
 5551SOL    HW217553   1.516   0.621   3.527
 5552SOL     OW17554   0.430   1.410   0.857
 5552SOL    HW117555   0.349   1.362   0.891
 5552SOL    HW217556   0.441   1.497   0.907
 5553SOL     OW17557   4.464   6.491   6.851
 5553SOL    HW117558   4.559   6.497   6.883
 5553SOL    HW217559   4.444   6.569   6.791
 5554SOL     OW17560   2.982   2.305   5.301
 5554SOL    HW117561   2.976   2.349   5.390
 5554SOL    HW217562   3.064   2.337   5.254
 5555SOL     OW17563   0.299   5.541   3.538
 5555SOL    HW117564   0.365   5.513   3.468
 5555SOL    HW217565   0.348   5.571   3.620
 5556SOL     OW17566   0.884   2.038   5.034
 5556SOL    HW117567   0.907   1.955   4.983
 5556SOL    HW217568   0.851   2.014   5.125
 5557SOL     OW17569   2.176   6.074   3.670
 5557SOL    HW117570   2.182   5.975   3.670
 5557SOL    HW217571   2.131   6.105   3.755
 5558SOL     OW17572   5.241   2.946   5.121
 5558SOL    HW117573   5.195   3.032   5.098
 5558SOL    HW217574   5.297   2.917   5.044
 5559SOL     OW17575   2.526   0.035   1.183
 5559SOL    HW117576   2.430   0.050   1.159
 5559SOL    HW217577   2.583   0.045   1.102
 5560SOL     OW17578   0.483   1.101   3.212
 5560SOL    HW117579   0.469   1.019   3.266
 5560SOL    HW217580   0.442   1.088   3.121
 5561SOL     OW17581   1.623   3.245   3.520
 5561SOL    HW117582   1.556   3.295   3.466
 5561SOL    HW217583   1.620   3.276   3.615
 5562SOL     OW17584   2.380   2.863   6.193
 5562SOL    HW117585   2.292   2.841   6.235
 5562SOL    HW217586   2.368   2.935   6.125
 5563SOL     OW17587   4.361   6.130   2.355
 5563SOL    HW117588   4.424   6.207   2.364
 5563SOL    HW217589   4.294   6.151   2.283
 5564SOL     OW17590   5.136   4.415   1.713
 5564SOL    HW117591   5.062   4.416   1.646
 5564SOL    HW217592   5.206   4.481   1.687
 5565SOL     OW17593   3.918   2.143   5.669
 5565SOL    HW117594   3.848   2.191   5.616
 5565SOL    HW217595   3.892   2.142   5.765
 5566SOL     OW17596   1.964   5.269   0.699
 5566SOL    HW117597   1.892   5.235   0.639
 5566SOL    HW217598   1.948   5.366   0.720
 5567SOL     OW17599   1.892   5.633   1.244
 5567SOL    HW117600   1.914   5.633   1.341
 5567SOL    HW217601   1.968   5.593   1.192
 5568SOL     OW17602   4.369   1.043   1.124
 5568SOL    HW117603   4.272   1.066   1.120
 5568SOL    HW217604   4.382   0.964   1.184
 5569SOL     OW17605   4.286   1.356   1.305
 5569SOL    HW117606   4.273   1.438   1.250
 5569SOL    HW217607   4.360   1.301   1.266
 5570SOL     OW17608   6.496   4.544   5.391
 5570SOL    HW117609   6.552   4.462   5.378
 5570SOL    HW217610   6.526   4.592   5.474
 5571SOL     OW17611   6.703   5.796   0.465
 5571SOL    HW117612   6.744   5.866   0.407
 5571SOL    HW217613   6.605   5.812   0.473
 5572SOL     OW17614   4.295   2.429   6.305
 5572SOL    HW117615   4.203   2.468   6.309
 5572SOL    HW217616   4.347   2.472   6.232
 5573SOL     OW17617   1.270   3.628   0.801
 5573SOL    HW117618   1.316   3.674   0.876
 5573SOL    HW217619   1.255   3.693   0.726
 5574SOL     OW17620   0.437   6.236   4.932
 5574SOL    HW117621   0.463   6.278   4.846
 5574SOL    HW217622   0.482   6.147   4.942
 5575SOL     OW17623   1.151   1.049   1.101
 5575SOL    HW117624   1.142   0.974   1.036
 5575SOL    HW217625   1.065   1.061   1.150
 5576SOL     OW17626   5.357   5.772   0.376
 5576SOL    HW117627   5.355   5.760   0.276
 5576SOL    HW217628   5.345   5.868   0.398
 5577SOL     OW17629   2.064   3.719   5.353
 5577SOL    HW117630   2.150   3.689   5.313
 5577SOL    HW217631   1.998   3.644   5.352
 5578SOL     OW17632   4.054   2.863   0.410
 5578SOL    HW117633   4.008   2.786   0.366
 5578SOL    HW217634   4.152   2.859   0.390
 5579SOL     OW17635   5.564   3.699   7.020
 5579SOL    HW117636   5.555   3.600   0.010
 5579SOL    HW217637   5.484   3.733   6.972
 5580SOL     OW17638   5.289   0.689   0.501
 5580SOL    HW117639   5.317   0.777   0.538
 5580SOL    HW217640   5.344   0.668   0.420
 5581SOL     OW17641   2.241   0.847   6.338
 5581SOL    HW117642   2.272   0.895   6.421
 5581SOL    HW217643   2.294   0.763   6.327
 5582SOL     OW17644   3.536   3.105   3.595
 5582SOL    HW117645   3.532   3.184   3.656
 5582SOL    HW217646   3.616   3.050   3.617
 5583SOL     OW17647   3.332   0.105   1.704
 5583SOL    HW117648   3.345   0.027   1.643
 5583SOL    HW217649   3.404   0.105   1.773
 5584SOL     OW17650   6.725   3.887   2.869
 5584SOL    HW117651   6.764   3.958   2.928
 5584SOL    HW217652   6.715   3.802   2.921
 5585SOL     OW17653   6.391   0.673   4.246
 5585SOL    HW117654   6.425   0.583   4.272
 5585SOL    HW217655   6.437   0.703   4.162
 5586SOL     OW17656   2.303   1.130   5.784
 5586SOL    HW117657   2.363   1.162   5.858
 5586SOL    HW217658   2.329   1.173   5.698
 5587SOL     OW17659   4.051   0.346   3.348
 5587SOL    HW117660   4.051   0.271   3.413
 5587SOL    HW217661   4.142   0.387   3.343
 5588SOL     OW17662   2.358   0.197   5.466
 5588SOL    HW117663   2.352   0.156   5.375
 5588SOL    HW217664   2.428   0.150   5.519
 5589SOL     OW17665   4.859   2.791   6.056
 5589SOL    HW117666   4.879   2.761   6.149
 5589SOL    HW217667   4.770   2.754   6.028
 5590SOL     OW17668   0.365   5.908   4.806
 5590SOL    HW117669   0.389   5.836   4.741
 5590SOL    HW217670   0.443   5.927   4.865
 5591SOL     OW17671   5.318   0.401   0.072
 5591SOL    HW117672   5.396   0.431   0.127
 5591SOL    HW217673   5.244   0.372   0.133
 5592SOL     OW17674   1.739   3.278   2.567
 5592SOL    HW117675   1.787   3.251   2.484
 5592SOL    HW217676   1.793   3.251   2.647
 5593SOL     OW17677   1.795   2.361   5.863
 5593SOL    HW117678   1.857   2.383   5.939
 5593SOL    HW217679   1.703   2.392   5.885
 5594SOL     OW17680   2.305   0.159   0.642
 5594SOL    HW117681   2.383   0.104   0.614
 5594SOL    HW217682   2.337   0.240   0.691
 5595SOL     OW17683   6.705   1.795   6.157
 5595SOL    HW117684   6.759   1.852   6.218
 5595SOL    HW217685   6.760   1.769   6.078
 5596SOL     OW17686   5.353   0.655   2.824
 5596SOL    HW117687   5.347   0.648   2.923
 5596SOL    HW217688   5.414   0.583   2.789
 5597SOL     OW17689   6.454   0.914   6.567
 5597SOL    HW117690   6.461   0.824   6.609
 5597SOL    HW217691   6.443   0.984   6.638
 5598SOL     OW17692   6.039   2.058   3.735
 5598SOL    HW117693   6.011   1.962   3.728
 5598SOL    HW217694   6.116   2.066   3.798
 5599SOL     OW17695   4.829   4.157   2.226
 5599SOL    HW117696   4.776   4.123   2.148
 5599SOL    HW217697   4.768   4.203   2.290
 5600SOL     OW17698   2.444   1.293   2.815
 5600SOL    HW117699   2.384   1.283   2.736
 5600SOL    HW217700   2.481   1.386   2.819
 5601SOL     OW17701   5.371   2.972   5.574
 5601SOL    HW117702   5.379   3.012   5.482
 5601SOL    HW217703   5.453   2.919   5.594
 5602SOL     OW17704   0.480   2.731   2.941
 5602SOL    HW117705   0.574   2.729   2.973
 5602SOL    HW217706   0.478   2.755   2.844
 5603SOL     OW17707   3.964   2.124   4.490
 5603SOL    HW117708   4.024   2.114   4.569
 5603SOL    HW217709   4.013   2.169   4.416
 5604SOL     OW17710   0.555   0.173   3.787
 5604SOL    HW117711   0.626   0.104   3.790
 5604SOL    HW217712   0.537   0.200   3.692
 5605SOL     OW17713   2.675   5.876   4.810
 5605SOL    HW117714   2.614   5.929   4.869
 5605SOL    HW217715   2.684   5.783   4.847
 5606SOL     OW17716   4.656   2.137   0.587
 5606SOL    HW117717   4.748   2.122   0.549
 5606SOL    HW217718   4.638   2.235   0.593
 5607SOL     OW17719   5.823   2.725   2.270
 5607SOL    HW117720   5.899   2.684   2.320
 5607SOL    HW217721   5.759   2.654   2.242
 5608SOL     OW17722   4.439   1.200   3.655
 5608SOL    HW117723   4.380   1.279   3.643
 5608SOL    HW217724   4.531   1.230   3.682
 5609SOL     OW17725   6.548   6.589   0.782
 5609SOL    HW117726   6.616   6.572   0.854
 5609SOL    HW217727   6.542   6.510   0.722
 5610SOL     OW17728   5.329   4.368   7.005
 5610SOL    HW117729   5.403   4.327   0.036
 5610SOL    HW217730   5.330   4.331   6.912
 5611SOL     OW17731   6.951   5.254   1.705
 5611SOL    HW117732   7.002   5.264   1.791
 5611SOL    HW217733   6.911   5.341   1.680
 5612SOL     OW17734   2.716   0.815   1.023
 5612SOL    HW117735   2.638   0.752   1.017
 5612SOL    HW217736   2.799   0.768   0.994
 5613SOL     OW17737   6.572   5.237   5.244
 5613SOL    HW117738   6.655   5.260   5.296
 5613SOL    HW217739   6.546   5.143   5.264
 5614SOL     OW17740   5.740   2.087   4.514
 5614SOL    HW117741   5.670   2.132   4.460
 5614SOL    HW217742   5.715   1.991   4.528
 5615SOL     OW17743   6.758   3.121   2.918
 5615SOL    HW117744   6.746   3.055   2.992
 5615SOL    HW217745   6.851   3.157   2.919
 5616SOL     OW17746   1.740   3.187   3.181
 5616SOL    HW117747   1.807   3.136   3.128
 5616SOL    HW217748   1.667   3.125   3.211
 5617SOL     OW17749   1.975   5.142   6.597
 5617SOL    HW117750   2.058   5.086   6.602
 5617SOL    HW217751   1.921   5.128   6.680
 5618SOL     OW17752   6.519   5.813   3.704
 5618SOL    HW117753   6.521   5.714   3.694
 5618SOL    HW217754   6.590   5.843   3.767
 5619SOL     OW17755   3.757   3.134   4.601
 5619SOL    HW117756   3.846   3.163   4.566
 5619SOL    HW217757   3.686   3.194   4.564
 5620SOL     OW17758   5.005   4.418   5.625
 5620SOL    HW117759   4.929   4.354   5.615
 5620SOL    HW217760   5.075   4.398   5.556
 5621SOL     OW17761   2.074   2.491   5.051
 5621SOL    HW117762   2.009   2.476   5.126
 5621SOL    HW217763   2.024   2.514   4.968
 5622SOL     OW17764   4.904   5.441   4.462
 5622SOL    HW117765   4.844   5.432   4.541
 5622SOL    HW217766   4.922   5.537   4.444
 5623SOL     OW17767   5.320   6.154   4.102
 5623SOL    HW117768   5.240   6.202   4.137
 5623SOL    HW217769   5.327   6.065   4.147
 5624SOL     OW17770   6.740   4.842   4.581
 5624SOL    HW117771   6.799   4.913   4.621
 5624SOL    HW217772   6.648   4.851   4.619
 5625SOL     OW17773   1.129   5.749   4.642
 5625SOL    HW117774   1.098   5.755   4.737
 5625SOL    HW217775   1.157   5.839   4.609
 5626SOL     OW17776   1.859   3.987   4.643
 5626SOL    HW117777   1.879   3.950   4.734
 5626SOL    HW217778   1.869   4.087   4.646
 5627SOL     OW17779   1.100   5.304   6.942
 5627SOL    HW117780   1.038   5.328   7.016
 5627SOL    HW217781   1.164   5.234   6.973
 5628SOL     OW17782   2.401   3.112   0.847
 5628SOL    HW117783   2.422   3.107   0.944
 5628SOL    HW217784   2.317   3.060   0.828
 5629SOL     OW17785   5.033   4.088   1.382
 5629SOL    HW117786   4.958   4.059   1.442
 5629SOL    HW217787   5.118   4.093   1.434
 5630SOL     OW17788   2.420   4.071   6.651
 5630SOL    HW117789   2.333   4.022   6.649
 5630SOL    HW217790   2.417   4.141   6.724
 5631SOL     OW17791   4.228   0.640   2.042
 5631SOL    HW117792   4.161   0.649   1.968
 5631SOL    HW217793   4.277   0.553   2.033
 5632SOL     OW17794   5.944   6.988   5.857
 5632SOL    HW117795   5.917   0.003   5.768
 5632SOL    HW217796   5.910   0.026   5.929
 5633SOL     OW17797   0.385   4.833   5.711
 5633SOL    HW117798   0.292   4.799   5.725
 5633SOL    HW217799   0.384   4.932   5.702
 5634SOL     OW17800   3.174   6.480   6.670
 5634SOL    HW117801   3.103   6.500   6.602
 5634SOL    HW217802   3.158   6.390   6.710
 5635SOL     OW17803   2.485   0.010   6.790
 5635SOL    HW117804   2.511   0.079   6.858
 5635SOL    HW217805   2.429   0.052   6.719
 5636SOL     OW17806   6.607   1.348   5.884
 5636SOL    HW117807   6.593   1.393   5.796
 5636SOL    HW217808   6.683   1.392   5.932
 5637SOL     OW17809   5.158   6.642   4.307
 5637SOL    HW117810   5.250   6.604   4.317
 5637SOL    HW217811   5.091   6.575   4.340
 5638SOL     OW17812   5.108   5.192   0.854
 5638SOL    HW117813   5.060   5.272   0.818
 5638SOL    HW217814   5.130   5.207   0.951
 5639SOL     OW17815   0.619   0.199   1.595
 5639SOL    HW117816   0.545   0.207   1.662
 5639SOL    HW217817   0.606   0.115   1.541
 5640SOL     OW17818   3.105   5.682   3.522
 5640SOL    HW117819   3.077   5.746   3.594
 5640SOL    HW217820   3.076   5.716   3.433
 5641SOL     OW17821   0.834   4.954   4.216
 5641SOL    HW117822   0.835   4.869   4.163
 5641SOL    HW217823   0.921   4.965   4.263
 5642SOL     OW17824   1.604   4.488   0.075
 5642SOL    HW117825   1.610   4.565   0.012
 5642SOL    HW217826   1.675   4.421   0.054
 5643SOL     OW17827   4.181   2.230   4.327
 5643SOL    HW117828   4.269   2.273   4.310
 5643SOL    HW217829   4.183   2.134   4.296
 5644SOL     OW17830   4.885   1.612   5.295
 5644SOL    HW117831   4.908   1.659   5.380
 5644SOL    HW217832   4.837   1.675   5.234
 5645SOL     OW17833   5.949   5.714   3.516
 5645SOL    HW117834   5.897   5.745   3.596
 5645SOL    HW217835   5.887   5.667   3.453
 5646SOL     OW17836   0.306   6.302   3.646
 5646SOL    HW117837   0.326   6.332   3.740
 5646SOL    HW217838   0.389   6.262   3.606
 5647SOL     OW17839   5.866   5.825   6.869
 5647SOL    HW117840   5.864   5.854   6.773
 5647SOL    HW217841   5.779   5.848   6.912
 5648SOL     OW17842   1.723   1.661   3.493
 5648SOL    HW117843   1.740   1.573   3.448
 5648SOL    HW217844   1.791   1.675   3.564
 5649SOL     OW17845   0.981   0.743   4.595
 5649SOL    HW117846   1.074   0.749   4.632
 5649SOL    HW217847   0.935   0.662   4.631
 5650SOL     OW17848   6.783   4.817   6.561
 5650SOL    HW117849   6.692   4.837   6.597
 5650SOL    HW217850   6.801   4.877   6.483
 5651SOL     OW17851   0.058   1.591   2.040
 5651SOL    HW117852   7.008   1.564   2.104
 5651SOL    HW217853   0.065   1.691   2.038
 5652SOL     OW17854   4.761   5.561   2.069
 5652SOL    HW117855   4.789   5.637   2.128
 5652SOL    HW217856   4.672   5.581   2.028
 5653SOL     OW17857   0.214   5.464   5.256
 5653SOL    HW117858   0.267   5.400   5.201
 5653SOL    HW217859   0.124   5.426   5.275
 5654SOL     OW17860   7.002   0.338   5.461
 5654SOL    HW117861   0.065   0.315   5.414
 5654SOL    HW217862   6.986   0.437   5.456
 5655SOL     OW17863   1.073   3.467   3.852
 5655SOL    HW117864   1.068   3.472   3.952
 5655SOL    HW217865   0.981   3.475   3.814
 5656SOL     OW17866   3.246   3.050   0.878
 5656SOL    HW117867   3.189   3.103   0.941
 5656SOL    HW217868   3.332   3.097   0.862
 5657SOL     OW17869   4.099   0.284   2.060
 5657SOL    HW117870   4.034   0.338   2.005
 5657SOL    HW217871   4.086   0.187   2.040
 5658SOL     OW17872   3.622   6.791   5.532
 5658SOL    HW117873   3.631   6.743   5.619
 5658SOL    HW217874   3.527   6.819   5.520
 5659SOL     OW17875   2.863   3.554   2.967
 5659SOL    HW117876   2.831   3.461   2.949
 5659SOL    HW217877   2.885   3.599   2.880
 5660SOL     OW17878   4.755   0.385   6.931
 5660SOL    HW117879   4.655   0.382   6.921
 5660SOL    HW217880   4.780   0.463   6.989
 5661SOL     OW17881   0.044   5.959   4.842
 5661SOL    HW117882   6.981   5.986   4.888
 5661SOL    HW217883   0.025   5.937   4.746
 5662SOL     OW17884   2.355   4.363   3.781
 5662SOL    HW117885   2.350   4.371   3.682
 5662SOL    HW217886   2.428   4.422   3.816
 5663SOL     OW17887   1.011   3.966   0.799
 5663SOL    HW117888   1.031   3.948   0.896
 5663SOL    HW217889   1.096   3.991   0.752
 5664SOL     OW17890   0.148   4.576   2.360
 5664SOL    HW117891   0.092   4.577   2.443
 5664SOL    HW217892   0.219   4.646   2.367
 5665SOL     OW17893   2.095   2.652   6.496
 5665SOL    HW117894   2.159   2.729   6.494
 5665SOL    HW217895   2.100   2.607   6.584
 5666SOL     OW17896   4.620   5.692   0.546
 5666SOL    HW117897   4.611   5.701   0.447
 5666SOL    HW217898   4.530   5.703   0.588
 5667SOL     OW17899   6.844   4.708   2.822
 5667SOL    HW117900   6.930   4.679   2.863
 5667SOL    HW217901   6.862   4.764   2.741
 5668SOL     OW17902   4.504   2.087   6.085
 5668SOL    HW117903   4.477   2.002   6.039
 5668SOL    HW217904   4.431   2.115   6.148
 5669SOL     OW17905   0.550   4.971   6.026
 5669SOL    HW117906   0.541   4.969   6.125
 5669SOL    HW217907   0.460   4.963   5.984
 5670SOL     OW17908   0.463   3.386   3.978
 5670SOL    HW117909   0.439   3.351   3.887
 5670SOL    HW217910   0.553   3.349   4.005
 5671SOL     OW17911   1.983   6.833   6.430
 5671SOL    HW117912   1.985   6.856   6.527
 5671SOL    HW217913   1.965   6.735   6.419
 5672SOL     OW17914   5.318   3.782   5.855
 5672SOL    HW117915   5.291   3.840   5.778
 5672SOL    HW217916   5.406   3.813   5.890
 5673SOL     OW17917   0.360   0.424   2.591
 5673SOL    HW117918   0.273   0.472   2.590
 5673SOL    HW217919   0.347   0.330   2.559
 5674SOL     OW17920   6.976   3.544   1.692
 5674SOL    HW117921   6.998   3.448   1.704
 5674SOL    HW217922   6.922   3.576   1.770
 5675SOL     OW17923   4.478   2.438   5.428
 5675SOL    HW117924   4.555   2.463   5.370
 5675SOL    HW217925   4.512   2.405   5.516
 5676SOL     OW17926   1.835   0.272   1.426
 5676SOL    HW117927   1.750   0.236   1.465
 5676SOL    HW217928   1.874   0.340   1.488
 5677SOL     OW17929   6.343   1.312   3.590
 5677SOL    HW117930   6.379   1.307   3.497
 5677SOL    HW217931   6.342   1.408   3.620
 5678SOL     OW17932   3.910   6.602   3.032
 5678SOL    HW117933   3.889   6.636   2.940
 5678SOL    HW217934   4.008   6.607   3.048
 5679SOL     OW17935   1.644   6.762   5.009
 5679SOL    HW117936   1.649   6.662   5.008
 5679SOL    HW217937   1.737   6.800   5.015
 5680SOL     OW17938   1.344   5.374   6.396
 5680SOL    HW117939   1.345   5.335   6.304
 5680SOL    HW217940   1.420   5.438   6.406
 5681SOL     OW17941   1.226   2.212   6.503
 5681SOL    HW117942   1.196   2.117   6.499
 5681SOL    HW217943   1.156   2.267   6.548
 5682SOL     OW17944   1.522   2.374   5.967
 5682SOL    HW117945   1.465   2.420   5.899
 5682SOL    HW217946   1.465   2.316   6.025
 5683SOL     OW17947   3.615   3.076   6.264
 5683SOL    HW117948   3.576   3.030   6.184
 5683SOL    HW217949   3.715   3.071   6.260
 5684SOL     OW17950   3.767   3.577   4.030
 5684SOL    HW117951   3.698   3.613   4.093
 5684SOL    HW217952   3.787   3.482   4.054
 5685SOL     OW17953   0.404   4.904   2.587
 5685SOL    HW117954   0.463   4.863   2.657
 5685SOL    HW217955   0.312   4.917   2.625
 5686SOL     OW17956   4.107   0.292   0.838
 5686SOL    HW117957   4.129   0.296   0.740
 5686SOL    HW217958   4.060   0.376   0.865
 5687SOL     OW17959   6.037   4.562   5.137
 5687SOL    HW117960   6.013   4.472   5.173
 5687SOL    HW217961   6.099   4.552   5.060
 5688SOL     OW17962   5.598   2.385   1.690
 5688SOL    HW117963   5.588   2.286   1.693
 5688SOL    HW217964   5.556   2.421   1.607
 5689SOL     OW17965   4.951   1.308   0.800
 5689SOL    HW117966   4.927   1.401   0.829
 5689SOL    HW217967   4.873   1.247   0.814
 5690SOL     OW17968   4.329   6.229   0.468
 5690SOL    HW117969   4.280   6.280   0.398
 5690SOL    HW217970   4.418   6.200   0.433
 5691SOL     OW17971   2.828   6.556   2.176
 5691SOL    HW117972   2.790   6.505   2.099
 5691SOL    HW217973   2.809   6.507   2.261
 5692SOL     OW17974   6.675   1.830   5.761
 5692SOL    HW117975   6.746   1.804   5.826
 5692SOL    HW217976   6.712   1.896   5.696
 5693SOL     OW17977   5.028   2.824   2.720
 5693SOL    HW117978   5.121   2.792   2.704
 5693SOL    HW217979   5.008   2.899   2.657
 5694SOL     OW17980   0.392   1.312   3.452
 5694SOL    HW117981   0.368   1.341   3.544
 5694SOL    HW217982   0.485   1.278   3.450
 5695SOL     OW17983   0.999   2.294   3.677
 5695SOL    HW117984   1.092   2.286   3.712
 5695SOL    HW217985   0.984   2.225   3.606
 5696SOL     OW17986   2.462   1.637   5.350
 5696SOL    HW117987   2.368   1.667   5.335
 5696SOL    HW217988   2.524   1.716   5.346
 5697SOL     OW17989   6.936   2.368   0.885
 5697SOL    HW117990   0.006   2.406   0.890
 5697SOL    HW217991   6.911   2.353   0.789
 5698SOL     OW17992   0.932   2.906   1.731
 5698SOL    HW117993   0.966   2.821   1.692
 5698SOL    HW217994   0.969   2.984   1.680
 5699SOL     OW17995   6.078   0.856   4.311
 5699SOL    HW117996   6.164   0.899   4.285
 5699SOL    HW217997   6.025   0.833   4.229
 5700SOL     OW17998   1.470   6.335   5.181
 5700SOL    HW117999   1.504   6.251   5.225
 5700SOL    HW218000   1.434   6.397   5.251
 5701SOL     OW18001   0.318   6.427   2.393
 5701SOL    HW118002   0.258   6.386   2.325
 5701SOL    HW218003   0.387   6.360   2.421
 5702SOL     OW18004   1.710   6.908   5.548
 5702SOL    HW118005   1.753   6.977   5.606
 5702SOL    HW218006   1.754   6.820   5.563
 5703SOL     OW18007   4.332   5.035   6.780
 5703SOL    HW118008   4.262   4.978   6.738
 5703SOL    HW218009   4.394   5.069   6.710
 5704SOL     OW18010   4.720   5.470   3.191
 5704SOL    HW118011   4.771   5.384   3.179
 5704SOL    HW218012   4.780   5.547   3.167
 5705SOL     OW18013   5.596   0.309   0.915
 5705SOL    HW118014   5.582   0.219   0.956
 5705SOL    HW218015   5.576   0.304   0.817
 5706SOL     OW18016   1.865   1.622   0.582
 5706SOL    HW118017   1.910   1.712   0.585
 5706SOL    HW218018   1.780   1.630   0.529
 5707SOL     OW18019   1.625   0.393   6.520
 5707SOL    HW118020   1.661   0.389   6.613
 5707SOL    HW218021   1.686   0.343   6.458
 5708SOL     OW18022   5.271   6.764   2.316
 5708SOL    HW118023   5.359   6.733   2.353
 5708SOL    HW218024   5.197   6.713   2.360
 5709SOL     OW18025   0.840   6.745   3.426
 5709SOL    HW118026   0.764   6.758   3.362
 5709SOL    HW218027   0.805   6.705   3.511
 5710SOL     OW18028   3.002   3.442   5.967
 5710SOL    HW118029   3.030   3.392   6.049
 5710SOL    HW218030   2.965   3.379   5.900
 5711SOL     OW18031   4.875   1.104   3.827
 5711SOL    HW118032   4.944   1.052   3.777
 5711SOL    HW218033   4.857   1.059   3.915
 5712SOL     OW18034   6.701   0.180   5.505
 5712SOL    HW118035   6.760   0.104   5.533
 5712SOL    HW218036   6.745   0.229   5.429
 5713SOL     OW18037   0.439   2.185   2.018
 5713SOL    HW118038   0.350   2.229   2.004
 5713SOL    HW218039   0.482   2.222   2.100
 5714SOL     OW18040   1.541   0.128   6.851
 5714SOL    HW118041   1.489   0.180   6.784
 5714SOL    HW218042   1.527   0.030   6.836
 5715SOL     OW18043   1.426   6.510   2.697
 5715SOL    HW118044   1.346   6.530   2.754
 5715SOL    HW218045   1.465   6.422   2.723
 5716SOL     OW18046   1.669   3.506   5.740
 5716SOL    HW118047   1.697   3.420   5.781
 5716SOL    HW218048   1.748   3.551   5.698
 5717SOL     OW18049   0.860   4.340   1.106
 5717SOL    HW118050   0.797   4.281   1.155
 5717SOL    HW218051   0.871   4.307   1.012
 5718SOL     OW18052   1.487   4.779   6.628
 5718SOL    HW118053   1.550   4.833   6.573
 5718SOL    HW218054   1.399   4.772   6.581
 5719SOL     OW18055   3.300   1.012   6.422
 5719SOL    HW118056   3.221   0.952   6.409
 5719SOL    HW218057   3.327   1.050   6.333
 5720SOL     OW18058   0.692   5.185   4.916
 5720SOL    HW118059   0.773   5.219   4.867
 5720SOL    HW218060   0.658   5.103   4.871
 5721SOL     OW18061   0.726   3.035   0.249
 5721SOL    HW118062   0.720   2.962   0.317
 5721SOL    HW218063   0.763   3.000   0.163
 5722SOL     OW18064   5.306   0.923   5.203
 5722SOL    HW118065   5.397   0.954   5.232
 5722SOL    HW218066   5.286   0.834   5.243
 5723SOL     OW18067   3.745   5.338   0.512
 5723SOL    HW118068   3.782   5.271   0.448
 5723SOL    HW218069   3.645   5.340   0.505
 5724SOL     OW18070   4.824   2.254   6.333
 5724SOL    HW118071   4.761   2.244   6.410
 5724SOL    HW218072   4.904   2.196   6.348
 5725SOL     OW18073   5.143   5.287   4.195
 5725SOL    HW118074   5.165   5.216   4.262
 5725SOL    HW218075   5.212   5.285   4.122
 5726SOL     OW18076   6.168   3.654   5.170
 5726SOL    HW118077   6.146   3.695   5.259
 5726SOL    HW218078   6.101   3.583   5.149
 5727SOL     OW18079   5.965   2.264   3.196
 5727SOL    HW118080   5.969   2.340   3.261
 5727SOL    HW218081   5.872   2.256   3.159
 5728SOL     OW18082   6.239   1.046   5.796
 5728SOL    HW118083   6.332   1.084   5.801
 5728SOL    HW218084   6.242   0.949   5.818
 5729SOL     OW18085   0.207   2.063   6.985
 5729SOL    HW118086   0.223   2.085   6.888
 5729SOL    HW218087   0.151   2.134   0.005
 5730SOL     OW18088   3.710   5.936   4.885
 5730SOL    HW118089   3.686   5.848   4.928
 5730SOL    HW218090   3.722   5.922   4.786
 5731SOL     OW18091   1.678   6.585   4.266
 5731SOL    HW118092   1.642   6.609   4.357
 5731SOL    HW218093   1.656   6.658   4.202
 5732SOL     OW18094   6.028   4.859   4.242
 5732SOL    HW118095   5.998   4.764   4.236
 5732SOL    HW218096   6.112   4.871   4.191
 5733SOL     OW18097   3.367   0.709   0.045
 5733SOL    HW118098   3.413   0.683   0.129
 5733SOL    HW218099   3.400   0.651   6.991
 5734SOL     OW18100   1.513   6.948   5.361
 5734SOL    HW118101   1.536   6.995   5.275
 5734SOL    HW218102   1.597   6.921   5.407
 5735SOL     OW18103   3.825   0.666   2.628
 5735SOL    HW118104   3.793   0.694   2.719
 5735SOL    HW218105   3.895   0.729   2.596
 5736SOL     OW18106   4.937   4.575   6.228
 5736SOL    HW118107   4.855   4.551   6.281
 5736SOL    HW218108   4.910   4.629   6.149
 5737SOL     OW18109   5.358   6.286   1.021
 5737SOL    HW118110   5.357   6.191   0.989
 5737SOL    HW218111   5.359   6.287   1.121
 5738SOL     OW18112   3.652   1.302   6.662
 5738SOL    HW118113   3.680   1.386   6.709
 5738SOL    HW218114   3.722   1.276   6.596
 5739SOL     OW18115   1.850   6.999   5.931
 5739SOL    HW118116   1.761   6.989   5.975
 5739SOL    HW218117   1.838   0.017   5.840
 5740SOL     OW18118   5.034   3.554   0.851
 5740SOL    HW118119   5.098   3.625   0.821
 5740SOL    HW218120   4.965   3.539   0.780
 5741SOL     OW18121   0.653   3.961   4.201
 5741SOL    HW118122   0.630   3.986   4.106
 5741SOL    HW218123   0.590   3.890   4.232
 5742SOL     OW18124   3.870   6.787   3.734
 5742SOL    HW118125   3.817   6.871   3.720
 5742SOL    HW218126   3.965   6.803   3.709
 5743SOL     OW18127   3.872   4.305   5.835
 5743SOL    HW118128   3.970   4.321   5.852
 5743SOL    HW218129   3.818   4.358   5.901
 5744SOL     OW18130   6.064   0.444   3.098
 5744SOL    HW118131   6.104   0.391   3.024
 5744SOL    HW218132   5.999   0.510   3.061
 5745SOL     OW18133   2.574   2.451   3.890
 5745SOL    HW118134   2.562   2.357   3.858
 5745SOL    HW218135   2.670   2.477   3.883
 5746SOL     OW18136   3.789   0.363   3.512
 5746SOL    HW118137   3.882   0.374   3.477
 5746SOL    HW218138   3.736   0.446   3.493
 5747SOL     OW18139   1.036   5.935   1.877
 5747SOL    HW118140   0.947   5.973   1.900
 5747SOL    HW218141   1.103   6.009   1.869
 5748SOL     OW18142   0.248   6.182   0.242
 5748SOL    HW118143   0.249   6.155   0.338
 5748SOL    HW218144   0.323   6.137   0.194
 5749SOL     OW18145   1.893   6.887   5.065
 5749SOL    HW118146   1.906   6.912   5.161
 5749SOL    HW218147   1.971   6.834   5.034
 5750SOL     OW18148   6.701   4.171   4.354
 5750SOL    HW118149   6.732   4.085   4.394
 5750SOL    HW218150   6.610   4.194   4.390
 5751SOL     OW18151   2.110   3.881   4.525
 5751SOL    HW118152   2.126   3.792   4.566
 5751SOL    HW218153   2.017   3.911   4.544
 5752SOL     OW18154   5.419   6.979   0.860
 5752SOL    HW118155   5.468   6.911   0.915
 5752SOL    HW218156   5.340   6.936   0.817
 5753SOL     OW18157   2.816   3.850   5.182
 5753SOL    HW118158   2.890   3.912   5.159
 5753SOL    HW218159   2.739   3.902   5.219
 5754SOL     OW18160   1.322   6.456   1.699
 5754SOL    HW118161   1.397   6.508   1.740
 5754SOL    HW218162   1.356   6.406   1.619
 5755SOL     OW18163   2.218   2.251   6.941
 5755SOL    HW118164   2.294   2.187   6.932
 5755SOL    HW218165   2.131   2.201   6.934
 5756SOL     OW18166   6.649   0.154   1.898
 5756SOL    HW118167   6.722   0.098   1.938
 5756SOL    HW218168   6.567   0.147   1.955
 5757SOL     OW18169   6.694   5.974   3.862
 5757SOL    HW118170   6.665   6.069   3.851
 5757SOL    HW218171   6.694   5.951   3.960
 5758SOL     OW18172   1.873   6.927   3.152
 5758SOL    HW118173   1.850   7.016   3.192
 5758SOL    HW218174   1.790   6.871   3.145
 5759SOL     OW18175   4.718   6.669   1.657
 5759SOL    HW118176   4.762   6.730   1.590
 5759SOL    HW218177   4.719   6.575   1.622
 5760SOL     OW18178   6.922   3.386   2.080
 5760SOL    HW118179   6.884   3.475   2.108
 5760SOL    HW218180   6.854   3.337   2.026
 5761SOL     OW18181   5.055   5.729   4.948
 5761SOL    HW118182   5.016   5.791   5.015
 5761SOL    HW218183   4.998   5.726   4.866
 5762SOL     OW18184   5.156   4.447   0.841
 5762SOL    HW118185   5.164   4.352   0.811
 5762SOL    HW218186   5.223   4.465   0.913
 5763SOL     OW18187   5.066   6.882   0.381
 5763SOL    HW118188   5.007   6.827   0.322
 5763SOL    HW218189   5.134   6.823   0.425
 5764SOL     OW18190   4.211   5.405   3.354
 5764SOL    HW118191   4.153   5.355   3.290
 5764SOL    HW218192   4.307   5.385   3.336
 5765SOL     OW18193   6.239   4.465   0.582
 5765SOL    HW118194   6.196   4.555   0.593
 5765SOL    HW218195   6.280   4.459   0.491
 5766SOL     OW18196   1.294   1.966   4.711
 5766SOL    HW118197   1.204   1.939   4.677
 5766SOL    HW218198   1.355   1.980   4.633
 5767SOL     OW18199   2.102   0.254   0.494
 5767SOL    HW118200   2.189   0.240   0.541
 5767SOL    HW218201   2.030   0.204   0.543
 5768SOL     OW18202   6.954   6.986   3.444
 5768SOL    HW118203   0.012   6.976   3.504
 5768SOL    HW218204   6.952   6.911   3.378
 5769SOL     OW18205   2.306   5.331   6.343
 5769SOL    HW118206   2.226   5.351   6.399
 5769SOL    HW218207   2.281   5.264   6.272
 5770SOL     OW18208   0.847   6.195   0.031
 5770SOL    HW118209   0.930   6.226   7.007
 5770SOL    HW218210   0.841   6.236   0.122
 5771SOL     OW18211   2.292   6.586   3.643
 5771SOL    HW118212   2.232   6.645   3.589
 5771SOL    HW218213   2.312   6.630   3.730
 5772SOL     OW18214   4.444   0.978   1.802
 5772SOL    HW118215   4.375   0.977   1.730
 5772SOL    HW218216   4.512   1.049   1.782
 5773SOL     OW18217   4.533   1.862   2.440
 5773SOL    HW118218   4.482   1.893   2.520
 5773SOL    HW218219   4.538   1.936   2.373
 5774SOL     OW18220   1.857   0.489   5.215
 5774SOL    HW118221   1.886   0.541   5.135
 5774SOL    HW218222   1.915   0.408   5.225
 5775SOL     OW18223   0.881   6.325   2.553
 5775SOL    HW118224   0.848   6.397   2.615
 5775SOL    HW218225   0.860   6.350   2.459
 5776SOL     OW18226   1.264   0.306   3.288
 5776SOL    HW118227   1.351   0.331   3.245
 5776SOL    HW218228   1.242   0.211   3.265
 5777SOL     OW18229   1.334   0.484   3.744
 5777SOL    HW118230   1.411   0.547   3.751
 5777SOL    HW218231   1.251   0.534   3.718
 5778SOL     OW18232   1.209   1.015   0.704
 5778SOL    HW118233   1.127   1.067   0.728
 5778SOL    HW218234   1.231   0.952   0.778
 5779SOL     OW18235   4.858   2.740   6.732
 5779SOL    HW118236   4.938   2.784   6.690
 5779SOL    HW218237   4.847   2.648   6.695
 5780SOL     OW18238   5.820   5.655   4.755
 5780SOL    HW118239   5.729   5.689   4.781
 5780SOL    HW218240   5.877   5.647   4.837
 5781SOL     OW18241   6.368   5.028   5.065
 5781SOL    HW118242   6.314   4.955   5.107
 5781SOL    HW218243   6.306   5.099   5.029
 5782SOL     OW18244   1.176   1.424   0.680
 5782SOL    HW118245   1.162   1.328   0.706
 5782SOL    HW218246   1.129   1.483   0.745
 5783SOL     OW18247   1.291   1.042   2.273
 5783SOL    HW118248   1.302   1.119   2.336
 5783SOL    HW218249   1.380   1.003   2.251
 5784SOL     OW18250   0.476   5.896   6.626
 5784SOL    HW118251   0.506   5.847   6.707
 5784SOL    HW218252   0.400   5.957   6.650
 5785SOL     OW18253   2.477   1.686   0.283
 5785SOL    HW118254   2.485   1.784   0.300
 5785SOL    HW218255   2.412   1.645   0.347
 5786SOL     OW18256   6.353   4.396   0.345
 5786SOL    HW118257   6.397   4.315   0.384
 5786SOL    HW218258   6.318   4.374   0.254
 5787SOL     OW18259   2.060   1.670   5.948
 5787SOL    HW118260   2.091   1.689   5.855
 5787SOL    HW218261   2.135   1.683   6.013
 5788SOL     OW18262   2.822   1.283   3.024
 5788SOL    HW118263   2.772   1.363   2.992
 5788SOL    HW218264   2.759   1.221   3.070
 5789SOL     OW18265   3.486   5.502   6.438
 5789SOL    HW118266   3.558   5.516   6.370
 5789SOL    HW218267   3.505   5.419   6.490
 5790SOL     OW18268   0.897   3.568   4.502
 5790SOL    HW118269   0.848   3.602   4.583
 5790SOL    HW218270   0.924   3.646   4.445
 5791SOL     OW18271   3.711   6.956   2.017
 5791SOL    HW118272   3.749   7.013   1.944
 5791SOL    HW218273   3.620   6.923   1.990
 5792SOL     OW18274   0.283   2.553   2.736
 5792SOL    HW118275   0.336   2.493   2.796
 5792SOL    HW218276   0.222   2.610   2.791
 5793SOL     OW18277   5.463   1.583   3.035
 5793SOL    HW118278   5.374   1.561   3.074
 5793SOL    HW218279   5.451   1.638   2.953
 5794SOL     OW18280   3.645   2.063   0.574
 5794SOL    HW118281   3.665   2.161   0.578
 5794SOL    HW218282   3.625   2.037   0.480
 5795SOL     OW18283   6.086   5.773   5.667
 5795SOL    HW118284   6.143   5.702   5.707
 5795SOL    HW218285   6.094   5.769   5.567
 5796SOL     OW18286   3.992   1.032   6.922
 5796SOL    HW118287   4.024   0.954   6.869
 5796SOL    HW218288   3.896   1.050   6.901
 5797SOL     OW18289   4.066   1.717   4.783
 5797SOL    HW118290   4.144   1.696   4.725
 5797SOL    HW218291   3.991   1.752   4.726
 5798SOL     OW18292   0.865   4.414   5.576
 5798SOL    HW118293   0.890   4.394   5.671
 5798SOL    HW218294   0.823   4.333   5.535
 5799SOL     OW18295   5.363   1.243   3.681
 5799SOL    HW118296   5.293   1.282   3.740
 5799SOL    HW218297   5.319   1.201   3.601
 5800SOL     OW18298   5.620   6.116   0.676
 5800SOL    HW118299   5.618   6.017   0.690
 5800SOL    HW218300   5.571   6.139   0.592
 5801SOL     OW18301   1.078   2.609   4.600
 5801SOL    HW118302   1.121   2.518   4.597
 5801SOL    HW218303   1.145   2.675   4.636
 5802SOL     OW18304   0.966   4.593   0.316
 5802SOL    HW118305   1.018   4.626   0.395
 5802SOL    HW218306   0.992   4.499   0.296
 5803SOL     OW18307   1.324   4.540   2.176
 5803SOL    HW118308   1.277   4.467   2.125
 5803SOL    HW218309   1.257   4.599   2.219
 5804SOL     OW18310   6.459   4.319   3.494
 5804SOL    HW118311   6.540   4.375   3.475
 5804SOL    HW218312   6.485   4.240   3.548
 5805SOL     OW18313   3.626   4.726   6.895
 5805SOL    HW118314   3.688   4.802   6.913
 5805SOL    HW218315   3.603   4.680   6.981
 5806SOL     OW18316   0.226   6.506   6.461
 5806SOL    HW118317   0.198   6.414   6.431
 5806SOL    HW218318   0.322   6.503   6.489
 5807SOL     OW18319   1.640   4.179   1.519
 5807SOL    HW118320   1.701   4.258   1.515
 5807SOL    HW218321   1.629   4.150   1.614
 5808SOL     OW18322   5.892   4.037   3.165
 5808SOL    HW118323   5.877   4.114   3.227
 5808SOL    HW218324   5.818   3.970   3.176
 5809SOL     OW18325   0.208   2.500   5.034
 5809SOL    HW118326   0.262   2.478   4.953
 5809SOL    HW218327   0.111   2.503   5.010
 5810SOL     OW18328   3.117   0.821   3.824
 5810SOL    HW118329   3.209   0.841   3.789
 5810SOL    HW218330   3.067   0.766   3.758
 5811SOL     OW18331   2.928   6.832   4.698
 5811SOL    HW118332   2.971   6.920   4.715
 5811SOL    HW218333   2.968   6.763   4.757
 5812SOL     OW18334   5.400   0.429   4.063
 5812SOL    HW118335   5.475   0.463   4.120
 5812SOL    HW218336   5.321   0.489   4.073
 5813SOL     OW18337   1.391   1.058   0.287
 5813SOL    HW118338   1.411   1.059   0.385
 5813SOL    HW218339   1.338   1.140   0.263
 5814SOL     OW18340   6.031   4.532   0.979
 5814SOL    HW118341   5.979   4.551   1.063
 5814SOL    HW218342   6.108   4.596   0.972
 5815SOL     OW18343   4.388   2.250   3.993
 5815SOL    HW118344   4.408   2.293   4.081
 5815SOL    HW218345   4.364   2.154   4.007
 5816SOL     OW18346   4.700   6.000   0.045
 5816SOL    HW118347   4.641   5.945   0.104
 5816SOL    HW218348   4.661   6.091   0.034
 5817SOL     OW18349   5.406   3.039   5.313
 5817SOL    HW118350   5.339   3.011   5.244
 5817SOL    HW218351   5.498   3.028   5.275
 5818SOL     OW18352   6.815   6.477   5.199
 5818SOL    HW118353   6.837   6.523   5.113
 5818SOL    HW218354   6.864   6.390   5.203
 5819SOL     OW18355   4.502   0.415   0.074
 5819SOL    HW118356   4.574   0.423   0.142
 5819SOL    HW218357   4.467   0.506   0.051
 5820SOL     OW18358   4.529   6.807   3.917
 5820SOL    HW118359   4.597   6.838   3.851
 5820SOL    HW218360   4.540   6.856   4.003
 5821SOL     OW18361   0.845   0.041   2.229
 5821SOL    HW118362   0.906   0.093   2.170
 5821SOL    HW218363   0.804   0.102   2.297
 5822SOL     OW18364   0.273   2.134   2.260
 5822SOL    HW118365   0.325   2.048   2.250
 5822SOL    HW218366   0.290   2.172   2.351
 5823SOL     OW18367   0.989   1.255   6.189
 5823SOL    HW118368   0.893   1.265   6.213
 5823SOL    HW218369   1.003   1.167   6.142
 5824SOL     OW18370   6.742   6.087   2.660
 5824SOL    HW118371   6.701   6.156   2.601
 5824SOL    HW218372   6.683   6.072   2.739
 5825SOL     OW18373   2.103   1.790   5.497
 5825SOL    HW118374   2.014   1.828   5.473
 5825SOL    HW218375   2.172   1.820   5.431
 5826SOL     OW18376   6.982   5.317   5.252
 5826SOL    HW118377   6.910   5.382   5.228
 5826SOL    HW218378   7.016   5.272   5.170
 5827SOL     OW18379   2.098   4.987   5.041
 5827SOL    HW118380   2.052   4.956   5.124
 5827SOL    HW218381   2.146   4.909   4.999
 5828SOL     OW18382   6.905   3.059   1.754
 5828SOL    HW118383   6.834   3.124   1.780
 5828SOL    HW218384   6.947   3.088   1.668
 5829SOL     OW18385   2.792   1.564   2.831
 5829SOL    HW118386   2.840   1.500   2.771
 5829SOL    HW218387   2.854   1.636   2.862
 5830SOL     OW18388   4.202   0.260   5.346
 5830SOL    HW118389   4.139   0.241   5.422
 5830SOL    HW218390   4.150   0.275   5.262
 5831SOL     OW18391   6.852   0.744   4.066
 5831SOL    HW118392   6.851   0.644   4.067
 5831SOL    HW218393   6.786   0.778   4.000
 5832SOL     OW18394   3.650   4.407   5.267
 5832SOL    HW118395   3.551   4.403   5.254
 5832SOL    HW218396   3.681   4.325   5.315
 5833SOL     OW18397   4.032   3.240   4.828
 5833SOL    HW118398   3.975   3.205   4.903
 5833SOL    HW218399   4.007   3.194   4.743
 5834SOL     OW18400   6.019   2.468   0.571
 5834SOL    HW118401   6.044   2.455   0.667
 5834SOL    HW218402   5.931   2.515   0.565
 5835SOL     OW18403   4.865   3.050   2.561
 5835SOL    HW118404   4.872   3.128   2.623
 5835SOL    HW218405   4.844   3.082   2.469
 5836SOL     OW18406   2.909   6.646   3.051
 5836SOL    HW118407   2.980   6.609   2.991
 5836SOL    HW218408   2.875   6.573   3.111
 5837SOL     OW18409   4.480   4.977   5.704
 5837SOL    HW118410   4.413   4.917   5.748
 5837SOL    HW218411   4.496   5.057   5.761
 5838SOL     OW18412   2.492   1.456   6.035
 5838SOL    HW118413   2.545   1.508   6.102
 5838SOL    HW218414   2.415   1.412   6.080
 5839SOL     OW18415   0.332   2.947   2.691
 5839SOL    HW118416   0.423   2.906   2.685
 5839SOL    HW218417   0.282   2.907   2.768
 5840SOL     OW18418   1.502   5.003   6.862
 5840SOL    HW118419   1.504   4.970   6.768
 5840SOL    HW218420   1.580   5.064   6.878
 5841SOL     OW18421   5.694   2.217   2.241
 5841SOL    HW118422   5.692   2.227   2.142
 5841SOL    HW218423   5.766   2.275   2.279
 5842SOL     OW18424   4.317   3.401   1.759
 5842SOL    HW118425   4.227   3.364   1.739
 5842SOL    HW218426   4.341   3.471   1.693
 5843SOL     OW18427   2.261   4.050   2.164
 5843SOL    HW118428   2.354   4.017   2.176
 5843SOL    HW218429   2.214   3.993   2.097
 5844SOL     OW18430   0.294   0.172   6.034
 5844SOL    HW118431   0.293   0.072   6.029
 5844SOL    HW218432   0.241   0.201   6.113
 5845SOL     OW18433   1.325   0.466   2.920
 5845SOL    HW118434   1.276   0.379   2.920
 5845SOL    HW218435   1.421   0.450   2.897
 5846SOL     OW18436   5.992   3.002   4.302
 5846SOL    HW118437   5.980   2.961   4.211
 5846SOL    HW218438   6.040   3.090   4.292
 5847SOL     OW18439   2.062   1.967   2.266
 5847SOL    HW118440   2.125   1.986   2.191
 5847SOL    HW218441   2.057   1.868   2.280
 5848SOL     OW18442   2.147   5.128   2.925
 5848SOL    HW118443   2.229   5.080   2.897
 5848SOL    HW218444   2.124   5.102   3.019
 5849SOL     OW18445   6.634   0.651   6.172
 5849SOL    HW118446   6.549   0.699   6.152
 5849SOL    HW218447   6.711   0.714   6.159
 5850SOL     OW18448   0.687   3.430   2.478
 5850SOL    HW118449   0.698   3.378   2.563
 5850SOL    HW218450   0.773   3.476   2.456
 5851SOL     OW18451   4.895   3.480   3.086
 5851SOL    HW118452   4.869   3.558   3.144
 5851SOL    HW218453   4.906   3.511   2.992
 5852SOL     OW18454   4.905   6.488   3.112
 5852SOL    HW118455   4.836   6.560   3.115
 5852SOL    HW218456   4.907   6.447   3.021
 5853SOL     OW18457   2.743   5.783   5.502
 5853SOL    HW118458   2.695   5.871   5.502
 5853SOL    HW218459   2.820   5.787   5.439
 5854SOL     OW18460   6.240   3.634   5.659
 5854SOL    HW118461   6.183   3.603   5.736
 5854SOL    HW218462   6.336   3.611   5.677
 5855SOL     OW18463   0.641   0.501   4.338
 5855SOL    HW118464   0.698   0.584   4.338
 5855SOL    HW218465   0.689   0.428   4.385
 5856SOL     OW18466   2.166   5.855   3.414
 5856SOL    HW118467   2.245   5.815   3.461
 5856SOL    HW218468   2.193   5.888   3.324
 5857SOL     OW18469   6.238   2.752   5.378
 5857SOL    HW118470   6.160   2.696   5.347
 5857SOL    HW218471   6.319   2.728   5.324
 5858SOL     OW18472   2.627   2.314   2.135
 5858SOL    HW118473   2.624   2.355   2.226
 5858SOL    HW218474   2.722   2.303   2.106
 5859SOL     OW18475   5.191   6.847   0.992
 5859SOL    HW118476   5.151   6.840   1.084
 5859SOL    HW218477   5.280   6.801   0.991
 5860SOL     OW18478   2.177   3.749   1.797
 5860SOL    HW118479   2.167   3.836   1.844
 5860SOL    HW218480   2.187   3.675   1.864
 5861SOL     OW18481   5.039   1.348   4.038
 5861SOL    HW118482   4.942   1.323   4.049
 5861SOL    HW218483   5.055   1.438   4.079
 5862SOL     OW18484   4.877   4.892   3.343
 5862SOL    HW118485   4.812   4.960   3.377
 5862SOL    HW218486   4.915   4.840   3.419
 5863SOL     OW18487   3.286   0.883   4.853
 5863SOL    HW118488   3.226   0.955   4.888
 5863SOL    HW218489   3.348   0.852   4.925
 5864SOL     OW18490   4.269   3.728   1.691
 5864SOL    HW118491   4.328   3.650   1.672
 5864SOL    HW218492   4.240   3.726   1.787
 5865SOL     OW18493   5.688   0.214   3.804
 5865SOL    HW118494   5.731   0.171   3.725
 5865SOL    HW218495   5.617   0.278   3.772
 5866SOL     OW18496   3.622   6.153   6.202
 5866SOL    HW118497   3.539   6.188   6.159
 5866SOL    HW218498   3.687   6.123   6.132
 5867SOL     OW18499   0.508   3.501   0.703
 5867SOL    HW118500   0.587   3.553   0.671
 5867SOL    HW218501   0.463   3.551   0.776
 5868SOL     OW18502   6.881   0.639   4.910
 5868SOL    HW118503   6.926   0.726   4.889
 5868SOL    HW218504   6.913   0.605   4.999
 5869SOL     OW18505   1.911   5.434   3.354
 5869SOL    HW118506   1.830   5.474   3.396
 5869SOL    HW218507   1.992   5.489   3.376
 5870SOL     OW18508   4.538   5.543   4.622
 5870SOL    HW118509   4.589   5.618   4.663
 5870SOL    HW218510   4.489   5.492   4.692
 5871SOL     OW18511   4.300   3.611   6.954
 5871SOL    HW118512   4.306   3.512   6.943
 5871SOL    HW218513   4.348   3.656   6.879
 5872SOL     OW18514   3.855   4.909   6.887
 5872SOL    HW118515   3.887   4.933   6.978
 5872SOL    HW218516   3.808   4.988   6.846
 5873SOL     OW18517   2.178   2.934   0.801
 5873SOL    HW118518   2.129   2.900   0.721
 5873SOL    HW218519   2.128   2.906   0.884
 5874SOL     OW18520   3.046   2.765   1.138
 5874SOL    HW118521   3.011   2.672   1.141
 5874SOL    HW218522   3.141   2.767   1.168
 5875SOL     OW18523   3.619   1.595   1.083
 5875SOL    HW118524   3.698   1.635   1.036
 5875SOL    HW218525   3.638   1.498   1.102
 5876SOL     OW18526   3.145   2.867   6.844
 5876SOL    HW118527   3.133   2.869   6.943
 5876SOL    HW218528   3.078   2.806   6.803
 5877SOL     OW18529   6.398   6.858   0.665
 5877SOL    HW118530   6.347   6.870   0.580
 5877SOL    HW218531   6.344   6.803   0.729
 5878SOL     OW18532   5.154   5.424   3.231
 5878SOL    HW118533   5.128   5.391   3.141
 5878SOL    HW218534   5.075   5.466   3.276
 5879SOL     OW18535   2.844   2.930   6.048
 5879SOL    HW118536   2.901   2.963   5.973
 5879SOL    HW218537   2.784   3.003   6.080
 5880SOL     OW18538   4.307   4.377   6.214
 5880SOL    HW118539   4.361   4.293   6.220
 5880SOL    HW218540   4.363   4.450   6.175
 5881SOL     OW18541   1.002   6.712   2.645
 5881SOL    HW118542   1.010   6.638   2.712
 5881SOL    HW218543   1.091   6.729   2.603
 5882SOL     OW18544   0.483   6.986   5.928
 5882SOL    HW118545   0.495   0.056   5.967
 5882SOL    HW218546   0.494   6.992   5.828
 5883SOL     OW18547   0.199   1.606   0.620
 5883SOL    HW118548   0.255   1.528   0.593
 5883SOL    HW218549   0.103   1.579   0.621
 5884SOL     OW18550   6.291   0.872   4.745
 5884SOL    HW118551   6.317   0.796   4.685
 5884SOL    HW218552   6.334   0.862   4.834
 5885SOL     OW18553   0.652   5.369   0.742
 5885SOL    HW118554   0.593   5.332   0.814
 5885SOL    HW218555   0.606   5.445   0.697
 5886SOL     OW18556   1.522   3.594   3.492
 5886SOL    HW118557   1.514   3.678   3.546
 5886SOL    HW218558   1.440   3.538   3.505
 5887SOL     OW18559   2.942   1.931   1.823
 5887SOL    HW118560   2.884   1.945   1.903
 5887SOL    HW218561   2.956   2.018   1.776
 5888SOL     OW18562   3.025   6.849   0.974
 5888SOL    HW118563   3.052   6.944   0.963
 5888SOL    HW218564   2.939   6.845   1.024
 5889SOL     OW18565   6.789   1.153   0.977
 5889SOL    HW118566   6.864   1.133   0.914
 5889SOL    HW218567   6.728   1.220   0.936
 5890SOL     OW18568   1.698   6.818   2.480
 5890SOL    HW118569   1.620   6.862   2.436
 5890SOL    HW218570   1.779   6.876   2.473
 5891SOL     OW18571   2.546   3.718   0.321
 5891SOL    HW118572   2.588   3.742   0.234
 5891SOL    HW218573   2.594   3.641   0.361
 5892SOL     OW18574   0.153   5.025   1.318
 5892SOL    HW118575   0.136   5.035   1.416
 5892SOL    HW218576   0.078   4.975   1.276
 5893SOL     OW18577   1.317   4.774   1.368
 5893SOL    HW118578   1.347   4.688   1.408
 5893SOL    HW218579   1.298   4.761   1.270
 5894SOL     OW18580   0.900   5.756   5.363
 5894SOL    HW118581   0.839   5.677   5.360
 5894SOL    HW218582   0.989   5.727   5.399
 5895SOL     OW18583   6.337   3.355   4.270
 5895SOL    HW118584   6.415   3.357   4.208
 5895SOL    HW218585   6.344   3.432   4.334
 5896SOL     OW18586   4.944   1.388   1.677
 5896SOL    HW118587   4.890   1.321   1.625
 5896SOL    HW218588   5.023   1.343   1.717
 5897SOL     OW18589   3.962   1.293   1.795
 5897SOL    HW118590   3.890   1.229   1.768
 5897SOL    HW218591   3.961   1.303   1.895
 5898SOL     OW18592   2.550   1.225   5.923
 5898SOL    HW118593   2.543   1.322   5.949
 5898SOL    HW218594   2.613   1.216   5.847
 5899SOL     OW18595   0.333   5.102   5.754
 5899SOL    HW118596   0.355   5.182   5.809
 5899SOL    HW218597   0.293   5.131   5.667
 5900SOL     OW18598   0.174   5.356   3.368
 5900SOL    HW118599   0.189   5.413   3.287
 5900SOL    HW218600   0.216   5.400   3.448
 5901SOL     OW18601   1.140   0.814   0.894
 5901SOL    HW118602   1.053   0.792   0.849
 5901SOL    HW218603   1.183   0.730   0.927
 5902SOL     OW18604   5.571   3.517   4.906
 5902SOL    HW118605   5.645   3.554   4.848
 5902SOL    HW218606   5.506   3.589   4.927
 5903SOL     OW18607   5.440   2.737   6.680
 5903SOL    HW118608   5.442   2.806   6.752
 5903SOL    HW218609   5.533   2.724   6.644
 5904SOL     OW18610   1.552   4.402   1.111
 5904SOL    HW118611   1.540   4.398   1.210
 5904SOL    HW218612   1.569   4.311   1.075
 5905SOL     OW18613   5.710   1.093   3.481
 5905SOL    HW118614   5.682   1.160   3.550
 5905SOL    HW218615   5.646   1.016   3.482
 5906SOL     OW18616   5.579   1.673   5.378
 5906SOL    HW118617   5.591   1.711   5.470
 5906SOL    HW218618   5.628   1.587   5.371
 5907SOL     OW18619   1.822   6.820   0.600
 5907SOL    HW118620   1.725   6.806   0.619
 5907SOL    HW218621   1.847   6.774   0.515
 5908SOL     OW18622   5.102   3.554   0.162
 5908SOL    HW118623   5.148   3.492   0.098
 5908SOL    HW218624   5.137   3.537   0.255
 5909SOL     OW18625   0.591   4.050   5.866
 5909SOL    HW118626   0.511   3.990   5.857
 5909SOL    HW218627   0.568   4.140   5.829
 5910SOL     OW18628   1.028   4.581   0.804
 5910SOL    HW118629   1.007   4.496   0.755
 5910SOL    HW218630   1.038   4.562   0.901
 5911SOL     OW18631   0.176   6.034   5.836
 5911SOL    HW118632   0.109   6.089   5.886
 5911SOL    HW218633   0.213   6.088   5.760
 5912SOL     OW18634   5.909   3.188   6.673
 5912SOL    HW118635   5.883   3.182   6.577
 5912SOL    HW218636   6.008   3.194   6.681
 5913SOL     OW18637   2.387   3.095   5.872
 5913SOL    HW118638   2.470   3.045   5.848
 5913SOL    HW218639   2.309   3.033   5.866
 5914SOL     OW18640   2.579   5.439   0.291
 5914SOL    HW118641   2.669   5.448   0.334
 5914SOL    HW218642   2.538   5.530   0.282
 5915SOL     OW18643   5.512   3.334   2.228
 5915SOL    HW118644   5.447   3.260   2.242
 5915SOL    HW218645   5.514   3.360   2.131
 5916SOL     OW18646   4.858   0.498   5.549
 5916SOL    HW118647   4.770   0.498   5.501
 5916SOL    HW218648   4.859   0.572   5.616
 5917SOL     OW18649   3.539   3.077   3.331
 5917SOL    HW118650   3.518   3.098   3.426
 5917SOL    HW218651   3.477   3.007   3.297
 5918SOL     OW18652   2.118   3.594   4.617
 5918SOL    HW118653   2.078   3.539   4.690
 5918SOL    HW218654   2.146   3.535   4.542
 5919SOL     OW18655   3.027   1.777   0.441
 5919SOL    HW118656   3.004   1.802   0.347
 5919SOL    HW218657   3.047   1.679   0.445
 5920SOL     OW18658   3.957   7.007   6.649
 5920SOL    HW118659   4.037   6.959   6.612
 5920SOL    HW218660   3.896   6.941   6.693
 5921SOL     OW18661   3.498   5.200   5.319
 5921SOL    HW118662   3.498   5.120   5.259
 5921SOL    HW218663   3.533   5.174   5.410
 5922SOL     OW18664   6.509   5.100   3.368
 5922SOL    HW118665   6.555   5.058   3.446
 5922SOL    HW218666   6.496   5.197   3.384
 5923SOL     OW18667   6.863   1.145   3.441
 5923SOL    HW118668   6.941   1.158   3.502
 5923SOL    HW218669   6.883   1.071   3.377
 5924SOL     OW18670   5.552   2.480   5.064
 5924SOL    HW118671   5.593   2.452   4.977
 5924SOL    HW218672   5.578   2.416   5.136
 5925SOL     OW18673   4.743   6.094   2.990
 5925SOL    HW118674   4.742   6.152   3.071
 5925SOL    HW218675   4.652   6.052   2.978
 5926SOL     OW18676   3.292   5.052   1.649
 5926SOL    HW118677   3.233   5.002   1.713
 5926SOL    HW218678   3.299   5.147   1.678
 5927SOL     OW18679   2.089   4.607   1.493
 5927SOL    HW118680   2.174   4.638   1.536
 5927SOL    HW218681   2.030   4.566   1.563
 5928SOL     OW18682   2.537   0.233   2.415
 5928SOL    HW118683   2.617   0.270   2.368
 5928SOL    HW218684   2.457   0.239   2.356
 5929SOL     OW18685   0.743   6.397   5.732
 5929SOL    HW118686   0.784   6.482   5.699
 5929SOL    HW218687   0.790   6.366   5.814
 5930SOL     OW18688   5.870   1.359   4.081
 5930SOL    HW118689   5.786   1.389   4.035
 5930SOL    HW218690   5.930   1.437   4.094
 5931SOL     OW18691   6.036   4.955   2.322
 5931SOL    HW118692   6.080   5.043   2.341
 5931SOL    HW218693   5.952   4.947   2.376
 5932SOL     OW18694   2.402   6.630   0.967
 5932SOL    HW118695   2.359   6.705   0.917
 5932SOL    HW218696   2.393   6.647   1.065
 5933SOL     OW18697   6.895   4.254   1.955
 5933SOL    HW118698   6.950   4.317   2.010
 5933SOL    HW218699   6.919   4.263   1.859
 5934SOL     OW18700   3.644   3.835   3.569
 5934SOL    HW118701   3.629   3.810   3.665
 5934SOL    HW218702   3.641   3.934   3.560
 5935SOL     OW18703   3.927   3.783   4.577
 5935SOL    HW118704   3.898   3.728   4.499
 5935SOL    HW218705   4.004   3.738   4.624
 5936SOL     OW18706   4.137   3.760   6.602
 5936SOL    HW118707   4.140   3.660   6.608
 5936SOL    HW218708   4.087   3.787   6.520
 5937SOL     OW18709   0.602   3.789   2.121
 5937SOL    HW118710   0.569   3.795   2.026
 5937SOL    HW218711   0.600   3.693   2.150
 5938SOL     OW18712   1.592   5.029   4.376
 5938SOL    HW118713   1.622   4.939   4.343
 5938SOL    HW218714   1.653   5.059   4.449
 5939SOL     OW18715   3.209   0.309   3.211
 5939SOL    HW118716   3.191   0.298   3.113
 5939SOL    HW218717   3.246   0.400   3.228
 5940SOL     OW18718   4.044   6.766   2.069
 5940SOL    HW118719   4.093   6.852   2.056
 5940SOL    HW218720   3.959   6.783   2.120
 5941SOL     OW18721   6.402   4.667   1.893
 5941SOL    HW118722   6.309   4.674   1.856
 5941SOL    HW218723   6.442   4.579   1.867
 5942SOL     OW18724   4.343   2.905   6.473
 5942SOL    HW118725   4.372   2.845   6.548
 5942SOL    HW218726   4.294   2.852   6.405
 5943SOL     OW18727   2.687   6.347   0.391
 5943SOL    HW118728   2.679   6.339   0.490
 5943SOL    HW218729   2.642   6.270   0.347
 5944SOL     OW18730   5.384   1.493   1.617
 5944SOL    HW118731   5.367   1.509   1.714
 5944SOL    HW218732   5.325   1.420   1.584
 5945SOL     OW18733   6.489   4.970   5.306
 5945SOL    HW118734   6.543   4.888   5.282
 5945SOL    HW218735   6.428   4.993   5.231
 5946SOL     OW18736   3.247   4.068   5.845
 5946SOL    HW118737   3.253   4.093   5.942
 5946SOL    HW218738   3.225   4.149   5.791
 5947SOL     OW18739   4.052   3.120   1.936
 5947SOL    HW118740   4.077   3.175   2.016
 5947SOL    HW218741   4.050   3.179   1.855
 5948SOL     OW18742   4.043   5.281   3.177
 5948SOL    HW118743   3.959   5.264   3.227
 5948SOL    HW218744   4.078   5.194   3.141
 5949SOL     OW18745   3.889   4.373   1.401
 5949SOL    HW118746   3.920   4.297   1.458
 5949SOL    HW218747   3.926   4.363   1.309
 5950SOL     OW18748   5.662   2.428   4.820
 5950SOL    HW118749   5.684   2.526   4.813
 5950SOL    HW218750   5.745   2.377   4.842
 5951SOL     OW18751   0.831   6.328   4.944
 5951SOL    HW118752   0.896   6.271   4.995
 5951SOL    HW218753   0.738   6.307   4.975
 5952SOL     OW18754   6.422   6.609   3.651
 5952SOL    HW118755   6.329   6.576   3.665
 5952SOL    HW218756   6.429   6.703   3.683
 5953SOL     OW18757   0.042   3.481   5.090
 5953SOL    HW118758   0.033   3.428   5.174
 5953SOL    HW218759   6.993   3.551   5.086
 5954SOL     OW18760   6.821   4.661   5.444
 5954SOL    HW118761   6.746   4.688   5.505
 5954SOL    HW218762   6.839   4.563   5.454
 5955SOL     OW18763   5.862   5.941   2.232
 5955SOL    HW118764   5.888   5.991   2.314
 5955SOL    HW218765   5.923   5.966   2.157
 5956SOL     OW18766   3.623   1.866   0.761
 5956SOL    HW118767   3.640   1.931   0.686
 5956SOL    HW218768   3.609   1.774   0.723
 5957SOL     OW18769   5.009   6.965   5.830
 5957SOL    HW118770   5.079   6.957   5.758
 5957SOL    HW218771   4.968   6.876   5.847
 5958SOL     OW18772   6.417   6.463   2.628
 5958SOL    HW118773   6.338   6.519   2.603
 5958SOL    HW218774   6.457   6.422   2.546
 5959SOL     OW18775   3.309   1.733   5.417
 5959SOL    HW118776   3.222   1.701   5.454
 5959SOL    HW218777   3.295   1.769   5.325
 5960SOL     OW18778   3.544   0.110   3.913
 5960SOL    HW118779   3.526   0.190   3.856
 5960SOL    HW218780   3.531   0.027   3.858
 5961SOL     OW18781   4.025   1.116   3.554
 5961SOL    HW118782   4.101   1.067   3.511
 5961SOL    HW218783   4.047   1.135   3.650
 5962SOL     OW18784   5.140   5.182   2.359
 5962SOL    HW118785   5.198   5.110   2.396
 5962SOL    HW218786   5.185   5.225   2.281
 5963SOL     OW18787   3.570   3.303   3.983
 5963SOL    HW118788   3.547   3.325   3.888
 5963SOL    HW218789   3.667   3.321   3.999
 5964SOL     OW18790   6.912   5.297   5.985
 5964SOL    HW118791   6.977   5.241   6.035
 5964SOL    HW218792   6.861   5.355   6.048
 5965SOL     OW18793   1.929   2.136   6.592
 5965SOL    HW118794   1.968   2.213   6.541
 5965SOL    HW218795   1.839   2.114   6.555
 5966SOL     OW18796   2.902   5.740   5.253
 5966SOL    HW118797   2.877   5.760   5.159
 5966SOL    HW218798   2.897   5.641   5.269
 5967SOL     OW18799   3.784   6.325   2.411
 5967SOL    HW118800   3.749   6.304   2.502
 5967SOL    HW218801   3.725   6.283   2.342
 5968SOL     OW18802   6.124   1.893   3.320
 5968SOL    HW118803   6.035   1.918   3.358
 5968SOL    HW218804   6.134   1.931   3.228
 5969SOL     OW18805   6.386   2.115   5.102
 5969SOL    HW118806   6.323   2.152   5.033
 5969SOL    HW218807   6.332   2.078   5.178
 5970SOL     OW18808   0.557   4.410   2.266
 5970SOL    HW118809   0.471   4.443   2.227
 5970SOL    HW218810   0.609   4.362   2.195
 5971SOL     OW18811   1.753   0.077   2.743
 5971SOL    HW118812   1.815   7.021   2.758
 5971SOL    HW218813   1.661   0.052   2.771
 5972SOL     OW18814   4.332   6.576   0.526
 5972SOL    HW118815   4.306   6.537   0.438
 5972SOL    HW218816   4.280   6.660   0.543
 5973SOL     OW18817   1.696   5.283   2.591
 5973SOL    HW118818   1.769   5.288   2.659
 5973SOL    HW218819   1.726   5.328   2.506
 5974SOL     OW18820   6.177   4.179   5.992
 5974SOL    HW118821   6.104   4.208   5.930
 5974SOL    HW218822   6.172   4.233   6.076
 5975SOL     OW18823   4.214   2.348   1.048
 5975SOL    HW118824   4.194   2.345   0.950
 5975SOL    HW218825   4.261   2.433   1.070
 5976SOL     OW18826   2.911   3.221   4.948
 5976SOL    HW118827   2.946   3.240   5.039
 5976SOL    HW218828   2.855   3.138   4.950
 5977SOL     OW18829   1.332   4.585   1.596
 5977SOL    HW118830   1.326   4.615   1.691
 5977SOL    HW218831   1.287   4.497   1.585
 5978SOL     OW18832   5.621   4.572   2.639
 5978SOL    HW118833   5.564   4.558   2.719
 5978SOL    HW218834   5.695   4.504   2.638
 5979SOL     OW18835   6.568   0.819   3.642
 5979SOL    HW118836   6.518   0.905   3.652
 5979SOL    HW218837   6.577   0.796   3.546
 5980SOL     OW18838   4.163   4.506   6.901
 5980SOL    HW118839   4.153   4.592   6.950
 5980SOL    HW218840   4.253   4.466   6.921
 5981SOL     OW18841   6.828   1.867   1.869
 5981SOL    HW118842   6.911   1.836   1.916
 5981SOL    HW218843   6.852   1.935   1.800
 5982SOL     OW18844   6.019   1.649   6.648
 5982SOL    HW118845   5.963   1.682   6.572
 5982SOL    HW218846   6.095   1.712   6.663
 5983SOL     OW18847   2.322   1.537   4.330
 5983SOL    HW118848   2.300   1.610   4.395
 5983SOL    HW218849   2.347   1.576   4.242
 5984SOL     OW18850   0.325   0.127   4.640
 5984SOL    HW118851   0.393   0.055   4.638
 5984SOL    HW218852   0.328   0.178   4.554
 5985SOL     OW18853   5.165   2.500   3.920
 5985SOL    HW118854   5.109   2.469   3.843
 5985SOL    HW218855   5.196   2.420   3.972
 5986SOL     OW18856   3.106   3.324   4.065
 5986SOL    HW118857   3.042   3.296   4.137
 5986SOL    HW218858   3.197   3.287   4.085
 5987SOL     OW18859   4.380   0.781   5.053
 5987SOL    HW118860   4.335   0.858   5.099
 5987SOL    HW218861   4.467   0.812   5.015
 5988SOL     OW18862   4.037   6.745   4.785
 5988SOL    HW118863   4.010   6.743   4.689
 5988SOL    HW218864   4.137   6.754   4.790
 5989SOL     OW18865   2.419   6.260   6.765
 5989SOL    HW118866   2.472   6.232   6.686
 5989SOL    HW218867   2.341   6.198   6.777
 5990SOL     OW18868   3.867   4.125   0.645
 5990SOL    HW118869   3.947   4.163   0.692
 5990SOL    HW218870   3.789   4.127   0.707
 5991SOL     OW18871   3.988   5.251   4.915
 5991SOL    HW118872   3.972   5.245   4.817
 5991SOL    HW218873   3.902   5.272   4.961
 5992SOL     OW18874   3.638   0.685   4.232
 5992SOL    HW118875   3.572   0.715   4.300
 5992SOL    HW218876   3.689   0.607   4.267
 5993SOL     OW18877   3.669   6.708   5.789
 5993SOL    HW118878   3.710   6.655   5.864
 5993SOL    HW218879   3.570   6.714   5.803
 5994SOL     OW18880   5.919   2.133   2.030
 5994SOL    HW118881   5.894   2.043   2.065
 5994SOL    HW218882   5.976   2.180   2.098
 5995SOL     OW18883   0.092   5.310   1.391
 5995SOL    HW118884   0.106   5.246   1.316
 5995SOL    HW218885   0.047   5.264   1.467
 5996SOL     OW18886   0.533   5.823   6.367
 5996SOL    HW118887   0.494   5.850   6.455
 5996SOL    HW218888   0.523   5.724   6.355
 5997SOL     OW18889   0.346   6.858   2.182
 5997SOL    HW118890   0.363   6.914   2.102
 5997SOL    HW218891   0.387   6.768   2.169
 5998SOL     OW18892   5.713   2.174   2.800
 5998SOL    HW118893   5.649   2.246   2.772
 5998SOL    HW218894   5.795   2.179   2.743
 5999SOL     OW18895   1.187   2.181   3.091
 5999SOL    HW118896   1.176   2.109   3.023
 5999SOL    HW218897   1.284   2.199   3.105
 6000SOL     OW18898   3.737   5.667   2.094
 6000SOL    HW118899   3.645   5.647   2.059
 6000SOL    HW218900   3.762   5.600   2.163
 6001SOL     OW18901   0.104   3.814   6.777
 6001SOL    HW118902   0.169   3.889   6.769
 6001SOL    HW218903   0.153   3.728   6.794
 6002SOL     OW18904   0.049   6.535   1.276
 6002SOL    HW118905   0.011   6.481   1.351
 6002SOL    HW218906   0.080   6.624   1.310
 6003SOL     OW18907   5.934   3.512   5.048
 6003SOL    HW118908   5.852   3.456   5.056
 6003SOL    HW218909   5.985   3.485   4.966
 6004SOL     OW18910   0.857   4.046   3.548
 6004SOL    HW118911   0.842   3.964   3.604
 6004SOL    HW218912   0.778   4.060   3.488
 6005SOL     OW18913   4.041   5.108   3.981
 6005SOL    HW118914   4.131   5.151   3.984
 6005SOL    HW218915   3.995   5.131   3.895
 6006SOL     OW18916   3.735   0.386   6.666
 6006SOL    HW118917   3.656   0.325   6.680
 6006SOL    HW218918   3.817   0.340   6.699
 6007SOL     OW18919   5.048   2.865   3.461
 6007SOL    HW118920   4.976   2.858   3.392
 6007SOL    HW218921   5.008   2.892   3.548
 6008SOL     OW18922   3.166   5.583   5.801
 6008SOL    HW118923   3.219   5.572   5.885
 6008SOL    HW218924   3.215   5.540   5.725
 6009SOL     OW18925   2.796   1.550   4.763
 6009SOL    HW118926   2.848   1.622   4.717
 6009SOL    HW218927   2.790   1.570   4.861
 6010SOL     OW18928   2.214   4.464   1.936
 6010SOL    HW118929   2.158   4.543   1.960
 6010SOL    HW218930   2.311   4.489   1.944
 6011SOL     OW18931   5.306   2.280   1.846
 6011SOL    HW118932   5.245   2.228   1.906
 6011SOL    HW218933   5.367   2.216   1.798
 6012SOL     OW18934   0.033   1.965   0.286
 6012SOL    HW118935   0.108   1.926   0.231
 6012SOL    HW218936   6.968   1.946   0.241
 6013SOL     OW18937   6.014   1.719   2.325
 6013SOL    HW118938   6.059   1.647   2.378
 6013SOL    HW218939   5.941   1.680   2.270
 6014SOL     OW18940   5.115   1.790   0.838
 6014SOL    HW118941   5.121   1.754   0.931
 6014SOL    HW218942   5.129   1.716   0.772
 6015SOL     OW18943   6.078   2.618   5.846
 6015SOL    HW118944   6.103   2.695   5.788
 6015SOL    HW218945   5.992   2.639   5.893
 6016SOL     OW18946   0.773   0.911   5.679
 6016SOL    HW118947   0.760   0.853   5.759
 6016SOL    HW218948   0.860   0.959   5.686
 6017SOL     OW18949   5.806   5.655   2.650
 6017SOL    HW118950   5.749   5.579   2.679
 6017SOL    HW218951   5.863   5.685   2.727
 6018SOL     OW18952   3.438   2.934   0.113
 6018SOL    HW118953   3.487   2.992   0.179
 6018SOL    HW218954   3.473   2.953   0.021
 6019SOL     OW18955   4.408   1.681   3.807
 6019SOL    HW118956   4.451   1.769   3.788
 6019SOL    HW218957   4.452   1.610   3.752
 6020SOL     OW18958   2.270   6.667   1.735
 6020SOL    HW118959   2.184   6.706   1.768
 6020SOL    HW218960   2.347   6.716   1.776
 6021SOL     OW18961   4.410   0.205   2.797
 6021SOL    HW118962   4.417   0.305   2.806
 6021SOL    HW218963   4.333   0.172   2.851
 6022SOL     OW18964   4.548   0.901   4.071
 6022SOL    HW118965   4.524   0.804   4.069
 6022SOL    HW218966   4.464   0.956   4.070
 6023SOL     OW18967   6.611   1.556   3.473
 6023SOL    HW118968   6.564   1.477   3.432
 6023SOL    HW218969   6.544   1.617   3.514
 6024SOL     OW18970   0.446   4.714   2.384
 6024SOL    HW118971   0.411   4.791   2.438
 6024SOL    HW218972   0.507   4.659   2.442
 6025SOL     OW18973   4.829   0.283   1.797
 6025SOL    HW118974   4.792   0.312   1.886
 6025SOL    HW218975   4.908   0.224   1.812
 6026SOL     OW18976   0.662   4.533   4.573
 6026SOL    HW118977   0.567   4.558   4.590
 6026SOL    HW218978   0.681   4.542   4.475
 6027SOL     OW18979   1.687   4.093   6.041
 6027SOL    HW118980   1.633   4.115   5.960
 6027SOL    HW218981   1.785   4.094   6.017
 6028SOL     OW18982   0.852   3.910   0.269
 6028SOL    HW118983   0.766   3.928   0.318
 6028SOL    HW218984   0.860   3.971   0.191
 6029SOL     OW18985   2.177   6.687   6.964
 6029SOL    HW118986   2.176   6.658   6.868
 6029SOL    HW218987   2.256   6.747   6.979
 6030SOL     OW18988   2.496   0.729   3.029
 6030SOL    HW118989   2.453   0.757   2.943
 6030SOL    HW218990   2.432   0.745   3.104
 6031SOL     OW18991   4.175   5.293   5.124
 6031SOL    HW118992   4.136   5.225   5.187
 6031SOL    HW218993   4.116   5.301   5.044
 6032SOL     OW18994   1.667   3.327   2.215
 6032SOL    HW118995   1.676   3.422   2.246
 6032SOL    HW218996   1.648   3.326   2.117
 6033SOL     OW18997   2.023   2.629   3.032
 6033SOL    HW118998   1.998   2.615   3.127
 6033SOL    HW218999   1.991   2.718   3.001
 6034SOL     OW19000   2.292   4.823   4.609
 6034SOL    HW119001   2.263   4.849   4.517
 6034SOL    HW219002   2.213   4.825   4.671
 6035SOL     OW19003   5.543   0.500   3.843
 6035SOL    HW119004   5.564   0.597   3.852
 6035SOL    HW219005   5.479   0.472   3.914
 6036SOL     OW19006   0.212   0.130   5.081
 6036SOL    HW119007   0.251   0.188   5.009
 6036SOL    HW219008   0.146   0.067   5.040
 6037SOL     OW19009   4.638   5.426   6.357
 6037SOL    HW119010   4.626   5.521   6.385
 6037SOL    HW219011   4.729   5.394   6.384
 6038SOL     OW19012   0.524   3.192   5.957
 6038SOL    HW119013   0.615   3.166   5.989
 6038SOL    HW219014   0.527   3.284   5.918
 6039SOL     OW19015   3.328   3.760   3.122
 6039SOL    HW119016   3.261   3.781   3.194
 6039SOL    HW219017   3.283   3.707   3.050
 6040SOL     OW19018   0.651   1.442   6.711
 6040SOL    HW119019   0.615   1.352   6.737
 6040SOL    HW219020   0.750   1.436   6.701
 6041SOL     OW19021   1.542   1.487   6.545
 6041SOL    HW119022   1.510   1.501   6.639
 6041SOL    HW219023   1.631   1.442   6.546
 6042SOL     OW19024   5.867   5.252   2.192
 6042SOL    HW119025   5.950   5.245   2.247
 6042SOL    HW219026   5.889   5.240   2.096
 6043SOL     OW19027   1.240   4.523   5.047
 6043SOL    HW119028   1.270   4.540   4.954
 6043SOL    HW219029   1.318   4.492   5.102
 6044SOL     OW19030   6.926   1.859   1.042
 6044SOL    HW119031   6.881   1.929   0.986
 6044SOL    HW219032   6.960   1.786   0.982
 6045SOL     OW19033   5.136   5.685   0.665
 6045SOL    HW119034   5.198   5.687   0.744
 6045SOL    HW219035   5.160   5.608   0.607
 6046SOL     OW19036   3.339   2.340   0.914
 6046SOL    HW119037   3.437   2.349   0.930
 6046SOL    HW219038   3.322   2.325   0.817
 6047SOL     OW19039   6.346   1.284   4.032
 6047SOL    HW119040   6.301   1.293   3.943
 6047SOL    HW219041   6.408   1.360   4.046
 6048SOL     OW19042   4.278   6.917   3.325
 6048SOL    HW119043   4.190   6.955   3.298
 6048SOL    HW219044   4.320   6.975   3.394
 6049SOL     OW19045   4.976   2.836   6.312
 6049SOL    HW119046   4.934   2.780   6.383
 6049SOL    HW219047   5.025   2.913   6.354
 6050SOL     OW19048   4.134   4.078   5.943
 6050SOL    HW119049   4.177   4.041   5.860
 6050SOL    HW219050   4.141   4.178   5.942
 6051SOL     OW19051   2.213   2.049   3.234
 6051SOL    HW119052   2.199   1.960   3.192
 6051SOL    HW219053   2.158   2.118   3.187
 6052SOL     OW19054   6.769   0.079   0.336
 6052SOL    HW119055   6.725   0.048   0.420
 6052SOL    HW219056   6.796   0.000   0.281
 6053SOL     OW19057   3.470   0.300   6.995
 6053SOL    HW119058   3.567   0.295   7.019
 6053SOL    HW219059   3.421   0.225   0.018
 6054SOL     OW19060   2.285   4.104   1.019
 6054SOL    HW119061   2.382   4.109   1.041
 6054SOL    HW219062   2.273   4.054   0.933
 6055SOL     OW19063   5.436   0.654   5.523
 6055SOL    HW119064   5.530   0.623   5.535
 6055SOL    HW219065   5.390   0.658   5.611
 6056SOL     OW19066   4.085   1.739   5.425
 6056SOL    HW119067   4.067   1.646   5.457
 6056SOL    HW219068   4.154   1.736   5.352
 6057SOL     OW19069   4.450   1.410   4.842
 6057SOL    HW119070   4.376   1.343   4.850
 6057SOL    HW219071   4.464   1.433   4.746
 6058SOL     OW19072   5.566   3.028   3.277
 6058SOL    HW119073   5.582   2.933   3.251
 6058SOL    HW219074   5.641   3.059   3.335
 6059SOL     OW19075   4.545   5.548   5.864
 6059SOL    HW119076   4.555   5.596   5.951
 6059SOL    HW219077   4.448   5.543   5.839
 6060SOL     OW19078   3.499   3.964   5.881
 6060SOL    HW119079   3.403   3.974   5.857
 6060SOL    HW219080   3.550   4.042   5.846
 6061SOL     OW19081   3.112   2.860   0.178
 6061SOL    HW119082   3.139   2.938   0.234
 6061SOL    HW219083   3.174   2.783   0.195
 6062SOL     OW19084   2.382   1.289   4.747
 6062SOL    HW119085   2.422   1.315   4.659
 6062SOL    HW219086   2.358   1.192   4.745
 6063SOL     OW19087   3.918   1.389   6.344
 6063SOL    HW119088   3.958   1.398   6.252
 6063SOL    HW219089   3.953   1.461   6.403
 6064SOL     OW19090   2.030   5.498   2.380
 6064SOL    HW119091   2.073   5.409   2.396
 6064SOL    HW219092   1.935   5.495   2.411
 6065SOL     OW19093   6.301   6.731   1.212
 6065SOL    HW119094   6.344   6.738   1.302
 6065SOL    HW219095   6.348   6.661   1.158
 6066SOL     OW19096   4.699   1.406   1.267
 6066SOL    HW119097   4.659   1.497   1.256
 6066SOL    HW219098   4.626   1.338   1.278
 6067SOL     OW19099   6.608   2.018   6.710
 6067SOL    HW119100   6.606   1.985   6.804
 6067SOL    HW219101   6.542   2.093   6.699
 6068SOL     OW19102   5.650   3.277   4.783
 6068SOL    HW119103   5.586   3.246   4.713
 6068SOL    HW219104   5.612   3.357   4.830
 6069SOL     OW19105   6.508   3.715   6.301
 6069SOL    HW119106   6.523   3.617   6.286
 6069SOL    HW219107   6.485   3.758   6.214
 6070SOL     OW19108   2.962   2.099   6.532
 6070SOL    HW119109   3.028   2.054   6.592
 6070SOL    HW219110   2.900   2.031   6.494
 6071SOL     OW19111   4.408   6.006   5.657
 6071SOL    HW119112   4.403   5.928   5.595
 6071SOL    HW219113   4.429   6.089   5.604
 6072SOL     OW19114   1.009   1.133   1.881
 6072SOL    HW119115   0.955   1.204   1.835
 6072SOL    HW219116   1.051   1.170   1.964
 6073SOL     OW19117   6.296   3.046   0.632
 6073SOL    HW119118   6.392   3.046   0.605
 6073SOL    HW219119   6.239   3.022   0.553
 6074SOL     OW19120   1.113   6.606   4.508
 6074SOL    HW119121   1.079   6.616   4.414
 6074SOL    HW219122   1.133   6.509   4.526
 6075SOL     OW19123   6.612   2.842   6.893
 6075SOL    HW119124   6.613   2.775   6.820
 6075SOL    HW219125   6.656   2.804   6.974
 6076SOL     OW19126   2.266   0.186   5.168
 6076SOL    HW119127   2.238   0.270   5.119
 6076SOL    HW219128   2.363   0.193   5.193
 6077SOL     OW19129   4.894   5.784   2.692
 6077SOL    HW119130   4.867   5.729   2.612
 6077SOL    HW219131   4.994   5.792   2.694
 6078SOL     OW19132   3.426   4.892   2.758
 6078SOL    HW119133   3.444   4.878   2.660
 6078SOL    HW219134   3.512   4.883   2.809
 6079SOL     OW19135   3.221   3.816   6.742
 6079SOL    HW119136   3.312   3.854   6.758
 6079SOL    HW219137   3.221   3.719   6.764
 6080SOL     OW19138   6.938   1.601   0.673
 6080SOL    HW119139   6.915   1.680   0.615
 6080SOL    HW219140   6.960   1.633   0.765
 6081SOL     OW19141   6.468   3.941   4.361
 6081SOL    HW119142   6.524   3.864   4.391
 6081SOL    HW219143   6.397   3.909   4.300
 6082SOL     OW19144   3.619   0.321   3.235
 6082SOL    HW119145   3.678   0.299   3.312
 6082SOL    HW219146   3.632   0.416   3.208
 6083SOL     OW19147   1.144   5.457   6.144
 6083SOL    HW119148   1.044   5.447   6.148
 6083SOL    HW219149   1.175   5.509   6.224
 6084SOL     OW19150   6.825   5.561   4.437
 6084SOL    HW119151   6.739   5.513   4.416
 6084SOL    HW219152   6.819   5.601   4.529
 6085SOL     OW19153   6.587   4.188   0.179
 6085SOL    HW119154   6.490   4.176   0.154
 6085SOL    HW219155   6.641   4.206   0.096
 6086SOL     OW19156   3.599   1.164   4.722
 6086SOL    HW119157   3.673   1.103   4.749
 6086SOL    HW219158   3.596   1.242   4.784
 6087SOL     OW19159   5.128   0.018   6.687
 6087SOL    HW119160   5.124   0.046   6.591
 6087SOL    HW219161   5.222   0.023   6.720
 6088SOL     OW19162   0.121   6.302   4.622
 6088SOL    HW119163   0.151   6.373   4.558
 6088SOL    HW219164   0.187   6.228   4.622
 6089SOL     OW19165   0.503   3.789   1.852
 6089SOL    HW119166   0.451   3.853   1.796
 6089SOL    HW219167   0.441   3.721   1.891
 6090SOL     OW19168   0.452   6.078   6.217
 6090SOL    HW119169   0.454   6.066   6.117
 6090SOL    HW219170   0.493   5.997   6.260
 6091SOL     OW19171   0.673   1.257   2.115
 6091SOL    HW119172   0.656   1.159   2.100
 6091SOL    HW219173   0.769   1.270   2.142
 6092SOL     OW19174   2.890   0.606   3.110
 6092SOL    HW119175   2.810   0.557   3.074
 6092SOL    HW219176   2.962   0.608   3.040
 6093SOL     OW19177   2.014   2.764   2.073
 6093SOL    HW119178   1.948   2.808   2.012
 6093SOL    HW219179   2.094   2.822   2.085
 6094SOL     OW19180   2.263   1.587   1.611
 6094SOL    HW119181   2.165   1.605   1.598
 6094SOL    HW219182   2.297   1.532   1.535
 6095SOL     OW19183   5.078   3.061   6.809
 6095SOL    HW119184   5.080   3.031   6.905
 6095SOL    HW219185   5.110   2.987   6.751
 6096SOL     OW19186   6.122   0.584   4.170
 6096SOL    HW119187   6.204   0.640   4.182
 6096SOL    HW219188   6.058   0.632   4.109
 6097SOL     OW19189   1.957   0.447   2.937
 6097SOL    HW119190   2.007   0.364   2.914
 6097SOL    HW219191   1.925   0.491   2.853
 6098SOL     OW19192   1.427   2.010   5.786
 6098SOL    HW119193   1.486   2.020   5.866
 6098SOL    HW219194   1.444   2.086   5.723
 6099SOL     OW19195   5.401   5.798   5.327
 6099SOL    HW119196   5.370   5.826   5.418
 6099SOL    HW219197   5.338   5.730   5.290
 6100SOL     OW19198   5.949   3.468   6.287
 6100SOL    HW119199   6.021   3.535   6.268
 6100SOL    HW219200   5.879   3.473   6.217
 6101SOL     OW19201   6.546   2.012   6.048
 6101SOL    HW119202   6.554   2.089   6.110
 6101SOL    HW219203   6.606   1.938   6.078
 6102SOL     OW19204   3.031   1.059   4.456
 6102SOL    HW119205   3.031   1.133   4.389
 6102SOL    HW219206   3.114   1.004   4.445
 6103SOL     OW19207   0.253   0.475   3.879
 6103SOL    HW119208   0.301   0.441   3.960
 6103SOL    HW219209   0.182   0.410   3.854
 6104SOL     OW19210   6.329   2.201   6.717
 6104SOL    HW119211   6.263   2.186   6.791
 6104SOL    HW219212   6.358   2.297   6.718
 6105SOL     OW19213   3.541   6.464   5.594
 6105SOL    HW119214   3.595   6.484   5.512
 6105SOL    HW219215   3.601   6.453   5.673
 6106SOL     OW19216   2.585   4.945   6.648
 6106SOL    HW119217   2.579   4.954   6.549
 6106SOL    HW219218   2.635   5.023   6.686
 6107SOL     OW19219   2.113   4.896   4.060
 6107SOL    HW119220   2.170   4.814   4.053
 6107SOL    HW219221   2.074   4.918   3.970
 6108SOL     OW19222   0.689   1.926   3.311
 6108SOL    HW119223   0.767   1.900   3.254
 6108SOL    HW219224   0.687   1.868   3.393
 6109SOL     OW19225   5.278   2.805   6.954
 6109SOL    HW119226   5.185   2.775   6.979
 6109SOL    HW219227   5.333   2.725   6.931
 6110SOL     OW19228   2.602   2.369   6.394
 6110SOL    HW119229   2.525   2.329   6.345
 6110SOL    HW219230   2.569   2.441   6.454
 6111SOL     OW19231   1.143   4.762   2.906
 6111SOL    HW119232   1.237   4.791   2.885
 6111SOL    HW219233   1.092   4.839   2.944
 6112SOL     OW19234   1.917   1.907   2.924
 6112SOL    HW119235   2.000   1.921   2.978
 6112SOL    HW219236   1.943   1.884   2.830
 6113SOL     OW19237   0.762   1.071   6.000
 6113SOL    HW119238   0.698   1.008   6.043
 6113SOL    HW219239   0.854   1.032   6.004
 6114SOL     OW19240   5.051   5.218   0.198
 6114SOL    HW119241   5.097   5.146   0.145
 6114SOL    HW219242   5.099   5.304   0.185
 6115SOL     OW19243   4.709   5.051   3.508
 6115SOL    HW119244   4.662   4.985   3.566
 6115SOL    HW219245   4.749   5.123   3.564
 6116SOL     OW19246   3.067   1.384   1.176
 6116SOL    HW119247   3.030   1.302   1.220
 6116SOL    HW219248   3.123   1.434   1.241
 6117SOL     OW19249   6.037   0.015   4.709
 6117SOL    HW119250   5.999   0.065   4.787
 6117SOL    HW219251   6.136   0.029   4.707
 6118SOL     OW19252   6.901   2.240   1.882
 6118SOL    HW119253   6.900   2.164   1.816
 6118SOL    HW219254   6.988   2.240   1.931
 6119SOL     OW19255   0.454   4.550   4.889
 6119SOL    HW119256   0.526   4.562   4.958
 6119SOL    HW219257   0.369   4.590   4.924
 6120SOL     OW19258   3.059   0.011   3.814
 6120SOL    HW119259   3.036   6.980   3.732
 6120SOL    HW219260   3.061   0.108   3.792
 6121SOL     OW19261   6.998   2.784   4.346
 6121SOL    HW119262   0.049   2.847   4.373
 6121SOL    HW219263   6.911   2.834   4.340
 6122SOL     OW19264   3.652   6.232   2.635
 6122SOL    HW119265   3.674   6.325   2.662
 6122SOL    HW219266   3.679   6.168   2.707
 6123SOL     OW19267   6.873   0.684   1.496
 6123SOL    HW119268   6.949   0.650   1.440
 6123SOL    HW219269   6.905   0.702   1.589
 6124SOL     OW19270   3.747   6.486   5.310
 6124SOL    HW119271   3.795   6.469   5.396
 6124SOL    HW219272   3.759   6.582   5.284
 6125SOL     OW19273   2.475   5.514   1.006
 6125SOL    HW119274   2.473   5.421   1.043
 6125SOL    HW219275   2.543   5.568   1.056
 6126SOL     OW19276   5.266   5.921   4.246
 6126SOL    HW119277   5.193   5.862   4.213
 6126SOL    HW219278   5.231   5.977   4.322
 6127SOL     OW19279   2.489   6.964   1.591
 6127SOL    HW119280   2.480   6.931   1.498
 6127SOL    HW219281   2.543   6.899   1.645
 6128SOL     OW19282   6.928   3.515   0.474
 6128SOL    HW119283   6.976   3.443   0.524
 6128SOL    HW219284   6.946   3.604   0.517
 6129SOL     OW19285   6.327   4.080   3.130
 6129SOL    HW119286   6.254   4.044   3.188
 6129SOL    HW219287   6.415   4.042   3.159
 6130SOL     OW19288   6.191   3.230   4.537
 6130SOL    HW119289   6.121   3.261   4.473
 6130SOL    HW219290   6.258   3.174   4.489
 6131SOL     OW19291   6.778   1.315   5.538
 6131SOL    HW119292   6.770   1.267   5.450
 6131SOL    HW219293   6.875   1.334   5.556
 6132SOL     OW19294   3.700   1.137   1.114
 6132SOL    HW119295   3.651   1.107   1.195
 6132SOL    HW219296   3.695   1.067   1.043
 6133SOL     OW19297   0.509   3.020   2.255
 6133SOL    HW119298   0.523   3.117   2.276
 6133SOL    HW219299   0.559   2.996   2.171
 6134SOL     OW19300   3.610   2.999   6.549
 6134SOL    HW119301   3.631   3.014   6.453
 6134SOL    HW219302   3.574   3.083   6.589
 6135SOL     OW19303   0.127   0.293   1.875
 6135SOL    HW119304   0.106   0.211   1.820
 6135SOL    HW219305   0.119   0.374   1.817
 6136SOL     OW19306   0.551   1.407   2.513
 6136SOL    HW119307   0.570   1.336   2.581
 6136SOL    HW219308   0.624   1.475   2.515
 6137SOL     OW19309   4.008   1.072   6.045
 6137SOL    HW119310   4.050   1.004   5.986
 6137SOL    HW219311   4.076   1.141   6.070
 6138SOL     OW19312   3.493   6.523   2.510
 6138SOL    HW119313   3.396   6.504   2.526
 6138SOL    HW219314   3.517   6.497   2.416
 6139SOL     OW19315   2.172   3.138   5.219
 6139SOL    HW119316   2.128   3.147   5.130
 6139SOL    HW219317   2.261   3.093   5.209
 6140SOL     OW19318   0.533   6.979   1.799
 6140SOL    HW119319   0.514   0.056   1.792
 6140SOL    HW219320   0.611   6.965   1.860
 6141SOL     OW19321   6.529   6.257   4.696
 6141SOL    HW119322   6.494   6.351   4.687
 6141SOL    HW219323   6.467   6.204   4.754
 6142SOL     OW19324   0.023   4.873   0.639
 6142SOL    HW119325   0.007   4.871   0.738
 6142SOL    HW219326   7.013   4.787   0.599
 6143SOL     OW19327   5.920   4.848   6.184
 6143SOL    HW119328   6.014   4.819   6.203
 6143SOL    HW219329   5.914   4.880   6.089
 6144SOL     OW19330   6.967   4.141   2.708
 6144SOL    HW119331   6.946   4.160   2.804
 6144SOL    HW219332   0.037   4.175   2.687
 6145SOL     OW19333   4.903   5.525   3.683
 6145SOL    HW119334   4.952   5.509   3.769
 6145SOL    HW219335   4.839   5.601   3.695
 6146SOL     OW19336   4.284   1.403   3.575
 6146SOL    HW119337   4.218   1.449   3.516
 6146SOL    HW219338   4.373   1.449   3.569
 6147SOL     OW19339   1.863   5.051   2.941
 6147SOL    HW119340   1.938   5.050   3.006
 6147SOL    HW219341   1.777   5.035   2.989
 6148SOL     OW19342   6.762   6.521   4.560
 6148SOL    HW119343   6.774   6.505   4.462
 6148SOL    HW219344   6.682   6.580   4.575
 6149SOL     OW19345   3.915   4.785   3.271
 6149SOL    HW119346   3.975   4.740   3.205
 6149SOL    HW219347   3.966   4.858   3.318
 6150SOL     OW19348   4.456   5.452   6.691
 6150SOL    HW119349   4.425   5.499   6.773
 6150SOL    HW219350   4.505   5.369   6.716
 6151SOL     OW19351   5.912   3.197   5.272
 6151SOL    HW119352   5.899   3.268   5.202
 6151SOL    HW219353   5.832   3.195   5.332
 6152SOL     OW19354   5.089   4.919   6.103
 6152SOL    HW119355   5.032   4.847   6.063
 6152SOL    HW219356   5.176   4.925   6.054
 6153SOL     OW19357   4.545   4.138   1.401
 6153SOL    HW119358   4.447   4.127   1.414
 6153SOL    HW219359   4.580   4.064   1.343
 6154SOL     OW19360   5.337   1.475   1.893
 6154SOL    HW119361   5.400   1.533   1.945
 6154SOL    HW219362   5.244   1.512   1.899
 6155SOL     OW19363   0.940   3.331   4.391
 6155SOL    HW119364   0.916   3.406   4.453
 6155SOL    HW219365   1.031   3.296   4.414
 6156SOL     OW19366   4.899   6.308   2.875
 6156SOL    HW119367   4.995   6.297   2.846
 6156SOL    HW219368   4.859   6.218   2.893
 6157SOL     OW19369   1.484   2.640   3.394
 6157SOL    HW119370   1.437   2.728   3.381
 6157SOL    HW219371   1.418   2.566   3.383
 6158SOL     OW19372   4.618   0.947   6.941
 6158SOL    HW119373   4.571   0.982   6.860
 6158SOL    HW219374   4.581   0.991   0.001
 6159SOL     OW19375   5.123   1.594   0.288
 6159SOL    HW119376   5.174   1.508   0.299
 6159SOL    HW219377   5.174   1.668   0.332
 6160SOL     OW19378   5.284   5.515   0.487
 6160SOL    HW119379   5.309   5.611   0.473
 6160SOL    HW219380   5.362   5.466   0.525
 6161SOL     OW19381   6.000   1.401   5.576
 6161SOL    HW119382   6.012   1.302   5.568
 6161SOL    HW219383   6.043   1.434   5.660
 6162SOL     OW19384   1.014   4.606   4.472
 6162SOL    HW119385   1.059   4.601   4.561
 6162SOL    HW219386   0.958   4.689   4.468
 6163SOL     OW19387   5.302   4.981   1.135
 6163SOL    HW119388   5.324   4.991   1.038
 6163SOL    HW219389   5.386   4.988   1.189
 6164SOL     OW19390   2.159   2.324   1.597
 6164SOL    HW119391   2.217   2.282   1.528
 6164SOL    HW219392   2.216   2.364   1.669
 6165SOL     OW19393   3.987   6.153   0.151
 6165SOL    HW119394   3.957   6.071   0.199
 6165SOL    HW219395   3.924   6.173   0.075
 6166SOL     OW19396   3.077   0.948   5.912
 6166SOL    HW119397   3.069   0.909   6.004
 6166SOL    HW219398   3.142   1.025   5.915
 6167SOL     OW19399   0.970   4.713   2.576
 6167SOL    HW119400   1.050   4.770   2.555
 6167SOL    HW219401   1.000   4.619   2.596
 6168SOL     OW19402   0.622   3.482   1.529
 6168SOL    HW119403   0.698   3.472   1.465
 6168SOL    HW219404   0.575   3.568   1.512
 6169SOL     OW19405   1.990   3.571   1.657
 6169SOL    HW119406   2.013   3.523   1.572
 6169SOL    HW219407   2.060   3.639   1.678
 6170SOL     OW19408   0.493   3.547   5.197
 6170SOL    HW119409   0.465   3.538   5.102
 6170SOL    HW219410   0.439   3.487   5.255
 6171SOL     OW19411   0.815   0.534   0.773
 6171SOL    HW119412   0.796   0.449   0.821
 6171SOL    HW219413   0.733   0.564   0.724
 6172SOL     OW19414   1.173   2.480   3.090
 6172SOL    HW119415   1.172   2.380   3.085
 6172SOL    HW219416   1.171   2.508   3.186
 6173SOL     OW19417   6.946   5.876   3.163
 6173SOL    HW119418   6.994   5.932   3.096
 6173SOL    HW219419   7.011   5.832   3.224
 6174SOL     OW19420   5.168   4.878   3.055
 6174SOL    HW119421   5.176   4.893   2.956
 6174SOL    HW219422   5.115   4.952   3.096
 6175SOL     OW19423   3.366   0.296   5.016
 6175SOL    HW119424   3.404   0.336   5.100
 6175SOL    HW219425   3.337   0.370   4.955
 6176SOL     OW19426   4.472   3.650   5.316
 6176SOL    HW119427   4.536   3.612   5.248
 6176SOL    HW219428   4.380   3.651   5.278
 6177SOL     OW19429   6.102   1.634   1.693
 6177SOL    HW119430   6.188   1.615   1.645
 6177SOL    HW219431   6.102   1.589   1.782
 6178SOL     OW19432   4.851   3.803   1.978
 6178SOL    HW119433   4.802   3.858   2.045
 6178SOL    HW219434   4.793   3.790   1.897
 6179SOL     OW19435   6.594   4.809   1.702
 6179SOL    HW119436   6.552   4.899   1.686
 6179SOL    HW219437   6.556   4.770   1.786
 6180SOL     OW19438   3.089   4.751   0.633
 6180SOL    HW119439   3.186   4.767   0.651
 6180SOL    HW219440   3.039   4.838   0.635
 6181SOL     OW19441   4.765   5.217   5.972
 6181SOL    HW119442   4.784   5.251   5.880
 6181SOL    HW219443   4.850   5.211   6.024
 6182SOL     OW19444   3.646   3.033   0.268
 6182SOL    HW119445   3.687   3.020   0.358
 6182SOL    HW219446   3.683   2.965   0.204
 6183SOL     OW19447   1.376   2.468   0.925
 6183SOL    HW119448   1.303   2.514   0.875
 6183SOL    HW219449   1.450   2.444   0.862
 6184SOL     OW19450   2.833   0.834   6.121
 6184SOL    HW119451   2.893   0.903   6.160
 6184SOL    HW219452   2.793   0.868   6.036
 6185SOL     OW19453   3.142   2.983   5.427
 6185SOL    HW119454   3.157   2.888   5.400
 6185SOL    HW219455   3.228   3.024   5.457
 6186SOL     OW19456   6.903   2.070   1.684
 6186SOL    HW119457   6.827   2.064   1.619
 6186SOL    HW219458   6.989   2.064   1.634
 6187SOL     OW19459   4.724   2.267   5.263
 6187SOL    HW119460   4.749   2.205   5.189
 6187SOL    HW219461   4.807   2.309   5.301
 6188SOL     OW19462   1.968   1.359   5.600
 6188SOL    HW119463   1.875   1.365   5.638
 6188SOL    HW219464   1.991   1.263   5.584
 6189SOL     OW19465   3.918   5.513   2.400
 6189SOL    HW119466   3.839   5.528   2.460
 6189SOL    HW219467   4.001   5.548   2.445
 6190SOL     OW19468   6.316   3.339   5.932
 6190SOL    HW119469   6.251   3.414   5.920
 6190SOL    HW219470   6.381   3.338   5.856
 6191SOL     OW19471   2.581   3.520   5.837
 6191SOL    HW119472   2.659   3.487   5.890
 6191SOL    HW219473   2.571   3.464   5.755
 6192SOL     OW19474   2.523   1.674   6.911
 6192SOL    HW119475   2.433   1.698   6.948
 6192SOL    HW219476   2.512   1.623   6.826
 6193SOL     OW19477   5.349   4.872   0.167
 6193SOL    HW119478   5.368   4.776   0.144
 6193SOL    HW219479   5.415   4.903   0.236
 6194SOL     OW19480   6.711   0.685   6.917
 6194SOL    HW119481   6.621   0.659   6.951
 6194SOL    HW219482   6.778   0.616   6.946
 6195SOL     OW19483   5.897   0.710   4.855
 6195SOL    HW119484   5.854   0.673   4.773
 6195SOL    HW219485   5.827   0.746   4.917
 6196SOL     OW19486   5.200   4.572   2.649
 6196SOL    HW119487   5.264   4.514   2.699
 6196SOL    HW219488   5.217   4.564   2.551
 6197SOL     OW19489   2.652   5.440   1.912
 6197SOL    HW119490   2.733   5.495   1.891
 6197SOL    HW219491   2.673   5.343   1.900
 6198SOL     OW19492   5.503   6.390   6.129
 6198SOL    HW119493   5.435   6.423   6.064
 6198SOL    HW219494   5.462   6.383   6.220
 6199SOL     OW19495   0.359   0.289   0.488
 6199SOL    HW119496   0.446   0.260   0.448
 6199SOL    HW219497   0.307   0.341   0.420
 6200SOL     OW19498   1.596   0.979   2.375
 6200SOL    HW119499   1.563   0.926   2.297
 6200SOL    HW219500   1.695   0.965   2.385
 6201SOL     OW19501   7.000   4.400   3.729
 6201SOL    HW119502   0.043   4.466   3.768
 6201SOL    HW219503   0.020   4.309   3.730
 6202SOL     OW19504   5.914   2.025   3.467
 6202SOL    HW119505   5.961   2.055   3.550
 6202SOL    HW219506   5.877   1.933   3.481
 6203SOL     OW19507   6.689   5.696   1.760
 6203SOL    HW119508   6.626   5.628   1.797
 6203SOL    HW219509   6.714   5.761   1.832
 6204SOL     OW19510   1.239   6.307   5.048
 6204SOL    HW119511   1.230   6.218   5.002
 6204SOL    HW219512   1.329   6.312   5.091
 6205SOL     OW19513   4.752   4.706   2.334
 6205SOL    HW119514   4.782   4.615   2.364
 6205SOL    HW219515   4.729   4.703   2.237
 6206SOL     OW19516   4.951   1.518   3.742
 6206SOL    HW119517   4.997   1.592   3.694
 6206SOL    HW219518   5.015   1.442   3.756
 6207SOL     OW19519   1.450   5.692   4.573
 6207SOL    HW119520   1.395   5.681   4.489
 6207SOL    HW219521   1.523   5.759   4.556
 6208SOL     OW19522   3.779   2.892   5.992
 6208SOL    HW119523   3.688   2.855   5.972
 6208SOL    HW219524   3.817   2.932   5.909
 6209SOL     OW19525   3.533   4.262   1.121
 6209SOL    HW119526   3.550   4.357   1.146
 6209SOL    HW219527   3.605   4.204   1.159
 6210SOL     OW19528   4.889   3.484   3.449
 6210SOL    HW119529   4.919   3.499   3.543
 6210SOL    HW219530   4.858   3.390   3.439
 6211SOL     OW19531   4.646   5.347   4.926
 6211SOL    HW119532   4.638   5.295   5.011
 6211SOL    HW219533   4.555   5.375   4.895
 6212SOL     OW19534   2.798   5.036   5.546
 6212SOL    HW119535   2.880   5.072   5.593
 6212SOL    HW219536   2.822   4.951   5.501
 6213SOL     OW19537   4.804   6.587   0.525
 6213SOL    HW119538   4.740   6.515   0.551
 6213SOL    HW219539   4.785   6.669   0.579
 6214SOL     OW19540   5.884   5.930   5.095
 6214SOL    HW119541   5.969   5.896   5.056
 6214SOL    HW219542   5.901   6.013   5.148
 6215SOL     OW19543   5.186   3.129   6.130
 6215SOL    HW119544   5.114   3.149   6.196
 6215SOL    HW219545   5.152   3.065   6.061
 6216SOL     OW19546   5.589   2.762   3.537
 6216SOL    HW119547   5.603   2.852   3.576
 6216SOL    HW219548   5.639   2.693   3.591
 6217SOL     OW19549   1.035   5.230   2.666
 6217SOL    HW119550   1.000   5.139   2.645
 6217SOL    HW219551   1.008   5.294   2.594
 6218SOL     OW19552   4.958   5.968   0.041
 6218SOL    HW119553   4.859   5.978   0.036
 6218SOL    HW219554   4.998   6.047   0.089
 6219SOL     OW19555   0.897   1.030   5.057
 6219SOL    HW119556   0.801   1.044   5.083
 6219SOL    HW219557   0.948   1.114   5.072
 6220SOL     OW19558   3.773   0.339   0.410
 6220SOL    HW119559   3.802   0.369   0.319
 6220SOL    HW219560   3.699   0.399   0.443
 6221SOL     OW19561   6.709   6.204   6.432
 6221SOL    HW119562   6.715   6.281   6.496
 6221SOL    HW219563   6.635   6.219   6.367
 6222SOL     OW19564   5.860   1.111   1.959
 6222SOL    HW119565   5.847   1.172   1.880
 6222SOL    HW219566   5.958   1.100   1.976
 6223SOL     OW19567   0.531   4.999   3.854
 6223SOL    HW119568   0.482   4.942   3.920
 6223SOL    HW219569   0.621   4.959   3.836
 6224SOL     OW19570   4.274   1.392   6.687
 6224SOL    HW119571   4.195   1.423   6.739
 6224SOL    HW219572   4.302   1.301   6.720
 6225SOL     OW19573   3.834   0.839   6.715
 6225SOL    HW119574   3.763   0.769   6.723
 6225SOL    HW219575   3.922   0.801   6.744
 6226SOL     OW19576   1.334   1.766   4.071
 6226SOL    HW119577   1.306   1.862   4.072
 6226SOL    HW219578   1.264   1.710   4.117
 6227SOL     OW19579   3.010   4.437   5.906
 6227SOL    HW119580   2.921   4.481   5.890
 6227SOL    HW219581   3.066   4.445   5.823
 6228SOL     OW19582   2.124   2.283   3.522
 6228SOL    HW119583   2.085   2.363   3.568
 6228SOL    HW219584   2.056   2.241   3.463
 6229SOL     OW19585   0.006   3.399   4.824
 6229SOL    HW119586   6.964   3.460   4.778
 6229SOL    HW219587   0.057   3.449   4.894
 6230SOL     OW19588   0.170   1.743   2.685
 6230SOL    HW119589   0.138   1.820   2.631
 6230SOL    HW219590   0.141   1.658   2.642
 6231SOL     OW19591   5.545   4.587   0.948
 6231SOL    HW119592   5.494   4.575   1.032
 6231SOL    HW219593   5.526   4.677   0.909
 6232SOL     OW19594   5.535   0.425   0.250
 6232SOL    HW119595   5.579   0.513   0.267
 6232SOL    HW219596   5.489   0.394   0.334
 6233SOL     OW19597   0.428   3.454   2.580
 6233SOL    HW119598   0.435   3.538   2.634
 6233SOL    HW219599   0.512   3.441   2.528
 6234SOL     OW19600   0.136   0.016   4.431
 6234SOL    HW119601   0.096   0.025   4.522
 6234SOL    HW219602   0.203   0.090   4.417
 6235SOL     OW19603   6.694   0.915   2.585
 6235SOL    HW119604   6.677   0.877   2.675
 6235SOL    HW219605   6.759   0.992   2.592
 6236SOL     OW19606   0.761   4.710   0.746
 6236SOL    HW119607   0.720   4.651   0.676
 6236SOL    HW219608   0.860   4.706   0.739
 6237SOL     OW19609   3.686   0.023   0.711
 6237SOL    HW119610   3.702   0.050   0.616
 6237SOL    HW219611   3.631   0.092   0.757
 6238SOL     OW19612   2.814   6.558   4.071
 6238SOL    HW119613   2.779   6.465   4.063
 6238SOL    HW219614   2.867   6.566   4.155
 6239SOL     OW19615   4.662   0.284   2.620
 6239SOL    HW119616   4.628   0.370   2.583
 6239SOL    HW219617   4.599   0.251   2.690
 6240SOL     OW19618   3.248   3.100   4.845
 6240SOL    HW119619   3.194   3.184   4.838
 6240SOL    HW219620   3.245   3.052   4.757
 6241SOL     OW19621   2.942   6.736   3.887
 6241SOL    HW119622   2.927   6.638   3.901
 6241SOL    HW219623   2.866   6.787   3.929
 6242SOL     OW19624   2.820   1.941   2.777
 6242SOL    HW119625   2.758   2.005   2.823
 6242SOL    HW219626   2.876   1.894   2.844
 6243SOL     OW19627   6.075   1.106   6.275
 6243SOL    HW119628   6.034   1.079   6.188
 6243SOL    HW219629   6.011   1.089   6.349
 6244SOL     OW19630   4.387   5.023   3.029
 6244SOL    HW119631   4.404   5.023   2.930
 6244SOL    HW219632   4.474   5.033   3.077
 6245SOL     OW19633   1.454   4.684   2.529
 6245SOL    HW119634   1.535   4.706   2.476
 6245SOL    HW219635   1.436   4.585   2.524
 6246SOL     OW19636   1.253   6.815   4.652
 6246SOL    HW119637   1.202   6.742   4.606
 6246SOL    HW219638   1.339   6.778   4.688
 6247SOL     OW19639   0.031   5.662   3.600
 6247SOL    HW119640   0.088   5.583   3.574
 6247SOL    HW219641   0.075   5.711   3.675
 6248SOL     OW19642   4.232   2.610   6.685
 6248SOL    HW119643   4.158   2.662   6.643
 6248SOL    HW219644   4.320   2.646   6.653
 6249SOL     OW19645   0.137   2.792   1.393
 6249SOL    HW119646   0.139   2.863   1.321
 6249SOL    HW219647   0.185   2.826   1.474
 6250SOL     OW19648   6.966   6.896   0.788
 6250SOL    HW119649   6.919   6.944   0.862
 6250SOL    HW219650   6.898   6.852   0.729
 6251SOL     OW19651   3.164   0.208   4.482
 6251SOL    HW119652   3.221   0.142   4.433
 6251SOL    HW219653   3.223   0.274   4.529
 6252SOL     OW19654   2.642   5.819   0.026
 6252SOL    HW119655   2.652   5.719   0.029
 6252SOL    HW219656   2.552   5.845   0.060
 6253SOL     OW19657   3.032   5.115   4.714
 6253SOL    HW119658   3.016   5.213   4.700
 6253SOL    HW219659   2.983   5.085   4.797
 6254SOL     OW19660   0.042   5.439   0.606
 6254SOL    HW119661   0.025   5.532   0.641
 6254SOL    HW219662   0.140   5.418   0.614
 6255SOL     OW19663   1.419   1.874   0.967
 6255SOL    HW119664   1.462   1.960   0.940
 6255SOL    HW219665   1.322   1.874   0.940
 6256SOL     OW19666   4.652   5.727   2.997
 6256SOL    HW119667   4.731   5.741   3.057
 6256SOL    HW219668   4.568   5.734   3.051
 6257SOL     OW19669   4.395   3.841   0.601
 6257SOL    HW119670   4.452   3.850   0.520
 6257SOL    HW219671   4.430   3.900   0.674
 6258SOL     OW19672   4.412   0.369   5.867
 6258SOL    HW119673   4.371   0.356   5.777
 6258SOL    HW219674   4.431   0.467   5.881
 6259SOL     OW19675   2.368   6.608   5.491
 6259SOL    HW119676   2.353   6.551   5.571
 6259SOL    HW219677   2.331   6.700   5.507
 6260SOL     OW19678   1.997   0.495   0.487
 6260SOL    HW119679   2.044   0.408   0.473
 6260SOL    HW219680   1.921   0.504   0.422
 6261SOL     OW19681   4.717   6.640   1.306
 6261SOL    HW119682   4.639   6.585   1.338
 6261SOL    HW219683   4.761   6.683   1.384
 6262SOL     OW19684   6.195   6.560   2.380
 6262SOL    HW119685   6.200   6.460   2.373
 6262SOL    HW219686   6.127   6.594   2.315
 6263SOL     OW19687   0.329   6.839   4.543
 6263SOL    HW119688   0.361   6.764   4.486
 6263SOL    HW219689   0.401   6.866   4.607
 6264SOL     OW19690   0.483   6.702   1.158
 6264SOL    HW119691   0.582   6.686   1.154
 6264SOL    HW219692   0.436   6.617   1.179
 6265SOL     OW19693   3.934   2.333   0.299
 6265SOL    HW119694   3.929   2.371   0.391
 6265SOL    HW219695   4.024   2.352   0.260
 6266SOL     OW19696   3.316   5.241   3.360
 6266SOL    HW119697   3.332   5.156   3.311
 6266SOL    HW219698   3.274   5.222   3.449
 6267SOL     OW19699   1.084   6.560   5.613
 6267SOL    HW119700   1.054   6.558   5.517
 6267SOL    HW219701   1.134   6.644   5.630
 6268SOL     OW19702   3.553   0.370   1.706
 6268SOL    HW119703   3.537   0.295   1.641
 6268SOL    HW219704   3.528   0.341   1.798
 6269SOL     OW19705   5.654   6.759   1.232
 6269SOL    HW119706   5.746   6.797   1.238
 6269SOL    HW219707   5.651   6.670   1.278
 6270SOL     OW19708   1.363   6.266   6.943
 6270SOL    HW119709   1.425   6.333   6.904
 6270SOL    HW219710   1.345   6.194   6.876
 6271SOL     OW19711   5.997   3.371   0.155
 6271SOL    HW119712   6.061   3.446   0.172
 6271SOL    HW219713   5.975   3.366   0.058
 6272SOL     OW19714   5.441   0.109   6.854
 6272SOL    HW119715   5.381   0.189   6.858
 6272SOL    HW219716   5.421   0.057   6.771
 6273SOL     OW19717   6.894   6.802   2.314
 6273SOL    HW119718   6.973   6.781   2.256
 6273SOL    HW219719   6.908   6.764   2.405
 6274SOL     OW19720   3.068   6.392   4.770
 6274SOL    HW119721   3.039   6.298   4.752
 6274SOL    HW219722   3.162   6.392   4.804
 6275SOL     OW19723   2.188   6.124   0.720
 6275SOL    HW119724   2.177   6.064   0.799
 6275SOL    HW219725   2.107   6.182   0.711
 6276SOL     OW19726   2.162   5.530   3.510
 6276SOL    HW119727   2.232   5.461   3.530
 6276SOL    HW219728   2.191   5.584   3.431
 6277SOL     OW19729   5.254   2.707   1.578
 6277SOL    HW119730   5.257   2.610   1.601
 6277SOL    HW219731   5.221   2.718   1.484
 6278SOL     OW19732   3.209   0.254   5.391
 6278SOL    HW119733   3.152   0.196   5.450
 6278SOL    HW219734   3.291   0.204   5.364
 6279SOL     OW19735   3.578   5.910   1.213
 6279SOL    HW119736   3.651   5.868   1.160
 6279SOL    HW219737   3.494   5.911   1.159
 6280SOL     OW19738   6.344   1.857   6.900
 6280SOL    HW119739   6.269   1.809   6.945
 6280SOL    HW219740   6.367   1.939   6.952
 6281SOL     OW19741   6.006   4.415   4.770
 6281SOL    HW119742   6.062   4.438   4.850
 6281SOL    HW219743   5.989   4.316   4.768
 6282SOL     OW19744   0.213   3.530   6.335
 6282SOL    HW119745   0.274   3.602   6.366
 6282SOL    HW219746   0.125   3.538   6.381
 6283SOL     OW19747   1.122   5.942   5.297
 6283SOL    HW119748   1.024   5.924   5.300
 6283SOL    HW219749   1.151   5.985   5.383
 6284SOL     OW19750   2.175   4.020   6.997
 6284SOL    HW119751   2.123   4.070   6.928
 6284SOL    HW219752   2.228   4.085   0.030
 6285SOL     OW19753   1.857   3.188   2.808
 6285SOL    HW119754   1.779   3.166   2.867
 6285SOL    HW219755   1.932   3.222   2.863
 6286SOL     OW19756   0.818   3.174   4.883
 6286SOL    HW119757   0.771   3.097   4.926
 6286SOL    HW219758   0.915   3.152   4.873
 6287SOL     OW19759   4.194   4.847   5.121
 6287SOL    HW119760   4.213   4.943   5.098
 6287SOL    HW219761   4.096   4.835   5.137
 6288SOL     OW19762   3.837   3.269   6.099
 6288SOL    HW119763   3.837   3.171   6.115
 6288SOL    HW219764   3.786   3.315   6.173
 6289SOL     OW19765   2.643   4.590   6.533
 6289SOL    HW119766   2.629   4.638   6.619
 6289SOL    HW219767   2.738   4.604   6.503
 6290SOL     OW19768   5.847   5.302   5.839
 6290SOL    HW119769   5.897   5.270   5.919
 6290SOL    HW219770   5.904   5.290   5.757
 6291SOL     OW19771   3.534   3.245   3.096
 6291SOL    HW119772   3.541   3.179   3.022
 6291SOL    HW219773   3.496   3.200   3.177
 6292SOL     OW19774   2.291   2.931   4.320
 6292SOL    HW119775   2.273   2.848   4.266
 6292SOL    HW219776   2.383   2.964   4.301
 6293SOL     OW19777   5.515   0.998   6.766
 6293SOL    HW119778   5.528   1.007   6.667
 6293SOL    HW219779   5.566   1.071   6.813
 6294SOL     OW19780   3.055   1.091   3.798
 6294SOL    HW119781   3.085   0.995   3.795
 6294SOL    HW219782   2.956   1.095   3.785
 6295SOL     OW19783   5.530   4.718   5.302
 6295SOL    HW119784   5.455   4.720   5.236
 6295SOL    HW219785   5.583   4.635   5.290
 6296SOL     OW19786   0.288   3.090   6.575
 6296SOL    HW119787   0.214   3.026   6.596
 6296SOL    HW219788   0.317   3.077   6.480
 6297SOL     OW19789   6.326   0.271   4.556
 6297SOL    HW119790   6.311   0.248   4.460
 6297SOL    HW219791   6.416   0.237   4.585
 6298SOL     OW19792   5.636   4.503   0.069
 6298SOL    HW119793   5.590   4.448   0.138
 6298SOL    HW219794   5.636   4.454   7.003
 6299SOL     OW19795   4.637   2.659   3.052
 6299SOL    HW119796   4.661   2.563   3.037
 6299SOL    HW219797   4.685   2.716   2.985
 6300SOL     OW19798   3.753   1.075   6.061
 6300SOL    HW119799   3.731   1.133   5.982
 6300SOL    HW219800   3.850   1.051   6.058
 6301SOL     OW19801   3.373   6.936   6.790
 6301SOL    HW119802   3.319   6.860   6.752
 6301SOL    HW219803   3.436   6.902   6.858
 6302SOL     OW19804   2.729   0.556   5.544
 6302SOL    HW119805   2.774   0.490   5.604
 6302SOL    HW219806   2.642   0.518   5.512
 6303SOL     OW19807   0.828   6.351   6.054
 6303SOL    HW119808   0.749   6.338   6.114
 6303SOL    HW219809   0.911   6.358   6.109
 6304SOL     OW19810   4.295   1.358   2.845
 6304SOL    HW119811   4.367   1.306   2.799
 6304SOL    HW219812   4.275   1.316   2.934
 6305SOL     OW19813   0.224   5.728   5.214
 6305SOL    HW119814   0.220   5.634   5.248
 6305SOL    HW219815   0.149   5.781   5.254
 6306SOL     OW19816   6.780   4.738   3.939
 6306SOL    HW119817   6.845   4.709   4.009
 6306SOL    HW219818   6.830   4.778   3.862
 6307SOL     OW19819   4.123   3.667   3.323
 6307SOL    HW119820   4.064   3.735   3.368
 6307SOL    HW219821   4.093   3.654   3.229
 6308SOL     OW19822   0.205   2.529   6.351
 6308SOL    HW119823   0.263   2.589   6.406
 6308SOL    HW219824   0.124   2.579   6.322
 6309SOL     OW19825   1.236   6.540   4.912
 6309SOL    HW119826   1.253   6.472   4.984
 6309SOL    HW219827   1.139   6.564   4.911
 6310SOL     OW19828   2.093   6.729   3.482
 6310SOL    HW119829   2.060   6.804   3.539
 6310SOL    HW219830   2.109   6.763   3.389
 6311SOL     OW19831   5.599   1.357   5.867
 6311SOL    HW119832   5.682   1.402   5.833
 6311SOL    HW219833   5.612   1.332   5.963
 6312SOL     OW19834   3.591   6.736   6.671
 6312SOL    HW119835   3.612   6.790   6.753
 6312SOL    HW219836   3.526   6.787   6.614
 6313SOL     OW19837   4.852   6.427   3.365
 6313SOL    HW119838   4.952   6.431   3.364
 6313SOL    HW219839   4.818   6.436   3.272
 6314SOL     OW19840   2.874   0.171   1.596
 6314SOL    HW119841   2.830   0.122   1.671
 6314SOL    HW219842   2.824   0.155   1.511
 6315SOL     OW19843   2.091   3.069   4.177
 6315SOL    HW119844   2.110   3.083   4.080
 6315SOL    HW219845   2.173   3.031   4.221
 6316SOL     OW19846   5.256   2.055   5.123
 6316SOL    HW119847   5.209   1.986   5.178
 6316SOL    HW219848   5.199   2.137   5.115
 6317SOL     OW19849   5.055   4.659   1.995
 6317SOL    HW119850   4.988   4.607   2.048
 6317SOL    HW219851   5.048   4.756   2.020
 6318SOL     OW19852   6.281   0.616   6.408
 6318SOL    HW119853   6.231   0.680   6.348
 6318SOL    HW219854   6.368   0.591   6.364
 6319SOL     OW19855   5.613   2.693   4.650
 6319SOL    HW119856   5.644   2.775   4.601
 6319SOL    HW219857   5.648   2.696   4.743
 6320SOL     OW19858   0.208   1.269   3.794
 6320SOL    HW119859   0.166   1.318   3.871
 6320SOL    HW219860   0.279   1.207   3.828
 6321SOL     OW19861   5.599   2.224   0.596
 6321SOL    HW119862   5.639   2.178   0.675
 6321SOL    HW219863   5.621   2.174   0.512
 6322SOL     OW19864   2.005   0.644   1.013
 6322SOL    HW119865   2.055   0.729   1.028
 6322SOL    HW219866   1.917   0.649   1.061
 6323SOL     OW19867   2.886   2.972   1.027
 6323SOL    HW119868   2.949   2.931   1.093
 6323SOL    HW219869   2.825   2.901   0.991
 6324SOL     OW19870   4.713   1.233   1.047
 6324SOL    HW119871   4.646   1.270   0.982
 6324SOL    HW219872   4.714   1.289   1.130
 6325SOL     OW19873   1.653   2.259   2.623
 6325SOL    HW119874   1.573   2.210   2.658
 6325SOL    HW219875   1.629   2.355   2.606
 6326SOL     OW19876   5.073   5.173   5.746
 6326SOL    HW119877   5.081   5.073   5.740
 6326SOL    HW219878   5.130   5.206   5.821
 6327SOL     OW19879   0.040   2.072   3.655
 6327SOL    HW119880   7.003   2.039   3.729
 6327SOL    HW219881   7.007   2.122   3.588
 6328SOL     OW19882   4.591   3.342   6.116
 6328SOL    HW119883   4.519   3.319   6.182
 6328SOL    HW219884   4.554   3.404   6.047
 6329SOL     OW19885   1.552   2.705   5.554
 6329SOL    HW119886   1.605   2.674   5.475
 6329SOL    HW219887   1.606   2.770   5.607
 6330SOL     OW19888   6.325   0.903   3.573
 6330SOL    HW119889   6.328   0.978   3.640
 6330SOL    HW219890   6.230   0.875   3.558
 6331SOL     OW19891   6.397   3.070   4.428
 6331SOL    HW119892   6.393   2.981   4.474
 6331SOL    HW219893   6.444   3.061   4.340
 6332SOL     OW19894   2.003   1.660   1.157
 6332SOL    HW119895   2.085   1.603   1.164
 6332SOL    HW219896   1.942   1.623   1.087
 6333SOL     OW19897   4.902   0.400   0.452
 6333SOL    HW119898   4.836   0.464   0.491
 6333SOL    HW219899   4.933   0.337   0.523
 6334SOL     OW19900   2.957   1.585   2.221
 6334SOL    HW119901   2.931   1.539   2.306
 6334SOL    HW219902   2.960   1.684   2.237
 6335SOL     OW19903   5.662   0.612   0.443
 6335SOL    HW119904   5.726   0.689   0.435
 6335SOL    HW219905   5.636   0.601   0.539
 6336SOL     OW19906   0.231   3.887   5.928
 6336SOL    HW119907   0.288   3.931   5.860
 6336SOL    HW219908   0.242   3.787   5.921
 6337SOL     OW19909   4.385   5.390   4.841
 6337SOL    HW119910   4.306   5.436   4.881
 6337SOL    HW219911   4.358   5.298   4.813
 6338SOL     OW19912   3.277   1.803   4.029
 6338SOL    HW119913   3.260   1.764   4.119
 6338SOL    HW219914   3.306   1.898   4.040
 6339SOL     OW19915   1.113   4.103   2.847
 6339SOL    HW119916   1.150   4.196   2.858
 6339SOL    HW219917   1.186   4.042   2.816
 6340SOL     OW19918   2.234   3.720   1.463
 6340SOL    HW119919   2.172   3.792   1.430
 6340SOL    HW219920   2.261   3.661   1.386
 6341SOL     OW19921   1.190   4.560   4.260
 6341SOL    HW119922   1.247   4.641   4.245
 6341SOL    HW219923   1.137   4.571   4.343
 6342SOL     OW19924   1.772   0.870   2.079
 6342SOL    HW119925   1.674   0.861   2.098
 6342SOL    HW219926   1.819   0.899   2.162
 6343SOL     OW19927   2.672   5.929   0.589
 6343SOL    HW119928   2.743   5.881   0.641
 6343SOL    HW219929   2.710   6.012   0.549
 6344SOL     OW19930   5.686   2.546   3.706
 6344SOL    HW119931   5.655   2.557   3.801
 6344SOL    HW219932   5.757   2.476   3.701
 6345SOL     OW19933   5.570   3.386   1.748
 6345SOL    HW119934   5.616   3.472   1.728
 6345SOL    HW219935   5.619   3.337   1.821
 6346SOL     OW19936   0.510   4.295   5.811
 6346SOL    HW119937   0.462   4.348   5.882
 6346SOL    HW219938   0.546   4.358   5.743
 6347SOL     OW19939   2.658   2.243   2.711
 6347SOL    HW119940   2.733   2.262   2.775
 6347SOL    HW219941   2.692   2.189   2.635
 6348SOL     OW19942   0.233   1.545   5.920
 6348SOL    HW119943   0.278   1.518   5.835
 6348SOL    HW219944   0.252   1.478   5.991
 6349SOL     OW19945   0.598   0.475   0.557
 6349SOL    HW119946   0.569   0.416   0.482
 6349SOL    HW219947   0.633   0.418   0.632
 6350SOL     OW19948   0.727   4.300   2.040
 6350SOL    HW119949   0.727   4.359   1.960
 6350SOL    HW219950   0.815   4.253   2.047
 6351SOL     OW19951   6.387   3.934   3.439
 6351SOL    HW119952   6.311   3.978   3.392
 6351SOL    HW219953   6.430   3.999   3.501
 6352SOL     OW19954   2.460   0.234   4.287
 6352SOL    HW119955   2.414   0.172   4.223
 6352SOL    HW219956   2.446   0.202   4.380
 6353SOL     OW19957   2.080   6.147   6.754
 6353SOL    HW119958   2.053   6.060   6.793
 6353SOL    HW219959   2.142   6.132   6.677
 6354SOL     OW19960   4.973   4.517   3.057
 6354SOL    HW119961   4.884   4.562   3.063
 6354SOL    HW219962   4.965   4.438   2.996
 6355SOL     OW19963   2.724   4.635   0.445
 6355SOL    HW119964   2.654   4.583   0.395
 6355SOL    HW219965   2.802   4.575   0.463
 6356SOL     OW19966   4.626   5.089   6.377
 6356SOL    HW119967   4.726   5.078   6.370
 6356SOL    HW219968   4.601   5.181   6.349
 6357SOL     OW19969   5.953   2.145   1.746
 6357SOL    HW119970   5.992   2.235   1.725
 6357SOL    HW219971   5.959   2.128   1.845
 6358SOL     OW19972   1.493   2.163   6.836
 6358SOL    HW119973   1.531   2.141   6.926
 6358SOL    HW219974   1.532   2.102   6.767
 6359SOL     OW19975   5.629   6.421   0.705
 6359SOL    HW119976   5.571   6.470   0.771
 6359SOL    HW219977   5.629   6.324   0.728
 6360SOL     OW19978   0.132   2.655   3.438
 6360SOL    HW119979   0.164   2.574   3.389
 6360SOL    HW219980   0.206   2.691   3.495
 6361SOL     OW19981   0.169   0.432   6.947
 6361SOL    HW119982   0.261   0.458   6.918
 6361SOL    HW219983   0.122   0.512   6.985
 6362SOL     OW19984   0.904   5.510   6.786
 6362SOL    HW119985   0.843   5.571   6.736
 6362SOL    HW219986   0.929   5.551   6.874
 6363SOL     OW19987   2.583   5.055   3.477
 6363SOL    HW119988   2.672   5.067   3.521
 6363SOL    HW219989   2.518   5.017   3.543
 6364SOL     OW19990   2.467   1.974   5.192
 6364SOL    HW119991   2.529   2.040   5.149
 6364SOL    HW219992   2.516   1.927   5.266
 6365SOL     OW19993   5.942   6.096   4.200
 6365SOL    HW119994   5.933   6.066   4.295
 6365SOL    HW219995   5.865   6.059   4.147
 6366SOL     OW19996   5.932   6.466   4.821
 6366SOL    HW119997   5.895   6.558   4.808
 6366SOL    HW219998   5.900   6.428   4.908
 6367SOL     OW19999   3.306   2.087   3.254
 6367SOL    HW120000   3.236   2.110   3.321
 6367SOL    HW220001   3.396   2.107   3.293
 6368SOL     OW20002   4.984   3.896   4.022
 6368SOL    HW120003   4.963   3.873   4.117
 6368SOL    HW220004   4.928   3.840   3.961
 6369SOL     OW20005   3.439   6.513   6.112
 6369SOL    HW120006   3.413   6.417   6.117
 6369SOL    HW220007   3.466   6.535   6.018
 6370SOL     OW20008   5.145   3.959   3.815
 6370SOL    HW120009   5.090   4.028   3.767
 6370SOL    HW220010   5.088   3.911   3.882
 6371SOL     OW20011   5.233   4.157   1.572
 6371SOL    HW120012   5.187   4.210   1.644
 6371SOL    HW220013   5.317   4.118   1.608
 6372SOL     OW20014   0.355   1.102   2.952
 6372SOL    HW120015   0.333   1.011   2.917
 6372SOL    HW220016   0.303   1.171   2.902
 6373SOL     OW20017   5.797   4.293   1.236
 6373SOL    HW120018   5.817   4.391   1.233
 6373SOL    HW220019   5.872   4.246   1.282
 6374SOL     OW20020   4.692   2.815   0.291
 6374SOL    HW120021   4.637   2.819   0.208
 6374SOL    HW220022   4.758   2.891   0.290
 6375SOL     OW20023   6.695   2.926   2.749
 6375SOL    HW120024   6.735   3.000   2.803
 6375SOL    HW220025   6.727   2.932   2.655
 6376SOL     OW20026   3.720   1.143   5.338
 6376SOL    HW120027   3.621   1.140   5.348
 6376SOL    HW220028   3.753   1.237   5.352
 6377SOL     OW20029   0.040   6.934   6.826
 6377SOL    HW120030   0.004   6.892   6.909
 6377SOL    HW220031   0.034   0.012   6.833
 6378SOL     OW20032   5.746   5.629   3.323
 6378SOL    HW120033   5.655   5.596   3.299
 6378SOL    HW220034   5.813   5.587   3.262
 6379SOL     OW20035   2.105   5.812   6.197
 6379SOL    HW120036   2.153   5.881   6.142
 6379SOL    HW220037   2.141   5.722   6.177
 6380SOL     OW20038   1.230   3.024   4.901
 6380SOL    HW120039   1.213   3.074   4.986
 6380SOL    HW220040   1.162   3.052   4.833
 6381SOL     OW20041   4.426   3.336   0.093
 6381SOL    HW120042   4.360   3.345   0.168
 6381SOL    HW220043   4.518   3.354   0.128
 6382SOL     OW20044   2.830   1.928   1.173
 6382SOL    HW120045   2.788   1.895   1.257
 6382SOL    HW220046   2.923   1.959   1.192
 6383SOL     OW20047   2.108   2.426   2.868
 6383SOL    HW120048   2.028   2.409   2.811
 6383SOL    HW220049   2.095   2.511   2.920
 6384SOL     OW20050   6.493   2.541   2.019
 6384SOL    HW120051   6.529   2.498   1.937
 6384SOL    HW220052   6.483   2.640   2.003
 6385SOL     OW20053   0.428   3.573   1.200
 6385SOL    HW120054   0.355   3.541   1.139
 6385SOL    HW220055   0.492   3.630   1.149
 6386SOL     OW20056   1.939   3.442   0.644
 6386SOL    HW120057   1.881   3.396   0.712
 6386SOL    HW220058   1.919   3.540   0.646
 6387SOL     OW20059   6.154   1.072   0.184
 6387SOL    HW120060   6.115   0.991   0.228
 6387SOL    HW220061   6.181   1.139   0.253
 6388SOL     OW20062   6.060   5.300   2.640
 6388SOL    HW120063   6.025   5.206   2.639
 6388SOL    HW220064   6.074   5.331   2.546
 6389SOL     OW20065   2.005   0.027   0.052
 6389SOL    HW120066   1.940   0.102   0.041
 6389SOL    HW220067   2.065   0.046   0.129
 6390SOL     OW20068   6.024   0.875   0.030
 6390SOL    HW120069   5.968   0.951   0.063
 6390SOL    HW220070   5.968   0.817   6.993
 6391SOL     OW20071   1.049   0.730   5.035
 6391SOL    HW120072   1.006   0.804   4.983
 6391SOL    HW220073   1.033   0.643   4.989
 6392SOL     OW20074   2.928   5.474   3.421
 6392SOL    HW120075   3.003   5.536   3.443
 6392SOL    HW220076   2.943   5.433   3.331
 6393SOL     OW20077   5.929   6.646   1.503
 6393SOL    HW120078   5.953   6.680   1.411
 6393SOL    HW220079   5.944   6.719   1.570
 6394SOL     OW20080   0.740   5.136   0.954
 6394SOL    HW120081   0.812   5.185   1.004
 6394SOL    HW220082   0.746   5.039   0.974
 6395SOL     OW20083   1.189   4.344   2.910
 6395SOL    HW120084   1.119   4.379   2.848
 6395SOL    HW220085   1.223   4.418   2.968
 6396SOL     OW20086   6.404   3.697   0.499
 6396SOL    HW120087   6.458   3.710   0.416
 6396SOL    HW220088   6.379   3.601   0.507
 6397SOL     OW20089   5.347   2.385   3.179
 6397SOL    HW120090   5.389   2.295   3.192
 6397SOL    HW220091   5.318   2.395   3.084
 6398SOL     OW20092   0.885   6.002   1.168
 6398SOL    HW120093   0.956   5.933   1.154
 6398SOL    HW220094   0.926   6.093   1.167
 6399SOL     OW20095   2.194   6.911   6.273
 6399SOL    HW120096   2.205   7.011   6.275
 6399SOL    HW220097   2.114   6.885   6.327
 6400SOL     OW20098   1.595   5.776   2.664
 6400SOL    HW120099   1.534   5.845   2.625
 6400SOL    HW220100   1.690   5.808   2.657
 6401SOL     OW20101   4.086   5.038   2.997
 6401SOL    HW120102   4.166   4.979   3.011
 6401SOL    HW220103   4.011   4.984   2.961
 6402SOL     OW20104   1.891   4.694   4.328
 6402SOL    HW120105   1.896   4.630   4.252
 6402SOL    HW220106   1.887   4.788   4.292
 6403SOL     OW20107   5.077   6.506   4.582
 6403SOL    HW120108   5.112   6.482   4.672
 6403SOL    HW220109   5.051   6.603   4.581
 6404SOL     OW20110   3.323   0.705   2.460
 6404SOL    HW120111   3.307   0.614   2.422
 6404SOL    HW220112   3.420   0.728   2.452
 6405SOL     OW20113   5.402   1.274   2.974
 6405SOL    HW120114   5.440   1.366   2.967
 6405SOL    HW220115   5.462   1.209   2.927
 6406SOL     OW20116   1.230   2.829   2.636
 6406SOL    HW120117   1.220   2.912   2.582
 6406SOL    HW220118   1.190   2.844   2.727
 6407SOL     OW20119   2.525   6.277   3.659
 6407SOL    HW120120   2.504   6.278   3.562
 6407SOL    HW220121   2.478   6.353   3.705
 6408SOL     OW20122   7.022   0.656   0.505
 6408SOL    HW120123   0.069   0.645   0.576
 6408SOL    HW220124   7.009   0.569   0.457
 6409SOL     OW20125   6.637   4.984   3.558
 6409SOL    HW120126   6.655   5.070   3.605
 6409SOL    HW220127   6.585   4.923   3.618
 6410SOL     OW20128   3.096   1.422   5.557
 6410SOL    HW120129   3.023   1.488   5.539
 6410SOL    HW220130   3.110   1.366   5.475
 6411SOL     OW20131   0.266   2.701   2.471
 6411SOL    HW120132   0.277   2.703   2.570
 6411SOL    HW220133   0.268   2.795   2.436
 6412SOL     OW20134   3.421   0.530   6.843
 6412SOL    HW120135   3.364   0.506   6.765
 6412SOL    HW220136   3.414   0.458   6.913
 6413SOL     OW20137   4.067   4.842   4.037
 6413SOL    HW120138   4.030   4.933   4.019
 6413SOL    HW220139   4.156   4.833   3.992
 6414SOL     OW20140   0.914   0.017   6.833
 6414SOL    HW120141   0.896   7.004   6.925
 6414SOL    HW220142   0.877   0.109   6.824
 6415SOL     OW20143   1.146   2.973   3.499
 6415SOL    HW120144   1.219   2.986   3.566
 6415SOL    HW220145   1.162   3.032   3.419
 6416SOL     OW20146   2.961   0.268   6.395
 6416SOL    HW120147   2.903   0.306   6.467
 6416SOL    HW220148   3.022   0.339   6.361
 6417SOL     OW20149   4.735   1.772   0.983
 6417SOL    HW120150   4.689   1.826   0.913
 6417SOL    HW220151   4.733   1.823   1.070
 6418SOL     OW20152   4.309   4.719   1.423
 6418SOL    HW120153   4.384   4.654   1.407
 6418SOL    HW220154   4.319   4.797   1.361
 6419SOL     OW20155   0.820   6.698   6.590
 6419SOL    HW120156   0.731   6.710   6.635
 6419SOL    HW220157   0.858   6.788   6.568
 6420SOL     OW20158   1.640   3.459   3.801
 6420SOL    HW120159   1.674   3.510   3.722
 6420SOL    HW220160   1.543   3.480   3.814
 6421SOL     OW20161   5.103   6.837   1.515
 6421SOL    HW120162   5.142   6.923   1.482
 6421SOL    HW220163   5.109   6.834   1.614
 6422SOL     OW20164   0.032   2.928   4.682
 6422SOL    HW120165   0.040   3.016   4.729
 6422SOL    HW220166   6.967   2.925   4.632
 6423SOL     OW20167   2.319   4.847   4.317
 6423SOL    HW120168   2.282   4.776   4.256
 6423SOL    HW220169   2.415   4.863   4.295
 6424SOL     OW20170   0.377   3.527   4.759
 6424SOL    HW120171   0.465   3.482   4.744
 6424SOL    HW220172   0.343   3.503   4.850
 6425SOL     OW20173   0.157   5.991   2.606
 6425SOL    HW120174   0.142   6.089   2.598
 6425SOL    HW220175   0.241   5.974   2.658
 6426SOL     OW20176   4.489   4.490   4.776
 6426SOL    HW120177   4.424   4.512   4.704
 6426SOL    HW220178   4.455   4.524   4.864
 6427SOL     OW20179   3.220   3.405   3.725
 6427SOL    HW120180   3.126   3.422   3.752
 6427SOL    HW220181   3.227   3.314   3.683
 6428SOL     OW20182   4.778   2.447   0.301
 6428SOL    HW120183   4.743   2.460   0.208
 6428SOL    HW220184   4.767   2.532   0.352
 6429SOL     OW20185   2.533   0.691   5.129
 6429SOL    HW120186   2.630   0.694   5.152
 6429SOL    HW220187   2.486   0.769   5.171
 6430SOL     OW20188   6.905   0.619   5.381
 6430SOL    HW120189   6.808   0.627   5.404
 6430SOL    HW220190   6.957   0.690   5.430
 6431SOL     OW20191   4.330   5.405   2.628
 6431SOL    HW120192   4.276   5.355   2.560
 6431SOL    HW220193   4.294   5.386   2.720
 6432SOL     OW20194   3.535   4.635   6.661
 6432SOL    HW120195   3.557   4.654   6.756
 6432SOL    HW220196   3.584   4.699   6.602
 6433SOL     OW20197   2.496   5.571   6.813
 6433SOL    HW120198   2.541   5.595   6.726
 6433SOL    HW220199   2.561   5.581   6.888
 6434SOL     OW20200   3.021   5.815   6.151
 6434SOL    HW120201   2.970   5.820   6.237
 6434SOL    HW220202   2.972   5.758   6.086
 6435SOL     OW20203   5.522   0.125   0.636
 6435SOL    HW120204   5.532   0.072   0.721
 6435SOL    HW220205   5.437   0.097   0.590
 6436SOL     OW20206   0.482   4.322   3.824
 6436SOL    HW120207   0.418   4.310   3.747
 6436SOL    HW220208   0.556   4.383   3.796
 6437SOL     OW20209   0.958   1.125   5.593
 6437SOL    HW120210   1.020   1.081   5.527
 6437SOL    HW220211   1.001   1.208   5.629
 6438SOL     OW20212   0.634   5.811   6.864
 6438SOL    HW120213   0.568   5.743   6.898
 6438SOL    HW220214   0.700   5.766   6.804
 6439SOL     OW20215   5.962   0.999   3.491
 6439SOL    HW120216   5.881   1.029   3.440
 6439SOL    HW220217   5.973   1.056   3.572
 6440SOL     OW20218   2.436   0.687   5.867
 6440SOL    HW120219   2.485   0.621   5.923
 6440SOL    HW220220   2.356   0.720   5.917
 6441SOL     OW20221   0.325   0.658   3.078
 6441SOL    HW120222   0.402   0.653   3.015
 6441SOL    HW220223   0.243   0.687   3.029
 6442SOL     OW20224   2.348   2.207   5.586
 6442SOL    HW120225   2.299   2.206   5.500
 6442SOL    HW220226   2.307   2.274   5.648
 6443SOL     OW20227   4.222   1.987   0.887
 6443SOL    HW120228   4.134   1.987   0.839
 6443SOL    HW220229   4.281   2.058   0.849
 6444SOL     OW20230   0.201   2.653   5.694
 6444SOL    HW120231   0.169   2.748   5.693
 6444SOL    HW220232   0.195   2.615   5.602
 6445SOL     OW20233   2.990   3.510   3.192
 6445SOL    HW120234   2.996   3.416   3.226
 6445SOL    HW220235   2.914   3.517   3.127
 6446SOL     OW20236   1.864   1.331   6.955
 6446SOL    HW120237   1.825   1.403   6.897
 6446SOL    HW220238   1.936   1.283   6.906
 6447SOL     OW20239   6.474   4.416   1.038
 6447SOL    HW120240   6.449   4.366   0.955
 6447SOL    HW220241   6.566   4.453   1.028
 6448SOL     OW20242   4.527   5.544   1.938
 6448SOL    HW120243   4.556   5.476   1.871
 6448SOL    HW220244   4.430   5.532   1.957
 6449SOL     OW20245   2.893   5.547   1.834
 6449SOL    HW120246   2.899   5.479   1.761
 6449SOL    HW220247   2.887   5.638   1.795
 6450SOL     OW20248   0.392   3.987   1.233
 6450SOL    HW120249   0.428   4.011   1.142
 6450SOL    HW220250   0.346   4.066   1.272
 6451SOL     OW20251   3.620   2.342   0.889
 6451SOL    HW120252   3.677   2.339   0.807
 6451SOL    HW220253   3.617   2.435   0.925
 6452SOL     OW20254   5.304   3.645   3.456
 6452SOL    HW120255   5.338   3.629   3.363
 6452SOL    HW220256   5.369   3.606   3.522
 6453SOL     OW20257   3.662   6.936   1.385
 6453SOL    HW120258   3.642   6.965   1.291
 6453SOL    HW220259   3.740   6.874   1.385
 6454SOL     OW20260   6.292   2.518   2.629
 6454SOL    HW120261   6.250   2.606   2.608
 6454SOL    HW220262   6.382   2.513   2.585
 6455SOL     OW20263   6.807   4.095   3.040
 6455SOL    HW120264   6.865   4.106   3.121
 6455SOL    HW220265   6.783   4.184   3.003
 6456SOL     OW20266   0.167   1.505   3.009
 6456SOL    HW120267   0.190   1.445   3.085
 6456SOL    HW220268   0.211   1.473   2.926
 6457SOL     OW20269   4.851   6.815   1.471
 6457SOL    HW120270   4.852   6.915   1.464
 6457SOL    HW220271   4.945   6.781   1.477
 6458SOL     OW20272   0.959   4.828   3.464
 6458SOL    HW120273   0.936   4.765   3.538
 6458SOL    HW220274   0.953   4.780   3.376
 6459SOL     OW20275   6.508   2.634   3.120
 6459SOL    HW120276   6.415   2.671   3.118
 6459SOL    HW220277   6.518   2.567   3.047
 6460SOL     OW20278   6.948   6.095   5.514
 6460SOL    HW120279   0.006   6.150   5.539
 6460SOL    HW220280   6.953   6.073   5.416
 6461SOL     OW20281   3.058   4.290   0.491
 6461SOL    HW120282   3.143   4.323   0.450
 6461SOL    HW220283   2.996   4.367   0.506
 6462SOL     OW20284   1.564   3.757   4.877
 6462SOL    HW120285   1.573   3.666   4.836
 6462SOL    HW220286   1.509   3.815   4.817
 6463SOL     OW20287   4.714   0.965   1.101
 6463SOL    HW120288   4.664   0.906   1.038
 6463SOL    HW220289   4.706   1.060   1.071
 6464SOL     OW20290   0.915   6.307   4.183
 6464SOL    HW120291   1.009   6.329   4.210
 6464SOL    HW220292   0.915   6.227   4.123
 6465SOL     OW20293   5.297   2.870   2.706
 6465SOL    HW120294   5.276   2.966   2.690
 6465SOL    HW220295   5.339   2.860   2.797
 6466SOL     OW20296   6.734   3.768   6.915
 6466SOL    HW120297   6.782   3.704   6.855
 6466SOL    HW220298   6.679   3.831   6.860
 6467SOL     OW20299   3.407   0.563   0.617
 6467SOL    HW120300   3.423   0.661   0.625
 6467SOL    HW220301   3.322   0.547   0.566
 6468SOL     OW20302   3.674   7.008   0.195
 6468SOL    HW120303   3.734   0.025   0.126
 6468SOL    HW220304   3.611   6.943   0.153
 6469SOL     OW20305   3.328   1.729   3.531
 6469SOL    HW120306   3.318   1.631   3.548
 6469SOL    HW220307   3.333   1.778   3.618
 6470SOL     OW20308   7.000   2.526   6.674
 6470SOL    HW120309   0.071   2.487   6.668
 6470SOL    HW220310   6.933   2.459   6.644
 6471SOL     OW20311   0.173   6.152   5.004
 6471SOL    HW120312   0.268   6.172   4.980
 6471SOL    HW220313   0.137   6.083   4.942
 6472SOL     OW20314   7.002   6.249   2.057
 6472SOL    HW120315   6.902   6.241   2.053
 6472SOL    HW220316   0.021   6.158   2.051
 6473SOL     OW20317   1.854   1.393   3.870
 6473SOL    HW120318   1.938   1.340   3.864
 6473SOL    HW220319   1.855   1.466   3.801
 6474SOL     OW20320   3.684   5.330   4.772
 6474SOL    HW120321   3.687   5.268   4.694
 6474SOL    HW220322   3.670   5.424   4.739
 6475SOL     OW20323   5.643   5.305   3.310
 6475SOL    HW120324   5.698   5.225   3.335
 6475SOL    HW220325   5.642   5.316   3.210
 6476SOL     OW20326   3.969   2.211   6.743
 6476SOL    HW120327   3.959   2.246   6.836
 6476SOL    HW220328   3.882   2.174   6.711
 6477SOL     OW20329   0.130   5.928   0.978
 6477SOL    HW120330   0.130   5.995   0.904
 6477SOL    HW220331   0.218   5.881   0.981
 6478SOL     OW20332   2.899   5.781   1.688
 6478SOL    HW120333   2.991   5.801   1.722
 6478SOL    HW220334   2.880   5.840   1.609
 6479SOL     OW20335   3.302   5.640   4.294
 6479SOL    HW120336   3.391   5.661   4.334
 6479SOL    HW220337   3.238   5.614   4.366
 6480SOL     OW20338   3.079   1.191   6.547
 6480SOL    HW120339   3.159   1.199   6.488
 6480SOL    HW220340   3.105   1.149   6.634
 6481SOL     OW20341   3.177   2.417   1.717
 6481SOL    HW120342   3.090   2.411   1.766
 6481SOL    HW220343   3.162   2.462   1.628
 6482SOL     OW20344   6.639   3.236   4.962
 6482SOL    HW120345   6.690   3.151   4.953
 6482SOL    HW220346   6.688   3.298   5.023
 6483SOL     OW20347   1.752   5.411   4.703
 6483SOL    HW120348   1.788   5.320   4.683
 6483SOL    HW220349   1.657   5.403   4.734
 6484SOL     OW20350   2.798   0.964   3.775
 6484SOL    HW120351   2.699   0.963   3.791
 6484SOL    HW220352   2.817   0.933   3.683
 6485SOL     OW20353   1.924   6.541   4.894
 6485SOL    HW120354   2.017   6.534   4.932
 6485SOL    HW220355   1.904   6.460   4.839
 6486SOL     OW20356   1.518   5.290   3.415
 6486SOL    HW120357   1.605   5.241   3.417
 6486SOL    HW220358   1.446   5.230   3.380
 6487SOL     OW20359   0.356   5.347   4.471
 6487SOL    HW120360   0.344   5.258   4.427
 6487SOL    HW220361   0.277   5.366   4.530
 6488SOL     OW20362   5.161   5.361   4.529
 6488SOL    HW120363   5.161   5.273   4.482
 6488SOL    HW220364   5.071   5.403   4.521
 6489SOL     OW20365   3.967   3.295   6.454
 6489SOL    HW120366   3.904   3.227   6.491
 6489SOL    HW220367   4.012   3.343   6.529
 6490SOL     OW20368   1.739   1.099   6.992
 6490SOL    HW120369   1.712   1.081   0.065
 6490SOL    HW220370   1.803   1.176   6.990
 6491SOL     OW20371   1.595   6.981   1.318
 6491SOL    HW120372   1.603   6.938   1.228
 6491SOL    HW220373   1.686   7.007   1.351
 6492SOL     OW20374   2.950   3.819   4.670
 6492SOL    HW120375   2.972   3.905   4.715
 6492SOL    HW220376   2.906   3.758   4.736
 6493SOL     OW20377   1.872   4.424   6.154
 6493SOL    HW120378   1.841   4.485   6.226
 6493SOL    HW220379   1.930   4.352   6.193
 6494SOL     OW20380   6.028   6.610   2.185
 6494SOL    HW120381   6.061   6.553   2.110
 6494SOL    HW220382   5.928   6.602   2.191
 6495SOL     OW20383   0.268   0.022   4.021
 6495SOL    HW120384   0.258   6.980   4.098
 6495SOL    HW220385   0.360   0.061   4.022
 6496SOL     OW20386   4.775   6.815   2.382
 6496SOL    HW120387   4.766   6.757   2.463
 6496SOL    HW220388   4.852   6.877   2.394
 6497SOL     OW20389   0.811   1.452   0.694
 6497SOL    HW120390   0.752   1.514   0.643
 6497SOL    HW220391   0.883   1.504   0.740
 6498SOL     OW20392   0.703   4.559   4.299
 6498SOL    HW120393   0.800   4.584   4.294
 6498SOL    HW220394   0.683   4.490   4.229
 6499SOL     OW20395   6.051   4.163   3.926
 6499SOL    HW120396   6.068   4.094   3.856
 6499SOL    HW220397   5.978   4.131   3.987
 6500SOL     OW20398   0.954   3.486   2.485
 6500SOL    HW120399   0.978   3.500   2.581
 6500SOL    HW220400   1.032   3.446   2.436
 6501SOL     OW20401   6.625   2.008   0.991
 6501SOL    HW120402   6.621   2.052   1.081
 6501SOL    HW220403   6.717   2.017   0.953
 6502SOL     OW20404   5.996   3.941   1.155
 6502SOL    HW120405   6.018   3.866   1.217
 6502SOL    HW220406   6.054   3.935   1.074
 6503SOL     OW20407   6.621   3.130   5.900
 6503SOL    HW120408   6.648   3.215   5.855
 6503SOL    HW220409   6.610   3.146   5.998
 6504SOL     OW20410   4.508   6.699   6.649
 6504SOL    HW120411   4.549   6.784   6.614
 6504SOL    HW220412   4.433   6.671   6.589
 6505SOL     OW20413   5.456   6.259   0.016
 6505SOL    HW120414   5.475   6.305   6.951
 6505SOL    HW220415   5.523   6.287   0.085
 6506SOL     OW20416   0.051   2.979   3.229
 6506SOL    HW120417   0.010   2.973   3.320
 6506SOL    HW220418   0.022   2.900   3.174
 6507SOL     OW20419   3.049   5.694   6.503
 6507SOL    HW120420   3.133   5.706   6.451
 6507SOL    HW220421   2.970   5.707   6.442
 6508SOL     OW20422   1.066   6.871   1.695
 6508SOL    HW120423   1.135   6.814   1.650
 6508SOL    HW220424   0.981   6.820   1.704
 6509SOL     OW20425   3.535   1.419   5.658
 6509SOL    HW120426   3.604   1.426   5.730
 6509SOL    HW220427   3.538   1.326   5.619
 6510SOL     OW20428   4.386   5.790   5.475
 6510SOL    HW120429   4.459   5.722   5.470
 6510SOL    HW220430   4.371   5.830   5.384
 6511SOL     OW20431   3.983   1.693   6.469
 6511SOL    HW120432   3.950   1.787   6.461
 6511SOL    HW220433   3.956   1.656   6.558
 6512SOL     OW20434   2.752   0.822   1.817
 6512SOL    HW120435   2.798   0.740   1.784
 6512SOL    HW220436   2.745   0.818   1.917
 6513SOL     OW20437   2.897   5.707   4.981
 6513SOL    HW120438   2.909   5.797   4.938
 6513SOL    HW220439   2.957   5.641   4.936
 6514SOL     OW20440   5.588   0.660   5.014
 6514SOL    HW120441   5.612   0.592   4.945
 6514SOL    HW220442   5.497   0.641   5.049
 6515SOL     OW20443   2.326   5.057   2.036
 6515SOL    HW120444   2.307   5.112   2.117
 6515SOL    HW220445   2.299   5.108   1.954
 6516SOL     OW20446   0.464   3.282   1.235
 6516SOL    HW120447   0.476   3.381   1.226
 6516SOL    HW220448   0.440   3.260   1.330
 6517SOL     OW20449   6.836   2.463   6.900
 6517SOL    HW120450   6.900   2.485   6.826
 6517SOL    HW220451   6.808   2.547   6.946
 6518SOL     OW20452   0.663   1.168   2.658
 6518SOL    HW120453   0.686   1.194   2.752
 6518SOL    HW220454   0.611   1.083   2.658
 6519SOL     OW20455   1.102   1.005   3.274
 6519SOL    HW120456   1.154   1.075   3.322
 6519SOL    HW220457   1.121   0.916   3.315
 6520SOL     OW20458   6.669   5.746   6.747
 6520SOL    HW120459   6.694   5.832   6.703
 6520SOL    HW220460   6.741   5.679   6.732
 6521SOL     OW20461   1.729   2.949   3.746
 6521SOL    HW120462   1.815   2.959   3.796
 6521SOL    HW220463   1.657   2.919   3.809
 6522SOL     OW20464   3.169   3.801   5.408
 6522SOL    HW120465   3.179   3.763   5.316
 6522SOL    HW220466   3.171   3.900   5.404
 6523SOL     OW20467   6.031   0.616   0.383
 6523SOL    HW120468   6.063   0.555   0.455
 6523SOL    HW220469   5.974   0.565   0.318
 6524SOL     OW20470   2.816   2.216   1.801
 6524SOL    HW120471   2.857   2.258   1.882
 6524SOL    HW220472   2.877   2.228   1.722
 6525SOL     OW20473   1.540   5.514   3.795
 6525SOL    HW120474   1.581   5.446   3.856
 6525SOL    HW220475   1.445   5.488   3.775
 6526SOL     OW20476   0.132   6.995   1.009
 6526SOL    HW120477   0.097   7.002   0.915
 6526SOL    HW220478   0.055   6.996   1.073
 6527SOL     OW20479   0.514   2.784   0.753
 6527SOL    HW120480   0.501   2.701   0.699
 6527SOL    HW220481   0.600   2.778   0.803
 6528SOL     OW20482   5.989   1.157   5.740
 6528SOL    HW120483   6.053   1.093   5.780
 6528SOL    HW220484   5.953   1.120   5.654
 6529SOL     OW20485   0.186   1.505   2.475
 6529SOL    HW120486   0.150   1.502   2.381
 6529SOL    HW220487   0.276   1.463   2.477
 6530SOL     OW20488   0.905   2.865   2.101
 6530SOL    HW120489   0.974   2.794   2.084
 6530SOL    HW220490   0.847   2.837   2.178
 6531SOL     OW20491   4.279   3.214   5.944
 6531SOL    HW120492   4.352   3.146   5.949
 6531SOL    HW220493   4.258   3.232   5.848
 6532SOL     OW20494   1.672   0.966   1.041
 6532SOL    HW120495   1.654   1.052   1.089
 6532SOL    HW220496   1.592   0.942   0.986
 6533SOL     OW20497   4.785   4.151   0.062
 6533SOL    HW120498   4.831   4.106   7.007
 6533SOL    HW220499   4.700   4.192   0.030
 6534SOL     OW20500   5.965   4.687   1.979
 6534SOL    HW120501   5.871   4.686   2.013
 6534SOL    HW220502   6.028   4.696   2.056
 6535SOL     OW20503   5.766   3.624   4.758
 6535SOL    HW120504   5.796   3.551   4.696
 6535SOL    HW220505   5.845   3.682   4.781
 6536SOL     OW20506   0.307   2.281   5.557
 6536SOL    HW120507   0.331   2.310   5.464
 6536SOL    HW220508   0.236   2.211   5.552
 6537SOL     OW20509   6.260   4.386   5.370
 6537SOL    HW120510   6.272   4.336   5.456
 6537SOL    HW220511   6.347   4.428   5.344
 6538SOL     OW20512   2.215   3.756   5.087
 6538SOL    HW120513   2.156   3.787   5.012
 6538SOL    HW220514   2.270   3.832   5.120
 6539SOL     OW20515   5.880   0.610   6.656
 6539SOL    HW120516   5.866   0.543   6.584
 6539SOL    HW220517   5.935   0.686   6.621
 6540SOL     OW20518   3.738   2.657   5.374
 6540SOL    HW120519   3.751   2.713   5.456
 6540SOL    HW220520   3.819   2.600   5.359
 6541SOL     OW20521   5.799   1.988   5.458
 6541SOL    HW120522   5.867   1.915   5.468
 6541SOL    HW220523   5.840   2.075   5.484
 6542SOL     OW20524   1.431   3.395   4.278
 6542SOL    HW120525   1.521   3.411   4.320
 6542SOL    HW220526   1.387   3.483   4.262
 6543SOL     OW20527   3.438   2.073   5.095
 6543SOL    HW120528   3.389   2.131   5.160
 6543SOL    HW220529   3.433   2.114   5.004
 6544SOL     OW20530   0.131   6.873   1.774
 6544SOL    HW120531   0.097   6.897   1.865
 6544SOL    HW220532   0.131   6.955   1.717
 6545SOL     OW20533   4.363   6.784   1.030
 6545SOL    HW120534   4.367   6.721   1.107
 6545SOL    HW220535   4.279   6.768   0.978
 6546SOL     OW20536   4.914   4.832   6.406
 6546SOL    HW120537   4.849   4.837   6.482
 6546SOL    HW220538   4.887   4.895   6.334
 6547SOL     OW20539   5.204   6.526   6.391
 6547SOL    HW120540   5.136   6.515   6.464
 6547SOL    HW220541   5.194   6.452   6.325
 6548SOL     OW20542   0.879   2.625   6.283
 6548SOL    HW120543   0.937   2.640   6.363
 6548SOL    HW220544   0.868   2.711   6.233
 6549SOL     OW20545   4.924   6.630   1.821
 6549SOL    HW120546   4.907   6.569   1.898
 6549SOL    HW220547   4.839   6.647   1.772
 6550SOL     OW20548   6.681   0.142   3.153
 6550SOL    HW120549   6.589   0.102   3.160
 6550SOL    HW220550   6.715   0.162   3.245
 6551SOL     OW20551   3.240   3.492   1.648
 6551SOL    HW120552   3.175   3.436   1.699
 6551SOL    HW220553   3.244   3.459   1.553
 6552SOL     OW20554   2.063   6.646   0.387
 6552SOL    HW120555   2.047   6.679   0.294
 6552SOL    HW220556   2.144   6.588   0.389
 6553SOL     OW20557   0.087   2.067   2.792
 6553SOL    HW120558   0.106   2.059   2.694
 6553SOL    HW220559   0.162   2.117   2.836
 6554SOL     OW20560   2.817   1.082   4.620
 6554SOL    HW120561   2.744   1.082   4.551
 6554SOL    HW220562   2.903   1.055   4.577
 6555SOL     OW20563   6.566   1.995   4.698
 6555SOL    HW120564   6.546   2.038   4.786
 6555SOL    HW220565   6.585   2.065   4.630
 6556SOL     OW20566   5.583   3.339   3.171
 6556SOL    HW120567   5.504   3.369   3.224
 6556SOL    HW220568   5.663   3.332   3.232
 6557SOL     OW20569   1.331   6.750   2.289
 6557SOL    HW120570   1.270   6.738   2.211
 6557SOL    HW220571   1.296   6.698   2.367
 6558SOL     OW20572   5.838   5.258   0.159
 6558SOL    HW120573   5.936   5.253   0.180
 6558SOL    HW220574   5.787   5.271   0.244
 6559SOL     OW20575   6.895   3.915   6.674
 6559SOL    HW120576   6.984   3.894   6.715
 6559SOL    HW220577   6.823   3.909   6.743
 6560SOL     OW20578   4.134   4.896   0.263
 6560SOL    HW120579   4.164   4.986   0.295
 6560SOL    HW220580   4.206   4.829   0.279
 6561SOL     OW20581   3.952   4.992   0.106
 6561SOL    HW120582   4.037   4.953   0.140
 6561SOL    HW220583   3.885   4.995   0.180
 6562SOL     OW20584   5.709   2.447   0.843
 6562SOL    HW120585   5.723   2.545   0.859
 6562SOL    HW220586   5.694   2.431   0.746
 6563SOL     OW20587   5.290   0.193   5.598
 6563SOL    HW120588   5.339   0.177   5.684
 6563SOL    HW220589   5.203   0.238   5.617
 6564SOL     OW20590   6.496   3.943   2.467
 6564SOL    HW120591   6.515   3.961   2.563
 6564SOL    HW220592   6.487   4.029   2.418
 6565SOL     OW20593   6.183   0.032   2.374
 6565SOL    HW120594   6.154   7.000   2.295
 6565SOL    HW220595   6.108   0.039   2.439
 6566SOL     OW20596   3.644   5.461   2.283
 6566SOL    HW120597   3.649   5.476   2.381
 6566SOL    HW220598   3.668   5.367   2.261
 6567SOL     OW20599   4.722   0.725   1.511
 6567SOL    HW120600   4.636   0.674   1.496
 6567SOL    HW220601   4.791   0.662   1.547
 6568SOL     OW20602   3.958   1.324   2.068
 6568SOL    HW120603   3.863   1.338   2.097
 6568SOL    HW220604   4.002   1.259   2.130
 6569SOL     OW20605   0.951   2.857   6.127
 6569SOL    HW120606   0.960   2.951   6.158
 6569SOL    HW220607   0.959   2.853   6.027
 6570SOL     OW20608   4.090   0.015   2.416
 6570SOL    HW120609   4.172   0.029   2.473
 6570SOL    HW220610   4.085   0.087   2.347
 6571SOL     OW20611   2.345   5.012   3.234
 6571SOL    HW120612   2.369   5.008   3.137
 6571SOL    HW220613   2.379   5.097   3.273
 6572SOL     OW20614   0.406   4.861   4.091
 6572SOL    HW120615   0.440   4.777   4.048
 6572SOL    HW220616   0.438   4.865   4.186
 6573SOL     OW20617   1.611   0.826   3.306
 6573SOL    HW120618   1.554   0.901   3.272
 6573SOL    HW220619   1.670   0.861   3.379
 6574SOL     OW20620   2.418   6.351   3.423
 6574SOL    HW120621   2.414   6.444   3.387
 6574SOL    HW220622   2.368   6.290   3.362
 6575SOL     OW20623   0.137   6.963   2.660
 6575SOL    HW120624   0.150   6.931   2.754
 6575SOL    HW220625   0.194   6.910   2.598
 6576SOL     OW20626   3.573   5.068   0.136
 6576SOL    HW120627   3.483   5.041   0.101
 6576SOL    HW220628   3.600   5.006   0.210
 6577SOL     OW20629   2.102   2.506   3.718
 6577SOL    HW120630   2.147   2.539   3.635
 6577SOL    HW220631   2.017   2.557   3.733
 6578SOL     OW20632   1.156   5.433   1.273
 6578SOL    HW120633   1.065   5.455   1.310
 6578SOL    HW220634   1.212   5.393   1.346
 6579SOL     OW20635   6.979   1.725   4.299
 6579SOL    HW120636   6.983   1.801   4.364
 6579SOL    HW220637   0.007   1.750   4.216
 6580SOL     OW20638   1.112   0.278   0.395
 6580SOL    HW120639   1.193   0.224   0.375
 6580SOL    HW220640   1.090   0.271   0.493
 6581SOL     OW20641   1.470   1.144   0.523
 6581SOL    HW120642   1.415   1.107   0.597
 6581SOL    HW220643   1.560   1.171   0.558
 6582SOL     OW20644   7.000   0.625   3.105
 6582SOL    HW120645   7.014   0.698   3.038
 6582SOL    HW220646   6.919   0.644   3.159
 6583SOL     OW20647   4.632   0.025   6.128
 6583SOL    HW120648   4.714   0.074   6.099
 6583SOL    HW220649   4.551   0.071   6.090
 6584SOL     OW20650   4.081   2.310   0.780
 6584SOL    HW120651   4.088   2.283   0.684
 6584SOL    HW220652   4.007   2.259   0.824
 6585SOL     OW20653   6.581   0.019   0.540
 6585SOL    HW120654   6.544   6.965   0.593
 6585SOL    HW220655   6.615   0.090   0.602
 6586SOL     OW20656   6.513   2.205   6.266
 6586SOL    HW120657   6.468   2.264   6.333
 6586SOL    HW220658   6.519   2.112   6.301
 6587SOL     OW20659   1.927   4.211   5.805
 6587SOL    HW120660   1.837   4.255   5.797
 6587SOL    HW220661   1.922   4.119   5.765
 6588SOL     OW20662   0.421   3.333   0.519
 6588SOL    HW120663   0.383   3.248   0.554
 6588SOL    HW220664   0.444   3.393   0.596
 6589SOL     OW20665   6.024   0.842   1.271
 6589SOL    HW120666   6.013   0.770   1.339
 6589SOL    HW220667   5.946   0.842   1.209
 6590SOL     OW20668   0.857   0.531   4.729
 6590SOL    HW120669   0.945   0.491   4.753
 6590SOL    HW220670   0.814   0.476   4.657
 6591SOL     OW20671   4.935   5.703   4.369
 6591SOL    HW120672   5.002   5.646   4.321
 6591SOL    HW220673   4.860   5.725   4.306
 6592SOL     OW20674   4.814   0.304   3.139
 6592SOL    HW120675   4.756   0.224   3.152
 6592SOL    HW220676   4.789   0.350   3.054
 6593SOL     OW20677   2.822   2.233   2.385
 6593SOL    HW120678   2.770   2.319   2.387
 6593SOL    HW220679   2.870   2.226   2.297
 6594SOL     OW20680   3.705   1.902   6.183
 6594SOL    HW120681   3.629   1.849   6.221
 6594SOL    HW220682   3.678   1.939   6.094
 6595SOL     OW20683   1.969   2.620   4.502
 6595SOL    HW120684   1.920   2.660   4.579
 6595SOL    HW220685   1.976   2.521   4.514
 6596SOL     OW20686   4.931   5.887   2.943
 6596SOL    HW120687   4.858   5.954   2.954
 6596SOL    HW220688   4.911   5.829   2.864
 6597SOL     OW20689   1.325   5.195   1.688
 6597SOL    HW120690   1.308   5.198   1.786
 6597SOL    HW220691   1.277   5.117   1.648
 6598SOL     OW20692   1.813   4.542   3.798
 6598SOL    HW120693   1.769   4.621   3.754
 6598SOL    HW220694   1.889   4.512   3.741
 6599SOL     OW20695   5.791   5.856   6.603
 6599SOL    HW120696   5.832   5.857   6.512
 6599SOL    HW220697   5.729   5.934   6.612
 6600SOL     OW20698   4.773   0.558   4.963
 6600SOL    HW120699   4.795   0.655   4.969
 6600SOL    HW220700   4.844   0.510   4.911
 6601SOL     OW20701   0.731   2.769   3.030
 6601SOL    HW120702   0.769   2.858   3.006
 6601SOL    HW220703   0.750   2.750   3.127
 6602SOL     OW20704   2.745   0.158   1.340
 6602SOL    HW120705   2.813   0.097   1.300
 6602SOL    HW220706   2.653   0.129   1.312
 6603SOL     OW20707   0.713   3.314   4.027
 6603SOL    HW120708   0.730   3.277   4.118
 6603SOL    HW220709   0.724   3.241   3.959
 6604SOL     OW20710   2.512   0.256   1.893
 6604SOL    HW120711   2.439   0.253   1.962
 6604SOL    HW220712   2.592   0.302   1.931
 6605SOL     OW20713   5.690   5.667   2.123
 6605SOL    HW120714   5.708   5.601   2.195
 6605SOL    HW220715   5.757   5.656   2.049
 6606SOL     OW20716   1.307   3.723   2.989
 6606SOL    HW120717   1.376   3.720   2.917
 6606SOL    HW220718   1.291   3.818   3.016
 6607SOL     OW20719   6.253   4.871   4.061
 6607SOL    HW120720   6.344   4.874   4.103
 6607SOL    HW220721   6.248   4.939   3.988
 6608SOL     OW20722   6.766   6.867   0.151
 6608SOL    HW120723   6.862   6.895   0.141
 6608SOL    HW220724   6.732   6.831   0.064
 6609SOL     OW20725   4.575   1.780   6.565
 6609SOL    HW120726   4.538   1.858   6.615
 6609SOL    HW220727   4.674   1.777   6.576
 6610SOL     OW20728   2.339   6.313   0.550
 6610SOL    HW120729   2.303   6.298   0.642
 6610SOL    HW220730   2.343   6.225   0.502
 6611SOL     OW20731   5.010   2.353   3.738
 6611SOL    HW120732   5.078   2.344   3.665
 6611SOL    HW220733   4.970   2.264   3.758
 6612SOL     OW20734   6.288   2.052   6.502
 6612SOL    HW120735   6.321   2.117   6.570
 6612SOL    HW220736   6.365   2.005   6.460
 6613SOL     OW20737   5.513   0.664   6.471
 6613SOL    HW120738   5.499   0.752   6.426
 6613SOL    HW220739   5.446   0.652   6.544
 6614SOL     OW20740   4.797   5.875   1.378
 6614SOL    HW120741   4.767   5.900   1.470
 6614SOL    HW220742   4.850   5.950   1.339
 6615SOL     OW20743   3.045   5.526   0.340
 6615SOL    HW120744   3.136   5.558   0.314
 6615SOL    HW220745   3.038   5.428   0.326
 6616SOL     OW20746   4.091   0.260   6.184
 6616SOL    HW120747   4.109   0.341   6.128
 6616SOL    HW220748   3.993   0.254   6.203
 6617SOL     OW20749   4.072   0.124   3.502
 6617SOL    HW120750   4.152   0.155   3.553
 6617SOL    HW220751   4.010   0.075   3.564
 6618SOL     OW20752   0.824   1.392   3.046
 6618SOL    HW120753   0.825   1.454   2.967
 6618SOL    HW220754   0.788   1.440   3.126
 6619SOL     OW20755   4.494   0.084   3.977
 6619SOL    HW120756   4.414   0.033   3.946
 6619SOL    HW220757   4.552   0.025   4.033
 6620SOL     OW20758   1.507   4.054   3.548
 6620SOL    HW120759   1.605   4.065   3.561
 6620SOL    HW220760   1.462   4.143   3.554
 6621SOL     OW20761   3.481   3.276   4.879
 6621SOL    HW120762   3.488   3.327   4.793
 6621SOL    HW220763   3.421   3.197   4.866
 6622SOL     OW20764   5.977   5.850   1.176
 6622SOL    HW120765   5.880   5.828   1.167
 6622SOL    HW220766   6.021   5.783   1.236
 6623SOL     OW20767   3.631   4.168   4.716
 6623SOL    HW120768   3.730   4.163   4.703
 6623SOL    HW220769   3.610   4.161   4.813
 6624SOL     OW20770   0.959   2.765   4.813
 6624SOL    HW120771   1.004   2.711   4.742
 6624SOL    HW220772   0.903   2.836   4.770
 6625SOL     OW20773   6.164   2.791   5.645
 6625SOL    HW120774   6.190   2.772   5.550
 6625SOL    HW220775   6.190   2.885   5.668
 6626SOL     OW20776   2.953   0.105   4.843
 6626SOL    HW120777   3.048   0.095   4.875
 6626SOL    HW220778   2.947   0.185   4.784
 6627SOL     OW20779   1.246   5.998   4.561
 6627SOL    HW120780   1.219   6.093   4.576
 6627SOL    HW220781   1.345   5.995   4.542
 6628SOL     OW20782   5.118   5.794   4.031
 6628SOL    HW120783   5.128   5.865   3.962
 6628SOL    HW220784   5.160   5.709   3.999
 6629SOL     OW20785   4.917   5.452   6.716
 6629SOL    HW120786   5.012   5.432   6.692
 6629SOL    HW220787   4.915   5.520   6.789
 6630SOL     OW20788   3.353   1.311   2.075
 6630SOL    HW120789   3.265   1.356   2.088
 6630SOL    HW220790   3.381   1.265   2.159
 6631SOL     OW20791   1.359   5.439   5.319
 6631SOL    HW120792   1.388   5.534   5.311
 6631SOL    HW220793   1.351   5.414   5.416
 6632SOL     OW20794   1.424   0.874   1.222
 6632SOL    HW120795   1.339   0.822   1.230
 6632SOL    HW220796   1.486   0.826   1.159
 6633SOL     OW20797   2.897   5.148   6.255
 6633SOL    HW120798   2.960   5.090   6.204
 6633SOL    HW220799   2.916   5.141   6.353
 6634SOL     OW20800   5.107   1.974   5.807
 6634SOL    HW120801   5.007   1.976   5.813
 6634SOL    HW220802   5.134   1.952   5.713
 6635SOL     OW20803   4.622   4.263   2.421
 6635SOL    HW120804   4.570   4.324   2.481
 6635SOL    HW220805   4.642   4.178   2.469
 6636SOL     OW20806   3.069   0.771   2.191
 6636SOL    HW120807   3.094   0.741   2.099
 6636SOL    HW220808   3.059   0.692   2.251
 6637SOL     OW20809   2.121   0.408   0.895
 6637SOL    HW120810   2.037   0.357   0.879
 6637SOL    HW220811   2.103   0.482   0.960
 6638SOL     OW20812   2.899   3.554   3.573
 6638SOL    HW120813   2.857   3.485   3.515
 6638SOL    HW220814   2.934   3.512   3.656
 6639SOL     OW20815   3.876   2.659   0.305
 6639SOL    HW120816   3.783   2.640   0.275
 6639SOL    HW220817   3.939   2.649   0.228
 6640SOL     OW20818   0.146   2.543   5.456
 6640SOL    HW120819   0.080   2.597   5.404
 6640SOL    HW220820   0.201   2.488   5.392
 6641SOL     OW20821   3.829   1.855   0.961
 6641SOL    HW120822   3.759   1.829   0.894
 6641SOL    HW220823   3.863   1.772   1.006
 6642SOL     OW20824   1.846   4.912   0.211
 6642SOL    HW120825   1.880   4.908   0.117
 6642SOL    HW220826   1.868   5.001   0.251
 6643SOL     OW20827   5.761   6.751   0.331
 6643SOL    HW120828   5.719   6.765   0.241
 6643SOL    HW220829   5.703   6.794   0.401
 6644SOL     OW20830   1.784   6.551   2.809
 6644SOL    HW120831   1.700   6.603   2.823
 6644SOL    HW220832   1.766   6.476   2.746
 6645SOL     OW20833   6.053   2.566   1.071
 6645SOL    HW120834   5.982   2.513   1.118
 6645SOL    HW220835   6.034   2.664   1.082
 6646SOL     OW20836   4.082   0.787   6.842
 6646SOL    HW120837   4.155   0.798   6.909
 6646SOL    HW220838   4.052   0.692   6.839
 6647SOL     OW20839   4.521   5.241   1.301
 6647SOL    HW120840   4.566   5.326   1.276
 6647SOL    HW220841   4.463   5.257   1.381
 6648SOL     OW20842   3.676   6.294   4.628
 6648SOL    HW120843   3.721   6.225   4.572
 6648SOL    HW220844   3.595   6.254   4.671
 6649SOL     OW20845   5.959   2.888   6.455
 6649SOL    HW120846   5.902   2.967   6.434
 6649SOL    HW220847   5.922   2.807   6.409
 6650SOL     OW20848   3.936   0.785   5.234
 6650SOL    HW120849   4.023   0.765   5.279
 6650SOL    HW220850   3.871   0.711   5.252
 6651SOL     OW20851   1.479   1.593   0.072
 6651SOL    HW120852   1.385   1.606   0.106
 6651SOL    HW220853   1.511   1.502   0.098
 6652SOL     OW20854   1.107   4.699   0.087
 6652SOL    HW120855   1.058   4.783   0.063
 6652SOL    HW220856   1.065   4.658   0.168
 6653SOL     OW20857   5.313   2.993   0.317
 6653SOL    HW120858   5.372   2.936   0.261
 6653SOL    HW220859   5.352   3.085   0.322
 6654SOL     OW20860   0.163   4.912   2.701
 6654SOL    HW120861   0.072   4.933   2.664
 6654SOL    HW220862   0.190   4.982   2.767
 6655SOL     OW20863   0.131   6.023   2.067
 6655SOL    HW120864   0.222   6.030   2.026
 6655SOL    HW220865   0.092   5.933   2.046
 6656SOL     OW20866   4.421   1.825   2.695
 6656SOL    HW120867   4.374   1.738   2.684
 6656SOL    HW220868   4.357   1.894   2.729
 6657SOL     OW20869   5.286   2.056   4.783
 6657SOL    HW120870   5.385   2.065   4.787
 6657SOL    HW220871   5.256   1.985   4.847
 6658SOL     OW20872   6.638   0.620   5.481
 6658SOL    HW120873   6.575   0.695   5.502
 6658SOL    HW220874   6.617   0.542   5.540
 6659SOL     OW20875   1.533   4.764   1.656
 6659SOL    HW120876   1.446   4.733   1.618
 6659SOL    HW220877   1.520   4.852   1.701
 6660SOL     OW20878   1.676   5.265   2.063
 6660SOL    HW120879   1.727   5.280   1.978
 6660SOL    HW220880   1.619   5.344   2.082
 6661SOL     OW20881   2.662   6.702   4.764
 6661SOL    HW120882   2.742   6.762   4.763
 6661SOL    HW220883   2.651   6.662   4.854
 6662SOL     OW20884   1.725   0.252   1.705
 6662SOL    HW120885   1.746   0.175   1.765
 6662SOL    HW220886   1.748   0.338   1.750
 6663SOL     OW20887   1.076   5.880   5.679
 6663SOL    HW120888   1.012   5.939   5.630
 6663SOL    HW220889   1.024   5.813   5.733
 6664SOL     OW20890   2.129   0.401   1.761
 6664SOL    HW120891   2.071   0.428   1.684
 6664SOL    HW220892   2.211   0.356   1.726
 6665SOL     OW20893   2.691   6.589   5.896
 6665SOL    HW120894   2.728   6.676   5.864
 6665SOL    HW220895   2.766   6.524   5.911
 6666SOL     OW20896   6.664   5.794   5.092
 6666SOL    HW120897   6.709   5.762   5.175
 6666SOL    HW220898   6.573   5.829   5.115
 6667SOL     OW20899   0.572   6.612   5.854
 6667SOL    HW120900   0.553   6.519   5.822
 6667SOL    HW220901   0.634   6.657   5.789
 6668SOL     OW20902   6.604   6.033   1.372
 6668SOL    HW120903   6.690   6.002   1.331
 6668SOL    HW220904   6.589   5.985   1.459
 6669SOL     OW20905   3.257   1.614   1.898
 6669SOL    HW120906   3.324   1.688   1.901
 6669SOL    HW220907   3.189   1.634   1.826
 6670SOL     OW20908   3.091   1.477   0.131
 6670SOL    HW120909   3.163   1.469   0.062
 6670SOL    HW220910   3.019   1.538   0.097
 6671SOL     OW20911   4.689   6.455   0.820
 6671SOL    HW120912   4.613   6.519   0.805
 6671SOL    HW220913   4.723   6.465   0.913
 6672SOL     OW20914   1.556   2.376   0.433
 6672SOL    HW120915   1.590   2.470   0.441
 6672SOL    HW220916   1.615   2.314   0.485
 6673SOL     OW20917   5.200   3.831   4.333
 6673SOL    HW120918   5.156   3.833   4.423
 6673SOL    HW220919   5.227   3.737   4.311
 6674SOL     OW20920   0.262   2.785   6.473
 6674SOL    HW120921   0.311   2.842   6.407
 6674SOL    HW220922   0.324   2.758   6.547
 6675SOL     OW20923   4.396   2.282   0.280
 6675SOL    HW120924   4.411   2.258   0.376
 6675SOL    HW220925   4.321   2.348   0.273
 6676SOL     OW20926   1.538   4.184   2.440
 6676SOL    HW120927   1.592   4.153   2.362
 6676SOL    HW220928   1.595   4.181   2.523
 6677SOL     OW20929   0.587   0.731   6.767
 6677SOL    HW120930   0.667   0.688   6.810
 6677SOL    HW220931   0.580   0.700   6.672
 6678SOL     OW20932   1.618   3.671   0.524
 6678SOL    HW120933   1.587   3.615   0.601
 6678SOL    HW220934   1.717   3.663   0.514
 6679SOL     OW20935   3.348   0.942   3.773
 6679SOL    HW120936   3.431   0.930   3.717
 6679SOL    HW220937   3.374   0.949   3.869
 6680SOL     OW20938   4.836   6.727   0.261
 6680SOL    HW120939   4.840   6.696   0.356
 6680SOL    HW220940   4.761   6.681   0.214
 6681SOL     OW20941   4.613   5.331   1.764
 6681SOL    HW120942   4.680   5.259   1.780
 6681SOL    HW220943   4.635   5.378   1.679
 6682SOL     OW20944   2.655   4.680   6.791
 6682SOL    HW120945   2.620   4.769   6.817
 6682SOL    HW220946   2.750   4.671   6.822
 6683SOL     OW20947   6.012   3.203   6.187
 6683SOL    HW120948   6.051   3.197   6.095
 6683SOL    HW220949   6.027   3.295   6.223
 6684SOL     OW20950   3.431   6.969   2.036
 6684SOL    HW120951   3.403   7.017   2.119
 6684SOL    HW220952   3.384   6.881   2.031
 6685SOL     OW20953   4.157   3.073   6.559
 6685SOL    HW120954   4.234   3.016   6.530
 6685SOL    HW220955   4.087   3.074   6.487
 6686SOL     OW20956   6.251   5.440   3.158
 6686SOL    HW120957   6.175   5.383   3.187
 6686SOL    HW220958   6.330   5.422   3.216
 6687SOL     OW20959   6.897   2.306   1.155
 6687SOL    HW120960   6.969   2.295   1.224
 6687SOL    HW220961   6.935   2.288   1.064
 6688SOL     OW20962   4.081   4.229   0.777
 6688SOL    HW120963   4.178   4.253   0.779
 6688SOL    HW220964   4.035   4.270   0.856
 6689SOL     OW20965   4.190   4.031   5.643
 6689SOL    HW120966   4.255   3.956   5.653
 6689SOL    HW220967   4.230   4.102   5.585
 6690SOL     OW20968   1.333   0.091   6.402
 6690SOL    HW120969   1.361   0.125   6.313
 6690SOL    HW220970   1.233   0.084   6.405
 6691SOL     OW20971   1.357   0.653   2.464
 6691SOL    HW120972   1.449   0.628   2.433
 6691SOL    HW220973   1.360   0.745   2.503
 6692SOL     OW20974   3.994   4.211   1.620
 6692SOL    HW120975   3.915   4.171   1.666
 6692SOL    HW220976   4.076   4.156   1.639
 6693SOL     OW20977   4.688   1.705   4.476
 6693SOL    HW120978   4.776   1.672   4.443
 6693SOL    HW220979   4.642   1.757   4.403
 6694SOL     OW20980   3.620   5.164   1.381
 6694SOL    HW120981   3.628   5.196   1.476
 6694SOL    HW220982   3.703   5.189   1.331
 6695SOL     OW20983   2.761   2.145   0.012
 6695SOL    HW120984   2.759   2.116   0.108
 6695SOL    HW220985   2.751   2.066   6.974
 6696SOL     OW20986   3.958   3.928   3.701
 6696SOL    HW120987   3.947   3.853   3.636
 6696SOL    HW220988   4.031   3.989   3.670
 6697SOL     OW20989   5.244   2.531   2.948
 6697SOL    HW120990   5.237   2.537   2.848
 6697SOL    HW220991   5.292   2.610   2.983
 6698SOL     OW20992   3.042   3.296   1.699
 6698SOL    HW120993   2.991   3.227   1.750
 6698SOL    HW220994   2.979   3.346   1.640
 6699SOL     OW20995   1.859   5.755   6.012
 6699SOL    HW120996   1.913   5.679   5.978
 6699SOL    HW220997   1.898   5.841   5.981
 6700SOL     OW20998   5.849   0.437   0.684
 6700SOL    HW120999   5.771   0.492   0.713
 6700SOL    HW221000   5.821   0.375   0.611
 6701SOL     OW21001   5.995   0.062   1.620
 6701SOL    HW121002   6.091   0.055   1.647
 6701SOL    HW221003   5.951   0.137   1.670
 6702SOL     OW21004   2.312   2.145   1.429
 6702SOL    HW121005   2.412   2.140   1.438
 6702SOL    HW221006   2.273   2.054   1.443
 6703SOL     OW21007   1.205   1.110   6.688
 6703SOL    HW121008   1.256   1.072   6.766
 6703SOL    HW221009   1.270   1.145   6.620
 6704SOL     OW21010   3.559   1.216   4.426
 6704SOL    HW121011   3.640   1.271   4.403
 6704SOL    HW221012   3.563   1.191   4.523
 6705SOL     OW21013   6.037   3.118   1.041
 6705SOL    HW121014   5.963   3.175   1.077
 6705SOL    HW221015   6.005   3.070   0.959
 6706SOL     OW21016   1.570   5.940   1.214
 6706SOL    HW121017   1.624   6.022   1.196
 6706SOL    HW221018   1.475   5.964   1.232
 6707SOL     OW21019   5.395   0.451   2.076
 6707SOL    HW121020   5.412   0.395   1.995
 6707SOL    HW221021   5.472   0.513   2.091
 6708SOL     OW21022   6.166   4.872   1.611
 6708SOL    HW121023   6.249   4.929   1.607
 6708SOL    HW221024   6.098   4.908   1.549
 6709SOL     OW21025   1.292   4.343   2.425
 6709SOL    HW121026   1.334   4.390   2.347
 6709SOL    HW221027   1.192   4.348   2.416
 6710SOL     OW21028   4.611   1.538   2.001
 6710SOL    HW121029   4.635   1.466   1.935
 6710SOL    HW221030   4.656   1.518   2.089
 6711SOL     OW21031   5.053   6.568   6.035
 6711SOL    HW121032   5.036   6.592   5.940
 6711SOL    HW221033   4.967   6.549   6.081
 6712SOL     OW21034   6.181   3.828   0.631
 6712SOL    HW121035   6.262   3.787   0.589
 6712SOL    HW221036   6.202   3.921   0.661
 6713SOL     OW21037   1.232   1.218   3.399
 6713SOL    HW121038   1.307   1.274   3.434
 6713SOL    HW221039   1.145   1.255   3.430
 6714SOL     OW21040   5.741   1.154   0.909
 6714SOL    HW121041   5.777   1.236   0.954
 6714SOL    HW221042   5.705   1.091   0.977
 6715SOL     OW21043   1.650   0.878   1.586
 6715SOL    HW121044   1.595   0.951   1.544
 6715SOL    HW221045   1.691   0.913   1.670
 6716SOL     OW21046   6.390   5.637   2.322
 6716SOL    HW121047   6.457   5.562   2.327
 6716SOL    HW221048   6.301   5.604   2.355
 6717SOL     OW21049   2.562   2.033   6.521
 6717SOL    HW121050   2.610   2.052   6.606
 6717SOL    HW221051   2.627   2.000   6.453
 6718SOL     OW21052   4.550   1.437   0.783
 6718SOL    HW121053   4.533   1.441   0.684
 6718SOL    HW221054   4.647   1.449   0.801
 6719SOL     OW21055   1.965   6.732   0.114
 6719SOL    HW121056   1.958   6.832   0.115
 6719SOL    HW221057   2.030   6.704   0.043
 6720SOL     OW21058   2.855   0.796   5.076
 6720SOL    HW121059   2.790   0.852   5.126
 6720SOL    HW221060   2.948   0.824   5.101
 6721SOL     OW21061   6.994   0.154   0.585
 6721SOL    HW121062   7.000   0.054   0.581
 6721SOL    HW221063   6.899   0.180   0.606
 6722SOL     OW21064   0.462   2.398   0.291
 6722SOL    HW121065   0.370   2.432   0.275
 6722SOL    HW221066   0.528   2.454   0.241
 6723SOL     OW21067   1.922   0.573   6.889
 6723SOL    HW121068   2.015   0.547   6.862
 6723SOL    HW221069   1.915   0.573   6.989
 6724SOL     OW21070   2.394   2.336   6.209
 6724SOL    HW121071   2.459   2.405   6.175
 6724SOL    HW221072   2.410   2.249   6.163
 6725SOL     OW21073   5.776   3.132   2.991
 6725SOL    HW121074   5.868   3.151   3.025
 6725SOL    HW221075   5.710   3.187   3.042
 6726SOL     OW21076   0.419   1.718   4.860
 6726SOL    HW121077   0.359   1.784   4.815
 6726SOL    HW221078   0.391   1.625   4.837
 6727SOL     OW21079   0.852   4.156   5.466
 6727SOL    HW121080   0.777   4.092   5.480
 6727SOL    HW221081   0.926   4.110   5.417
 6728SOL     OW21082   3.909   1.765   3.472
 6728SOL    HW121083   3.858   1.794   3.391
 6728SOL    HW221084   3.992   1.819   3.481
 6729SOL     OW21085   6.640   2.108   6.987
 6729SOL    HW121086   6.593   2.197   6.981
 6729SOL    HW221087   6.713   2.104   6.919
 6730SOL     OW21088   1.414   0.745   1.544
 6730SOL    HW121089   1.494   0.800   1.571
 6730SOL    HW221090   1.330   0.793   1.571
 6731SOL     OW21091   1.823   6.444   1.180
 6731SOL    HW121092   1.783   6.473   1.267
 6731SOL    HW221093   1.892   6.511   1.152
 6732SOL     OW21094   5.245   4.341   4.562
 6732SOL    HW121095   5.332   4.365   4.519
 6732SOL    HW221096   5.170   4.388   4.514
 6733SOL     OW21097   3.843   5.333   6.685
 6733SOL    HW121098   3.784   5.414   6.685
 6733SOL    HW221099   3.813   5.270   6.757
 6734SOL     OW21100   5.341   2.072   5.490
 6734SOL    HW121101   5.276   1.997   5.496
 6734SOL    HW221102   5.296   2.153   5.453
 6735SOL     OW21103   5.889   4.071   4.136
 6735SOL    HW121104   5.844   4.144   4.188
 6735SOL    HW221105   5.954   4.024   4.195
 6736SOL     OW21106   3.157   4.147   6.847
 6736SOL    HW121107   3.072   4.164   6.898
 6736SOL    HW221108   3.157   4.053   6.813
 6737SOL     OW21109   0.707   2.764   0.956
 6737SOL    HW121110   0.754   2.852   0.963
 6737SOL    HW221111   0.642   2.754   1.031
 6738SOL     OW21112   1.279   5.846   3.763
 6738SOL    HW121113   1.369   5.884   3.787
 6738SOL    HW221114   1.267   5.851   3.663
 6739SOL     OW21115   6.513   6.200   3.558
 6739SOL    HW121116   6.426   6.175   3.600
 6739SOL    HW221117   6.548   6.123   3.504
 6740SOL     OW21118   6.383   6.472   4.635
 6740SOL    HW121119   6.451   6.544   4.643
 6740SOL    HW221120   6.291   6.512   4.637
 6741SOL     OW21121   4.133   2.074   6.028
 6741SOL    HW121122   4.084   2.006   6.083
 6741SOL    HW221123   4.211   2.109   6.080
 6742SOL     OW21124   5.758   5.291   3.621
 6742SOL    HW121125   5.738   5.279   3.718
 6742SOL    HW221126   5.673   5.298   3.570
 6743SOL     OW21127   3.841   3.976   6.868
 6743SOL    HW121128   3.761   3.928   6.905
 6743SOL    HW221129   3.920   3.914   6.868
 6744SOL     OW21130   0.026   6.219   5.998
 6744SOL    HW121131   6.973   6.275   5.962
 6744SOL    HW221132   7.021   6.180   6.086
 6745SOL     OW21133   6.860   6.240   3.719
 6745SOL    HW121134   6.775   6.225   3.770
 6745SOL    HW221135   6.874   6.164   3.656
 6746SOL     OW21136   2.038   0.776   2.664
 6746SOL    HW121137   1.982   0.837   2.719
 6746SOL    HW221138   2.067   0.823   2.581
 6747SOL     OW21139   6.130   6.579   6.298
 6747SOL    HW121140   6.228   6.558   6.292
 6747SOL    HW221141   6.118   6.677   6.313
 6748SOL     OW21142   2.881   1.922   3.727
 6748SOL    HW121143   2.896   1.895   3.632
 6748SOL    HW221144   2.959   1.893   3.782
 6749SOL     OW21145   3.690   4.134   0.850
 6749SOL    HW121146   3.736   4.220   0.873
 6749SOL    HW221147   3.718   4.063   0.913
 6750SOL     OW21148   2.926   1.624   4.289
 6750SOL    HW121149   2.938   1.719   4.262
 6750SOL    HW221150   2.828   1.606   4.305
 6751SOL     OW21151   4.765   0.432   3.387
 6751SOL    HW121152   4.794   0.386   3.303
 6751SOL    HW221153   4.695   0.500   3.365
 6752SOL     OW21154   1.846   0.085   3.978
 6752SOL    HW121155   1.934   0.043   3.956
 6752SOL    HW221156   1.845   0.179   3.944
 6753SOL     OW21157   3.418   2.180   5.915
 6753SOL    HW121158   3.390   2.098   5.964
 6753SOL    HW221159   3.453   2.156   5.825
 6754SOL     OW21160   6.240   0.977   1.193
 6754SOL    HW121161   6.163   0.927   1.234
 6754SOL    HW221162   6.213   1.013   1.104
 6755SOL     OW21163   3.589   4.550   1.251
 6755SOL    HW121164   3.597   4.500   1.336
 6755SOL    HW221165   3.525   4.626   1.263
 6756SOL     OW21166   3.759   0.602   5.768
 6756SOL    HW121167   3.762   0.696   5.803
 6756SOL    HW221168   3.849   0.578   5.733
 6757SOL     OW21169   4.171   1.400   1.577
 6757SOL    HW121170   4.085   1.452   1.575
 6757SOL    HW221171   4.221   1.414   1.491
 6758SOL     OW21172   5.913   3.022   1.885
 6758SOL    HW121173   5.967   2.990   1.964
 6758SOL    HW221174   5.973   3.070   1.821
 6759SOL     OW21175   6.877   3.212   3.255
 6759SOL    HW121176   6.802   3.173   3.308
 6759SOL    HW221177   6.941   3.140   3.229
 6760SOL     OW21178   6.312   3.756   2.554
 6760SOL    HW121179   6.296   3.777   2.650
 6760SOL    HW221180   6.380   3.819   2.516
 6761SOL     OW21181   5.478   2.882   4.906
 6761SOL    HW121182   5.425   2.797   4.905
 6761SOL    HW221183   5.428   2.953   4.857
 6762SOL     OW21184   0.402   4.594   4.628
 6762SOL    HW121185   0.438   4.575   4.719
 6762SOL    HW221186   0.303   4.580   4.628
 6763SOL     OW21187   5.027   5.151   4.758
 6763SOL    HW121188   4.998   5.246   4.752
 6763SOL    HW221189   5.023   5.120   4.853
 6764SOL     OW21190   2.133   5.717   2.182
 6764SOL    HW121191   2.080   5.634   2.202
 6764SOL    HW221192   2.230   5.695   2.181
 6765SOL     OW21193   6.386   4.327   3.185
 6765SOL    HW121194   6.422   4.333   3.278
 6765SOL    HW221195   6.374   4.231   3.160
 6766SOL     OW21196   4.882   5.889   5.912
 6766SOL    HW121197   4.830   5.946   5.849
 6766SOL    HW221198   4.819   5.832   5.966
 6767SOL     OW21199   3.230   0.268   1.273
 6767SOL    HW121200   3.188   0.297   1.187
 6767SOL    HW221201   3.222   0.341   1.340
 6768SOL     OW21202   1.975   0.380   6.039
 6768SOL    HW121203   2.064   0.418   6.064
 6768SOL    HW221204   1.927   0.350   6.122
 6769SOL     OW21205   3.107   2.032   0.866
 6769SOL    HW121206   3.070   1.960   0.808
 6769SOL    HW221207   3.052   2.115   0.856
 6770SOL     OW21208   6.750   1.149   1.853
 6770SOL    HW121209   6.796   1.099   1.927
 6770SOL    HW221210   6.817   1.204   1.803
 6771SOL     OW21211   4.577   2.582   3.500
 6771SOL    HW121212   4.618   2.641   3.430
 6771SOL    HW221213   4.645   2.515   3.531
 6772SOL     OW21214   3.527   0.850   3.332
 6772SOL    HW121215   3.467   0.786   3.380
 6772SOL    HW221216   3.471   0.909   3.273
 6773SOL     OW21217   6.864   5.482   1.646
 6773SOL    HW121218   6.823   5.570   1.669
 6773SOL    HW221219   6.800   5.429   1.590
 6774SOL     OW21220   0.428   2.780   5.826
 6774SOL    HW121221   0.349   2.720   5.817
 6774SOL    HW221222   0.445   2.827   5.740
 6775SOL     OW21223   2.647   3.178   1.707
 6775SOL    HW121224   2.728   3.160   1.763
 6775SOL    HW221225   2.625   3.275   1.710
 6776SOL     OW21226   4.497   4.428   6.927
 6776SOL    HW121227   4.596   4.422   6.929
 6776SOL    HW221228   4.463   4.398   6.838
 6777SOL     OW21229   4.066   3.791   6.893
 6777SOL    HW121230   4.120   3.729   6.951
 6777SOL    HW221231   4.092   3.777   6.797
 6778SOL     OW21232   6.467   4.777   2.131
 6778SOL    HW121233   6.383   4.815   2.168
 6778SOL    HW221234   6.446   4.698   2.073
 6779SOL     OW21235   6.722   4.935   5.729
 6779SOL    HW121236   6.810   4.954   5.773
 6779SOL    HW221237   6.658   4.899   5.797
 6780SOL     OW21238   1.408   2.096   2.699
 6780SOL    HW121239   1.410   2.007   2.654
 6780SOL    HW221240   1.332   2.150   2.665
 6781SOL     OW21241   5.610   0.444   4.843
 6781SOL    HW121242   5.667   0.362   4.846
 6781SOL    HW221243   5.533   0.429   4.781
 6782SOL     OW21244   0.187   0.194   3.215
 6782SOL    HW121245   0.271   0.227   3.171
 6782SOL    HW221246   0.172   0.099   3.191
 6783SOL     OW21247   6.738   0.925   6.538
 6783SOL    HW121248   6.639   0.936   6.545
 6783SOL    HW221249   6.766   0.842   6.587
 6784SOL     OW21250   3.209   3.520   0.391
 6784SOL    HW121251   3.165   3.470   0.465
 6784SOL    HW221252   3.297   3.556   0.422
 6785SOL     OW21253   5.197   4.832   2.748
 6785SOL    HW121254   5.199   4.743   2.702
 6785SOL    HW221255   5.114   4.882   2.720
 6786SOL     OW21256   1.570   1.825   0.206
 6786SOL    HW121257   1.522   1.765   0.143
 6786SOL    HW221258   1.505   1.864   0.272
 6787SOL     OW21259   1.948   2.573   1.037
 6787SOL    HW121260   1.907   2.653   1.079
 6787SOL    HW221261   2.042   2.563   1.070
 6788SOL     OW21262   2.598   3.448   1.762
 6788SOL    HW121263   2.635   3.532   1.724
 6788SOL    HW221264   2.513   3.468   1.812
 6789SOL     OW21265   0.045   6.405   3.068
 6789SOL    HW121266   0.143   6.390   3.086
 6789SOL    HW221267   0.011   6.333   3.008
 6790SOL     OW21268   1.443   3.809   0.955
 6790SOL    HW121269   1.457   3.853   0.866
 6790SOL    HW221270   1.520   3.749   0.975
 6791SOL     OW21271   4.368   2.787   1.621
 6791SOL    HW121272   4.331   2.696   1.641
 6791SOL    HW221273   4.316   2.856   1.671
 6792SOL     OW21274   6.541   6.165   6.092
 6792SOL    HW121275   6.623   6.113   6.068
 6792SOL    HW221276   6.507   6.213   6.011
 6793SOL     OW21277   0.870   2.023   0.042
 6793SOL    HW121278   0.905   1.949   0.101
 6793SOL    HW221279   0.775   2.004   0.019
 6794SOL     OW21280   4.862   1.701   5.779
 6794SOL    HW121281   4.840   1.795   5.805
 6794SOL    HW221282   4.837   1.639   5.854
 6795SOL     OW21283   2.678   6.380   0.665
 6795SOL    HW121284   2.754   6.361   0.727
 6795SOL    HW221285   2.598   6.328   0.695
 6796SOL     OW21286   6.075   0.787   2.163
 6796SOL    HW121287   5.984   0.807   2.199
 6796SOL    HW221288   6.117   0.713   2.216
 6797SOL     OW21289   5.522   3.593   1.503
 6797SOL    HW121290   5.423   3.591   1.489
 6797SOL    HW221291   5.566   3.532   1.437
 6798SOL     OW21292   5.654   6.143   2.824
 6798SOL    HW121293   5.747   6.161   2.858
 6798SOL    HW221294   5.605   6.230   2.816
 6799SOL     OW21295   6.412   5.688   6.838
 6799SOL    HW121296   6.330   5.687   6.781
 6799SOL    HW221297   6.492   5.702   6.781
 6800SOL     OW21298   2.202   4.039   1.342
 6800SOL    HW121299   2.183   4.085   1.428
 6800SOL    HW221300   2.269   4.090   1.289
 6801SOL     OW21301   1.128   0.767   2.767
 6801SOL    HW121302   1.129   0.681   2.716
 6801SOL    HW221303   1.211   0.775   2.822
 6802SOL     OW21304   3.267   5.610   0.256
 6802SOL    HW121305   3.327   5.682   0.222
 6802SOL    HW221306   3.280   5.527   0.201
 6803SOL     OW21307   5.278   2.813   6.124
 6803SOL    HW121308   5.227   2.896   6.102
 6803SOL    HW221309   5.314   2.773   6.039
 6804SOL     OW21310   2.660   5.433   3.476
 6804SOL    HW121311   2.638   5.400   3.567
 6804SOL    HW221312   2.758   5.425   3.459
 6805SOL     OW21313   5.710   5.670   5.092
 6805SOL    HW121314   5.765   5.753   5.087
 6805SOL    HW221315   5.688   5.650   5.188
 6806SOL     OW21316   5.433   1.220   3.285
 6806SOL    HW121317   5.531   1.239   3.293
 6806SOL    HW221318   5.383   1.307   3.274
 6807SOL     OW21319   3.110   2.753   0.578
 6807SOL    HW121320   3.161   2.838   0.570
 6807SOL    HW221321   3.099   2.730   0.675
 6808SOL     OW21322   0.126   2.085   5.558
 6808SOL    HW121323   0.030   2.108   5.572
 6808SOL    HW221324   0.136   2.030   5.475
 6809SOL     OW21325   1.416   3.435   1.353
 6809SOL    HW121326   1.499   3.419   1.406
 6809SOL    HW221327   1.350   3.363   1.373
 6810SOL     OW21328   2.031   0.204   1.924
 6810SOL    HW121329   1.997   0.229   2.015
 6810SOL    HW221330   2.067   0.286   1.878
 6811SOL     OW21331   5.030   3.903   0.366
 6811SOL    HW121332   4.981   3.990   0.369
 6811SOL    HW221333   4.969   3.828   0.392
 6812SOL     OW21334   3.423   3.572   3.697
 6812SOL    HW121335   3.343   3.516   3.718
 6812SOL    HW221336   3.397   3.668   3.688
 6813SOL     OW21337   5.053   2.062   2.260
 6813SOL    HW121338   5.012   1.990   2.315
 6813SOL    HW221339   4.995   2.144   2.265
 6814SOL     OW21340   3.302   2.335   0.637
 6814SOL    HW121341   3.248   2.254   0.615
 6814SOL    HW221342   3.266   2.414   0.588
 6815SOL     OW21343   2.962   6.877   1.568
 6815SOL    HW121344   2.995   6.909   1.479
 6815SOL    HW221345   3.009   6.927   1.641
 6816SOL     OW21346   0.213   0.118   6.588
 6816SOL    HW121347   0.225   0.025   6.624
 6816SOL    HW221348   0.165   0.173   6.655
 6817SOL     OW21349   0.423   2.031   5.048
 6817SOL    HW121350   0.475   2.006   4.967
 6817SOL    HW221351   0.470   2.104   5.097
 6818SOL     OW21352   3.089   5.368   1.993
 6818SOL    HW121353   3.039   5.281   1.994
 6818SOL    HW221354   3.035   5.437   1.944
 6819SOL     OW21355   5.014   1.090   4.329
 6819SOL    HW121356   5.067   1.097   4.245
 6819SOL    HW221357   5.008   1.180   4.373
 6820SOL     OW21358   1.121   5.540   2.988
 6820SOL    HW121359   1.129   5.548   3.087
 6820SOL    HW221360   1.167   5.617   2.944
 6821SOL     OW21361   3.097   0.963   5.403
 6821SOL    HW121362   3.110   0.929   5.310
 6821SOL    HW221363   3.123   0.892   5.468
 6822SOL     OW21364   6.269   2.509   6.122
 6822SOL    HW121365   6.216   2.436   6.164
 6822SOL    HW221366   6.354   2.472   6.085
 6823SOL     OW21367   3.831   3.319   4.065
 6823SOL    HW121368   3.918   3.329   4.113
 6823SOL    HW221369   3.783   3.238   4.099
 6824SOL     OW21370   1.007   3.358   6.111
 6824SOL    HW121371   1.105   3.339   6.117
 6824SOL    HW221372   0.957   3.286   6.160
 6825SOL     OW21373   4.884   6.106   2.413
 6825SOL    HW121374   4.930   6.132   2.497
 6825SOL    HW221375   4.880   6.184   2.351
 6826SOL     OW21376   2.169   4.219   2.732
 6826SOL    HW121377   2.160   4.261   2.642
 6826SOL    HW221378   2.175   4.119   2.721
 6827SOL     OW21379   4.642   5.839   6.862
 6827SOL    HW121380   4.685   5.909   6.919
 6827SOL    HW221381   4.700   5.820   6.783
 6828SOL     OW21382   2.771   1.611   2.042
 6828SOL    HW121383   2.849   1.595   2.103
 6828SOL    HW221384   2.716   1.686   2.078
 6829SOL     OW21385   4.696   6.979   4.129
 6829SOL    HW121386   4.781   6.940   4.094
 6829SOL    HW221387   4.714   0.005   4.216
 6830SOL     OW21388   5.401   1.375   4.025
 6830SOL    HW121389   5.346   1.297   4.052
 6830SOL    HW221390   5.349   1.460   4.040
 6831SOL     OW21391   1.232   0.583   5.963
 6831SOL    HW121392   1.305   0.627   6.016
 6831SOL    HW221393   1.192   0.509   6.018
 6832SOL     OW21394   2.827   3.989   1.432
 6832SOL    HW121395   2.758   3.918   1.444
 6832SOL    HW221396   2.918   3.950   1.446
 6833SOL     OW21397   4.426   4.612   6.578
 6833SOL    HW121398   4.361   4.552   6.624
 6833SOL    HW221399   4.380   4.663   6.505
 6834SOL     OW21400   5.108   6.838   1.772
 6834SOL    HW121401   5.066   6.756   1.811
 6834SOL    HW221402   5.101   6.913   1.838
 6835SOL     OW21403   3.979   0.305   5.104
 6835SOL    HW121404   4.062   0.329   5.053
 6835SOL    HW221405   3.912   0.264   5.042
 6836SOL     OW21406   3.430   5.316   0.194
 6836SOL    HW121407   3.389   5.326   0.103
 6836SOL    HW221408   3.430   5.219   0.220
 6837SOL     OW21409   1.539   2.060   2.203
 6837SOL    HW121410   1.558   2.001   2.125
 6837SOL    HW221411   1.621   2.066   2.261
 6838SOL     OW21412   2.389   6.024   1.074
 6838SOL    HW121413   2.300   6.005   1.033
 6838SOL    HW221414   2.382   6.104   1.133
 6839SOL     OW21415   5.007   0.918   6.693
 6839SOL    HW121416   5.032   0.822   6.681
 6839SOL    HW221417   5.087   0.971   6.719
 6840SOL     OW21418   2.671   2.157   5.122
 6840SOL    HW121419   2.762   2.120   5.138
 6840SOL    HW221420   2.676   2.227   5.050
 6841SOL     OW21421   5.205   3.626   6.056
 6841SOL    HW121422   5.217   3.688   5.978
 6841SOL    HW221423   5.111   3.633   6.089
 6842SOL     OW21424   2.953   4.537   1.124
 6842SOL    HW121425   2.896   4.616   1.145
 6842SOL    HW221426   2.975   4.538   1.026
 6843SOL     OW21427   5.464   6.503   0.458
 6843SOL    HW121428   5.510   6.514   0.546
 6843SOL    HW221429   5.391   6.570   0.450
 6844SOL     OW21430   5.430   0.980   4.126
 6844SOL    HW121431   5.403   0.894   4.169
 6844SOL    HW221432   5.353   1.044   4.127
 6845SOL     OW21433   5.826   3.313   3.282
 6845SOL    HW121434   5.862   3.375   3.351
 6845SOL    HW221435   5.900   3.283   3.222
 6846SOL     OW21436   3.670   4.040   0.270
 6846SOL    HW121437   3.712   3.949   0.271
 6846SOL    HW221438   3.687   4.083   0.181
 6847SOL     OW21439   0.204   3.965   5.129
 6847SOL    HW121440   0.264   3.902   5.080
 6847SOL    HW221441   0.135   3.914   5.180
 6848SOL     OW21442   5.126   4.163   3.464
 6848SOL    HW121443   5.199   4.229   3.485
 6848SOL    HW221444   5.037   4.208   3.473
 6849SOL     OW21445   3.915   3.854   5.620
 6849SOL    HW121446   3.964   3.786   5.566
 6849SOL    HW221447   3.979   3.923   5.654
 6850SOL     OW21448   5.204   3.126   2.851
 6850SOL    HW121449   5.246   3.169   2.930
 6850SOL    HW221450   5.249   3.157   2.767
 6851SOL     OW21451   1.222   2.304   2.638
 6851SOL    HW121452   1.165   2.269   2.713
 6851SOL    HW221453   1.189   2.394   2.611
 6852SOL     OW21454   2.915   5.070   0.923
 6852SOL    HW121455   2.885   4.975   0.915
 6852SOL    HW221456   2.918   5.111   0.832
 6853SOL     OW21457   4.905   3.888   6.248
 6853SOL    HW121458   4.894   3.802   6.198
 6853SOL    HW221459   4.927   3.868   6.344
 6854SOL     OW21460   5.843   0.333   5.825
 6854SOL    HW121461   5.856   0.270   5.749
 6854SOL    HW221462   5.862   0.285   5.911
 6855SOL     OW21463   4.194   5.693   3.748
 6855SOL    HW121464   4.137   5.652   3.677
 6855SOL    HW221465   4.174   5.790   3.755
 6856SOL     OW21466   0.492   2.086   5.419
 6856SOL    HW121467   0.451   1.997   5.402
 6856SOL    HW221468   0.440   2.134   5.490
 6857SOL     OW21469   0.731   3.361   6.697
 6857SOL    HW121470   0.796   3.307   6.644
 6857SOL    HW221471   0.738   3.336   6.794
 6858SOL     OW21472   3.579   4.102   1.810
 6858SOL    HW121473   3.542   4.100   1.904
 6858SOL    HW221474   3.516   4.153   1.751
 6859SOL     OW21475   0.344   0.655   1.402
 6859SOL    HW121476   0.394   0.727   1.354
 6859SOL    HW221477   0.372   0.652   1.498
 6860SOL     OW21478   6.500   4.693   1.474
 6860SOL    HW121479   6.536   4.744   1.553
 6860SOL    HW221480   6.473   4.601   1.503
 6861SOL     OW21481   4.763   4.133   6.169
 6861SOL    HW121482   4.790   4.146   6.074
 6861SOL    HW221483   4.803   4.048   6.204
 6862SOL     OW21484   0.176   4.857   5.403
 6862SOL    HW121485   0.160   4.783   5.469
 6862SOL    HW221486   0.191   4.942   5.452
 6863SOL     OW21487   6.692   6.378   5.605
 6863SOL    HW121488   6.765   6.417   5.548
 6863SOL    HW221489   6.634   6.319   5.549
 6864SOL     OW21490   2.220   4.555   5.189
 6864SOL    HW121491   2.290   4.484   5.176
 6864SOL    HW221492   2.147   4.520   5.247
 6865SOL     OW21493   1.210   0.236   5.105
 6865SOL    HW121494   1.195   0.142   5.075
 6865SOL    HW221495   1.303   0.265   5.081
 6866SOL     OW21496   6.189   4.598   2.412
 6866SOL    HW121497   6.210   4.567   2.505
 6866SOL    HW221498   6.089   4.598   2.399
 6867SOL     OW21499   1.990   3.603   1.234
 6867SOL    HW121500   1.956   3.692   1.263
 6867SOL    HW221501   2.090   3.602   1.240
 6868SOL     OW21502   2.705   6.761   5.267
 6868SOL    HW121503   2.684   6.712   5.183
 6868SOL    HW221504   2.800   6.793   5.263
 6869SOL     OW21505   4.615   1.158   5.841
 6869SOL    HW121506   4.540   1.186   5.902
 6869SOL    HW221507   4.653   1.239   5.797
 6870SOL     OW21508   0.220   3.778   1.123
 6870SOL    HW121509   0.292   3.847   1.126
 6870SOL    HW221510   0.173   3.774   1.211
 6871SOL     OW21511   6.555   4.082   2.715
 6871SOL    HW121512   6.568   4.176   2.746
 6871SOL    HW221513   6.619   4.022   2.763
 6872SOL     OW21514   0.609   2.982   1.999
 6872SOL    HW121515   0.651   2.937   1.921
 6872SOL    HW221516   0.619   3.081   1.990
 6873SOL     OW21517   0.880   4.198   4.012
 6873SOL    HW121518   0.834   4.161   4.093
 6873SOL    HW221519   0.945   4.268   4.040
 6874SOL     OW21520   6.492   5.874   3.428
 6874SOL    HW121521   6.501   5.837   3.521
 6874SOL    HW221522   6.582   5.876   3.385
 6875SOL     OW21523   2.087   2.140   2.598
 6875SOL    HW121524   2.048   2.057   2.558
 6875SOL    HW221525   2.187   2.133   2.598
 6876SOL     OW21526   3.573   6.961   3.690
 6876SOL    HW121527   3.526   6.990   3.606
 6876SOL    HW221528   3.544   6.868   3.714
 6877SOL     OW21529   3.173   4.441   1.682
 6877SOL    HW121530   3.086   4.394   1.664
 6877SOL    HW221531   3.249   4.378   1.666
 6878SOL     OW21532   2.740   1.831   3.459
 6878SOL    HW121533   2.668   1.884   3.504
 6878SOL    HW221534   2.699   1.764   3.398
 6879SOL     OW21535   2.241   2.691   0.432
 6879SOL    HW121536   2.171   2.681   0.361
 6879SOL    HW221537   2.330   2.708   0.389
 6880SOL     OW21538   1.035   6.470   5.891
 6880SOL    HW121539   1.010   6.505   5.801
 6880SOL    HW221540   0.958   6.480   5.954
 6881SOL     OW21541   1.587   3.143   1.631
 6881SOL    HW121542   1.651   3.091   1.688
 6881SOL    HW221543   1.493   3.128   1.664
 6882SOL     OW21544   2.929   0.878   0.597
 6882SOL    HW121545   2.929   0.791   0.647
 6882SOL    HW221546   2.968   0.949   0.655
 6883SOL     OW21547   5.368   1.260   6.145
 6883SOL    HW121548   5.342   1.219   6.232
 6883SOL    HW221549   5.430   1.337   6.161
 6884SOL     OW21550   1.571   4.084   2.836
 6884SOL    HW121551   1.641   4.050   2.898
 6884SOL    HW221552   1.550   4.179   2.858
 6885SOL     OW21553   4.860   4.951   3.966
 6885SOL    HW121554   4.789   4.881   3.981
 6885SOL    HW221555   4.819   5.042   3.976
 6886SOL     OW21556   6.810   1.481   4.796
 6886SOL    HW121557   6.756   1.529   4.726
 6886SOL    HW221558   6.759   1.480   4.882
 6887SOL     OW21559   4.573   5.888   0.291
 6887SOL    HW121560   4.625   5.958   0.340
 6887SOL    HW221561   4.476   5.915   0.288
 6888SOL     OW21562   5.305   4.482   6.355
 6888SOL    HW121563   5.360   4.528   6.285
 6888SOL    HW221564   5.225   4.538   6.377
 6889SOL     OW21565   1.908   2.449   5.612
 6889SOL    HW121566   1.943   2.532   5.655
 6889SOL    HW221567   1.856   2.397   5.680
 6890SOL     OW21568   3.659   5.924   3.044
 6890SOL    HW121569   3.648   5.872   2.960
 6890SOL    HW221570   3.712   5.870   3.110
 6891SOL     OW21571   2.047   3.182   1.504
 6891SOL    HW121572   2.105   3.197   1.585
 6891SOL    HW221573   2.010   3.270   1.473
 6892SOL     OW21574   3.305   1.219   3.755
 6892SOL    HW121575   3.325   1.174   3.668
 6892SOL    HW221576   3.227   1.175   3.799
 6893SOL     OW21577   5.787   3.371   0.590
 6893SOL    HW121578   5.829   3.303   0.650
 6893SOL    HW221579   5.717   3.421   0.640
 6894SOL     OW21580   5.320   5.195   1.420
 6894SOL    HW121581   5.288   5.102   1.435
 6894SOL    HW221582   5.393   5.195   1.352
 6895SOL     OW21583   2.100   5.586   1.067
 6895SOL    HW121584   2.056   5.502   1.036
 6895SOL    HW221585   2.164   5.618   0.997
 6896SOL     OW21586   2.865   1.592   3.986
 6896SOL    HW121587   2.910   1.677   3.958
 6896SOL    HW221588   2.905   1.559   4.071
 6897SOL     OW21589   4.793   3.874   5.225
 6897SOL    HW121590   4.799   3.788   5.176
 6897SOL    HW221591   4.823   3.949   5.166
 6898SOL     OW21592   3.515   1.541   1.664
 6898SOL    HW121593   3.526   1.624   1.608
 6898SOL    HW221594   3.492   1.464   1.605
 6899SOL     OW21595   4.883   6.384   2.426
 6899SOL    HW121596   4.813   6.385   2.497
 6899SOL    HW221597   4.973   6.377   2.468
 6900SOL     OW21598   6.589   4.632   5.651
 6900SOL    HW121599   6.659   4.574   5.693
 6900SOL    HW221600   6.569   4.709   5.711
 6901SOL     OW21601   4.792   5.693   6.119
 6901SOL    HW121602   4.851   5.742   6.183
 6901SOL    HW221603   4.763   5.606   6.160
 6902SOL     OW21604   6.513   6.203   5.475
 6902SOL    HW121605   6.552   6.182   5.385
 6902SOL    HW221606   6.414   6.198   5.471
 6903SOL     OW21607   3.036   4.867   5.149
 6903SOL    HW121608   2.991   4.786   5.110
 6903SOL    HW221609   2.968   4.939   5.164
 6904SOL     OW21610   6.567   6.560   5.951
 6904SOL    HW121611   6.516   6.498   5.891
 6904SOL    HW221612   6.591   6.513   6.036
 6905SOL     OW21613   5.187   5.397   6.686
 6905SOL    HW121614   5.272   5.396   6.633
 6905SOL    HW221615   5.205   5.362   6.778
 6906SOL     OW21616   3.473   1.343   3.381
 6906SOL    HW121617   3.497   1.370   3.287
 6906SOL    HW221618   3.510   1.411   3.445
 6907SOL     OW21619   6.508   2.809   2.009
 6907SOL    HW121620   6.493   2.893   2.061
 6907SOL    HW221621   6.489   2.825   1.912
 6908SOL     OW21622   2.356   4.777   6.876
 6908SOL    HW121623   2.426   4.847   6.892
 6908SOL    HW221624   2.330   4.778   6.779
 6909SOL     OW21625   5.616   4.786   1.776
 6909SOL    HW121626   5.612   4.717   1.704
 6909SOL    HW221627   5.583   4.746   1.862
 6910SOL     OW21628   1.364   2.469   2.895
 6910SOL    HW121629   1.285   2.487   2.954
 6910SOL    HW221630   1.379   2.548   2.835
 6911SOL     OW21631   4.230   0.127   4.643
 6911SOL    HW121632   4.172   0.209   4.638
 6911SOL    HW221633   4.326   0.155   4.643
 6912SOL     OW21634   2.472   3.488   6.618
 6912SOL    HW121635   2.492   3.410   6.677
 6912SOL    HW221636   2.442   3.566   6.673
 6913SOL     OW21637   5.031   6.791   4.630
 6913SOL    HW121638   5.099   6.856   4.595
 6913SOL    HW221639   4.941   6.815   4.594
 6914SOL     OW21640   5.961   4.320   2.931
 6914SOL    HW121641   6.021   4.242   2.914
 6914SOL    HW221642   6.012   4.393   2.977
 6915SOL     OW21643   0.882   2.266   2.539
 6915SOL    HW121644   0.792   2.309   2.549
 6915SOL    HW221645   0.943   2.328   2.489
 6916SOL     OW21646   5.535   1.459   6.176
 6916SOL    HW121647   5.488   1.539   6.213
 6916SOL    HW221648   5.631   1.481   6.159
 6917SOL     OW21649   3.912   5.961   2.137
 6917SOL    HW121650   3.868   5.957   2.227
 6917SOL    HW221651   3.943   5.870   2.111
 6918SOL     OW21652   6.976   2.534   3.606
 6918SOL    HW121653   0.042   2.569   3.573
 6918SOL    HW221654   6.970   2.547   3.705
 6919SOL     OW21655   6.482   5.860   3.096
 6919SOL    HW121656   6.389   5.830   3.117
 6919SOL    HW221657   6.509   5.932   3.160
 6920SOL     OW21658   5.629   7.018   5.806
 6920SOL    HW121659   5.599   6.930   5.770
 6920SOL    HW221660   5.548   0.054   5.822
 6921SOL     OW21661   4.041   0.193   3.934
 6921SOL    HW121662   3.959   0.211   3.880
 6921SOL    HW221663   4.094   0.277   3.944
 6922SOL     OW21664   1.790   6.482   5.179
 6922SOL    HW121665   1.803   6.488   5.080
 6922SOL    HW221666   1.842   6.554   5.224
 6923SOL     OW21667   5.911   6.655   2.455
 6923SOL    HW121668   5.852   6.671   2.376
 6923SOL    HW221669   5.979   6.728   2.460
 6924SOL     OW21670   2.982   4.844   0.364
 6924SOL    HW121671   2.942   4.786   0.435
 6924SOL    HW221672   2.911   4.901   0.323
 6925SOL     OW21673   4.204   5.557   5.235
 6925SOL    HW121674   4.223   5.648   5.198
 6925SOL    HW221675   4.208   5.490   5.161
 6926SOL     OW21676   2.278   1.975   0.771
 6926SOL    HW121677   2.355   2.037   0.757
 6926SOL    HW221678   2.275   1.945   0.866
 6927SOL     OW21679   3.369   1.772   6.732
 6927SOL    HW121680   3.376   1.775   6.832
 6927SOL    HW221681   3.351   1.678   6.703
 6928SOL     OW21682   5.106   6.114   1.089
 6928SOL    HW121683   5.156   6.173   1.153
 6928SOL    HW221684   5.123   6.145   0.995
 6929SOL     OW21685   5.331   6.194   1.950
 6929SOL    HW121686   5.275   6.115   1.926
 6929SOL    HW221687   5.280   6.278   1.931
 6930SOL     OW21688   0.533   0.837   0.912
 6930SOL    HW121689   0.510   0.791   0.997
 6930SOL    HW221690   0.531   0.771   0.836
 6931SOL     OW21691   1.762   1.558   1.661
 6931SOL    HW121692   1.714   1.484   1.613
 6931SOL    HW221693   1.763   1.538   1.759
 6932SOL     OW21694   4.782   5.757   1.026
 6932SOL    HW121695   4.740   5.825   1.086
 6932SOL    HW221696   4.797   5.796   0.936
 6933SOL     OW21697   3.430   6.827   5.855
 6933SOL    HW121698   3.472   6.871   5.934
 6933SOL    HW221699   3.336   6.801   5.877
 6934SOL     OW21700   4.983   3.291   5.800
 6934SOL    HW121701   4.946   3.291   5.893
 6934SOL    HW221702   4.947   3.213   5.749
 6935SOL     OW21703   4.229   5.886   2.928
 6935SOL    HW121704   4.147   5.881   2.871
 6935SOL    HW221705   4.207   5.932   3.014
 6936SOL     OW21706   0.064   2.508   4.348
 6936SOL    HW121707   0.028   2.602   4.353
 6936SOL    HW221708   0.137   2.505   4.280
 6937SOL     OW21709   5.765   6.536   1.042
 6937SOL    HW121710   5.848   6.530   1.097
 6937SOL    HW221711   5.787   6.517   0.946
 6938SOL     OW21712   0.614   2.237   4.441
 6938SOL    HW121713   0.536   2.192   4.485
 6938SOL    HW221714   0.657   2.300   4.505
 6939SOL     OW21715   6.728   5.273   2.719
 6939SOL    HW121716   6.701   5.179   2.697
 6939SOL    HW221717   6.743   5.281   2.817
 6940SOL     OW21718   4.313   6.742   0.231
 6940SOL    HW121719   4.287   6.838   0.236
 6940SOL    HW221720   4.407   6.732   0.264
 6941SOL     OW21721   2.981   3.860   2.276
 6941SOL    HW121722   3.049   3.923   2.240
 6941SOL    HW221723   2.959   3.792   2.207
 6942SOL     OW21724   6.020   0.256   2.050
 6942SOL    HW121725   5.936   0.285   2.003
 6942SOL    HW221726   6.045   0.165   2.020
 6943SOL     OW21727   3.871   4.756   0.339
 6943SOL    HW121728   3.886   4.672   0.287
 6943SOL    HW221729   3.952   4.814   0.334
 6944SOL     OW21730   0.799   5.065   6.338
 6944SOL    HW121731   0.886   5.056   6.388
 6944SOL    HW221732   0.803   5.146   6.281
 6945SOL     OW21733   6.894   2.688   1.385
 6945SOL    HW121734   6.868   2.643   1.470
 6945SOL    HW221735   6.987   2.723   1.393
 6946SOL     OW21736   4.011   6.259   1.563
 6946SOL    HW121737   3.983   6.325   1.633
 6946SOL    HW221738   4.048   6.308   1.484
 6947SOL     OW21739   4.356   5.090   6.128
 6947SOL    HW121740   4.274   5.133   6.090
 6947SOL    HW221741   4.430   5.157   6.135
 6948SOL     OW21742   0.555   5.671   1.030
 6948SOL    HW121743   0.519   5.609   0.960
 6948SOL    HW221744   0.588   5.754   0.986
 6949SOL     OW21745   2.583   1.763   3.040
 6949SOL    HW121746   2.568   1.862   3.039
 6949SOL    HW221747   2.565   1.725   2.949
 6950SOL     OW21748   1.941   0.576   4.365
 6950SOL    HW121749   1.928   0.653   4.302
 6950SOL    HW221750   1.852   0.538   4.389
 6951SOL     OW21751   6.367   6.169   6.584
 6951SOL    HW121752   6.405   6.198   6.496
 6951SOL    HW221753   6.437   6.178   6.655
 6952SOL     OW21754   2.107   5.415   2.883
 6952SOL    HW121755   2.135   5.320   2.873
 6952SOL    HW221756   2.044   5.422   2.961
 6953SOL     OW21757   5.052   6.814   0.048
 6953SOL    HW121758   5.036   6.907   0.017
 6953SOL    HW221759   4.968   6.761   0.036
 6954SOL     OW21760   0.032   3.892   1.701
 6954SOL    HW121761   6.959   3.860   1.695
 6954SOL    HW221762   0.093   3.817   1.677
 6955SOL     OW21763   4.356   0.732   2.571
 6955SOL    HW121764   4.394   0.824   2.571
 6955SOL    HW221765   4.298   0.719   2.490
 6956SOL     OW21766   5.439   5.541   3.290
 6956SOL    HW121767   5.511   5.476   3.310
 6956SOL    HW221768   5.354   5.493   3.270
 6957SOL     OW21769   5.915   6.044   0.305
 6957SOL    HW121770   6.000   5.991   0.302
 6957SOL    HW221771   5.891   6.074   0.212
 6958SOL     OW21772   3.363   3.717   4.321
 6958SOL    HW121773   3.317   3.767   4.247
 6958SOL    HW221774   3.323   3.743   4.409
 6959SOL     OW21775   1.861   3.799   2.738
 6959SOL    HW121776   1.862   3.821   2.836
 6959SOL    HW221777   1.862   3.700   2.726
 6960SOL     OW21778   2.550   4.157   1.034
 6960SOL    HW121779   2.629   4.120   1.083
 6960SOL    HW221780   2.582   4.201   0.950
 6961SOL     OW21781   5.313   1.280   4.701
 6961SOL    HW121782   5.401   1.266   4.746
 6961SOL    HW221783   5.242   1.289   4.771
 6962SOL     OW21784   4.353   5.671   0.942
 6962SOL    HW121785   4.367   5.768   0.963
 6962SOL    HW221786   4.302   5.627   1.015
 6963SOL     OW21787   5.353   4.765   0.564
 6963SOL    HW121788   5.360   4.779   0.663
 6963SOL    HW221789   5.290   4.833   0.525
 6964SOL     OW21790   3.940   0.321   5.804
 6964SOL    HW121791   3.963   0.366   5.718
 6964SOL    HW221792   4.000   0.355   5.877
 6965SOL     OW21793   1.642   1.105   0.211
 6965SOL    HW121794   1.548   1.090   0.243
 6965SOL    HW221795   1.704   1.043   0.260
 6966SOL     OW21796   0.729   0.736   2.446
 6966SOL    HW121797   0.724   0.823   2.398
 6966SOL    HW221798   0.822   0.723   2.481
 6967SOL     OW21799   3.395   1.343   6.162
 6967SOL    HW121800   3.358   1.251   6.152
 6967SOL    HW221801   3.329   1.409   6.127
 6968SOL     OW21802   2.316   0.805   3.649
 6968SOL    HW121803   2.402   0.846   3.620
 6968SOL    HW221804   2.258   0.876   3.691
 6969SOL     OW21805   3.415   1.905   1.213
 6969SOL    HW121806   3.500   1.959   1.209
 6969SOL    HW221807   3.380   1.891   1.121
 6970SOL     OW21808   4.033   3.677   5.409
 6970SOL    HW121809   4.106   3.649   5.347
 6970SOL    HW221810   3.974   3.743   5.363
 6971SOL     OW21811   5.546   5.185   1.221
 6971SOL    HW121812   5.586   5.256   1.164
 6971SOL    HW221813   5.567   5.095   1.182
 6972SOL     OW21814   5.472   3.655   2.109
 6972SOL    HW121815   5.390   3.711   2.104
 6972SOL    HW221816   5.463   3.577   2.047
 6973SOL     OW21817   0.777   2.552   3.454
 6973SOL    HW121818   0.756   2.551   3.552
 6973SOL    HW221819   0.865   2.508   3.438
 6974SOL     OW21820   2.960   3.700   2.770
 6974SOL    HW121821   2.931   3.779   2.714
 6974SOL    HW221822   3.001   3.631   2.711
 6975SOL     OW21823   1.807   6.714   4.726
 6975SOL    HW121824   1.774   6.802   4.759
 6975SOL    HW221825   1.848   6.663   4.801
 6976SOL     OW21826   5.805   3.937   5.782
 6976SOL    HW121827   5.778   4.023   5.827
 6976SOL    HW221828   5.790   3.946   5.684
 6977SOL     OW21829   3.974   3.712   1.082
 6977SOL    HW121830   3.997   3.677   0.991
 6977SOL    HW221831   4.057   3.747   1.126
 6978SOL     OW21832   5.023   2.954   1.347
 6978SOL    HW121833   5.092   2.990   1.410
 6978SOL    HW221834   5.068   2.901   1.275
 6979SOL     OW21835   1.232   3.087   1.024
 6979SOL    HW121836   1.284   3.011   0.985
 6979SOL    HW221837   1.279   3.173   1.005
 6980SOL     OW21838   2.156   0.986   3.809
 6980SOL    HW121839   2.140   1.081   3.835
 6980SOL    HW221840   2.117   0.926   3.879
 6981SOL     OW21841   3.887   3.382   5.863
 6981SOL    HW121842   3.976   3.427   5.857
 6981SOL    HW221843   3.885   3.321   5.943
 6982SOL     OW21844   1.131   1.227   4.129
 6982SOL    HW121845   1.128   1.297   4.201
 6982SOL    HW221846   1.173   1.266   4.047
 6983SOL     OW21847   5.148   1.342   4.914
 6983SOL    HW121848   5.093   1.418   4.948
 6983SOL    HW221849   5.159   1.274   4.987
 6984SOL     OW21850   1.279   1.535   2.730
 6984SOL    HW121851   1.204   1.471   2.712
 6984SOL    HW221852   1.341   1.536   2.651
 6985SOL     OW21853   6.422   5.192   7.002
 6985SOL    HW121854   6.459   5.157   0.066
 6985SOL    HW221855   6.382   5.283   7.018
 6986SOL     OW21856   3.692   6.665   6.302
 6986SOL    HW121857   3.791   6.674   6.312
 6986SOL    HW221858   3.646   6.739   6.353
 6987SOL     OW21859   6.876   1.494   5.887
 6987SOL    HW121860   6.954   1.480   5.950
 6987SOL    HW221861   6.897   1.453   5.799
 6988SOL     OW21862   1.769   6.969   6.334
 6988SOL    HW121863   1.838   6.920   6.387
 6988SOL    HW221864   1.678   6.933   6.356
 6989SOL     OW21865   6.437   4.652   2.713
 6989SOL    HW121866   6.369   4.581   2.696
 6989SOL    HW221867   6.433   4.721   2.641
 6990SOL     OW21868   3.955   2.599   1.335
 6990SOL    HW121869   3.943   2.643   1.424
 6990SOL    HW221870   4.028   2.531   1.342
 6991SOL     OW21871   5.484   4.421   2.921
 6991SOL    HW121872   5.582   4.424   2.942
 6991SOL    HW221873   5.433   4.463   2.995
 6992SOL     OW21874   6.498   5.876   0.227
 6992SOL    HW121875   6.461   5.840   0.313
 6992SOL    HW221876   6.556   5.955   0.247
 6993SOL     OW21877   6.613   0.588   1.200
 6993SOL    HW121878   6.643   0.679   1.170
 6993SOL    HW221879   6.517   0.574   1.175
 6994SOL     OW21880   1.686   1.006   4.293
 6994SOL    HW121881   1.710   1.095   4.254
 6994SOL    HW221882   1.586   0.999   4.301
 6995SOL     OW21883   0.275   4.296   0.276
 6995SOL    HW121884   0.267   4.317   0.373
 6995SOL    HW221885   0.225   4.212   0.256
 6996SOL     OW21886   1.296   0.529   1.142
 6996SOL    HW121887   1.301   0.436   1.105
 6996SOL    HW221888   1.200   0.554   1.155
 6997SOL     OW21889   0.158   4.907   4.638
 6997SOL    HW121890   0.257   4.894   4.633
 6997SOL    HW221891   0.122   4.932   4.549
 6998SOL     OW21892   0.849   1.333   1.477
 6998SOL    HW121893   0.764   1.295   1.441
 6998SOL    HW221894   0.857   1.429   1.448
 6999SOL     OW21895   1.238   2.545   6.729
 6999SOL    HW121896   1.211   2.551   6.633
 6999SOL    HW221897   1.335   2.522   6.735
 7000SOL     OW21898   5.840   0.919   1.585
 7000SOL    HW121899   5.817   1.015   1.598
 7000SOL    HW221900   5.938   0.906   1.597
 7001SOL     OW21901   0.762   2.001   5.432
 7001SOL    HW121902   0.666   2.021   5.451
 7001SOL    HW221903   0.820   2.075   5.465
 7002SOL     OW21904   1.591   5.383   4.027
 7002SOL    HW121905   1.494   5.383   4.050
 7002SOL    HW221906   1.642   5.431   4.099
 7003SOL     OW21907   4.666   5.506   1.551
 7003SOL    HW121908   4.704   5.476   1.464
 7003SOL    HW221909   4.625   5.597   1.541
 7004SOL     OW21910   0.805   5.491   0.397
 7004SOL    HW121911   0.752   5.428   0.341
 7004SOL    HW221912   0.895   5.506   0.356
 7005SOL     OW21913   0.577   0.196   0.357
 7005SOL    HW121914   0.574   0.108   0.404
 7005SOL    HW221915   0.670   0.213   0.324
 7006SOL     OW21916   6.398   6.418   3.205
 7006SOL    HW121917   6.361   6.490   3.263
 7006SOL    HW221918   6.492   6.397   3.233
 7007SOL     OW21919   4.215   0.364   5.011
 7007SOL    HW121920   4.305   0.398   5.036
 7007SOL    HW221921   4.185   0.407   4.926
 7008SOL     OW21922   0.077   4.497   4.062
 7008SOL    HW121923   0.013   4.542   4.123
 7008SOL    HW221924   0.158   4.468   4.113
 7009SOL     OW21925   4.578   6.738   1.877
 7009SOL    HW121926   4.613   6.729   1.783
 7009SOL    HW221927   4.479   6.722   1.878
 7010SOL     OW21928   5.960   4.492   3.452
 7010SOL    HW121929   5.902   4.522   3.528
 7010SOL    HW221930   6.044   4.453   3.488
 7011SOL     OW21931   3.633   6.756   0.598
 7011SOL    HW121932   3.597   6.803   0.679
 7011SOL    HW221933   3.565   6.759   0.525
 7012SOL     OW21934   1.565   1.897   1.213
 7012SOL    HW121935   1.521   1.863   1.296
 7012SOL    HW221936   1.506   1.879   1.134
 7013SOL     OW21937   2.305   0.122   6.598
 7013SOL    HW121938   2.232   0.069   6.556
 7013SOL    HW221939   2.270   0.210   6.628
 7014SOL     OW21940   5.314   3.397   1.073
 7014SOL    HW121941   5.307   3.494   1.099
 7014SOL    HW221942   5.255   3.342   1.132
 7015SOL     OW21943   5.714   4.695   2.096
 7015SOL    HW121944   5.664   4.737   2.171
 7015SOL    HW221945   5.661   4.619   2.059
 7016SOL     OW21946   3.729   5.016   1.049
 7016SOL    HW121947   3.683   4.962   1.119
 7016SOL    HW221948   3.828   5.016   1.067
 7017SOL     OW21949   2.628   5.239   2.968
 7017SOL    HW121950   2.565   5.166   2.994
 7017SOL    HW221951   2.668   5.219   2.879
 7018SOL     OW21952   5.350   4.004   4.138
 7018SOL    HW121953   5.325   3.943   4.213
 7018SOL    HW221954   5.267   4.032   4.089
 7019SOL     OW21955   4.372   5.457   2.214
 7019SOL    HW121956   4.352   5.394   2.289
 7019SOL    HW221957   4.450   5.514   2.238
 7020SOL     OW21958   0.450   3.819   6.761
 7020SOL    HW121959   0.484   3.735   6.718
 7020SOL    HW221960   0.377   3.857   6.704
 7021SOL     OW21961   1.552   3.102   4.352
 7021SOL    HW121962   1.598   3.023   4.393
 7021SOL    HW221963   1.603   3.185   4.374
 7022SOL     OW21964   4.724   0.460   0.234
 7022SOL    HW121965   4.776   0.508   0.162
 7022SOL    HW221966   4.787   0.418   0.298
 7023SOL     OW21967   0.530   2.496   1.292
 7023SOL    HW121968   0.609   2.558   1.285
 7023SOL    HW221969   0.456   2.530   1.234
 7024SOL     OW21970   3.789   3.458   3.421
 7024SOL    HW121971   3.887   3.460   3.441
 7024SOL    HW221972   3.763   3.540   3.371
 7025SOL     OW21973   3.686   0.080   0.459
 7025SOL    HW121974   3.684   0.044   0.366
 7025SOL    HW221975   3.717   0.175   0.457
 7026SOL     OW21976   3.865   1.944   2.169
 7026SOL    HW121977   3.802   1.877   2.209
 7026SOL    HW221978   3.813   2.008   2.112
 7027SOL     OW21979   2.537   6.016   3.751
 7027SOL    HW121980   2.477   5.957   3.697
 7027SOL    HW221981   2.513   6.111   3.737
 7028SOL     OW21982   2.821   0.095   4.067
 7028SOL    HW121983   2.774   0.007   4.059
 7028SOL    HW221984   2.917   0.084   4.040
 7029SOL     OW21985   3.685   3.991   5.557
 7029SOL    HW121986   3.753   3.923   5.583
 7029SOL    HW221987   3.685   4.066   5.623
 7030SOL     OW21988   0.655   1.724   4.994
 7030SOL    HW121989   0.655   1.666   5.076
 7030SOL    HW221990   0.564   1.723   4.952
 7031SOL     OW21991   3.962   6.251   0.575
 7031SOL    HW121992   3.932   6.286   0.487
 7031SOL    HW221993   4.001   6.326   0.629
 7032SOL     OW21994   4.409   0.782   3.506
 7032SOL    HW121995   4.419   0.772   3.606
 7032SOL    HW221996   4.322   0.826   3.485
 7033SOL     OW21997   1.798   2.665   4.027
 7033SOL    HW121998   1.841   2.752   4.052
 7033SOL    HW221999   1.818   2.645   3.931
 7034SOL     OW22000   6.638   2.929   3.129
 7034SOL    HW122001   6.663   2.852   3.187
 7034SOL    HW222002   6.592   2.895   3.047
 7035SOL     OW22003   2.412   0.342   1.250
 7035SOL    HW122004   2.439   0.334   1.154
 7035SOL    HW222005   2.363   0.259   1.277
 7036SOL     OW22006   7.016   2.045   2.251
 7036SOL    HW122007   0.092   2.063   2.261
 7036SOL    HW222008   6.965   2.129   2.268
 7037SOL     OW22009   0.640   1.447   5.746
 7037SOL    HW122010   0.669   1.352   5.746
 7037SOL    HW222011   0.720   1.507   5.755
 7038SOL     OW22012   2.235   4.586   5.679
 7038SOL    HW122013   2.287   4.598   5.594
 7038SOL    HW222014   2.166   4.658   5.686
 7039SOL     OW22015   0.362   5.984   3.695
 7039SOL    HW122016   0.461   5.991   3.685
 7039SOL    HW222017   0.334   6.024   3.783
 7040SOL     OW22018   4.782   1.828   5.145
 7040SOL    HW122019   4.803   1.919   5.109
 7040SOL    HW222020   4.719   1.782   5.083
 7041SOL     OW22021   0.783   1.770   3.529
 7041SOL    HW122022   0.868   1.717   3.532
 7041SOL    HW222023   0.710   1.718   3.574
 7042SOL     OW22024   4.034   5.681   4.488
 7042SOL    HW122025   4.090   5.616   4.539
 7042SOL    HW222026   4.047   5.772   4.525
 7043SOL     OW22027   2.448   4.528   3.465
 7043SOL    HW122028   2.442   4.590   3.386
 7043SOL    HW222029   2.486   4.578   3.543
 7044SOL     OW22030   4.791   0.489   4.628
 7044SOL    HW122031   4.868   0.467   4.687
 7044SOL    HW222032   4.778   0.588   4.624
 7045SOL     OW22033   5.486   5.596   2.325
 7045SOL    HW122034   5.559   5.528   2.327
 7045SOL    HW222035   5.477   5.638   2.416
 7046SOL     OW22036   3.044   2.087   4.077
 7046SOL    HW122037   2.965   2.147   4.064
 7046SOL    HW222038   3.127   2.142   4.087
 7047SOL     OW22039   0.104   0.919   1.381
 7047SOL    HW122040   0.091   0.822   1.401
 7047SOL    HW222041   0.138   0.929   1.287
 7048SOL     OW22042   5.852   6.695   4.676
 7048SOL    HW122043   5.887   6.768   4.618
 7048SOL    HW222044   5.779   6.646   4.628
 7049SOL     OW22045   3.623   1.042   2.151
 7049SOL    HW122046   3.678   1.020   2.070
 7049SOL    HW222047   3.530   1.009   2.137
 7050SOL     OW22048   3.836   4.353   0.892
 7050SOL    HW122049   3.856   4.394   0.803
 7050SOL    HW222050   3.776   4.413   0.944
 7051SOL     OW22051   6.431   6.472   1.108
 7051SOL    HW122052   6.525   6.481   1.076
 7051SOL    HW222053   6.431   6.431   1.200
 7052SOL     OW22054   5.949   0.099   3.559
 7052SOL    HW122055   6.021   0.039   3.524
 7052SOL    HW222056   5.927   0.169   3.491
 7053SOL     OW22057   2.172   3.803   3.798
 7053SOL    HW122058   2.219   3.846   3.721
 7053SOL    HW222059   2.175   3.863   3.878
 7054SOL     OW22060   6.891   6.929   1.202
 7054SOL    HW122061   6.889   7.021   1.242
 7054SOL    HW222062   6.818   6.873   1.242
 7055SOL     OW22063   2.878   0.391   0.397
 7055SOL    HW122064   2.893   0.487   0.373
 7055SOL    HW222065   2.934   0.334   0.337
 7056SOL     OW22066   6.942   5.720   0.909
 7056SOL    HW122067   6.901   5.757   0.826
 7056SOL    HW222068   7.016   5.781   0.939
 7057SOL     OW22069   3.224   5.909   4.418
 7057SOL    HW122070   3.286   5.975   4.462
 7057SOL    HW222071   3.273   5.858   4.348
 7058SOL     OW22072   5.546   2.102   6.367
 7058SOL    HW122073   5.509   2.172   6.427
 7058SOL    HW222074   5.641   2.083   6.391
 7059SOL     OW22075   1.581   1.241   5.063
 7059SOL    HW122076   1.656   1.175   5.061
 7059SOL    HW222077   1.619   1.334   5.068
 7060SOL     OW22078   3.766   6.119   1.724
 7060SOL    HW122079   3.859   6.150   1.701
 7060SOL    HW222080   3.700   6.189   1.697
 7061SOL     OW22081   0.610   2.402   2.521
 7061SOL    HW122082   0.644   2.489   2.556
 7061SOL    HW222083   0.515   2.389   2.549
 7062SOL     OW22084   4.227   1.931   4.229
 7062SOL    HW122085   4.201   1.864   4.159
 7062SOL    HW222086   4.235   1.885   4.318
 7063SOL     OW22087   0.257   6.571   1.926
 7063SOL    HW122088   0.322   6.644   1.907
 7063SOL    HW222089   0.196   6.560   1.848
 7064SOL     OW22090   4.287   2.151   6.240
 7064SOL    HW122091   4.268   2.108   6.329
 7064SOL    HW222092   4.284   2.251   6.251
 7065SOL     OW22093   3.528   4.594   5.523
 7065SOL    HW122094   3.530   4.515   5.462
 7065SOL    HW222095   3.572   4.570   5.610
 7066SOL     OW22096   4.634   1.235   6.726
 7066SOL    HW122097   4.549   1.183   6.727
 7066SOL    HW222098   4.621   1.318   6.672
 7067SOL     OW22099   1.312   3.573   6.632
 7067SOL    HW122100   1.233   3.540   6.580
 7067SOL    HW222101   1.377   3.499   6.646
 7068SOL     OW22102   6.076   4.278   4.399
 7068SOL    HW122103   6.144   4.252   4.331
 7068SOL    HW222104   6.116   4.342   4.464
 7069SOL     OW22105   5.995   1.726   5.858
 7069SOL    HW122106   5.923   1.733   5.789
 7069SOL    HW222107   5.957   1.748   5.948
 7070SOL     OW22108   0.804   6.751   5.116
 7070SOL    HW122109   0.797   6.849   5.096
 7070SOL    HW222110   0.721   6.720   5.162
 7071SOL     OW22111   4.934   6.265   6.940
 7071SOL    HW122112   4.946   6.213   6.855
 7071SOL    HW222113   4.969   6.357   6.927
 7072SOL     OW22114   2.048   4.440   7.011
 7072SOL    HW122115   2.029   4.486   0.076
 7072SOL    HW222116   2.142   4.459   6.984
 7073SOL     OW22117   3.805   6.923   3.357
 7073SOL    HW122118   3.710   6.900   3.333
 7073SOL    HW222119   3.806   7.005   3.413
 7074SOL     OW22120   7.005   3.574   3.962
 7074SOL    HW122121   0.059   3.574   3.898
 7074SOL    HW222122   6.920   3.554   3.913
 7075SOL     OW22123   2.912   4.831   4.822
 7075SOL    HW122124   2.919   4.915   4.875
 7075SOL    HW222125   2.932   4.753   4.881
 7076SOL     OW22126   6.055   3.399   1.238
 7076SOL    HW122127   6.024   3.409   1.333
 7076SOL    HW222128   6.031   3.308   1.205
 7077SOL     OW22129   2.406   4.752   2.638
 7077SOL    HW122130   2.504   4.737   2.631
 7077SOL    HW222131   2.388   4.836   2.689
 7078SOL     OW22132   5.371   6.711   0.721
 7078SOL    HW122133   5.450   6.741   0.774
 7078SOL    HW222134   5.324   6.637   0.769
 7079SOL     OW22135   1.083   6.643   4.256
 7079SOL    HW122136   1.085   6.579   4.178
 7079SOL    HW222137   1.003   6.702   4.248
 7080SOL     OW22138   3.896   1.846   3.983
 7080SOL    HW122139   3.814   1.885   3.941
 7080SOL    HW222140   3.975   1.903   3.963
 7081SOL     OW22141   1.774   6.215   0.301
 7081SOL    HW122142   1.754   6.294   0.243
 7081SOL    HW222143   1.724   6.223   0.387
 7082SOL     OW22144   6.778   3.815   1.669
 7082SOL    HW122145   6.773   3.752   1.746
 7082SOL    HW222146   6.718   3.784   1.595
 7083SOL     OW22147   6.901   1.739   2.283
 7083SOL    HW122148   6.808   1.769   2.262
 7083SOL    HW222149   6.933   1.784   2.367
 7084SOL     OW22150   0.481   5.862   5.189
 7084SOL    HW122151   0.485   5.874   5.288
 7084SOL    HW222152   0.413   5.792   5.166
 7085SOL     OW22153   6.459   2.192   2.675
 7085SOL    HW122154   6.449   2.241   2.588
 7085SOL    HW222155   6.491   2.099   2.656
 7086SOL     OW22156   5.699   0.187   6.914
 7086SOL    HW122157   5.610   0.143   6.909
 7086SOL    HW222158   5.695   0.276   6.869
 7087SOL     OW22159   5.339   3.557   2.570
 7087SOL    HW122160   5.399   3.480   2.592
 7087SOL    HW222161   5.246   3.537   2.602
 7088SOL     OW22162   5.645   2.304   5.298
 7088SOL    HW122163   5.623   2.238   5.226
 7088SOL    HW222164   5.613   2.270   5.386
 7089SOL     OW22165   2.901   4.782   2.562
 7089SOL    HW122166   2.988   4.817   2.596
 7089SOL    HW222167   2.908   4.766   2.463
 7090SOL     OW22168   3.071   1.063   0.772
 7090SOL    HW122169   3.038   1.129   0.840
 7090SOL    HW222170   3.089   0.976   0.817
 7091SOL     OW22171   1.090   0.845   1.364
 7091SOL    HW122172   1.039   0.800   1.291
 7091SOL    HW222173   1.060   0.940   1.373
 7092SOL     OW22174   4.135   2.776   6.294
 7092SOL    HW122175   4.088   2.710   6.353
 7092SOL    HW222176   4.136   2.743   6.200
 7093SOL     OW22177   3.473   3.585   1.093
 7093SOL    HW122178   3.490   3.617   1.186
 7093SOL    HW222179   3.501   3.489   1.085
 7094SOL     OW22180   1.605   6.605   5.366
 7094SOL    HW122181   1.672   6.639   5.432
 7094SOL    HW222182   1.647   6.534   5.310
 7095SOL     OW22183   3.321   4.802   5.856
 7095SOL    HW122184   3.282   4.740   5.924
 7095SOL    HW222185   3.385   4.864   5.901
 7096SOL     OW22186   6.564   0.938   1.801
 7096SOL    HW122187   6.592   0.857   1.750
 7096SOL    HW222188   6.644   0.998   1.812
 7097SOL     OW22189   4.972   0.478   2.230
 7097SOL    HW122190   4.971   0.484   2.330
 7097SOL    HW222191   5.046   0.534   2.194
 7098SOL     OW22192   1.931   6.705   5.300
 7098SOL    HW122193   1.951   6.797   5.334
 7098SOL    HW222194   2.017   6.662   5.271
 7099SOL     OW22195   3.586   2.180   4.107
 7099SOL    HW122196   3.648   2.207   4.033
 7099SOL    HW222197   3.640   2.159   4.189
 7100SOL     OW22198   0.318   4.159   0.508
 7100SOL    HW122199   0.404   4.108   0.505
 7100SOL    HW222200   0.266   4.132   0.589
 7101SOL     OW22201   2.515   6.521   5.274
 7101SOL    HW122202   2.430   6.557   5.312
 7101SOL    HW222203   2.592   6.553   5.330
 7102SOL     OW22204   5.363   0.485   0.960
 7102SOL    HW122205   5.317   0.518   0.878
 7102SOL    HW222206   5.349   0.387   0.970
 7103SOL     OW22207   5.263   5.127   1.931
 7103SOL    HW122208   5.286   5.047   1.987
 7103SOL    HW222209   5.347   5.165   1.891
 7104SOL     OW22210   5.460   3.343   2.696
 7104SOL    HW122211   5.557   3.320   2.683
 7104SOL    HW222212   5.438   3.340   2.793
 7105SOL     OW22213   3.802   4.043   4.391
 7105SOL    HW122214   3.714   4.000   4.414
 7105SOL    HW222215   3.853   4.061   4.474
 7106SOL     OW22216   3.337   2.809   1.217
 7106SOL    HW122217   3.305   2.752   1.294
 7106SOL    HW222218   3.432   2.836   1.234
 7107SOL     OW22219   3.906   0.222   6.817
 7107SOL    HW122220   3.954   0.154   6.762
 7107SOL    HW222221   3.970   0.263   6.882
 7108SOL     OW22222   2.503   6.384   2.309
 7108SOL    HW122223   2.600   6.380   2.333
 7108SOL    HW222224   2.453   6.426   2.385
 7109SOL     OW22225   1.472   0.440   6.873
 7109SOL    HW122226   1.476   0.428   6.972
 7109SOL    HW222227   1.560   0.417   6.833
 7110SOL     OW22228   3.211   6.615   4.017
 7110SOL    HW122229   3.150   6.677   3.966
 7110SOL    HW222230   3.186   6.520   3.997
 7111SOL     OW22231   1.203   1.503   3.730
 7111SOL    HW122232   1.275   1.464   3.674
 7111SOL    HW222233   1.118   1.451   3.718
 7112SOL     OW22234   2.304   4.341   4.886
 7112SOL    HW122235   2.365   4.411   4.924
 7112SOL    HW222236   2.336   4.250   4.912
 7113SOL     OW22237   2.882   5.487   5.352
 7113SOL    HW122238   2.823   5.496   5.432
 7113SOL    HW222239   2.945   5.410   5.365
 7114SOL     OW22240   4.332   5.291   1.476
 7114SOL    HW122241   4.313   5.388   1.467
 7114SOL    HW222242   4.247   5.241   1.491
 7115SOL     OW22243   5.230   4.540   6.697
 7115SOL    HW122244   5.264   4.455   6.657
 7115SOL    HW222245   5.144   4.566   6.653
 7116SOL     OW22246   5.644   4.161   3.258
 7116SOL    HW122247   5.643   4.183   3.160
 7116SOL    HW222248   5.717   4.212   3.303
 7117SOL     OW22249   6.140   0.165   4.317
 7117SOL    HW122250   6.058   0.220   4.306
 7117SOL    HW222251   6.204   0.184   4.242
 7118SOL     OW22252   3.890   4.542   5.320
 7118SOL    HW122253   3.800   4.513   5.289
 7118SOL    HW222254   3.958   4.474   5.294
 7119SOL     OW22255   4.924   0.938   5.265
 7119SOL    HW122256   4.908   1.037   5.270
 7119SOL    HW222257   5.018   0.919   5.292
 7120SOL     OW22258   5.833   1.364   1.053
 7120SOL    HW122259   5.926   1.333   1.072
 7120SOL    HW222260   5.777   1.354   1.136
 7121SOL     OW22261   0.627   6.407   3.562
 7121SOL    HW122262   0.694   6.428   3.490
 7121SOL    HW222263   0.673   6.402   3.650
 7122SOL     OW22264   2.515   6.864   6.051
 7122SOL    HW122265   2.455   6.797   6.094
 7122SOL    HW222266   2.481   6.885   5.959
 7123SOL     OW22267   6.240   5.046   4.494
 7123SOL    HW122268   6.238   5.071   4.397
 7123SOL    HW222269   6.152   5.006   4.519
 7124SOL     OW22270   1.216   2.014   1.853
 7124SOL    HW122271   1.116   2.013   1.850
 7124SOL    HW222272   1.252   1.966   1.773
 7125SOL     OW22273   1.077   0.626   2.084
 7125SOL    HW122274   0.991   0.577   2.100
 7125SOL    HW222275   1.070   0.682   2.002
 7126SOL     OW22276   3.967   6.284   0.977
 7126SOL    HW122277   4.010   6.205   0.932
 7126SOL    HW222278   4.020   6.366   0.957
 7127SOL     OW22279   3.059   6.090   5.767
 7127SOL    HW122280   3.071   5.993   5.742
 7127SOL    HW222281   3.036   6.142   5.685
 7128SOL     OW22282   4.039   4.251   6.958
 7128SOL    HW122283   3.998   4.183   6.898
 7128SOL    HW222284   4.094   4.315   6.904
 7129SOL     OW22285   0.409   1.355   0.567
 7129SOL    HW122286   0.325   1.300   0.561
 7129SOL    HW222287   0.451   1.343   0.657
 7130SOL     OW22288   3.880   0.238   4.639
 7130SOL    HW122289   3.937   0.319   4.647
 7130SOL    HW222290   3.889   0.199   4.547
 7131SOL     OW22291   3.323   0.886   2.192
 7131SOL    HW122292   3.224   0.890   2.207
 7131SOL    HW222293   3.365   0.966   2.234
 7132SOL     OW22294   4.900   4.039   6.870
 7132SOL    HW122295   4.827   4.043   6.801
 7132SOL    HW222296   4.974   3.981   6.837
 7133SOL     OW22297   3.770   5.183   3.832
 7133SOL    HW122298   3.829   5.216   3.758
 7133SOL    HW222299   3.731   5.262   3.880
 7134SOL     OW22300   5.014   6.076   2.089
 7134SOL    HW122301   5.094   6.096   2.147
 7134SOL    HW222302   4.944   6.144   2.106
 7135SOL     OW22303   2.099   3.101   2.046
 7135SOL    HW122304   2.003   3.121   2.027
 7135SOL    HW222305   2.153   3.120   1.964
 7136SOL     OW22306   2.645   1.828   1.398
 7136SOL    HW122307   2.710   1.879   1.454
 7136SOL    HW222308   2.636   1.735   1.434
 7137SOL     OW22309   2.888   1.494   1.010
 7137SOL    HW122310   2.954   1.479   1.083
 7137SOL    HW222311   2.804   1.534   1.048
 7138SOL     OW22312   2.405   0.953   1.483
 7138SOL    HW122313   2.332   1.021   1.482
 7138SOL    HW222314   2.379   0.875   1.540
 7139SOL     OW22315   5.049   5.479   2.044
 7139SOL    HW122316   5.077   5.572   2.020
 7139SOL    HW222317   4.950   5.476   2.058
 7140SOL     OW22318   6.018   4.297   0.603
 7140SOL    HW122319   6.105   4.344   0.587
 7140SOL    HW222320   6.010   4.273   0.700
 7141SOL     OW22321   4.179   6.225   1.341
 7141SOL    HW122322   4.234   6.146   1.317
 7141SOL    HW222323   4.086   6.195   1.362
 7142SOL     OW22324   3.115   0.602   4.390
 7142SOL    HW122325   3.194   0.571   4.337
 7142SOL    HW222326   3.046   0.530   4.392
 7143SOL     OW22327   2.389   4.257   6.860
 7143SOL    HW122328   2.308   4.301   6.898
 7143SOL    HW222329   2.455   4.327   6.833
 7144SOL     OW22330   0.153   1.269   4.228
 7144SOL    HW122331   0.143   1.169   4.232
 7144SOL    HW222332   0.110   1.303   4.144
 7145SOL     OW22333   4.475   1.632   6.982
 7145SOL    HW122334   4.472   1.587   6.893
 7145SOL    HW222335   4.408   1.706   6.983
 7146SOL     OW22336   1.981   1.418   5.110
 7146SOL    HW122337   2.016   1.501   5.067
 7146SOL    HW222338   2.052   1.348   5.111
 7147SOL     OW22339   5.791   5.092   3.364
 7147SOL    HW122340   5.876   5.144   3.378
 7147SOL    HW222341   5.812   4.995   3.354
 7148SOL     OW22342   6.214   6.418   0.920
 7148SOL    HW122343   6.190   6.323   0.900
 7148SOL    HW222344   6.285   6.421   0.990
 7149SOL     OW22345   6.958   4.763   3.199
 7149SOL    HW122346   0.004   4.824   3.240
 7149SOL    HW222347   6.868   4.782   3.238
 7150SOL     OW22348   4.451   3.283   6.864
 7150SOL    HW122349   4.537   3.234   6.854
 7150SOL    HW222350   4.422   3.279   6.960
 7151SOL     OW22351   3.264   6.844   0.799
 7151SOL    HW122352   3.184   6.815   0.851
 7151SOL    HW222353   3.347   6.829   0.853
 7152SOL     OW22354   6.838   0.767   6.713
 7152SOL    HW122355   6.806   0.728   6.800
 7152SOL    HW222356   6.906   0.837   6.731
 7153SOL     OW22357   3.993   5.330   1.682
 7153SOL    HW122358   3.990   5.260   1.611
 7153SOL    HW222359   3.902   5.369   1.694
 7154SOL     OW22360   4.090   1.077   2.586
 7154SOL    HW122361   4.054   1.106   2.497
 7154SOL    HW222362   4.066   1.146   2.655
 7155SOL     OW22363   3.105   1.881   1.430
 7155SOL    HW122364   3.092   1.899   1.332
 7155SOL    HW222365   3.196   1.913   1.458
 7156SOL     OW22366   5.388   3.473   1.918
 7156SOL    HW122367   5.440   3.448   1.836
 7156SOL    HW222368   5.311   3.411   1.929
 7157SOL     OW22369   5.668   4.244   0.646
 7157SOL    HW122370   5.720   4.174   0.695
 7157SOL    HW222371   5.696   4.335   0.678
 7158SOL     OW22372   6.300   0.317   3.993
 7158SOL    HW122373   6.343   0.351   3.910
 7158SOL    HW222374   6.212   0.363   4.006
 7159SOL     OW22375   6.901   4.895   4.305
 7159SOL    HW122376   6.839   4.930   4.376
 7159SOL    HW222377   6.992   4.934   4.319
 7160SOL     OW22378   5.804   6.746   2.842
 7160SOL    HW122379   5.820   6.844   2.830
 7160SOL    HW222380   5.892   6.698   2.848
 7161SOL     OW22381   3.352   3.784   3.425
 7161SOL    HW122382   3.272   3.748   3.376
 7161SOL    HW222383   3.431   3.787   3.364
 7162SOL     OW22384   6.656   4.648   1.215
 7162SOL    HW122385   6.595   4.658   1.294
 7162SOL    HW222386   6.739   4.702   1.230
 7163SOL     OW22387   1.024   1.409   2.697
 7163SOL    HW122388   1.030   1.309   2.702
 7163SOL    HW222389   1.001   1.436   2.603
 7164SOL     OW22390   1.851   0.815   5.932
 7164SOL    HW122391   1.821   0.721   5.913
 7164SOL    HW222392   1.947   0.824   5.904
 7165SOL     OW22393   5.269   0.098   0.524
 7165SOL    HW122394   5.276   0.099   0.425
 7165SOL    HW222395   5.218   0.017   0.553
 7166SOL     OW22396   5.270   0.805   5.726
 7166SOL    HW122397   5.231   0.869   5.793
 7166SOL    HW222398   5.201   0.785   5.656
 7167SOL     OW22399   5.927   2.370   5.839
 7167SOL    HW122400   6.001   2.435   5.821
 7167SOL    HW222401   5.958   2.300   5.903
 7168SOL     OW22402   3.048   0.604   2.882
 7168SOL    HW122403   3.105   0.673   2.837
 7168SOL    HW222404   3.102   0.520   2.895
 7169SOL     OW22405   1.533   3.829   5.309
 7169SOL    HW122406   1.577   3.777   5.237
 7169SOL    HW222407   1.434   3.830   5.295
 7170SOL     OW22408   4.671   0.235   2.025
 7170SOL    HW122409   4.657   0.328   2.059
 7170SOL    HW222410   4.722   0.182   2.093
 7171SOL     OW22411   5.824   4.977   0.878
 7171SOL    HW122412   5.908   4.930   0.907
 7171SOL    HW222413   5.787   4.932   0.797
 7172SOL     OW22414   1.638   1.575   5.009
 7172SOL    HW122415   1.695   1.557   5.088
 7172SOL    HW222416   1.689   1.629   4.942
 7173SOL     OW22417   5.901   5.851   6.328
 7173SOL    HW122418   5.916   5.774   6.267
 7173SOL    HW222419   5.916   5.937   6.279
 7174SOL     OW22420   6.262   4.734   1.333
 7174SOL    HW122421   6.221   4.656   1.380
 7174SOL    HW222422   6.344   4.763   1.382
 7175SOL     OW22423   6.241   3.915   5.000
 7175SOL    HW122424   6.202   3.836   5.048
 7175SOL    HW222425   6.311   3.884   4.936
 7176SOL     OW22426   0.723   1.436   3.776
 7176SOL    HW122427   0.668   1.494   3.715
 7176SOL    HW222428   0.764   1.493   3.847
 7177SOL     OW22429   1.777   5.619   5.670
 7177SOL    HW122430   1.740   5.712   5.674
 7177SOL    HW222431   1.773   5.577   5.761
 7178SOL     OW22432   0.350   0.967   5.340
 7178SOL    HW122433   0.379   0.887   5.288
 7178SOL    HW222434   0.413   0.982   5.416
 7179SOL     OW22435   2.161   4.635   5.954
 7179SOL    HW122436   2.062   4.617   5.960
 7179SOL    HW222437   2.197   4.595   5.870
 7180SOL     OW22438   2.030   4.579   0.757
 7180SOL    HW122439   2.127   4.554   0.756
 7180SOL    HW222440   1.993   4.565   0.848
 7181SOL     OW22441   2.270   1.064   6.156
 7181SOL    HW122442   2.209   0.996   6.197
 7181SOL    HW222443   2.365   1.040   6.175
 7182SOL     OW22444   0.444   3.186   4.391
 7182SOL    HW122445   0.521   3.241   4.423
 7182SOL    HW222446   0.408   3.227   4.307
 7183SOL     OW22447   1.736   6.543   1.432
 7183SOL    HW122448   1.689   6.630   1.444
 7183SOL    HW222449   1.797   6.527   1.510
 7184SOL     OW22450   5.637   1.620   3.269
 7184SOL    HW122451   5.700   1.556   3.313
 7184SOL    HW222452   5.616   1.589   3.176
 7185SOL     OW22453   5.017   1.321   5.682
 7185SOL    HW122454   5.081   1.352   5.752
 7185SOL    HW222455   5.068   1.273   5.609
 7186SOL     OW22456   0.259   6.886   0.243
 7186SOL    HW122457   0.198   6.902   0.320
 7186SOL    HW222458   0.302   6.797   0.252
 7187SOL     OW22459   2.936   3.481   4.586
 7187SOL    HW122460   2.847   3.515   4.553
 7187SOL    HW222461   2.957   3.524   4.674
 7188SOL     OW22462   4.461   4.045   6.649
 7188SOL    HW122463   4.405   4.044   6.566
 7188SOL    HW222464   4.404   4.022   6.728
 7189SOL     OW22465   6.268   2.951   5.136
 7189SOL    HW122466   6.289   2.941   5.233
 7189SOL    HW222467   6.169   2.948   5.123
 7190SOL     OW22468   5.833   5.650   0.891
 7190SOL    HW122469   5.919   5.695   0.868
 7190SOL    HW222470   5.781   5.632   0.808
 7191SOL     OW22471   1.035   4.160   3.330
 7191SOL    HW122472   1.004   4.155   3.425
 7191SOL    HW222473   1.027   4.254   3.297
 7192SOL     OW22474   1.939   3.824   6.636
 7192SOL    HW122475   1.879   3.873   6.699
 7192SOL    HW222476   1.888   3.800   6.553
 7193SOL     OW22477   2.676   1.789   2.573
 7193SOL    HW122478   2.739   1.822   2.644
 7193SOL    HW222479   2.635   1.867   2.526
 7194SOL     OW22480   2.177   2.308   0.287
 7194SOL    HW122481   2.168   2.382   0.221
 7194SOL    HW222482   2.097   2.305   0.346
 7195SOL     OW22483   6.735   4.150   6.982
 7195SOL    HW122484   6.751   4.051   6.984
 7195SOL    HW222485   6.817   4.196   6.947
 7196SOL     OW22486   3.292   3.809   2.682
 7196SOL    HW122487   3.300   3.774   2.589
 7196SOL    HW222488   3.268   3.906   2.680
 7197SOL     OW22489   1.118   3.401   5.453
 7197SOL    HW122490   1.021   3.378   5.461
 7197SOL    HW222491   1.162   3.397   5.543
 7198SOL     OW22492   0.492   0.637   0.745
 7198SOL    HW122493   0.393   0.630   0.745
 7198SOL    HW222494   0.531   0.576   0.676
 7199SOL     OW22495   0.613   0.198   2.090
 7199SOL    HW122496   0.649   0.291   2.096
 7199SOL    HW222497   0.685   0.137   2.056
 7200SOL     OW22498   1.738   2.364   1.019
 7200SOL    HW122499   1.822   2.412   1.042
 7200SOL    HW222500   1.758   2.289   0.957
 7201SOL     OW22501   0.231   5.284   4.044
 7201SOL    HW122502   0.290   5.342   3.988
 7201SOL    HW222503   0.190   5.213   3.986
 7202SOL     OW22504   5.345   6.859   5.931
 7202SOL    HW122505   5.379   6.947   5.966
 7202SOL    HW222506   5.257   6.838   5.974
 7203SOL     OW22507   0.304   0.826   1.803
 7203SOL    HW122508   0.290   0.727   1.810
 7203SOL    HW222509   0.292   0.855   1.708
 7204SOL     OW22510   6.293   1.794   0.594
 7204SOL    HW122511   6.290   1.804   0.694
 7204SOL    HW222512   6.376   1.744   0.569
 7205SOL     OW22513   1.242   2.829   4.678
 7205SOL    HW122514   1.230   2.898   4.749
 7205SOL    HW222515   1.339   2.810   4.665
 7206SOL     OW22516   1.535   1.407   1.344
 7206SOL    HW122517   1.608   1.443   1.286
 7206SOL    HW222518   1.576   1.359   1.422
 7207SOL     OW22519   2.190   1.950   4.195
 7207SOL    HW122520   2.096   1.920   4.212
 7207SOL    HW222521   2.221   1.916   4.107
 7208SOL     OW22522   4.036   0.533   3.881
 7208SOL    HW122523   4.057   0.456   3.821
 7208SOL    HW222524   3.941   0.561   3.867
 7209SOL     OW22525   2.212   2.355   2.366
 7209SOL    HW122526   2.290   2.382   2.422
 7209SOL    HW222527   2.244   2.312   2.282
 7210SOL     OW22528   3.658   1.687   3.082
 7210SOL    HW122529   3.702   1.773   3.109
 7210SOL    HW222530   3.724   1.612   3.091
 7211SOL     OW22531   2.996   6.264   5.572
 7211SOL    HW122532   2.960   6.244   5.481
 7211SOL    HW222533   3.080   6.317   5.563
 7212SOL     OW22534   5.964   6.077   6.205
 7212SOL    HW122535   6.049   6.033   6.236
 7212SOL    HW222536   5.951   6.162   6.256
 7213SOL     OW22537   3.689   6.662   6.982
 7213SOL    HW122538   3.778   6.663   6.936
 7213SOL    HW222539   3.625   6.606   6.928
 7214SOL     OW22540   0.020   0.995   5.951
 7214SOL    HW122541   0.029   0.896   5.941
 7214SOL    HW222542   6.993   1.032   5.872
 7215SOL     OW22543   6.466   2.560   4.017
 7215SOL    HW122544   6.557   2.590   4.046
 7215SOL    HW222545   6.400   2.632   4.036
 7216SOL     OW22546   2.920   6.258   2.163
 7216SOL    HW122547   2.951   6.306   2.081
 7216SOL    HW222548   2.897   6.163   2.140
 7217SOL     OW22549   1.596   4.441   3.934
 7217SOL    HW122550   1.673   4.496   3.900
 7217SOL    HW222551   1.623   4.398   4.020
 7218SOL     OW22552   0.194   3.162   3.876
 7218SOL    HW122553   0.128   3.126   3.810
 7218SOL    HW222554   0.277   3.191   3.827
 7219SOL     OW22555   3.213   6.479   1.483
 7219SOL    HW122556   3.268   6.535   1.545
 7219SOL    HW222557   3.218   6.515   1.391
 7220SOL     OW22558   6.429   4.620   4.648
 7220SOL    HW122559   6.392   4.691   4.709
 7220SOL    HW222560   6.445   4.537   4.701
 7221SOL     OW22561   3.299   6.122   4.887
 7221SOL    HW122562   3.230   6.050   4.892
 7221SOL    HW222563   3.377   6.098   4.946
 7222SOL     OW22564   5.530   6.695   2.896
 7222SOL    HW122565   5.627   6.709   2.875
 7222SOL    HW222566   5.515   6.599   2.920
 7223SOL     OW22567   2.708   1.762   0.928
 7223SOL    HW122568   2.703   1.718   1.018
 7223SOL    HW222569   2.771   1.839   0.933
 7224SOL     OW22570   4.679   2.731   4.141
 7224SOL    HW122571   4.615   2.672   4.091
 7224SOL    HW222572   4.773   2.704   4.119
 7225SOL     OW22573   2.222   6.418   0.875
 7225SOL    HW122574   2.193   6.467   0.793
 7225SOL    HW222575   2.289   6.473   0.925
 7226SOL     OW22576   6.091   0.536   0.784
 7226SOL    HW122577   6.021   0.488   0.731
 7226SOL    HW222578   6.104   0.489   0.872
 7227SOL     OW22579   2.743   1.079   2.082
 7227SOL    HW122580   2.728   1.138   2.003
 7227SOL    HW222581   2.790   1.131   2.154
 7228SOL     OW22582   0.521   1.747   2.716
 7228SOL    HW122583   0.497   1.675   2.780
 7228SOL    HW222584   0.621   1.755   2.710
 7229SOL     OW22585   0.064   6.862   4.652
 7229SOL    HW122586   0.157   6.857   4.615
 7229SOL    HW222587   0.035   6.770   4.680
 7230SOL     OW22588   2.711   5.397   3.756
 7230SOL    HW122589   2.650   5.338   3.809
 7230SOL    HW222590   2.765   5.453   3.817
 7231SOL     OW22591   3.908   6.836   1.006
 7231SOL    HW122592   3.930   6.899   0.931
 7231SOL    HW222593   3.930   6.880   1.093
 7232SOL     OW22594   5.101   6.546   2.556
 7232SOL    HW122595   5.148   6.539   2.644
 7232SOL    HW222596   5.009   6.584   2.570
 7233SOL     OW22597   0.139   1.770   5.568
 7233SOL    HW122598   0.209   1.705   5.535
 7233SOL    HW222599   0.048   1.735   5.546
 7234SOL     OW22600   5.196   4.135   2.790
 7234SOL    HW122601   5.170   4.051   2.743
 7234SOL    HW222602   5.267   4.182   2.738
 7235SOL     OW22603   6.317   5.502   1.678
 7235SOL    HW122604   6.327   5.476   1.582
 7235SOL    HW222605   6.406   5.500   1.722
 7236SOL     OW22606   1.588   2.511   2.568
 7236SOL    HW122607   1.681   2.548   2.575
 7236SOL    HW222608   1.525   2.570   2.618
 7237SOL     OW22609   4.551   7.012   6.504
 7237SOL    HW122610   4.537   0.035   6.592
 7237SOL    HW222611   4.621   0.040   6.452
 7238SOL     OW22612   4.808   2.737   0.001
 7238SOL    HW122613   4.759   2.819   0.032
 7238SOL    HW222614   4.798   2.727   6.924
 7239SOL     OW22615   0.278   2.992   2.421
 7239SOL    HW122616   0.313   2.994   2.515
 7239SOL    HW222617   0.348   3.029   2.360
 7240SOL     OW22618   6.416   1.701   0.148
 7240SOL    HW122619   6.415   1.799   0.164
 7240SOL    HW222620   6.432   1.683   0.051
 7241SOL     OW22621   2.491   6.863   0.281
 7241SOL    HW122622   2.444   6.794   0.227
 7241SOL    HW222623   2.549   6.919   0.222
 7242SOL     OW22624   0.089   5.975   5.292
 7242SOL    HW122625   0.166   5.990   5.353
 7242SOL    HW222626   0.117   5.992   5.197
 7243SOL     OW22627   6.704   4.283   6.618
 7243SOL    HW122628   6.796   4.312   6.643
 7243SOL    HW222629   6.711   4.204   6.557
 7244SOL     OW22630   0.186   6.771   0.764
 7244SOL    HW122631   0.233   6.778   0.852
 7244SOL    HW222632   0.099   6.821   0.768
 7245SOL     OW22633   1.532   2.219   5.658
 7245SOL    HW122634   1.555   2.215   5.561
 7245SOL    HW222635   1.547   2.312   5.692
 7246SOL     OW22636   2.160   0.391   4.395
 7246SOL    HW122637   2.089   0.456   4.367
 7246SOL    HW222638   2.249   0.435   4.390
 7247SOL     OW22639   3.204   2.182   5.516
 7247SOL    HW122640   3.154   2.253   5.565
 7247SOL    HW222641   3.265   2.224   5.449
 7248SOL     OW22642   3.272   0.469   3.771
 7248SOL    HW122643   3.204   0.527   3.728
 7248SOL    HW222644   3.232   0.422   3.850
 7249SOL     OW22645   4.640   4.922   1.828
 7249SOL    HW122646   4.684   4.862   1.896
 7249SOL    HW222647   4.694   5.005   1.818
 7250SOL     OW22648   5.074   4.722   5.588
 7250SOL    HW122649   5.030   4.638   5.623
 7250SOL    HW222650   5.037   4.801   5.637
 7251SOL     OW22651   0.718   0.327   5.715
 7251SOL    HW122652   0.748   0.237   5.684
 7251SOL    HW222653   0.755   0.397   5.653
 7252SOL     OW22654   2.986   3.918   1.888
 7252SOL    HW122655   2.959   3.981   1.815
 7252SOL    HW222656   3.007   3.829   1.848
 7253SOL     OW22657   1.553   6.213   6.592
 7253SOL    HW122658   1.613   6.181   6.518
 7253SOL    HW222659   1.504   6.295   6.562
 7254SOL     OW22660   6.074   5.288   4.307
 7254SOL    HW122661   5.986   5.278   4.352
 7254SOL    HW222662   6.101   5.385   4.308
 7255SOL     OW22663   4.847   3.633   6.808
 7255SOL    HW122664   4.791   3.672   6.734
 7255SOL    HW222665   4.937   3.676   6.807
 7256SOL     OW22666   4.012   6.248   5.653
 7256SOL    HW122667   4.085   6.206   5.705
 7256SOL    HW222668   4.039   6.256   5.557
 7257SOL     OW22669   0.487   2.051   4.601
 7257SOL    HW122670   0.485   1.972   4.540
 7257SOL    HW222671   0.516   2.022   4.692
 7258SOL     OW22672   5.767   1.824   2.532
 7258SOL    HW122673   5.779   1.856   2.438
 7258SOL    HW222674   5.712   1.890   2.583
 7259SOL     OW22675   0.989   3.075   2.239
 7259SOL    HW122676   0.959   2.991   2.193
 7259SOL    HW222677   1.020   3.141   2.170
 7260SOL     OW22678   5.440   2.376   1.216
 7260SOL    HW122679   5.482   2.344   1.131
 7260SOL    HW222680   5.430   2.299   1.280
 7261SOL     OW22681   0.394   4.795   1.017
 7261SOL    HW122682   0.454   4.863   0.975
 7261SOL    HW222683   0.431   4.769   1.106
 7262SOL     OW22684   5.485   1.447   6.847
 7262SOL    HW122685   5.392   1.435   6.883
 7262SOL    HW222686   5.488   1.529   6.790
 7263SOL     OW22687   0.327   6.237   6.674
 7263SOL    HW122688   0.323   6.152   6.727
 7263SOL    HW222689   0.238   6.283   6.678
 7264SOL     OW22690   5.378   0.731   1.038
 7264SOL    HW122691   5.376   0.631   1.041
 7264SOL    HW222692   5.473   0.763   1.038
 7265SOL     OW22693   5.824   5.067   5.066
 7265SOL    HW122694   5.777   5.119   5.138
 7265SOL    HW222695   5.801   4.970   5.074
 7266SOL     OW22696   6.501   1.096   3.720
 7266SOL    HW122697   6.494   1.193   3.699
 7266SOL    HW222698   6.423   1.069   3.777
 7267SOL     OW22699   6.559   6.688   4.636
 7267SOL    HW122700   6.493   6.739   4.581
 7267SOL    HW222701   6.600   6.749   4.704
 7268SOL     OW22702   0.064   5.990   4.392
 7268SOL    HW122703   0.029   6.032   4.308
 7268SOL    HW222704   0.105   6.061   4.450
 7269SOL     OW22705   1.944   6.222   5.763
 7269SOL    HW122706   1.938   6.125   5.741
 7269SOL    HW222707   1.916   6.238   5.858
 7270SOL     OW22708   0.282   2.384   4.497
 7270SOL    HW122709   0.329   2.331   4.426
 7270SOL    HW222710   0.200   2.426   4.459
 7271SOL     OW22711   1.363   4.771   4.259
 7271SOL    HW122712   1.460   4.747   4.264
 7271SOL    HW222713   1.352   4.869   4.274
 7272SOL     OW22714   5.936   5.667   1.929
 7272SOL    HW122715   5.905   5.716   1.847
 7272SOL    HW222716   6.006   5.722   1.976
 7273SOL     OW22717   5.386   3.661   0.300
 7273SOL    HW122718   5.424   3.588   0.242
 7273SOL    HW222719   5.444   3.674   0.380
 7274SOL     OW22720   0.626   4.609   6.755
 7274SOL    HW122721   0.676   4.673   6.697
 7274SOL    HW222722   0.636   4.516   6.719
 7275SOL     OW22723   0.158   6.130   2.334
 7275SOL    HW122724   0.136   6.119   2.237
 7275SOL    HW222725   0.078   6.166   2.382
 7276SOL     OW22726   5.602   0.757   3.213
 7276SOL    HW122727   5.673   0.713   3.268
 7276SOL    HW222728   5.645   0.820   3.149
 7277SOL     OW22729   4.755   0.759   4.643
 7277SOL    HW122730   4.812   0.796   4.570
 7277SOL    HW222731   4.690   0.828   4.674
 7278SOL     OW22732   3.818   3.689   1.350
 7278SOL    HW122733   3.817   3.593   1.379
 7278SOL    HW222734   3.892   3.703   1.284
 7279SOL     OW22735   4.398   5.865   6.968
 7279SOL    HW122736   4.388   5.959   6.999
 7279SOL    HW222737   4.490   5.853   6.928
 7280SOL     OW22738   0.428   0.605   3.721
 7280SOL    HW122739   0.343   0.555   3.740
 7280SOL    HW222740   0.485   0.550   3.660
 7281SOL     OW22741   2.979   1.858   0.175
 7281SOL    HW122742   3.019   1.921   0.108
 7281SOL    HW222743   2.942   1.777   0.128
 7282SOL     OW22744   5.591   5.075   2.461
 7282SOL    HW122745   5.589   4.997   2.524
 7282SOL    HW222746   5.545   5.050   2.376
 7283SOL     OW22747   3.509   1.446   3.110
 7283SOL    HW122748   3.544   1.539   3.106
 7283SOL    HW222749   3.554   1.390   3.041
 7284SOL     OW22750   0.537   3.555   6.093
 7284SOL    HW122751   0.514   3.493   6.018
 7284SOL    HW222752   0.636   3.571   6.093
 7285SOL     OW22753   5.095   3.857   2.229
 7285SOL    HW122754   5.096   3.916   2.148
 7285SOL    HW222755   5.068   3.765   2.203
 7286SOL     OW22756   2.724   1.451   0.533
 7286SOL    HW122757   2.678   1.366   0.559
 7286SOL    HW222758   2.671   1.529   0.569
 7287SOL     OW22759   6.852   2.172   6.840
 7287SOL    HW122760   6.820   2.264   6.865
 7287SOL    HW222761   6.949   2.163   6.862
 7288SOL     OW22762   2.937   0.971   0.102
 7288SOL    HW122763   2.957   1.063   0.069
 7288SOL    HW222764   2.993   0.952   0.183
 7289SOL     OW22765   5.706   1.603   3.649
 7289SOL    HW122766   5.608   1.609   3.671
 7289SOL    HW222767   5.758   1.593   3.734
 7290SOL     OW22768   3.333   6.994   5.606
 7290SOL    HW122769   3.236   7.014   5.588
 7290SOL    HW222770   3.340   6.919   5.672
 7291SOL     OW22771   1.271   6.673   0.875
 7291SOL    HW122772   1.290   6.763   0.836
 7291SOL    HW222773   1.296   6.672   0.972
 7292SOL     OW22774   2.472   1.094   4.055
 7292SOL    HW122775   2.520   1.137   3.978
 7292SOL    HW222776   2.502   0.999   4.063
 7293SOL     OW22777   1.748   1.898   5.458
 7293SOL    HW122778   1.771   1.889   5.555
 7293SOL    HW222779   1.816   1.955   5.412
 7294SOL     OW22780   1.824   5.313   6.932
 7294SOL    HW122781   1.921   5.301   6.949
 7294SOL    HW222782   1.786   5.377   7.000
 7295SOL     OW22783   0.671   2.164   0.903
 7295SOL    HW122784   0.612   2.225   0.956
 7295SOL    HW222785   0.615   2.113   0.837
 7296SOL     OW22786   2.340   4.875   1.260
 7296SOL    HW122787   2.251   4.915   1.282
 7296SOL    HW222788   2.365   4.808   1.330
 7297SOL     OW22789   3.731   5.756   1.028
 7297SOL    HW122790   3.771   5.815   0.959
 7297SOL    HW222791   3.650   5.711   0.991
 7298SOL     OW22792   4.572   4.211   5.659
 7298SOL    HW122793   4.613   4.239   5.745
 7298SOL    HW222794   4.641   4.215   5.586
 7299SOL     OW22795   0.663   1.735   0.421
 7299SOL    HW122796   0.646   1.636   0.419
 7299SOL    HW222797   0.609   1.777   0.493
 7300SOL     OW22798   5.947   6.103   2.448
 7300SOL    HW122799   5.871   6.158   2.482
 7300SOL    HW222800   5.991   6.055   2.524
 7301SOL     OW22801   6.519   1.211   4.738
 7301SOL    HW122802   6.427   1.194   4.704
 7301SOL    HW222803   6.585   1.184   4.668
 7302SOL     OW22804   1.049   2.146   6.131
 7302SOL    HW122805   1.081   2.063   6.176
 7302SOL    HW222806   1.099   2.159   6.045
 7303SOL     OW22807   4.836   0.311   6.469
 7303SOL    HW122808   4.821   0.213   6.456
 7303SOL    HW222809   4.899   0.345   6.399
 7304SOL     OW22810   4.003   4.693   0.046
 7304SOL    HW122811   4.076   4.757   0.023
 7304SOL    HW222812   3.924   4.744   0.080
 7305SOL     OW22813   4.614   1.129   0.674
 7305SOL    HW122814   4.578   1.209   0.626
 7305SOL    HW222815   4.696   1.097   0.628
 7306SOL     OW22816   5.186   2.471   1.684
 7306SOL    HW122817   5.257   2.435   1.745
 7306SOL    HW222818   5.122   2.527   1.737
 7307SOL     OW22819   2.242   0.064   2.718
 7307SOL    HW122820   2.313   7.020   2.743
 7307SOL    HW222821   2.183   0.024   2.647
 7308SOL     OW22822   0.137   4.071   5.541
 7308SOL    HW122823   0.200   4.008   5.586
 7308SOL    HW222824   0.045   4.031   5.541
 7309SOL     OW22825   4.803   5.501   0.666
 7309SOL    HW122826   4.771   5.495   0.571
 7309SOL    HW222827   4.753   5.574   0.713
 7310SOL     OW22828   2.352   3.460   1.552
 7310SOL    HW122829   2.402   3.457   1.639
 7310SOL    HW222830   2.298   3.544   1.549
 7311SOL     OW22831   3.557   2.045   2.098
 7311SOL    HW122832   3.625   2.116   2.079
 7311SOL    HW222833   3.549   1.984   2.019
 7312SOL     OW22834   6.978   3.637   6.082
 7312SOL    HW122835   6.998   3.716   6.139
 7312SOL    HW222836   6.900   3.587   6.120
 7313SOL     OW22837   3.211   2.301   6.503
 7313SOL    HW122838   3.169   2.381   6.546
 7313SOL    HW222839   3.139   2.238   6.473
 7314SOL     OW22840   6.707   3.951   4.906
 7314SOL    HW122841   6.658   3.887   4.846
 7314SOL    HW222842   6.792   3.909   4.938
 7315SOL     OW22843   6.775   0.308   2.800
 7315SOL    HW122844   6.689   0.309   2.748
 7315SOL    HW222845   6.759   0.267   2.890
 7316SOL     OW22846   2.891   4.153   5.894
 7316SOL    HW122847   2.903   4.252   5.892
 7316SOL    HW222848   2.800   4.131   5.928
 7317SOL     OW22849   4.350   1.014   2.603
 7317SOL    HW122850   4.263   0.992   2.559
 7317SOL    HW222851   4.368   1.111   2.594
 7318SOL     OW22852   1.016   0.569   1.115
 7318SOL    HW122853   0.956   0.511   1.060
 7318SOL    HW222854   0.996   0.665   1.097
 7319SOL     OW22855   6.393   4.184   5.798
 7319SOL    HW122856   6.323   4.154   5.863
 7319SOL    HW222857   6.378   4.142   5.709
 7320SOL     OW22858   6.311   3.816   1.675
 7320SOL    HW122859   6.314   3.904   1.723
 7320SOL    HW222860   6.306   3.832   1.577
 7321SOL     OW22861   2.738   6.436   5.426
 7321SOL    HW122862   2.784   6.428   5.338
 7321SOL    HW222863   2.681   6.354   5.442
 7322SOL     OW22864   6.403   2.449   3.625
 7322SOL    HW122865   6.444   2.522   3.572
 7322SOL    HW222866   6.457   2.432   3.707
 7323SOL     OW22867   2.335   1.972   1.802
 7323SOL    HW122868   2.235   1.971   1.792
 7323SOL    HW222869   2.371   1.880   1.782
 7324SOL     OW22870   4.769   5.856   2.398
 7324SOL    HW122871   4.793   5.949   2.427
 7324SOL    HW222872   4.843   5.793   2.425
 7325SOL     OW22873   3.646   6.343   0.150
 7325SOL    HW122874   3.590   6.260   0.152
 7325SOL    HW222875   3.716   6.333   0.080
 7326SOL     OW22876   3.285   6.328   5.612
 7326SOL    HW122877   3.294   6.266   5.690
 7326SOL    HW222878   3.371   6.378   5.599
 7327SOL     OW22879   6.638   2.550   5.407
 7327SOL    HW122880   6.626   2.595   5.496
 7327SOL    HW222881   6.573   2.588   5.342
 7328SOL     OW22882   3.449   0.699   6.310
 7328SOL    HW122883   3.454   0.603   6.339
 7328SOL    HW222884   3.541   0.738   6.310
 7329SOL     OW22885   5.836   4.452   1.560
 7329SOL    HW122886   5.839   4.426   1.464
 7329SOL    HW222887   5.784   4.383   1.611
 7330SOL     OW22888   2.447   2.325   0.188
 7330SOL    HW122889   2.349   2.327   0.204
 7330SOL    HW222890   2.496   2.322   0.275
 7331SOL     OW22891   5.980   0.283   2.317
 7331SOL    HW122892   5.916   0.209   2.339
 7331SOL    HW222893   5.983   0.296   2.218
 7332SOL     OW22894   1.874   5.513   0.404
 7332SOL    HW122895   1.914   5.514   0.313
 7332SOL    HW222896   1.823   5.428   0.418
 7333SOL     OW22897   0.017   3.526   2.940
 7333SOL    HW122898   0.024   3.601   2.875
 7333SOL    HW222899   0.109   3.500   2.971
 7334SOL     OW22900   3.694   6.111   6.733
 7334SOL    HW122901   3.639   6.131   6.652
 7334SOL    HW222902   3.699   6.012   6.746
 7335SOL     OW22903   1.461   2.689   2.721
 7335SOL    HW122904   1.376   2.741   2.719
 7335SOL    HW222905   1.537   2.750   2.745
 7336SOL     OW22906   1.717   6.573   3.649
 7336SOL    HW122907   1.807   6.531   3.665
 7336SOL    HW222908   1.707   6.653   3.709
 7337SOL     OW22909   0.399   3.266   1.504
 7337SOL    HW122910   0.319   3.244   1.561
 7337SOL    HW222911   0.468   3.311   1.561
 7338SOL     OW22912   6.375   2.744   1.380
 7338SOL    HW122913   6.413   2.702   1.297
 7338SOL    HW222914   6.413   2.698   1.460
 7339SOL     OW22915   5.582   6.299   3.396
 7339SOL    HW122916   5.608   6.396   3.399
 7339SOL    HW222917   5.655   6.247   3.351
 7340SOL     OW22918   2.172   0.887   1.198
 7340SOL    HW122919   2.224   0.803   1.186
 7340SOL    HW222920   2.221   0.963   1.157
 7341SOL     OW22921   6.650   3.217   6.886
 7341SOL    HW122922   6.697   3.157   6.821
 7341SOL    HW222923   6.575   3.265   6.840
 7342SOL     OW22924   6.785   1.566   1.890
 7342SOL    HW122925   6.883   1.569   1.871
 7342SOL    HW222926   6.760   1.640   1.952
 7343SOL     OW22927   5.056   3.326   6.779
 7343SOL    HW122928   5.050   3.227   6.793
 7343SOL    HW222929   5.081   3.370   6.865
 7344SOL     OW22930   0.653   0.566   6.488
 7344SOL    HW122931   0.658   0.478   6.441
 7344SOL    HW222932   0.692   0.638   6.430
 7345SOL     OW22933   4.462   3.312   5.449
 7345SOL    HW122934   4.454   3.393   5.389
 7345SOL    HW222935   4.540   3.257   5.419
 7346SOL     OW22936   3.936   5.835   2.700
 7346SOL    HW122937   3.915   5.919   2.749
 7346SOL    HW222938   3.962   5.857   2.605
 7347SOL     OW22939   0.810   1.923   0.951
 7347SOL    HW122940   0.807   1.924   1.050
 7347SOL    HW222941   0.782   2.013   0.916
 7348SOL     OW22942   1.388   4.040   3.840
 7348SOL    HW122943   1.322   3.995   3.780
 7348SOL    HW222944   1.431   4.115   3.791
 7349SOL     OW22945   4.333   0.407   2.040
 7349SOL    HW122946   4.244   0.363   2.040
 7349SOL    HW222947   4.379   0.389   2.127
 7350SOL     OW22948   2.588   1.761   5.637
 7350SOL    HW122949   2.655   1.828   5.672
 7350SOL    HW222950   2.553   1.707   5.714
 7351SOL     OW22951   5.862   5.787   3.769
 7351SOL    HW122952   5.780   5.826   3.810
 7351SOL    HW222953   5.942   5.839   3.800
 7352SOL     OW22954   0.509   1.663   2.203
 7352SOL    HW122955   0.484   1.670   2.299
 7352SOL    HW222956   0.473   1.578   2.165
 7353SOL     OW22957   0.205   0.554   6.482
 7353SOL    HW122958   0.122   0.607   6.470
 7353SOL    HW222959   0.241   0.527   6.393
 7354SOL     OW22960   1.492   1.456   5.531
 7354SOL    HW122961   1.460   1.543   5.493
 7354SOL    HW222962   1.482   1.384   5.464
 7355SOL     OW22963   1.042   1.403   0.434
 7355SOL    HW122964   1.114   1.418   0.502
 7355SOL    HW222965   0.960   1.370   0.480
 7356SOL     OW22966   3.680   3.635   6.246
 7356SOL    HW122967   3.690   3.537   6.257
 7356SOL    HW222968   3.583   3.657   6.232
 7357SOL     OW22969   2.794   5.613   2.192
 7357SOL    HW122970   2.754   5.690   2.241
 7357SOL    HW222971   2.772   5.620   2.094
 7358SOL     OW22972   6.238   3.476   2.620
 7358SOL    HW122973   6.269   3.561   2.578
 7358SOL    HW222974   6.222   3.408   2.549
 7359SOL     OW22975   4.210   2.435   5.649
 7359SOL    HW122976   4.275   2.451   5.575
 7359SOL    HW222977   4.206   2.338   5.670
 7360SOL     OW22978   2.356   3.104   5.470
 7360SOL    HW122979   2.281   3.069   5.414
 7360SOL    HW222980   2.433   3.129   5.412
 7361SOL     OW22981   5.440   0.849   2.384
 7361SOL    HW122982   5.505   0.774   2.378
 7361SOL    HW222983   5.411   0.860   2.480
 7362SOL     OW22984   1.965   5.995   6.309
 7362SOL    HW122985   2.022   5.930   6.259
 7362SOL    HW222986   1.997   6.088   6.291
 7363SOL     OW22987   4.534   1.195   1.314
 7363SOL    HW122988   4.560   1.133   1.388
 7363SOL    HW222989   4.482   1.145   1.245
 7364SOL     OW22990   4.109   0.416   2.319
 7364SOL    HW122991   4.141   0.359   2.243
 7364SOL    HW222992   4.009   0.407   2.328
 7365SOL     OW22993   0.571   5.944   2.259
 7365SOL    HW122994   0.542   6.010   2.189
 7365SOL    HW222995   0.490   5.898   2.296
 7366SOL     OW22996   2.496   6.468   5.716
 7366SOL    HW122997   2.546   6.397   5.667
 7366SOL    HW222998   2.558   6.513   5.781
 7367SOL     OW22999   3.667   2.658   0.060
 7367SOL    HW123000   3.696   2.568   0.092
 7367SOL    HW223001   3.567   2.660   0.054
 7368SOL     OW23002   3.800   2.870   2.258
 7368SOL    HW123003   3.857   2.800   2.214
 7368SOL    HW223004   3.825   2.877   2.355
 7369SOL     OW23005   3.566   2.582   1.016
 7369SOL    HW123006   3.502   2.524   1.066
 7369SOL    HW223007   3.528   2.674   1.007
 7370SOL     OW23008   2.744   2.123   6.154
 7370SOL    HW123009   2.772   2.089   6.243
 7370SOL    HW223010   2.646   2.104   6.141
 7371SOL     OW23011   3.315   6.190   3.710
 7371SOL    HW123012   3.290   6.093   3.706
 7371SOL    HW223013   3.290   6.226   3.800
 7372SOL     OW23014   4.572   6.900   4.669
 7372SOL    HW123015   4.511   6.967   4.626
 7372SOL    HW223016   4.606   6.938   4.755
 7373SOL     OW23017   5.991   2.245   5.204
 7373SOL    HW123018   5.972   2.170   5.140
 7373SOL    HW223019   5.912   2.259   5.263
 7374SOL     OW23020   2.004   1.936   4.663
 7374SOL    HW123021   2.075   1.877   4.625
 7374SOL    HW223022   2.045   2.000   4.728
 7375SOL     OW23023   2.197   2.320   2.095
 7375SOL    HW123024   2.230   2.413   2.075
 7375SOL    HW223025   2.098   2.322   2.108
 7376SOL     OW23026   1.150   2.481   1.289
 7376SOL    HW123027   1.239   2.520   1.312
 7376SOL    HW223028   1.083   2.555   1.279
 7377SOL     OW23029   4.354   4.709   0.391
 7377SOL    HW123030   4.416   4.754   0.327
 7377SOL    HW223031   4.386   4.615   0.407
 7378SOL     OW23032   1.467   6.987   4.887
 7378SOL    HW123033   1.369   6.968   4.891
 7378SOL    HW223034   1.503   6.996   4.980
 7379SOL     OW23035   2.766   0.817   2.088
 7379SOL    HW123036   2.856   0.782   2.065
 7379SOL    HW223037   2.766   0.917   2.083
 7380SOL     OW23038   6.797   3.973   3.534
 7380SOL    HW123039   6.808   3.962   3.632
 7380SOL    HW223040   6.887   3.984   3.491
 7381SOL     OW23041   3.854   2.911   0.831
 7381SOL    HW123042   3.777   2.864   0.789
 7381SOL    HW223043   3.879   2.991   0.776
 7382SOL     OW23044   6.851   1.760   5.932
 7382SOL    HW123045   6.938   1.805   5.913
 7382SOL    HW223046   6.855   1.666   5.900
 7383SOL     OW23047   2.441   5.680   1.482
 7383SOL    HW123048   2.367   5.744   1.505
 7383SOL    HW223049   2.527   5.731   1.470
 7384SOL     OW23050   6.657   0.048   1.653
 7384SOL    HW123051   6.655   0.098   1.739
 7384SOL    HW223052   6.745   0.063   1.608
 7385SOL     OW23053   2.558   5.384   2.570
 7385SOL    HW123054   2.567   5.387   2.471
 7385SOL    HW223055   2.473   5.428   2.598
 7386SOL     OW23056   6.783   3.026   6.764
 7386SOL    HW123057   6.742   2.943   6.801
 7386SOL    HW223058   6.801   3.013   6.666
 7387SOL     OW23059   6.558   5.311   4.951
 7387SOL    HW123060   6.560   5.299   5.050
 7387SOL    HW223061   6.472   5.275   4.915
 7388SOL     OW23062   1.329   5.057   2.437
 7388SOL    HW123063   1.312   5.132   2.501
 7388SOL    HW223064   1.426   5.033   2.438
 7389SOL     OW23065   6.838   3.688   0.141
 7389SOL    HW123066   6.822   3.706   0.044
 7389SOL    HW223067   6.850   3.589   0.154
 7390SOL     OW23068   2.967   1.872   2.303
 7390SOL    HW123069   2.945   1.887   2.399
 7390SOL    HW223070   2.964   1.960   2.254
 7391SOL     OW23071   3.597   3.014   2.901
 7391SOL    HW123072   3.686   2.988   2.939
 7391SOL    HW223073   3.594   2.989   2.804
 7392SOL     OW23074   3.737   5.580   7.001
 7392SOL    HW123075   3.757   5.609   6.907
 7392SOL    HW223076   3.805   5.512   0.008
 7393SOL     OW23077   6.307   4.594   3.192
 7393SOL    HW123078   6.328   4.496   3.193
 7393SOL    HW223079   6.295   4.626   3.286
 7394SOL     OW23080   1.754   3.279   5.844
 7394SOL    HW123081   1.716   3.188   5.832
 7394SOL    HW223082   1.810   3.281   5.927
 7395SOL     OW23083   2.067   2.866   1.058
 7395SOL    HW123084   2.097   2.782   1.102
 7395SOL    HW223085   2.031   2.929   1.127
 7396SOL     OW23086   2.266   6.527   1.272
 7396SOL    HW123087   2.201   6.540   1.346
 7396SOL    HW223088   2.359   6.547   1.304
 7397SOL     OW23089   4.782   4.084   4.303
 7397SOL    HW123090   4.860   4.105   4.362
 7397SOL    HW223091   4.783   3.986   4.281
 7398SOL     OW23092   0.971   6.000   3.020
 7398SOL    HW123093   0.911   5.969   2.946
 7398SOL    HW223094   1.025   6.078   2.988
 7399SOL     OW23095   6.622   3.118   4.703
 7399SOL    HW123096   6.597   3.169   4.786
 7399SOL    HW223097   6.564   3.147   4.627
 7400SOL     OW23098   4.827   2.349   5.844
 7400SOL    HW123099   4.924   2.358   5.821
 7400SOL    HW223100   4.813   2.378   5.938
 7401SOL     OW23101   1.796   2.645   3.456
 7401SOL    HW123102   1.697   2.643   3.444
 7401SOL    HW223103   1.837   2.704   3.386
 7402SOL     OW23104   3.242   4.134   6.418
 7402SOL    HW123105   3.182   4.067   6.463
 7402SOL    HW223106   3.238   4.122   6.319
 7403SOL     OW23107   1.630   3.035   2.894
 7403SOL    HW123108   1.616   2.997   2.802
 7403SOL    HW223109   1.708   2.989   2.937
 7404SOL     OW23110   2.878   4.089   1.714
 7404SOL    HW123111   2.786   4.054   1.695
 7404SOL    HW223112   2.876   4.189   1.710
 7405SOL     OW23113   2.796   5.342   4.948
 7405SOL    HW123114   2.805   5.251   4.988
 7405SOL    HW223115   2.700   5.362   4.931
 7406SOL     OW23116   0.878   1.366   5.041
 7406SOL    HW123117   0.958   1.370   4.980
 7406SOL    HW223118   0.802   1.322   4.993
 7407SOL     OW23119   1.101   6.273   5.666
 7407SOL    HW123120   1.037   6.243   5.737
 7407SOL    HW223121   1.096   6.372   5.655
 7408SOL     OW23122   3.767   4.175   5.367
 7408SOL    HW123123   3.714   4.103   5.411
 7408SOL    HW223124   3.859   4.177   5.404
 7409SOL     OW23125   5.136   4.329   0.285
 7409SOL    HW123126   5.141   4.373   0.195
 7409SOL    HW223127   5.144   4.398   0.357
 7410SOL     OW23128   0.746   1.020   0.985
 7410SOL    HW123129   0.744   1.098   0.922
 7410SOL    HW223130   0.665   0.963   0.969
 7411SOL     OW23131   1.706   0.347   6.767
 7411SOL    HW123132   1.779   0.400   6.810
 7411SOL    HW223133   1.697   0.259   6.814
 7412SOL     OW23134   3.714   6.351   0.953
 7412SOL    HW123135   3.812   6.334   0.946
 7412SOL    HW223136   3.684   6.407   0.875
 7413SOL     OW23137   4.715   4.698   3.995
 7413SOL    HW123138   4.763   4.691   4.082
 7413SOL    HW223139   4.624   4.658   4.005
 7414SOL     OW23140   2.139   1.551   3.848
 7414SOL    HW123141   2.163   1.501   3.764
 7414SOL    HW223142   2.222   1.574   3.898
 7415SOL     OW23143   2.508   5.050   5.658
 7415SOL    HW123144   2.590   5.050   5.600
 7415SOL    HW223145   2.485   4.957   5.683
 7416SOL     OW23146   1.901   0.949   2.313
 7416SOL    HW123147   1.938   0.987   2.398
 7416SOL    HW223148   1.967   0.886   2.273
 7417SOL     OW23149   1.836   1.757   2.370
 7417SOL    HW123150   1.928   1.749   2.333
 7417SOL    HW223151   1.821   1.850   2.402
 7418SOL     OW23152   1.752   5.123   6.776
 7418SOL    HW123153   1.769   5.214   6.814
 7418SOL    HW223154   1.679   5.129   6.708
 7419SOL     OW23155   6.549   4.098   3.606
 7419SOL    HW123156   6.643   4.070   3.585
 7419SOL    HW223157   6.518   4.051   3.688
 7420SOL     OW23158   6.836   5.940   1.269
 7420SOL    HW123159   6.890   5.999   1.209
 7420SOL    HW223160   6.888   5.857   1.291
 7421SOL     OW23161   4.201   3.563   1.302
 7421SOL    HW123162   4.119   3.525   1.344
 7421SOL    HW223163   4.192   3.662   1.294
 7422SOL     OW23164   6.535   3.744   2.227
 7422SOL    HW123165   6.539   3.789   2.316
 7422SOL    HW223166   6.522   3.812   2.155
 7423SOL     OW23167   5.910   2.992   5.696
 7423SOL    HW123168   5.828   3.024   5.648
 7423SOL    HW223169   5.987   2.989   5.633
 7424SOL     OW23170   6.981   1.776   5.260
 7424SOL    HW123171   6.958   1.740   5.350
 7424SOL    HW223172   6.958   1.709   5.189
 7425SOL     OW23173   5.322   0.090   0.257
 7425SOL    HW123174   5.319   0.019   0.187
 7425SOL    HW223175   5.417   0.115   0.275
 7426SOL     OW23176   3.368   1.966   5.561
 7426SOL    HW123177   3.365   1.899   5.488
 7426SOL    HW223178   3.297   2.035   5.546
 7427SOL     OW23179   3.871   0.809   3.828
 7427SOL    HW123180   3.880   0.840   3.734
 7427SOL    HW223181   3.876   0.888   3.890
 7428SOL     OW23182   4.133   0.676   5.394
 7428SOL    HW123183   4.072   0.629   5.458
 7428SOL    HW223184   4.203   0.612   5.361
 7429SOL     OW23185   1.022   6.351   3.285
 7429SOL    HW123186   1.070   6.437   3.266
 7429SOL    HW223187   1.089   6.279   3.305
 7430SOL     OW23188   6.602   4.014   1.306
 7430SOL    HW123189   6.700   4.023   1.285
 7430SOL    HW223190   6.589   4.017   1.405
 7431SOL     OW23191   1.704   2.000   3.525
 7431SOL    HW123192   1.772   1.947   3.474
 7431SOL    HW223193   1.613   1.960   3.511
 7432SOL     OW23194   2.217   0.497   3.076
 7432SOL    HW123195   2.196   0.485   3.173
 7432SOL    HW223196   2.132   0.507   3.025
 7433SOL     OW23197   3.841   6.502   6.692
 7433SOL    HW123198   3.860   6.596   6.720
 7433SOL    HW223199   3.927   6.453   6.680
 7434SOL     OW23200   4.403   5.802   5.159
 7434SOL    HW123201   4.486   5.748   5.145
 7434SOL    HW223202   4.349   5.801   5.075
 7435SOL     OW23203   4.222   6.101   1.625
 7435SOL    HW123204   4.173   6.041   1.688
 7435SOL    HW223205   4.159   6.169   1.588
 7436SOL     OW23206   4.231   4.647   6.161
 7436SOL    HW123207   4.323   4.624   6.128
 7436SOL    HW223208   4.167   4.575   6.134
 7437SOL     OW23209   3.105   5.786   1.232
 7437SOL    HW123210   3.148   5.703   1.270
 7437SOL    HW223211   3.136   5.866   1.284
 7438SOL     OW23212   2.140   0.095   0.284
 7438SOL    HW123213   2.192   0.017   0.317
 7438SOL    HW223214   2.125   0.160   0.358
 7439SOL     OW23215   1.842   5.958   5.011
 7439SOL    HW123216   1.901   5.995   5.083
 7439SOL    HW223217   1.864   5.862   4.996
 7440SOL     OW23218   6.172   3.321   3.984
 7440SOL    HW123219   6.133   3.404   4.022
 7440SOL    HW223220   6.266   3.338   3.955
 7441SOL     OW23221   6.130   6.925   3.499
 7441SOL    HW123222   6.226   6.935   3.524
 7441SOL    HW223223   6.100   6.832   3.516
 7442SOL     OW23224   5.916   1.005   6.504
 7442SOL    HW123225   5.864   1.087   6.526
 7442SOL    HW223226   5.853   0.929   6.488
 7443SOL     OW23227   6.854   5.401   2.044
 7443SOL    HW123228   6.881   5.464   2.118
 7443SOL    HW223229   6.800   5.450   1.977
 7444SOL     OW23230   6.366   1.251   6.398
 7444SOL    HW123231   6.376   1.155   6.370
 7444SOL    HW223232   6.277   1.285   6.369
 7445SOL     OW23233   3.697   0.282   1.072
 7445SOL    HW123234   3.794   0.268   1.089
 7445SOL    HW223235   3.644   0.239   1.145
 7446SOL     OW23236   5.161   2.113   0.432
 7446SOL    HW123237   5.064   2.127   0.455
 7446SOL    HW223238   5.168   2.068   0.343
 7447SOL     OW23239   6.542   4.564   6.049
 7447SOL    HW123240   6.585   4.600   6.131
 7447SOL    HW223241   6.565   4.467   6.039
 7448SOL     OW23242   5.085   6.386   5.088
 7448SOL    HW123243   5.056   6.474   5.051
 7448SOL    HW223244   5.169   6.398   5.141
 7449SOL     OW23245   0.240   5.647   0.347
 7449SOL    HW123246   0.325   5.695   0.366
 7449SOL    HW223247   0.253   5.582   0.273
 7450SOL     OW23248   5.499   2.513   5.470
 7450SOL    HW123249   5.498   2.446   5.544
 7450SOL    HW223250   5.515   2.467   5.382
 7451SOL     OW23251   5.189   5.639   2.615
 7451SOL    HW123252   5.266   5.618   2.675
 7451SOL    HW223253   5.208   5.605   2.523
 7452SOL     OW23254   6.484   5.823   4.503
 7452SOL    HW123255   6.474   5.917   4.469
 7452SOL    HW223256   6.428   5.812   4.586
 7453SOL     OW23257   4.275   5.486   5.800
 7453SOL    HW123258   4.239   5.443   5.717
 7453SOL    HW223259   4.202   5.497   5.867
 7454SOL     OW23260   2.698   1.126   0.567
 7454SOL    HW123261   2.699   1.052   0.634
 7454SOL    HW223262   2.792   1.148   0.540
 7455SOL     OW23263   6.547   3.316   2.060
 7455SOL    HW123264   6.507   3.407   2.069
 7455SOL    HW223265   6.607   3.298   2.139
 7456SOL     OW23266   3.034   1.610   5.033
 7456SOL    HW123267   2.984   1.696   5.043
 7456SOL    HW223268   3.132   1.629   5.025
 7457SOL     OW23269   3.138   0.342   3.992
 7457SOL    HW123270   3.075   0.402   4.042
 7457SOL    HW223271   3.094   0.311   3.907
 7458SOL     OW23272   1.540   0.403   6.022
 7458SOL    HW123273   1.497   0.371   5.938
 7458SOL    HW223274   1.496   0.486   6.053
 7459SOL     OW23275   6.358   1.234   2.278
 7459SOL    HW123276   6.327   1.144   2.244
 7459SOL    HW223277   6.456   1.242   2.265
 7460SOL     OW23278   1.322   5.841   6.700
 7460SOL    HW123279   1.372   5.782   6.763
 7460SOL    HW223280   1.368   5.841   6.611
 7461SOL     OW23281   6.262   6.346   6.060
 7461SOL    HW123282   6.236   6.318   6.152
 7461SOL    HW223283   6.199   6.305   5.993
 7462SOL     OW23284   2.089   4.937   1.964
 7462SOL    HW123285   2.084   4.963   1.867
 7462SOL    HW223286   2.184   4.947   1.995
 7463SOL     OW23287   3.511   3.763   0.703
 7463SOL    HW123288   3.448   3.839   0.688
 7463SOL    HW223289   3.605   3.795   0.692
 7464SOL     OW23290   6.583   6.877   5.203
 7464SOL    HW123291   6.556   6.930   5.284
 7464SOL    HW223292   6.595   6.781   5.228
 7465SOL     OW23293   2.722   5.028   0.266
 7465SOL    HW123294   2.669   5.097   0.218
 7465SOL    HW223295   2.676   4.939   0.260
 7466SOL     OW23296   0.594   0.815   6.298
 7466SOL    HW123297   0.524   0.797   6.368
 7466SOL    HW223298   0.685   0.812   6.340
 7467SOL     OW23299   0.427   2.247   6.232
 7467SOL    HW123300   0.496   2.181   6.261
 7467SOL    HW223301   0.429   2.256   6.132
 7468SOL     OW23302   5.027   2.657   4.337
 7468SOL    HW123303   5.098   2.686   4.401
 7468SOL    HW223304   5.028   2.716   4.257
 7469SOL     OW23305   6.608   1.677   0.338
 7469SOL    HW123306   6.639   1.772   0.349
 7469SOL    HW223307   6.529   1.676   0.276
 7470SOL     OW23308   5.431   4.004   3.370
 7470SOL    HW123309   5.456   4.013   3.466
 7470SOL    HW223310   5.502   4.045   3.313
 7471SOL     OW23311   4.905   5.781   5.411
 7471SOL    HW123312   4.938   5.863   5.365
 7471SOL    HW223313   4.964   5.760   5.489
 7472SOL     OW23314   6.199   0.737   5.372
 7472SOL    HW123315   6.226   0.722   5.277
 7472SOL    HW223316   6.187   0.836   5.387
 7473SOL     OW23317   5.951   6.410   3.655
 7473SOL    HW123318   5.891   6.364   3.721
 7473SOL    HW223319   5.946   6.364   3.567
 7474SOL     OW23320   6.618   2.683   6.639
 7474SOL    HW123321   6.570   2.752   6.585
 7474SOL    HW223322   6.641   2.606   6.580
 7475SOL     OW23323   4.477   2.421   1.878
 7475SOL    HW123324   4.419   2.364   1.936
 7475SOL    HW223325   4.544   2.469   1.934
 7476SOL     OW23326   2.070   2.211   3.067
 7476SOL    HW123327   1.989   2.167   3.027
 7476SOL    HW223328   2.109   2.275   3.001
 7477SOL     OW23329   0.339   3.335   5.310
 7477SOL    HW123330   0.271   3.265   5.327
 7477SOL    HW223331   0.430   3.294   5.306
 7478SOL     OW23332   5.572   3.480   5.229
 7478SOL    HW123333   5.621   3.565   5.211
 7478SOL    HW223334   5.488   3.499   5.280
 7479SOL     OW23335   5.245   2.886   0.600
 7479SOL    HW123336   5.231   2.957   0.670
 7479SOL    HW223337   5.279   2.929   0.516
 7480SOL     OW23338   2.123   4.928   2.318
 7480SOL    HW123339   2.043   4.894   2.268
 7480SOL    HW223340   2.186   4.852   2.336
 7481SOL     OW23341   6.501   4.795   6.805
 7481SOL    HW123342   6.427   4.849   6.844
 7481SOL    HW223343   6.467   4.743   6.727
 7482SOL     OW23344   4.309   2.348   2.159
 7482SOL    HW123345   4.385   2.372   2.219
 7482SOL    HW223346   4.226   2.394   2.190
 7483SOL     OW23347   4.915   2.744   4.770
 7483SOL    HW123348   4.938   2.770   4.864
 7483SOL    HW223349   4.817   2.723   4.765
 7484SOL     OW23350   2.092   5.054   4.748
 7484SOL    HW123351   2.182   5.069   4.706
 7484SOL    HW223352   2.104   5.025   4.843
 7485SOL     OW23353   2.705   6.940   3.794
 7485SOL    HW123354   2.769   6.917   3.721
 7485SOL    HW223355   2.684   0.016   3.791
 7486SOL     OW23356   0.596   6.295   6.966
 7486SOL    HW123357   0.696   6.290   6.957
 7486SOL    HW223358   0.563   6.213   7.013
 7487SOL     OW23359   4.015   0.731   3.305
 7487SOL    HW123360   3.942   0.786   3.266
 7487SOL    HW223361   4.004   0.635   3.277
 7488SOL     OW23362   2.005   5.999   4.690
 7488SOL    HW123363   2.057   6.057   4.753
 7488SOL    HW223364   1.943   5.940   4.741
 7489SOL     OW23365   6.589   3.230   0.270
 7489SOL    HW123366   6.651   3.155   0.249
 7489SOL    HW223367   6.506   3.194   0.312
 7490SOL     OW23368   1.703   1.498   2.569
 7490SOL    HW123369   1.744   1.587   2.552
 7490SOL    HW223370   1.662   1.496   2.660
 7491SOL     OW23371   5.100   3.025   0.054
 7491SOL    HW123372   5.080   2.930   0.077
 7491SOL    HW223373   5.083   3.083   0.134
 7492SOL     OW23374   2.304   1.221   4.213
 7492SOL    HW123375   2.287   1.309   4.169
 7492SOL    HW223376   2.356   1.162   4.151
 7493SOL     OW23377   6.954   3.332   5.349
 7493SOL    HW123378   6.978   3.349   5.444
 7493SOL    HW223379   6.877   3.391   5.323
 7494SOL     OW23380   5.669   1.237   4.250
 7494SOL    HW123381   5.753   1.290   4.259
 7494SOL    HW223382   5.635   1.244   4.156
 7495SOL     OW23383   1.487   2.716   4.900
 7495SOL    HW123384   1.573   2.723   4.950
 7495SOL    HW223385   1.475   2.623   4.866
 7496SOL     OW23386   5.436   3.501   4.398
 7496SOL    HW123387   5.467   3.432   4.332
 7496SOL    HW223388   5.336   3.496   4.406
 7497SOL     OW23389   1.785   6.159   1.434
 7497SOL    HW123390   1.725   6.198   1.365
 7497SOL    HW223391   1.745   6.075   1.470
 7498SOL     OW23392   2.399   0.778   3.990
 7498SOL    HW123393   2.334   0.792   4.064
 7498SOL    HW223394   2.360   0.714   3.923
 7499SOL     OW23395   4.319   2.037   3.466
 7499SOL    HW123396   4.315   2.001   3.373
 7499SOL    HW223397   4.303   2.136   3.464
 7500SOL     OW23398   3.370   5.670   3.476
 7500SOL    HW123399   3.390   5.581   3.434
 7500SOL    HW223400   3.272   5.677   3.495
 7501SOL     OW23401   5.628   3.811   3.865
 7501SOL    HW123402   5.530   3.791   3.865
 7501SOL    HW223403   5.663   3.803   3.959
 7502SOL     OW23404   3.620   6.825   4.118
 7502SOL    HW123405   3.698   6.784   4.071
 7502SOL    HW223406   3.630   6.925   4.117
 7503SOL     OW23407   1.907   6.219   0.660
 7503SOL    HW123408   1.958   6.153   0.605
 7503SOL    HW223409   1.873   6.292   0.601
 7504SOL     OW23410   0.252   6.314   2.060
 7504SOL    HW123411   0.156   6.300   2.038
 7504SOL    HW223412   0.278   6.409   2.038
 7505SOL     OW23413   1.296   1.590   6.079
 7505SOL    HW123414   1.361   1.566   6.151
 7505SOL    HW223415   1.345   1.611   5.994
 7506SOL     OW23416   4.048   2.215   3.498
 7506SOL    HW123417   4.042   2.146   3.427
 7506SOL    HW223418   4.126   2.275   3.480
 7507SOL     OW23419   6.362   2.832   4.043
 7507SOL    HW123420   6.372   2.880   3.955
 7507SOL    HW223421   6.265   2.820   4.064
 7508SOL     OW23422   1.752   5.282   0.458
 7508SOL    HW123423   1.706   5.218   0.519
 7508SOL    HW223424   1.826   5.235   0.410
 7509SOL     OW23425   6.016   3.227   0.696
 7509SOL    HW123426   6.030   3.225   0.597
 7509SOL    HW223427   6.078   3.295   0.736
 7510SOL     OW23428   4.080   3.617   3.978
 7510SOL    HW123429   4.110   3.571   3.894
 7510SOL    HW223430   3.980   3.626   3.978
 7511SOL     OW23431   2.836   6.042   3.549
 7511SOL    HW123432   2.913   5.994   3.592
 7511SOL    HW223433   2.802   6.112   3.611
 7512SOL     OW23434   3.099   0.811   6.795
 7512SOL    HW123435   3.000   0.819   6.811
 7512SOL    HW223436   3.125   0.715   6.794
 7513SOL     OW23437   2.374   2.130   3.431
 7513SOL    HW123438   2.317   2.175   3.500
 7513SOL    HW223439   2.320   2.113   3.349
 7514SOL     OW23440   1.808   5.129   3.689
 7514SOL    HW123441   1.713   5.140   3.718
 7514SOL    HW223442   1.835   5.207   3.632
 7515SOL     OW23443   6.649   4.444   4.954
 7515SOL    HW123444   6.591   4.392   4.892
 7515SOL    HW223445   6.738   4.398   4.963
 7516SOL     OW23446   0.915   5.139   6.079
 7516SOL    HW123447   0.854   5.171   6.007
 7516SOL    HW223448   1.007   5.124   6.040
 7517SOL     OW23449   1.323   2.475   0.023
 7517SOL    HW123450   1.337   2.481   6.946
 7517SOL    HW223451   1.399   2.426   0.065
 7518SOL     OW23452   4.847   3.208   3.541
 7518SOL    HW123453   4.846   3.113   3.571
 7518SOL    HW223454   4.845   3.211   3.441
 7519SOL     OW23455   5.508   7.016   3.889
 7519SOL    HW123456   5.514   6.960   3.972
 7519SOL    HW223457   5.569   0.073   3.898
 7520SOL     OW23458   1.442   1.244   2.432
 7520SOL    HW123459   1.424   1.333   2.474
 7520SOL    HW223460   1.509   1.254   2.359
 7521SOL     OW23461   4.556   2.086   4.678
 7521SOL    HW123462   4.601   2.174   4.695
 7521SOL    HW223463   4.601   2.014   4.730
 7522SOL     OW23464   1.474   0.315   5.154
 7522SOL    HW123465   1.460   0.375   5.232
 7522SOL    HW223466   1.522   0.365   5.081
 7523SOL     OW23467   5.042   0.826   6.121
 7523SOL    HW123468   5.129   0.874   6.135
 7523SOL    HW223469   5.007   0.794   6.209
 7524SOL     OW23470   7.021   3.142   4.899
 7524SOL    HW123471   0.084   3.115   4.945
 7524SOL    HW223472   7.019   3.241   4.887
 7525SOL     OW23473   4.317   6.613   6.477
 7525SOL    HW123474   4.300   6.642   6.383
 7525SOL    HW223475   4.319   6.513   6.482
 7526SOL     OW23476   2.622   2.745   1.465
 7526SOL    HW123477   2.602   2.658   1.509
 7526SOL    HW223478   2.575   2.750   1.377
 7527SOL     OW23479   3.303   5.722   4.039
 7527SOL    HW123480   3.305   5.678   4.129
 7527SOL    HW223481   3.370   5.796   4.037
 7528SOL     OW23482   5.605   2.267   6.834
 7528SOL    HW123483   5.660   2.233   6.910
 7528SOL    HW223484   5.541   2.337   6.867
 7529SOL     OW23485   4.989   1.844   3.839
 7529SOL    HW123486   5.054   1.913   3.871
 7529SOL    HW223487   4.982   1.771   3.907
 7530SOL     OW23488   6.316   1.662   2.266
 7530SOL    HW123489   6.261   1.592   2.312
 7530SOL    HW223490   6.266   1.696   2.186
 7531SOL     OW23491   4.896   2.933   3.200
 7531SOL    HW123492   4.834   3.006   3.173
 7531SOL    HW223493   4.951   2.905   3.122
 7532SOL     OW23494   5.353   6.364   5.870
 7532SOL    HW123495   5.301   6.282   5.896
 7532SOL    HW223496   5.426   6.339   5.807
 7533SOL     OW23497   4.534   2.519   1.470
 7533SOL    HW123498   4.630   2.501   1.493
 7533SOL    HW223499   4.487   2.554   1.551
 7534SOL     OW23500   4.431   5.858   4.507
 7534SOL    HW123501   4.397   5.784   4.448
 7534SOL    HW223502   4.356   5.919   4.530
 7535SOL     OW23503   1.596   6.479   4.946
 7535SOL    HW123504   1.578   6.437   5.035
 7535SOL    HW223505   1.597   6.407   4.876
 7536SOL     OW23506   5.825   6.166   3.866
 7536SOL    HW123507   5.793   6.121   3.949
 7536SOL    HW223508   5.768   6.138   3.789
 7537SOL     OW23509   1.869   4.949   2.146
 7537SOL    HW123510   1.940   4.960   2.076
 7537SOL    HW223511   1.793   4.896   2.108
 7538SOL     OW23512   1.642   2.794   1.797
 7538SOL    HW123513   1.618   2.728   1.869
 7538SOL    HW223514   1.711   2.857   1.831
 7539SOL     OW23515   1.379   5.051   3.397
 7539SOL    HW123516   1.280   5.049   3.386
 7539SOL    HW223517   1.421   4.978   3.344
 7540SOL     OW23518   4.551   6.234   4.330
 7540SOL    HW123519   4.548   6.332   4.311
 7540SOL    HW223520   4.552   6.219   4.429
 7541SOL     OW23521   0.600   4.503   6.333
 7541SOL    HW123522   0.687   4.550   6.323
 7541SOL    HW223523   0.528   4.569   6.357
 7542SOL     OW23524   6.840   5.875   5.710
 7542SOL    HW123525   6.743   5.899   5.697
 7542SOL    HW223526   6.897   5.938   5.658
 7543SOL     OW23527   3.115   0.463   4.939
 7543SOL    HW123528   3.070   0.374   4.930
 7543SOL    HW223529   3.049   0.536   4.920
 7544SOL     OW23530   0.593   2.767   4.581
 7544SOL    HW123531   0.544   2.758   4.494
 7544SOL    HW223532   0.530   2.800   4.651
 7545SOL     OW23533   0.473   6.330   5.789
 7545SOL    HW123534   0.564   6.297   5.765
 7545SOL    HW223535   0.460   6.325   5.888
 7546SOL     OW23536   5.035   2.276   1.244
 7546SOL    HW123537   4.973   2.353   1.231
 7546SOL    HW223538   5.115   2.287   1.185
 7547SOL     OW23539   4.553   0.648   0.911
 7547SOL    HW123540   4.622   0.616   0.975
 7547SOL    HW223541   4.590   0.725   0.859
 7548SOL     OW23542   4.424   2.588   6.944
 7548SOL    HW123543   4.435   2.569   6.846
 7548SOL    HW223544   4.357   2.661   6.956
 7549SOL     OW23545   3.439   2.572   6.731
 7549SOL    HW123546   3.360   2.519   6.762
 7549SOL    HW223547   3.438   2.579   6.632
 7550SOL     OW23548   1.977   4.254   3.475
 7550SOL    HW123549   2.032   4.289   3.551
 7550SOL    HW223550   1.881   4.253   3.501
 7551SOL     OW23551   5.651   3.013   5.183
 7551SOL    HW123552   5.670   2.980   5.090
 7551SOL    HW223553   5.718   2.974   5.246
 7552SOL     OW23554   1.513   6.113   4.540
 7552SOL    HW123555   1.578   6.185   4.514
 7552SOL    HW223556   1.557   6.024   4.532
 7553SOL     OW23557   5.654   6.346   5.528
 7553SOL    HW123558   5.630   6.433   5.571
 7553SOL    HW223559   5.667   6.277   5.599
 7554SOL     OW23560   5.048   0.862   0.466
 7554SOL    HW123561   5.013   0.784   0.416
 7554SOL    HW223562   5.145   0.848   0.487
 7555SOL     OW23563   3.246   6.000   6.146
 7555SOL    HW123564   3.245   6.031   6.241
 7555SOL    HW223565   3.184   5.923   6.135
 7556SOL     OW23566   1.661   1.597   0.416
 7556SOL    HW123567   1.603   1.678   0.423
 7556SOL    HW223568   1.604   1.515   0.409
 7557SOL     OW23569   4.315   0.275   6.915
 7557SOL    HW123570   4.367   0.302   6.834
 7557SOL    HW223571   4.365   0.302   6.997
 7558SOL     OW23572   1.714   3.002   3.490
 7558SOL    HW123573   1.697   2.960   3.579
 7558SOL    HW223574   1.666   3.089   3.485
 7559SOL     OW23575   3.877   2.262   5.249
 7559SOL    HW123576   3.918   2.205   5.320
 7559SOL    HW223577   3.896   2.358   5.268
 7560SOL     OW23578   6.326   0.117   6.849
 7560SOL    HW123579   6.371   0.069   6.924
 7560SOL    HW223580   6.229   0.129   6.871
 7561SOL     OW23581   6.177   3.394   5.502
 7561SOL    HW123582   6.131   3.424   5.585
 7561SOL    HW223583   6.229   3.470   5.463
 7562SOL     OW23584   1.138   4.568   4.703
 7562SOL    HW123585   1.197   4.620   4.765
 7562SOL    HW223586   1.145   4.470   4.724
 7563SOL     OW23587   2.456   5.948   2.611
 7563SOL    HW123588   2.516   5.870   2.631
 7563SOL    HW223589   2.368   5.935   2.656
 7564SOL     OW23590   3.450   0.596   4.842
 7564SOL    HW123591   3.518   0.628   4.776
 7564SOL    HW223592   3.440   0.665   4.915
 7565SOL     OW23593   6.040   4.534   5.703
 7565SOL    HW123594   6.045   4.564   5.798
 7565SOL    HW223595   6.125   4.488   5.678
 7566SOL     OW23596   5.096   4.784   2.371
 7566SOL    HW123597   5.121   4.702   2.320
 7566SOL    HW223598   5.178   4.839   2.390
 7567SOL     OW23599   1.171   1.117   4.636
 7567SOL    HW123600   1.116   1.183   4.687
 7567SOL    HW223601   1.131   1.105   4.545
 7568SOL     OW23602   5.519   5.246   1.837
 7568SOL    HW123603   5.555   5.247   1.931
 7568SOL    HW223604   5.563   5.318   1.784
 7569SOL     OW23605   4.339   4.314   6.734
 7569SOL    HW123606   4.338   4.283   6.639
 7569SOL    HW223607   4.297   4.245   6.792
 7570SOL     OW23608   0.097   2.713   4.080
 7570SOL    HW123609   0.108   2.709   4.179
 7570SOL    HW223610   0.120   2.624   4.040
 7571SOL     OW23611   5.160   3.682   3.029
 7571SOL    HW123612   5.207   3.724   2.952
 7571SOL    HW223613   5.168   3.582   3.023
 7572SOL     OW23614   5.274   6.594   2.784
 7572SOL    HW123615   5.371   6.600   2.759
 7572SOL    HW223616   5.251   6.669   2.846
 7573SOL     OW23617   5.985   0.602   5.764
 7573SOL    HW123618   5.972   0.672   5.835
 7573SOL    HW223619   5.956   0.513   5.798
 7574SOL     OW23620   5.507   1.579   4.585
 7574SOL    HW123621   5.422   1.527   4.586
 7574SOL    HW223622   5.572   1.537   4.521
 7575SOL     OW23623   6.122   6.198   0.435
 7575SOL    HW123624   6.166   6.168   0.520
 7575SOL    HW223625   6.051   6.133   0.409
 7576SOL     OW23626   5.427   2.524   6.947
 7576SOL    HW123627   5.520   2.553   6.967
 7576SOL    HW223628   5.380   2.502   0.011
 7577SOL     OW23629   6.830   6.463   0.032
 7577SOL    HW123630   6.901   6.517   7.008
 7577SOL    HW223631   6.823   6.492   0.128
 7578SOL     OW23632   1.343   5.328   2.278
 7578SOL    HW123633   1.403   5.370   2.210
 7578SOL    HW223634   1.302   5.245   2.240
 7579SOL     OW23635   6.824   1.558   1.221
 7579SOL    HW123636   6.910   1.537   1.173
 7579SOL    HW223637   6.824   1.654   1.248
 7580SOL     OW23638   1.503   4.818   3.287
 7580SOL    HW123639   1.420   4.768   3.313
 7580SOL    HW223640   1.550   4.769   3.213
 7581SOL     OW23641   0.742   1.078   1.325
 7581SOL    HW123642   0.672   1.030   1.377
 7581SOL    HW223643   0.820   1.099   1.384
 7582SOL     OW23644   3.917   1.544   3.739
 7582SOL    HW123645   3.848   1.543   3.667
 7582SOL    HW223646   3.998   1.593   3.707
 7583SOL     OW23647   5.327   3.827   2.818
 7583SOL    HW123648   5.425   3.807   2.819
 7583SOL    HW223649   5.303   3.869   2.731
 7584SOL     OW23650   1.291   6.705   2.559
 7584SOL    HW123651   1.364   6.767   2.587
 7584SOL    HW223652   1.321   6.610   2.570
 7585SOL     OW23653   0.959   2.466   6.809
 7585SOL    HW123654   0.946   2.432   6.716
 7585SOL    HW223655   0.991   2.391   6.867
 7586SOL     OW23656   1.831   0.090   2.390
 7586SOL    HW123657   1.736   0.095   2.422
 7586SOL    HW223658   1.834   0.112   2.292
 7587SOL     OW23659   3.003   1.477   0.545
 7587SOL    HW123660   3.018   1.512   0.638
 7587SOL    HW223661   2.904   1.472   0.528
 7588SOL     OW23662   1.373   2.563   3.930
 7588SOL    HW123663   1.457   2.548   3.877
 7588SOL    HW223664   1.395   2.560   4.028
 7589SOL     OW23665   0.044   1.369   3.231
 7589SOL    HW123666   0.086   1.283   3.262
 7589SOL    HW223667   6.970   1.353   3.208
 7590SOL     OW23668   6.292   1.367   6.967
 7590SOL    HW123669   6.206   1.318   6.952
 7590SOL    HW223670   6.327   1.400   6.880
 7591SOL     OW23671   4.751   3.046   6.353
 7591SOL    HW123672   4.803   2.964   6.329
 7591SOL    HW223673   4.653   3.027   6.344
 7592SOL     OW23674   6.444   5.005   4.684
 7592SOL    HW123675   6.389   5.002   4.601
 7592SOL    HW223676   6.419   4.929   4.744
 7593SOL     OW23677   7.003   2.701   6.212
 7593SOL    HW123678   7.002   2.669   6.117
 7593SOL    HW223679   6.916   2.746   6.232
 7594SOL     OW23680   0.864   4.408   1.806
 7594SOL    HW123681   0.933   4.478   1.824
 7594SOL    HW223682   0.907   4.332   1.756
 7595SOL     OW23683   6.415   3.779   6.566
 7595SOL    HW123684   6.460   3.753   6.480
 7595SOL    HW223685   6.357   3.859   6.550
 7596SOL     OW23686   3.169   6.954   5.138
 7596SOL    HW123687   3.090   6.895   5.153
 7596SOL    HW223688   3.244   6.900   5.099
 7597SOL     OW23689   1.935   6.388   2.990
 7597SOL    HW123690   1.998   6.431   3.055
 7597SOL    HW223691   1.888   6.458   2.936
 7598SOL     OW23692   6.292   0.692   3.187
 7598SOL    HW123693   6.239   0.733   3.260
 7598SOL    HW223694   6.242   0.614   3.148
 7599SOL     OW23695   5.139   3.225   1.206
 7599SOL    HW123696   5.168   3.199   1.299
 7599SOL    HW223697   5.081   3.153   1.169
 7600SOL     OW23698   1.301   1.075   3.676
 7600SOL    HW123699   1.207   1.106   3.689
 7600SOL    HW223700   1.347   1.072   3.765
 7601SOL     OW23701   2.993   5.159   2.397
 7601SOL    HW123702   3.011   5.242   2.450
 7601SOL    HW223703   2.936   5.182   2.318
 7602SOL     OW23704   0.506   2.813   0.252
 7602SOL    HW123705   0.447   2.732   0.250
 7602SOL    HW223706   0.538   2.829   0.345
 7603SOL     OW23707   2.130   6.682   5.917
 7603SOL    HW123708   2.134   6.582   5.907
 7603SOL    HW223709   2.148   6.725   5.828
 7604SOL     OW23710   1.812   1.970   4.937
 7604SOL    HW123711   1.780   2.065   4.940
 7604SOL    HW223712   1.737   1.910   4.910
 7605SOL     OW23713   1.059   0.593   0.594
 7605SOL    HW123714   1.037   0.628   0.503
 7605SOL    HW223715   0.997   0.634   0.662
 7606SOL     OW23716   5.995   2.985   5.080
 7606SOL    HW123717   5.974   3.062   5.141
 7606SOL    HW223718   5.913   2.961   5.028
 7607SOL     OW23719   3.763   5.425   0.771
 7607SOL    HW123720   3.769   5.394   0.676
 7607SOL    HW223721   3.768   5.346   0.832
 7608SOL     OW23722   5.108   2.260   6.320
 7608SOL    HW123723   5.091   2.358   6.310
 7608SOL    HW223724   5.182   2.233   6.257
 7609SOL     OW23725   0.568   3.759   3.892
 7609SOL    HW123726   0.500   3.742   3.964
 7609SOL    HW223727   0.636   3.685   3.893
 7610SOL     OW23728   3.756   4.856   6.125
 7610SOL    HW123729   3.802   4.846   6.214
 7610SOL    HW223730   3.713   4.769   6.100
 7611SOL     OW23731   5.280   3.497   1.451
 7611SOL    HW123732   5.218   3.524   1.525
 7611SOL    HW223733   5.270   3.399   1.433
 7612SOL     OW23734   4.065   2.103   3.012
 7612SOL    HW123735   3.988   2.102   2.948
 7612SOL    HW223736   4.139   2.157   2.974
 7613SOL     OW23737   0.673   2.223   1.838
 7613SOL    HW123738   0.722   2.303   1.873
 7613SOL    HW223739   0.599   2.199   1.900
 7614SOL     OW23740   5.169   3.293   0.853
 7614SOL    HW123741   5.226   3.311   0.933
 7614SOL    HW223742   5.115   3.374   0.832
 7615SOL     OW23743   5.204   3.992   5.622
 7615SOL    HW123744   5.228   4.078   5.667
 7615SOL    HW223745   5.226   3.999   5.525
 7616SOL     OW23746   6.441   0.460   3.242
 7616SOL    HW123747   6.481   0.423   3.158
 7616SOL    HW223748   6.414   0.555   3.228
 7617SOL     OW23749   5.388   5.189   3.334
 7617SOL    HW123750   5.482   5.222   3.332
 7617SOL    HW223751   5.336   5.240   3.402
 7618SOL     OW23752   1.490   2.297   0.173
 7618SOL    HW123753   1.513   2.321   0.267
 7618SOL    HW223754   1.540   2.215   0.146
 7619SOL     OW23755   0.145   3.011   4.353
 7619SOL    HW123756   0.193   3.011   4.265
 7619SOL    HW223757   0.150   3.101   4.394
 7620SOL     OW23758   3.624   4.378   0.438
 7620SOL    HW123759   3.700   4.346   0.382
 7620SOL    HW223760   3.556   4.305   0.447
 7621SOL     OW23761   0.412   6.412   1.025
 7621SOL    HW123762   0.411   6.491   0.964
 7621SOL    HW223763   0.492   6.355   1.006
 7622SOL     OW23764   4.533   4.638   0.083
 7622SOL    HW123765   4.530   4.564   0.015
 7622SOL    HW223766   4.627   4.654   0.111
 7623SOL     OW23767   4.089   4.404   0.495
 7623SOL    HW123768   4.179   4.431   0.528
 7623SOL    HW223769   4.095   4.381   0.398
 7624SOL     OW23770   0.142   2.592   2.985
 7624SOL    HW123771   0.203   2.534   3.039
 7624SOL    HW223772   0.066   2.537   2.950
 7625SOL     OW23773   5.526   2.246   0.130
 7625SOL    HW123774   5.473   2.163   0.115
 7625SOL    HW223775   5.620   2.232   0.099
 7626SOL     OW23776   6.463   0.893   6.060
 7626SOL    HW123777   6.539   0.928   6.006
 7626SOL    HW223778   6.382   0.882   6.002
 7627SOL     OW23779   3.054   1.830   0.702
 7627SOL    HW123780   2.998   1.755   0.737
 7627SOL    HW223781   3.047   1.833   0.603
 7628SOL     OW23782   3.995   2.885   1.265
 7628SOL    HW123783   3.997   2.790   1.297
 7628SOL    HW223784   4.084   2.927   1.279
 7629SOL     OW23785   6.262   3.968   3.775
 7629SOL    HW123786   6.233   3.913   3.854
 7629SOL    HW223787   6.353   4.005   3.793
 7630SOL     OW23788   1.217   0.386   5.503
 7630SOL    HW123789   1.253   0.413   5.593
 7630SOL    HW223790   1.255   0.297   5.477
 7631SOL     OW23791   1.339   0.488   5.715
 7631SOL    HW123792   1.422   0.543   5.711
 7631SOL    HW223793   1.279   0.522   5.788
 7632SOL     OW23794   4.322   4.854   1.041
 7632SOL    HW123795   4.224   4.842   1.028
 7632SOL    HW223796   4.366   4.765   1.053
 7633SOL     OW23797   6.096   0.624   1.447
 7633SOL    HW123798   6.133   0.704   1.494
 7633SOL    HW223799   6.025   0.582   1.503
 7634SOL     OW23800   1.213   1.183   1.719
 7634SOL    HW123801   1.174   1.250   1.657
 7634SOL    HW223802   1.140   1.141   1.774
 7635SOL     OW23803   2.657   5.089   4.682
 7635SOL    HW123804   2.608   5.170   4.650
 7635SOL    HW223805   2.592   5.021   4.715
 7636SOL     OW23806   0.351   4.179   4.052
 7636SOL    HW123807   0.427   4.159   4.114
 7636SOL    HW223808   0.386   4.196   3.960
 7637SOL     OW23809   0.773   6.317   3.354
 7637SOL    HW123810   0.747   6.226   3.385
 7637SOL    HW223811   0.870   6.318   3.331
 7638SOL     OW23812   1.303   5.320   1.463
 7638SOL    HW123813   1.302   5.281   1.555
 7638SOL    HW223814   1.376   5.278   1.410
 7639SOL     OW23815   0.208   0.732   0.304
 7639SOL    HW123816   0.177   0.770   0.217
 7639SOL    HW223817   0.131   0.726   0.368
 7640SOL     OW23818   3.055   1.995   6.972
 7640SOL    HW123819   3.020   2.083   6.938
 7640SOL    HW223820   3.153   1.988   6.954
 7641SOL     OW23821   0.414   3.945   2.757
 7641SOL    HW123822   0.474   4.022   2.736
 7641SOL    HW223823   0.327   3.956   2.708
 7642SOL     OW23824   6.051   1.103   2.606
 7642SOL    HW123825   5.989   1.047   2.661
 7642SOL    HW223826   6.032   1.089   2.509
 7643SOL     OW23827   5.298   1.896   2.725
 7643SOL    HW123828   5.277   1.910   2.628
 7643SOL    HW223829   5.268   1.975   2.778
 7644SOL     OW23830   4.855   3.018   2.267
 7644SOL    HW123831   4.933   2.957   2.281
 7644SOL    HW223832   4.821   3.007   2.173
 7645SOL     OW23833   4.074   3.185   5.232
 7645SOL    HW123834   4.063   3.207   5.135
 7645SOL    HW223835   4.032   3.257   5.287
 7646SOL     OW23836   0.690   3.053   3.233
 7646SOL    HW123837   0.755   3.029   3.162
 7646SOL    HW223838   0.598   3.060   3.193
 7647SOL     OW23839   0.826   2.922   4.637
 7647SOL    HW123840   0.905   2.906   4.579
 7647SOL    HW223841   0.746   2.877   4.597
 7648SOL     OW23842   2.330   1.455   2.144
 7648SOL    HW123843   2.266   1.443   2.069
 7648SOL    HW223844   2.423   1.436   2.113
 7649SOL     OW23845   1.136   1.521   4.605
 7649SOL    HW123846   1.107   1.613   4.631
 7649SOL    HW223847   1.236   1.516   4.608
 7650SOL     OW23848   5.043   1.144   1.054
 7650SOL    HW123849   5.011   1.214   1.118
 7650SOL    HW223850   5.013   1.167   0.961
 7651SOL     OW23851   2.417   5.149   4.425
 7651SOL    HW123852   2.354   5.135   4.501
 7651SOL    HW223853   2.394   5.087   4.350
 7652SOL     OW23854   6.023   2.661   5.186
 7652SOL    HW123855   5.947   2.615   5.231
 7652SOL    HW223856   5.994   2.752   5.157
 7653SOL     OW23857   1.339   1.654   0.408
 7653SOL    HW123858   1.253   1.662   0.359
 7653SOL    HW223859   1.396   1.584   0.365
 7654SOL     OW23860   5.754   2.965   4.940
 7654SOL    HW123861   5.668   2.916   4.930
 7654SOL    HW223862   5.787   2.994   4.850
 7655SOL     OW23863   3.489   0.295   3.735
 7655SOL    HW123864   3.492   0.239   3.652
 7655SOL    HW223865   3.412   0.359   3.730
 7656SOL     OW23866   5.952   3.033   5.964
 7656SOL    HW123867   5.941   2.954   6.024
 7656SOL    HW223868   5.947   3.004   5.868
 7657SOL     OW23869   1.905   3.307   4.270
 7657SOL    HW123870   1.864   3.249   4.200
 7657SOL    HW223871   2.002   3.319   4.249
 7658SOL     OW23872   3.040   0.392   1.048
 7658SOL    HW123873   3.121   0.417   0.995
 7658SOL    HW223874   2.965   0.371   0.986
 7659SOL     OW23875   4.757   4.293   6.379
 7659SOL    HW123876   4.731   4.237   6.301
 7659SOL    HW223877   4.724   4.386   6.366
 7660SOL     OW23878   6.417   5.564   4.833
 7660SOL    HW123879   6.379   5.476   4.806
 7660SOL    HW223880   6.517   5.559   4.833
 7661SOL     OW23881   4.425   2.509   6.052
 7661SOL    HW123882   4.415   2.433   5.987
 7661SOL    HW223883   4.398   2.595   6.007
 7662SOL     OW23884   0.710   2.320   3.040
 7662SOL    HW123885   0.789   2.375   3.012
 7662SOL    HW223886   0.730   2.276   3.127
 7663SOL     OW23887   5.351   5.865   6.455
 7663SOL    HW123888   5.357   5.927   6.377
 7663SOL    HW223889   5.438   5.816   6.466
 7664SOL     OW23890   4.202   1.212   3.063
 7664SOL    HW123891   4.103   1.221   3.057
 7664SOL    HW223892   4.225   1.126   3.108
 7665SOL     OW23893   5.712   2.016   4.106
 7665SOL    HW123894   5.733   1.921   4.085
 7665SOL    HW223895   5.797   2.067   4.118
 7666SOL     OW23896   6.429   5.630   4.329
 7666SOL    HW123897   6.419   5.693   4.406
 7666SOL    HW223898   6.436   5.682   4.244
 7667SOL     OW23899   4.535   0.423   2.381
 7667SOL    HW123900   4.498   0.336   2.350
 7667SOL    HW223901   4.466   0.470   2.437
 7668SOL     OW23902   2.738   4.819   0.858
 7668SOL    HW123903   2.723   4.869   0.773
 7668SOL    HW223904   2.725   4.721   0.842
 7669SOL     OW23905   4.218   0.906   5.950
 7669SOL    HW123906   4.278   0.986   5.944
 7669SOL    HW223907   4.235   0.858   6.037
 7670SOL     OW23908   0.854   6.754   0.598
 7670SOL    HW123909   0.859   6.722   0.693
 7670SOL    HW223910   0.945   6.779   0.566
 7671SOL     OW23911   5.646   6.984   2.562
 7671SOL    HW123912   5.611   6.891   2.566
 7671SOL    HW223913   5.613   0.014   2.641
 7672SOL     OW23914   0.064   4.700   2.969
 7672SOL    HW123915   0.148   4.752   2.981
 7672SOL    HW223916   0.005   4.713   3.049
 7673SOL     OW23917   1.456   6.033   2.453
 7673SOL    HW123918   1.483   6.125   2.424
 7673SOL    HW223919   1.437   6.034   2.551
 7674SOL     OW23920   4.238   0.694   3.758
 7674SOL    HW123921   4.224   0.781   3.803
 7674SOL    HW223922   4.172   0.627   3.792
 7675SOL     OW23923   3.829   6.545   3.605
 7675SOL    HW123924   3.827   6.629   3.659
 7675SOL    HW223925   3.857   6.567   3.511
 7676SOL     OW23926   2.786   1.917   5.698
 7676SOL    HW123927   2.856   1.949   5.634
 7676SOL    HW223928   2.798   1.963   5.786
 7677SOL     OW23929   0.196   4.562   1.343
 7677SOL    HW123930   0.286   4.602   1.325
 7677SOL    HW223931   0.147   4.552   1.257
 7678SOL     OW23932   1.881   2.459   5.267
 7678SOL    HW123933   1.954   2.464   5.334
 7678SOL    HW223934   1.818   2.536   5.280
 7679SOL     OW23935   2.134   5.355   5.470
 7679SOL    HW123936   2.053   5.311   5.429
 7679SOL    HW223937   2.212   5.342   5.409
 7680SOL     OW23938   1.755   0.460   5.889
 7680SOL    HW123939   1.835   0.422   5.937
 7680SOL    HW223940   1.673   0.441   5.942
 7681SOL     OW23941   2.698   1.754   6.591
 7681SOL    HW123942   2.615   1.704   6.617
 7681SOL    HW223943   2.762   1.755   6.667
 7682SOL     OW23944   3.724   1.528   2.615
 7682SOL    HW123945   3.806   1.481   2.584
 7682SOL    HW223946   3.749   1.614   2.658
 7683SOL     OW23947   0.766   1.601   4.568
 7683SOL    HW123948   0.822   1.533   4.521
 7683SOL    HW223949   0.740   1.567   4.658
 7684SOL     OW23950   4.368   2.083   1.749
 7684SOL    HW123951   4.344   1.997   1.792
 7684SOL    HW223952   4.343   2.159   1.808
 7685SOL     OW23953   3.820   1.713   6.969
 7685SOL    HW123954   3.798   1.648   0.020
 7685SOL    HW223955   3.870   1.791   7.007
 7686SOL     OW23956   5.241   6.987   3.777
 7686SOL    HW123957   5.164   0.018   3.812
 7686SOL    HW223958   5.325   7.015   3.824
 7687SOL     OW23959   4.793   5.166   4.485
 7687SOL    HW123960   4.838   5.084   4.520
 7687SOL    HW223961   4.828   5.188   4.394
 7688SOL     OW23962   0.122   5.624   5.512
 7688SOL    HW123963   0.167   5.539   5.483
 7688SOL    HW223964   0.038   5.637   5.458
 7689SOL     OW23965   4.543   0.031   1.830
 7689SOL    HW123966   4.603   6.973   1.832
 7689SOL    HW223967   4.597   0.114   1.841
 7690SOL     OW23968   5.746   4.957   0.078
 7690SOL    HW123969   5.784   5.001   0.159
 7690SOL    HW223970   5.674   5.014   0.040
 7691SOL     OW23971   4.677   4.648   2.066
 7691SOL    HW123972   4.664   4.558   2.108
 7691SOL    HW223973   4.739   4.640   1.988
 7692SOL     OW23974   0.852   5.948   1.540
 7692SOL    HW123975   0.949   5.951   1.564
 7692SOL    HW223976   0.820   6.041   1.518
 7693SOL     OW23977   2.947   0.823   1.364
 7693SOL    HW123978   2.854   0.828   1.401
 7693SOL    HW223979   2.959   0.734   1.320
 7694SOL     OW23980   5.430   2.707   4.391
 7694SOL    HW123981   5.386   2.626   4.353
 7694SOL    HW223982   5.450   2.692   4.488
 7695SOL     OW23983   5.391   0.729   1.719
 7695SOL    HW123984   5.446   0.810   1.699
 7695SOL    HW223985   5.434   0.649   1.677
 7696SOL     OW23986   0.509   1.540   5.988
 7696SOL    HW123987   0.547   1.471   5.926
 7696SOL    HW223988   0.412   1.520   6.004
 7697SOL     OW23989   3.230   0.378   2.467
 7697SOL    HW123990   3.301   0.353   2.532
 7697SOL    HW223991   3.143   0.390   2.515
 7698SOL     OW23992   6.481   2.368   6.064
 7698SOL    HW123993   6.574   2.403   6.070
 7698SOL    HW223994   6.464   2.304   6.140
 7699SOL     OW23995   2.217   5.235   6.761
 7699SOL    HW123996   2.290   5.276   6.706
 7699SOL    HW223997   2.240   5.140   6.781
 7700SOL     OW23998   4.447   6.261   3.021
 7700SOL    HW123999   4.452   6.289   2.925
 7700SOL    HW224000   4.478   6.166   3.029
 7701SOL     OW24001   6.992   1.414   6.175
 7701SOL    HW124002   6.910   1.414   6.233
 7701SOL    HW224003   0.031   1.487   6.205
 7702SOL     OW24004   4.141   6.670   5.558
 7702SOL    HW124005   4.221   6.638   5.609
 7702SOL    HW224006   4.065   6.684   5.621
 7703SOL     OW24007   6.399   0.245   5.225
 7703SOL    HW124008   6.483   0.286   5.191
 7703SOL    HW224009   6.421   0.169   5.286
 7704SOL     OW24010   6.295   1.756   4.036
 7704SOL    HW124011   6.214   1.772   4.093
 7704SOL    HW224012   6.373   1.734   4.094
 7705SOL     OW24013   2.450   4.809   0.758
 7705SOL    HW124014   2.415   4.716   0.751
 7705SOL    HW224015   2.510   4.828   0.681
 7706SOL     OW24016   3.172   3.105   3.036
 7706SOL    HW124017   3.209   3.195   3.059
 7706SOL    HW224018   3.137   3.107   2.943
 7707SOL     OW24019   0.047   5.167   6.162
 7707SOL    HW124020   0.036   5.081   6.212
 7707SOL    HW224021   0.070   5.240   6.227
 7708SOL     OW24022   1.001   6.857   3.847
 7708SOL    HW124023   1.082   6.840   3.792
 7708SOL    HW224024   0.956   6.941   3.815
 7709SOL     OW24025   6.353   5.282   1.251
 7709SOL    HW124026   6.309   5.201   1.211
 7709SOL    HW224027   6.420   5.319   1.187
 7710SOL     OW24028   2.207   2.452   0.839
 7710SOL    HW124029   2.124   2.502   0.812
 7710SOL    HW224030   2.181   2.372   0.893
 7711SOL     OW24031   6.791   6.050   5.974
 7711SOL    HW124032   6.867   5.987   5.988
 7711SOL    HW224033   6.805   6.103   5.891
 7712SOL     OW24034   6.395   4.713   6.541
 7712SOL    HW124035   6.309   4.663   6.541
 7712SOL    HW224036   6.408   4.759   6.453
 7713SOL     OW24037   1.749   4.138   0.522
 7713SOL    HW124038   1.714   4.201   0.453
 7713SOL    HW224039   1.713   4.046   0.504
 7714SOL     OW24040   0.005   6.822   5.100
 7714SOL    HW124041   6.955   6.856   5.161
 7714SOL    HW224042   0.028   6.893   5.033
 7715SOL     OW24043   2.770   1.908   6.393
 7715SOL    HW124044   2.762   1.841   6.466
 7715SOL    HW224045   2.799   1.863   6.309
 7716SOL     OW24046   7.018   4.933   6.286
 7716SOL    HW124047   6.921   4.952   6.303
 7716SOL    HW224048   0.006   4.884   6.199
 7717SOL     OW24049   1.504   1.861   5.098
 7717SOL    HW124050   1.547   1.790   5.042
 7717SOL    HW224051   1.489   1.827   5.190
 7718SOL     OW24052   0.530   3.560   2.990
 7718SOL    HW124053   0.622   3.599   2.994
 7718SOL    HW224054   0.475   3.612   2.924
 7719SOL     OW24055   1.618   4.072   4.507
 7719SOL    HW124056   1.675   3.991   4.497
 7719SOL    HW224057   1.673   4.149   4.538
 7720SOL     OW24058   6.153   2.290   6.234
 7720SOL    HW124059   6.189   2.206   6.273
 7720SOL    HW224060   6.114   2.347   6.306
 7721SOL     OW24061   1.013   0.629   2.473
 7721SOL    HW124062   1.063   0.581   2.545
 7721SOL    HW224063   1.055   0.718   2.457
 7722SOL     OW24064   1.834   5.568   4.227
 7722SOL    HW124065   1.895   5.647   4.225
 7722SOL    HW224066   1.880   5.489   4.187
 7723SOL     OW24067   4.976   3.202   6.287
 7723SOL    HW124068   4.886   3.157   6.292
 7723SOL    HW224069   5.003   3.233   6.378
 7724SOL     OW24070   3.374   3.996   0.625
 7724SOL    HW124071   3.369   4.027   0.530
 7724SOL    HW224072   3.390   4.075   0.685
 7725SOL     OW24073   5.918   2.541   2.654
 7725SOL    HW124074   5.846   2.549   2.723
 7725SOL    HW224075   5.978   2.464   2.677
 7726SOL     OW24076   1.179   3.101   5.953
 7726SOL    HW124077   1.142   3.046   5.878
 7726SOL    HW224078   1.179   3.198   5.926
 7727SOL     OW24079   6.103   2.753   1.815
 7727SOL    HW124080   6.068   2.780   1.905
 7727SOL    HW224081   6.162   2.673   1.826
 7728SOL     OW24082   2.293   2.578   5.577
 7728SOL    HW124083   2.382   2.556   5.538
 7728SOL    HW224084   2.280   2.527   5.662
 7729SOL     OW24085   6.341   1.862   1.855
 7729SOL    HW124086   6.281   1.820   1.925
 7729SOL    HW224087   6.286   1.889   1.776
 7730SOL     OW24088   5.844   4.786   5.116
 7730SOL    HW124089   5.894   4.699   5.113
 7730SOL    HW224090   5.751   4.771   5.083
 7731SOL     OW24091   5.963   0.141   0.752
 7731SOL    HW124092   6.056   0.177   0.750
 7731SOL    HW224093   5.912   0.174   0.673
 7732SOL     OW24094   4.044   0.537   0.174
 7732SOL    HW124095   3.953   0.497   0.165
 7732SOL    HW224096   4.086   0.508   0.260
 7733SOL     OW24097   5.938   5.674   2.383
 7733SOL    HW124098   5.895   5.674   2.474
 7733SOL    HW224099   5.890   5.738   2.324
 7734SOL     OW24100   2.460   4.395   5.164
 7734SOL    HW124101   2.503   4.452   5.095
 7734SOL    HW224102   2.478   4.433   5.255
 7735SOL     OW24103   6.480   5.638   0.105
 7735SOL    HW124104   6.460   5.660   0.010
 7735SOL    HW224105   6.490   5.723   0.157
 7736SOL     OW24106   2.889   3.027   0.467
 7736SOL    HW124107   2.811   2.969   0.445
 7736SOL    HW224108   2.879   3.063   0.560
 7737SOL     OW24109   3.521   4.917   1.677
 7737SOL    HW124110   3.522   4.836   1.736
 7737SOL    HW224111   3.427   4.937   1.649
 7738SOL     OW24112   2.003   5.902   6.854
 7738SOL    HW124113   2.091   5.855   6.853
 7738SOL    HW224114   1.930   5.838   6.878
 7739SOL     OW24115   1.268   2.004   2.159
 7739SOL    HW124116   1.240   2.041   2.071
 7739SOL    HW224117   1.366   2.021   2.173
 7740SOL     OW24118   1.949   1.287   2.471
 7740SOL    HW124119   1.883   1.359   2.493
 7740SOL    HW224120   2.027   1.328   2.424
 7741SOL     OW24121   1.686   4.379   5.354
 7741SOL    HW124122   1.753   4.453   5.350
 7741SOL    HW224123   1.609   4.400   5.294
 7742SOL     OW24124   3.733   1.151   3.921
 7742SOL    HW124125   3.660   1.213   3.952
 7742SOL    HW224126   3.736   1.151   3.821
 7743SOL     OW24127   4.868   1.282   6.893
 7743SOL    HW124128   4.824   1.321   6.974
 7743SOL    HW224129   4.807   1.215   6.850
 7744SOL     OW24130   0.522   5.972   4.008
 7744SOL    HW124131   0.528   5.874   3.992
 7744SOL    HW224132   0.612   6.014   3.996
 7745SOL     OW24133   2.347   6.581   0.460
 7745SOL    HW124134   2.396   6.642   0.522
 7745SOL    HW224135   2.356   6.487   0.493
 7746SOL     OW24136   1.548   6.338   0.871
 7746SOL    HW124137   1.515   6.347   0.777
 7746SOL    HW224138   1.611   6.260   0.877
 7747SOL     OW24139   0.115   6.180   0.834
 7747SOL    HW124140   0.098   6.278   0.846
 7747SOL    HW224141   0.098   6.154   0.739
 7748SOL     OW24142   3.441   3.155   5.128
 7748SOL    HW124143   3.388   3.070   5.125
 7748SOL    HW224144   3.451   3.192   5.036
 7749SOL     OW24145   3.144   4.068   3.194
 7749SOL    HW124146   3.078   3.993   3.188
 7749SOL    HW224147   3.119   4.140   3.129
 7750SOL     OW24148   5.404   5.474   5.685
 7750SOL    HW124149   5.337   5.548   5.681
 7750SOL    HW224150   5.392   5.414   5.606
 7751SOL     OW24151   0.319   1.519   3.699
 7751SOL    HW124152   0.264   1.602   3.710
 7751SOL    HW224153   0.289   1.451   3.766
 7752SOL     OW24154   5.711   5.466   5.631
 7752SOL    HW124155   5.611   5.476   5.630
 7752SOL    HW224156   5.741   5.435   5.721
 7753SOL     OW24157   2.448   0.600   4.890
 7753SOL    HW124158   2.457   0.632   4.984
 7753SOL    HW224159   2.498   0.661   4.828
 7754SOL     OW24160   5.185   0.494   1.157
 7754SOL    HW124161   5.131   0.575   1.179
 7754SOL    HW224162   5.220   0.501   1.064
 7755SOL     OW24163   0.770   0.109   5.476
 7755SOL    HW124164   0.736   0.027   5.430
 7755SOL    HW224165   0.861   0.091   5.512
 7756SOL     OW24166   2.191   5.653   2.535
 7756SOL    HW124167   2.245   5.689   2.459
 7756SOL    HW224168   2.111   5.605   2.499
 7757SOL     OW24169   4.481   5.857   4.804
 7757SOL    HW124170   4.383   5.842   4.816
 7757SOL    HW224171   4.503   5.853   4.706
 7758SOL     OW24172   1.718   2.512   6.810
 7758SOL    HW124173   1.799   2.486   6.863
 7758SOL    HW224174   1.747   2.556   6.724
 7759SOL     OW24175   2.294   0.893   4.971
 7759SOL    HW124176   2.223   0.896   4.901
 7759SOL    HW224177   2.384   0.893   4.928
 7760SOL     OW24178   5.836   3.227   2.167
 7760SOL    HW124179   5.859   3.179   2.252
 7760SOL    HW224180   5.757   3.286   2.183
 7761SOL     OW24181   3.115   6.972   5.889
 7761SOL    HW124182   3.149   6.988   5.981
 7761SOL    HW224183   3.124   6.874   5.867
 7762SOL     OW24184   4.302   1.237   5.846
 7762SOL    HW124185   4.214   1.200   5.815
 7762SOL    HW224186   4.360   1.256   5.766
 7763SOL     OW24187   1.251   1.736   1.400
 7763SOL    HW124188   1.254   1.656   1.340
 7763SOL    HW224189   1.186   1.803   1.364
 7764SOL     OW24190   3.867   2.956   2.521
 7764SOL    HW124191   3.926   3.035   2.505
 7764SOL    HW224192   3.887   2.918   2.611
 7765SOL     OW24193   6.416   3.564   4.445
 7765SOL    HW124194   6.498   3.619   4.429
 7765SOL    HW224195   6.437   3.488   4.507
 7766SOL     OW24196   5.428   2.082   6.741
 7766SOL    HW124197   5.380   2.133   6.669
 7766SOL    HW224198   5.504   2.137   6.775
 7767SOL     OW24199   3.791   6.271   3.580
 7767SOL    HW124200   3.827   6.364   3.576
 7767SOL    HW224201   3.706   6.270   3.631
 7768SOL     OW24202   3.929   4.856   2.884
 7768SOL    HW124203   3.933   4.902   2.795
 7768SOL    HW224204   3.992   4.779   2.885
 7769SOL     OW24205   5.119   1.606   1.902
 7769SOL    HW124206   5.059   1.627   1.825
 7769SOL    HW224207   5.084   1.649   1.985
 7770SOL     OW24208   2.450   4.432   2.285
 7770SOL    HW124209   2.418   4.506   2.225
 7770SOL    HW224210   2.522   4.381   2.238
 7771SOL     OW24211   2.746   2.445   5.145
 7771SOL    HW124212   2.803   2.376   5.189
 7771SOL    HW224213   2.681   2.483   5.211
 7772SOL     OW24214   4.671   1.296   3.753
 7772SOL    HW124215   4.752   1.237   3.755
 7772SOL    HW224216   4.654   1.333   3.844
 7773SOL     OW24217   3.369   4.833   5.583
 7773SOL    HW124218   3.377   4.743   5.540
 7773SOL    HW224219   3.352   4.822   5.681
 7774SOL     OW24220   5.650   1.852   6.083
 7774SOL    HW124221   5.592   1.834   6.162
 7774SOL    HW224222   5.698   1.939   6.096
 7775SOL     OW24223   3.693   6.775   3.113
 7775SOL    HW124224   3.612   6.736   3.157
 7775SOL    HW224225   3.767   6.707   3.113
 7776SOL     OW24226   3.088   3.013   5.912
 7776SOL    HW124227   3.130   3.090   5.863
 7776SOL    HW224228   3.158   2.946   5.935
 7777SOL     OW24229   2.448   1.492   5.604
 7777SOL    HW124230   2.352   1.492   5.633
 7777SOL    HW224231   2.465   1.569   5.543
 7778SOL     OW24232   4.938   6.951   6.842
 7778SOL    HW124233   5.030   6.974   6.812
 7778SOL    HW224234   4.899   0.006   6.894
 7779SOL     OW24235   3.795   2.928   0.468
 7779SOL    HW124236   3.743   2.876   0.536
 7779SOL    HW224237   3.880   2.879   0.446
 7780SOL     OW24238   1.993   5.391   4.828
 7780SOL    HW124239   2.019   5.344   4.744
 7780SOL    HW224240   1.910   5.444   4.812
 7781SOL     OW24241   0.831   3.810   6.092
 7781SOL    HW124242   0.792   3.720   6.071
 7781SOL    HW224243   0.919   3.798   6.139
 7782SOL     OW24244   1.888   3.510   5.334
 7782SOL    HW124245   1.826   3.508   5.255
 7782SOL    HW224246   1.913   3.417   5.359
 7783SOL     OW24247   2.965   6.681   6.186
 7783SOL    HW124248   2.877   6.720   6.211
 7783SOL    HW224249   2.957   6.633   6.098
 7784SOL     OW24250   1.908   2.387   0.216
 7784SOL    HW124251   1.835   2.422   0.158
 7784SOL    HW224252   1.903   2.429   0.306
 7785SOL     OW24253   1.725   6.749   3.910
 7785SOL    HW124254   1.681   6.773   3.997
 7785SOL    HW224255   1.822   6.733   3.924
 7786SOL     OW24256   3.344   5.133   5.959
 7786SOL    HW124257   3.279   5.094   6.024
 7786SOL    HW224258   3.432   5.086   5.967
 7787SOL     OW24259   2.172   2.213   5.369
 7787SOL    HW124260   2.106   2.288   5.371
 7787SOL    HW224261   2.203   2.199   5.275
 7788SOL     OW24262   1.420   0.902   1.871
 7788SOL    HW124263   1.353   0.892   1.797
 7788SOL    HW224264   1.493   0.962   1.841
 7789SOL     OW24265   2.719   0.080   0.970
 7789SOL    HW124266   2.729   7.021   0.911
 7789SOL    HW224267   2.780   0.072   1.048
 7790SOL     OW24268   6.615   4.919   2.988
 7790SOL    HW124269   6.522   4.897   3.019
 7790SOL    HW224270   6.663   4.834   2.965
 7791SOL     OW24271   2.591   6.535   3.781
 7791SOL    HW124272   2.586   6.459   3.846
 7791SOL    HW224273   2.646   6.508   3.702
 7792SOL     OW24274   1.117   5.380   5.705
 7792SOL    HW124275   1.018   5.396   5.705
 7792SOL    HW224276   1.158   5.424   5.626
 7793SOL     OW24277   2.220   0.737   6.011
 7793SOL    HW124278   2.149   0.721   6.079
 7793SOL    HW224279   2.187   0.801   5.942
 7794SOL     OW24280   5.157   5.068   4.385
 7794SOL    HW124281   5.093   5.042   4.456
 7794SOL    HW224282   5.234   5.005   4.383
 7795SOL     OW24283   2.286   4.163   5.280
 7795SOL    HW124284   2.357   4.234   5.275
 7795SOL    HW224285   2.310   4.087   5.220
 7796SOL     OW24286   3.559   4.180   3.807
 7796SOL    HW124287   3.653   4.146   3.813
 7796SOL    HW224288   3.557   4.276   3.837
 7797SOL     OW24289   0.640   5.756   2.892
 7797SOL    HW124290   0.626   5.834   2.953
 7797SOL    HW224291   0.682   5.787   2.806
 7798SOL     OW24292   1.659   4.913   6.444
 7798SOL    HW124293   1.625   4.914   6.350
 7798SOL    HW224294   1.753   4.879   6.445
 7799SOL     OW24295   6.534   6.138   1.783
 7799SOL    HW124296   6.466   6.210   1.781
 7799SOL    HW224297   6.617   6.169   1.737
 7800SOL     OW24298   0.883   4.295   1.443
 7800SOL    HW124299   0.824   4.225   1.402
 7800SOL    HW224300   0.863   4.302   1.541
 7801SOL     OW24301   2.685   1.749   1.802
 7801SOL    HW124302   2.742   1.712   1.875
 7801SOL    HW224303   2.676   1.848   1.815
 7802SOL     OW24304   5.900   2.817   1.129
 7802SOL    HW124305   5.803   2.823   1.155
 7802SOL    HW224306   5.948   2.900   1.157
 7803SOL     OW24307   4.298   3.556   5.591
 7803SOL    HW124308   4.343   3.484   5.643
 7803SOL    HW224309   4.313   3.542   5.493
 7804SOL     OW24310   5.980   1.092   4.124
 7804SOL    HW124311   5.906   1.159   4.124
 7804SOL    HW224312   5.986   1.048   4.035
 7805SOL     OW24313   5.132   1.531   1.392
 7805SOL    HW124314   5.197   1.502   1.321
 7805SOL    HW224315   5.156   1.623   1.423
 7806SOL     OW24316   6.240   3.031   5.850
 7806SOL    HW124317   6.149   3.070   5.840
 7806SOL    HW224318   6.277   3.054   5.940
 7807SOL     OW24319   0.251   4.717   6.033
 7807SOL    HW124320   0.194   4.692   5.954
 7807SOL    HW224321   0.248   4.816   6.046
 7808SOL     OW24322   0.196   3.321   4.655
 7808SOL    HW124323   0.118   3.346   4.713
 7808SOL    HW224324   0.280   3.357   4.695
 7809SOL     OW24325   2.443   5.998   4.916
 7809SOL    HW124326   2.355   5.969   4.954
 7809SOL    HW224327   2.444   5.980   4.817
 7810SOL     OW24328   3.560   0.392   5.827
 7810SOL    HW124329   3.552   0.299   5.791
 7810SOL    HW224330   3.641   0.436   5.789
 7811SOL     OW24331   6.864   4.240   4.004
 7811SOL    HW124332   6.767   4.247   4.025
 7811SOL    HW224333   6.903   4.331   3.995
 7812SOL     OW24334   1.121   1.951   3.562
 7812SOL    HW124335   1.030   1.982   3.536
 7812SOL    HW224336   1.187   1.977   3.491
 7813SOL     OW24337   4.641   2.485   6.305
 7813SOL    HW124338   4.563   2.463   6.246
 7813SOL    HW224339   4.689   2.401   6.329
 7814SOL     OW24340   6.738   2.558   3.478
 7814SOL    HW124341   6.667   2.601   3.534
 7814SOL    HW224342   6.815   2.532   3.536
 7815SOL     OW24343   4.917   1.398   6.575
 7815SOL    HW124344   4.908   1.468   6.645
 7815SOL    HW224345   4.993   1.337   6.598
 7816SOL     OW24346   1.963   3.017   6.023
 7816SOL    HW124347   1.940   3.115   6.023
 7816SOL    HW224348   1.968   2.984   6.117
 7817SOL     OW24349   6.361   3.550   3.901
 7817SOL    HW124350   6.433   3.599   3.950
 7817SOL    HW224351   6.377   3.558   3.802
 7818SOL     OW24352   4.572   0.596   2.643
 7818SOL    HW124353   4.493   0.627   2.590
 7818SOL    HW224354   4.650   0.655   2.625
 7819SOL     OW24355   0.173   2.897   1.697
 7819SOL    HW124356   0.100   2.965   1.691
 7819SOL    HW224357   0.238   2.924   1.768
 7820SOL     OW24358   1.883   2.074   4.384
 7820SOL    HW124359   1.925   2.017   4.455
 7820SOL    HW224360   1.941   2.152   4.365
 7821SOL     OW24361   4.667   5.500   1.278
 7821SOL    HW124362   4.742   5.544   1.229
 7821SOL    HW224363   4.600   5.570   1.305
 7822SOL     OW24364   0.231   0.648   5.054
 7822SOL    HW124365   0.152   0.587   5.067
 7822SOL    HW224366   0.204   0.741   5.079
 7823SOL     OW24367   2.164   4.064   4.762
 7823SOL    HW124368   2.231   4.046   4.690
 7823SOL    HW224369   2.212   4.089   4.846
 7824SOL     OW24370   6.480   2.410   5.043
 7824SOL    HW124371   6.573   2.435   5.069
 7824SOL    HW224372   6.460   2.317   5.073
 7825SOL     OW24373   2.484   2.796   0.218
 7825SOL    HW124374   2.419   2.872   0.216
 7825SOL    HW224375   2.484   2.750   0.129
 7826SOL     OW24376   6.462   1.032   0.879
 7826SOL    HW124377   6.477   1.066   0.786
 7826SOL    HW224378   6.440   1.109   0.939
 7827SOL     OW24379   1.287   5.671   1.373
 7827SOL    HW124380   1.241   5.584   1.356
 7827SOL    HW224381   1.386   5.657   1.377
 7828SOL     OW24382   6.321   4.636   0.009
 7828SOL    HW124383   6.343   4.569   6.959
 7828SOL    HW224384   6.313   4.727   6.989
 7829SOL     OW24385   2.913   3.083   1.395
 7829SOL    HW124386   2.896   2.988   1.370
 7829SOL    HW224387   2.917   3.091   1.495
 7830SOL     OW24388   3.362   5.366   5.627
 7830SOL    HW124389   3.408   5.446   5.589
 7830SOL    HW224390   3.376   5.363   5.725
 7831SOL     OW24391   2.214   0.410   2.238
 7831SOL    HW124392   2.199   0.460   2.153
 7831SOL    HW224393   2.126   0.394   2.283
 7832SOL     OW24394   5.906   0.315   4.343
 7832SOL    HW124395   5.818   0.281   4.376
 7832SOL    HW224396   5.964   0.339   4.420
 7833SOL     OW24397   1.629   1.069   4.572
 7833SOL    HW124398   1.614   1.045   4.477
 7833SOL    HW224399   1.709   1.129   4.579
 7834SOL     OW24400   0.224   1.835   3.393
 7834SOL    HW124401   0.203   1.877   3.305
 7834SOL    HW224402   0.189   1.742   3.395
 7835SOL     OW24403   3.904   1.778   4.582
 7835SOL    HW124404   3.883   1.696   4.528
 7835SOL    HW224405   3.830   1.845   4.571
 7836SOL     OW24406   3.270   4.273   5.640
 7836SOL    HW124407   3.226   4.361   5.652
 7836SOL    HW224408   3.369   4.283   5.655
 7837SOL     OW24409   5.167   6.171   0.197
 7837SOL    HW124410   5.130   6.264   0.193
 7837SOL    HW224411   5.252   6.166   0.145
 7838SOL     OW24412   4.535   5.721   1.375
 7838SOL    HW124413   4.605   5.778   1.332
 7838SOL    HW224414   4.482   5.776   1.439
 7839SOL     OW24415   5.677   4.088   4.856
 7839SOL    HW124416   5.647   4.005   4.811
 7839SOL    HW224417   5.680   4.074   4.955
 7840SOL     OW24418   0.625   4.036   4.526
 7840SOL    HW124419   0.541   4.089   4.529
 7840SOL    HW224420   0.704   4.097   4.534
 7841SOL     OW24421   4.528   1.940   6.796
 7841SOL    HW124422   4.622   1.962   6.821
 7841SOL    HW224423   4.468   2.016   6.821
 7842SOL     OW24424   2.195   1.355   2.362
 7842SOL    HW124425   2.239   1.265   2.358
 7842SOL    HW224426   2.234   1.413   2.291
 7843SOL     OW24427   0.226   6.544   4.497
 7843SOL    HW124428   0.322   6.515   4.498
 7843SOL    HW224429   0.210   6.603   4.418
 7844SOL     OW24430   3.837   0.363   2.311
 7844SOL    HW124431   3.787   0.426   2.370
 7844SOL    HW224432   3.823   0.269   2.343
 7845SOL     OW24433   5.393   2.127   1.306
 7845SOL    HW124434   5.334   2.148   1.385
 7845SOL    HW224435   5.336   2.092   1.231
 7846SOL     OW24436   1.322   2.213   0.435
 7846SOL    HW124437   1.252   2.285   0.430
 7846SOL    HW224438   1.409   2.250   0.403
 7847SOL     OW24439   6.143   1.662   3.836
 7847SOL    HW124440   6.184   1.709   3.915
 7847SOL    HW224441   6.090   1.727   3.782
 7848SOL     OW24442   3.009   4.157   0.858
 7848SOL    HW124443   2.985   4.155   0.761
 7848SOL    HW224444   2.959   4.230   0.904
 7849SOL     OW24445   5.864   3.762   5.054
 7849SOL    HW124446   5.903   3.799   4.970
 7849SOL    HW224447   5.890   3.665   5.062
 7850SOL     OW24448   0.117   2.004   4.046
 7850SOL    HW124449   0.209   2.028   4.012
 7850SOL    HW224450   0.062   1.969   3.970
 7851SOL     OW24451   0.633   2.862   1.642
 7851SOL    HW124452   0.575   2.782   1.656
 7851SOL    HW224453   0.726   2.843   1.676
 7852SOL     OW24454   2.715   0.927   0.315
 7852SOL    HW124455   2.777   0.932   0.393
 7852SOL    HW224456   2.743   0.994   0.246
 7853SOL     OW24457   4.571   2.874   1.405
 7853SOL    HW124458   4.534   2.797   1.457
 7853SOL    HW224459   4.655   2.906   1.449
 7854SOL     OW24460   4.017   2.504   6.304
 7854SOL    HW124461   3.956   2.433   6.340
 7854SOL    HW224462   3.977   2.544   6.222
 7855SOL     OW24463   4.716   5.781   4.533
 7855SOL    HW124464   4.786   5.767   4.464
 7855SOL    HW224465   4.629   5.802   4.488
 7856SOL     OW24466   1.096   4.996   5.407
 7856SOL    HW124467   1.068   5.088   5.381
 7856SOL    HW224468   1.112   4.942   5.324
 7857SOL     OW24469   4.879   3.671   0.420
 7857SOL    HW124470   4.859   3.599   0.354
 7857SOL    HW224471   4.866   3.635   0.512
 7858SOL     OW24472   6.747   6.105   4.656
 7858SOL    HW124473   6.773   6.073   4.748
 7858SOL    HW224474   6.670   6.169   4.664
 7859SOL     OW24475   4.689   3.153   6.832
 7859SOL    HW124476   4.699   3.065   6.786
 7859SOL    HW224477   4.698   3.227   6.765
 7860SOL     OW24478   3.902   1.298   4.114
 7860SOL    HW124479   3.828   1.243   4.075
 7860SOL    HW224480   3.892   1.393   4.083
 7861SOL     OW24481   2.839   5.113   2.163
 7861SOL    HW124482   2.789   5.027   2.155
 7861SOL    HW224483   2.883   5.135   2.077
 7862SOL     OW24484   2.686   5.949   1.872
 7862SOL    HW124485   2.738   5.897   1.803
 7862SOL    HW224486   2.588   5.941   1.852
 7863SOL     OW24487   0.486   4.569   3.521
 7863SOL    HW124488   0.445   4.638   3.582
 7863SOL    HW224489   0.439   4.571   3.433
 7864SOL     OW24490   1.463   5.608   6.255
 7864SOL    HW124491   1.450   5.649   6.165
 7864SOL    HW224492   1.559   5.584   6.268
 7865SOL     OW24493   6.490   5.797   4.119
 7865SOL    HW124494   6.576   5.848   4.122
 7865SOL    HW224495   6.493   5.731   4.044
 7866SOL     OW24496   2.235   0.526   5.273
 7866SOL    HW124497   2.207   0.618   5.248
 7866SOL    HW224498   2.234   0.468   5.191
 7867SOL     OW24499   5.805   6.870   3.190
 7867SOL    HW124500   5.706   6.885   3.193
 7867SOL    HW224501   5.829   6.796   3.253
 7868SOL     OW24502   3.525   5.902   0.644
 7868SOL    HW124503   3.563   5.995   0.635
 7868SOL    HW224504   3.586   5.838   0.598
 7869SOL     OW24505   5.163   4.726   5.332
 7869SOL    HW124506   5.132   4.741   5.426
 7869SOL    HW224507   5.127   4.639   5.298
 7870SOL     OW24508   4.747   0.143   4.713
 7870SOL    HW124509   4.839   0.134   4.674
 7870SOL    HW224510   4.754   0.154   4.812
 7871SOL     OW24511   5.689   1.772   1.807
 7871SOL    HW124512   5.732   1.687   1.774
 7871SOL    HW224513   5.697   1.842   1.737
 7872SOL     OW24514   1.732   4.891   2.649
 7872SOL    HW124515   1.812   4.844   2.685
 7872SOL    HW224516   1.761   4.975   2.603
 7873SOL     OW24517   6.244   1.208   0.397
 7873SOL    HW124518   6.332   1.166   0.421
 7873SOL    HW224519   6.256   1.307   0.388
 7874SOL     OW24520   5.265   2.786   1.300
 7874SOL    HW124521   5.321   2.723   1.246
 7874SOL    HW224522   5.319   2.866   1.325
 7875SOL     OW24523   3.972   3.468   0.409
 7875SOL    HW124524   4.054   3.442   0.458
 7875SOL    HW224525   3.903   3.396   0.418
 7876SOL     OW24526   1.164   7.020   3.555
 7876SOL    HW124527   1.075   6.989   3.522
 7876SOL    HW224528   1.176   0.095   3.533
 7877SOL     OW24529   6.723   2.091   2.982
 7877SOL    HW124530   6.728   2.106   2.884
 7877SOL    HW224531   6.708   1.993   3.000
 7878SOL     OW24532   4.667   4.170   3.210
 7878SOL    HW124533   4.675   4.072   3.227
 7878SOL    HW224534   4.636   4.216   3.293
 7879SOL     OW24535   3.229   4.953   2.962
 7879SOL    HW124536   3.283   4.911   2.889
 7879SOL    HW224537   3.176   5.030   2.924
 7880SOL     OW24538   2.344   3.721   1.010
 7880SOL    HW124539   2.291   3.644   0.974
 7880SOL    HW224540   2.359   3.788   0.938
 7881SOL     OW24541   4.966   4.420   4.468
 7881SOL    HW124542   4.878   4.389   4.502
 7881SOL    HW224543   5.008   4.349   4.412
 7882SOL     OW24544   2.696   3.715   1.680
 7882SOL    HW124545   2.732   3.797   1.725
 7882SOL    HW224546   2.597   3.724   1.669
 7883SOL     OW24547   1.089   0.209   5.810
 7883SOL    HW124548   1.049   0.291   5.770
 7883SOL    HW224549   1.102   0.222   5.908
 7884SOL     OW24550   0.663   4.376   4.050
 7884SOL    HW124551   0.592   4.438   4.015
 7884SOL    HW224552   0.680   4.304   3.983
 7885SOL     OW24553   6.262   5.478   0.907
 7885SOL    HW124554   6.302   5.565   0.935
 7885SOL    HW224555   6.329   5.405   0.921
 7886SOL     OW24556   4.036   5.792   0.516
 7886SOL    HW124557   3.997   5.740   0.592
 7886SOL    HW224558   4.106   5.855   0.551
 7887SOL     OW24559   3.374   2.247   0.128
 7887SOL    HW124560   3.321   2.330   0.107
 7887SOL    HW224561   3.343   2.209   0.215
 7888SOL     OW24562   5.046   0.698   3.672
 7888SOL    HW124563   5.142   0.675   3.684
 7888SOL    HW224564   4.990   0.616   3.681
 7889SOL     OW24565   1.548   5.612   1.332
 7889SOL    HW124566   1.600   5.621   1.247
 7889SOL    HW224567   1.599   5.553   1.395
 7890SOL     OW24568   2.089   3.949   2.399
 7890SOL    HW124569   2.178   3.970   2.359
 7890SOL    HW224570   2.019   4.005   2.354
 7891SOL     OW24571   2.395   5.017   2.663
 7891SOL    HW124572   2.455   5.046   2.589
 7891SOL    HW224573   2.300   5.019   2.633
 7892SOL     OW24574   2.264   2.244   4.707
 7892SOL    HW124575   2.340   2.179   4.705
 7892SOL    HW224576   2.189   2.205   4.760
 7893SOL     OW24577   5.972   6.815   1.727
 7893SOL    HW124578   5.978   6.915   1.726
 7893SOL    HW224579   6.043   6.778   1.785
 7894SOL     OW24580   2.424   6.159   2.209
 7894SOL    HW124581   2.456   6.247   2.244
 7894SOL    HW224582   2.328   6.147   2.234
 7895SOL     OW24583   6.381   1.549   5.453
 7895SOL    HW124584   6.385   1.646   5.429
 7895SOL    HW224585   6.285   1.522   5.465
 7896SOL     OW24586   4.587   3.815   5.970
 7896SOL    HW124587   4.556   3.906   5.944
 7896SOL    HW224588   4.674   3.795   5.926
 7897SOL     OW24589   2.644   3.985   6.180
 7897SOL    HW124590   2.716   3.916   6.168
 7897SOL    HW224591   2.555   3.942   6.165
 7898SOL     OW24592   4.697   2.157   3.589
 7898SOL    HW124593   4.647   2.237   3.556
 7898SOL    HW224594   4.738   2.178   3.678
 7899SOL     OW24595   6.811   1.814   1.284
 7899SOL    HW124596   6.845   1.861   1.365
 7899SOL    HW224597   6.854   1.853   1.202
 7900SOL     OW24598   1.198   4.970   1.102
 7900SOL    HW124599   1.289   4.946   1.069
 7900SOL    HW224600   1.129   4.937   1.037
 7901SOL     OW24601   5.429   0.173   5.848
 7901SOL    HW124602   5.486   0.250   5.874
 7901SOL    HW224603   5.378   0.141   5.928
 7902SOL     OW24604   5.157   4.947   1.470
 7902SOL    HW124605   5.111   4.870   1.514
 7902SOL    HW224606   5.112   5.032   1.496
 7903SOL     OW24607   6.014   2.092   0.594
 7903SOL    HW124608   5.934   2.034   0.609
 7903SOL    HW224609   5.992   2.165   0.529
 7904SOL     OW24610   6.458   1.011   2.923
 7904SOL    HW124611   6.436   1.076   2.850
 7904SOL    HW224612   6.536   0.955   2.897
 7905SOL     OW24613   4.820   1.547   0.856
 7905SOL    HW124614   4.827   1.581   0.762
 7905SOL    HW224615   4.766   1.612   0.911
 7906SOL     OW24616   6.582   6.163   6.764
 7906SOL    HW124617   6.538   6.112   6.838
 7906SOL    HW224618   6.663   6.210   6.800
 7907SOL     OW24619   6.136   2.420   4.696
 7907SOL    HW124620   6.121   2.429   4.598
 7907SOL    HW224621   6.234   2.421   4.715
 7908SOL     OW24622   1.467   1.015   3.907
 7908SOL    HW124623   1.502   0.939   3.853
 7908SOL    HW224624   1.542   1.057   3.959
 7909SOL     OW24625   4.886   3.803   4.874
 7909SOL    HW124626   4.860   3.741   4.948
 7909SOL    HW224627   4.890   3.752   4.788
 7910SOL     OW24628   3.719   3.025   5.227
 7910SOL    HW124629   3.780   3.043   5.150
 7910SOL    HW224630   3.660   2.947   5.205
 7911SOL     OW24631   0.265   4.930   0.519
 7911SOL    HW124632   0.331   4.887   0.581
 7911SOL    HW224633   0.173   4.922   0.558
 7912SOL     OW24634   6.853   5.540   6.746
 7912SOL    HW124635   6.927   5.473   6.736
 7912SOL    HW224636   6.783   5.502   6.807
 7913SOL     OW24637   0.586   5.509   6.534
 7913SOL    HW124638   0.513   5.534   6.470
 7913SOL    HW224639   0.551   5.443   6.600
 7914SOL     OW24640   6.915   5.234   6.942
 7914SOL    HW124641   6.825   5.278   6.952
 7914SOL    HW224642   6.902   5.137   6.921
 7915SOL     OW24643   5.037   2.566   2.626
 7915SOL    HW124644   4.994   2.653   2.651
 7915SOL    HW224645   4.998   2.533   2.540
 7916SOL     OW24646   5.472   3.873   5.392
 7916SOL    HW124647   5.521   3.943   5.444
 7916SOL    HW224648   5.524   3.852   5.309
 7917SOL     OW24649   3.729   2.952   3.723
 7917SOL    HW124650   3.722   2.993   3.814
 7917SOL    HW224651   3.677   2.866   3.721
 7918SOL     OW24652   6.003   1.519   1.447
 7918SOL    HW124653   5.905   1.529   1.432
 7918SOL    HW224654   6.031   1.574   1.525
 7919SOL     OW24655   6.837   4.240   3.361
 7919SOL    HW124656   6.777   4.235   3.441
 7919SOL    HW224657   6.863   4.335   3.345
 7920SOL     OW24658   6.751   5.035   1.116
 7920SOL    HW124659   6.763   5.126   1.155
 7920SOL    HW224660   6.662   5.029   1.071
 7921SOL     OW24661   3.312   6.277   1.170
 7921SOL    HW124662   3.253   6.352   1.198
 7921SOL    HW224663   3.256   6.198   1.145
 7922SOL     OW24664   6.723   5.855   6.986
 7922SOL    HW124665   6.731   5.785   6.915
 7922SOL    HW224666   6.629   5.888   6.989
 7923SOL     OW24667   1.737   1.082   3.090
 7923SOL    HW124668   1.656   1.025   3.103
 7923SOL    HW224669   1.817   1.023   3.077
 7924SOL     OW24670   3.499   6.375   3.417
 7924SOL    HW124671   3.584   6.326   3.400
 7924SOL    HW224672   3.507   6.428   3.501
 7925SOL     OW24673   0.012   1.830   6.577
 7925SOL    HW124674   6.942   1.843   6.615
 7925SOL    HW224675   0.040   1.735   6.588
 7926SOL     OW24676   3.471   0.668   3.754
 7926SOL    HW124677   3.400   0.608   3.790
 7926SOL    HW224678   3.547   0.671   3.819
 7927SOL     OW24679   3.803   5.551   4.481
 7927SOL    HW124680   3.812   5.454   4.459
 7927SOL    HW224681   3.892   5.595   4.472
 7928SOL     OW24682   1.228   4.129   3.578
 7928SOL    HW124683   1.203   4.056   3.642
 7928SOL    HW224684   1.246   4.213   3.629
 7929SOL     OW24685   4.091   3.690   4.781
 7929SOL    HW124686   4.126   3.597   4.766
 7929SOL    HW224687   4.125   3.724   4.869
 7930SOL     OW24688   5.170   5.856   3.523
 7930SOL    HW124689   5.076   5.823   3.526
 7930SOL    HW224690   5.189   5.896   3.433
 7931SOL     OW24691   1.912   2.374   6.926
 7931SOL    HW124692   1.897   2.276   6.929
 7931SOL    HW224693   1.959   2.404   7.009
 7932SOL     OW24694   2.540   0.236   6.968
 7932SOL    HW124695   2.599   0.216   0.024
 7932SOL    HW224696   2.578   0.313   6.917
 7933SOL     OW24697   0.560   6.775   7.001
 7933SOL    HW124698   0.657   6.758   6.984
 7933SOL    HW224699   0.549   6.819   0.068
 7934SOL     OW24700   2.468   3.496   0.136
 7934SOL    HW124701   2.503   3.583   0.102
 7934SOL    HW224702   2.417   3.511   0.221
 7935SOL     OW24703   5.112   5.707   6.838
 7935SOL    HW124704   5.040   5.693   6.906
 7935SOL    HW224705   5.121   5.805   6.818
 7936SOL     OW24706   3.302   5.834   3.201
 7936SOL    HW124707   3.318   5.840   3.299
 7936SOL    HW224708   3.352   5.756   3.163
 7937SOL     OW24709   5.019   0.134   4.571
 7937SOL    HW124710   5.006   0.211   4.510
 7937SOL    HW224711   5.088   0.072   4.534
 7938SOL     OW24712   4.980   4.742   5.047
 7938SOL    HW124713   4.906   4.683   5.079
 7938SOL    HW224714   5.045   4.757   5.122
 7939SOL     OW24715   0.796   1.547   6.044
 7939SOL    HW124716   0.847   1.553   5.959
 7939SOL    HW224717   0.698   1.543   6.024
 7940SOL     OW24718   2.669   5.160   1.879
 7940SOL    HW124719   2.708   5.074   1.912
 7940SOL    HW224720   2.578   5.172   1.918
 7941SOL     OW24721   6.849   0.081   0.966
 7941SOL    HW124722   6.753   0.060   0.987
 7941SOL    HW224723   6.869   0.174   0.995
 7942SOL     OW24724   0.155   6.514   2.593
 7942SOL    HW124725   0.204   6.555   2.671
 7942SOL    HW224726   0.221   6.489   2.522
 7943SOL     OW24727   6.034   2.211   1.257
 7943SOL    HW124728   6.106   2.146   1.233
 7943SOL    HW224729   5.975   2.225   1.177
 7944SOL     OW24730   0.188   3.427   1.069
 7944SOL    HW124731   0.156   3.521   1.068
 7944SOL    HW224732   0.140   3.374   0.999
 7945SOL     OW24733   5.279   0.176   2.916
 7945SOL    HW124734   5.276   0.251   2.982
 7945SOL    HW224735   5.194   0.175   2.863
 7946SOL     OW24736   1.610   2.089   6.022
 7946SOL    HW124737   1.596   2.179   5.980
 7946SOL    HW224738   1.658   2.101   6.109
 7947SOL     OW24739   3.877   2.963   6.734
 7947SOL    HW124740   3.968   2.963   6.777
 7947SOL    HW224741   3.875   2.895   6.661
 7948SOL     OW24742   6.763   6.502   0.990
 7948SOL    HW124743   6.836   6.555   1.033
 7948SOL    HW224744   6.784   6.488   0.894
 7949SOL     OW24745   5.331   4.865   4.254
 7949SOL    HW124746   5.324   4.789   4.319
 7949SOL    HW224747   5.291   4.838   4.166
 7950SOL     OW24748   4.551   4.911   3.657
 7950SOL    HW124749   4.577   4.815   3.669
 7950SOL    HW224750   4.452   4.918   3.647
 7951SOL     OW24751   2.973   3.443   1.111
 7951SOL    HW124752   2.885   3.403   1.138
 7951SOL    HW224753   2.959   3.504   1.033
 7952SOL     OW24754   0.011   3.159   6.935
 7952SOL    HW124755   0.035   3.249   6.899
 7952SOL    HW224756   6.937   3.139   6.913
 7953SOL     OW24757   2.263   2.602   3.267
 7953SOL    HW124758   2.169   2.569   3.262
 7953SOL    HW224759   2.319   2.552   3.201
 7954SOL     OW24760   4.528   5.194   4.512
 7954SOL    HW124761   4.509   5.181   4.414
 7954SOL    HW224762   4.627   5.194   4.526
 7955SOL     OW24763   0.086   6.724   6.476
 7955SOL    HW124764   0.109   6.801   6.536
 7955SOL    HW224765   0.152   6.650   6.491
 7956SOL     OW24766   0.658   6.004   3.078
 7956SOL    HW124767   0.570   6.036   3.114
 7956SOL    HW224768   0.705   6.080   3.034
 7957SOL     OW24769   1.802   1.956   0.634
 7957SOL    HW124770   1.886   1.903   0.619
 7957SOL    HW224771   1.723   1.899   0.613
 7958SOL     OW24772   3.417   5.735   4.635
 7958SOL    HW124773   3.362   5.814   4.608
 7958SOL    HW224774   3.472   5.705   4.557
 7959SOL     OW24775   4.496   5.142   0.416
 7959SOL    HW124776   4.494   5.080   0.338
 7959SOL    HW224777   4.530   5.231   0.386
 7960SOL     OW24778   3.380   1.904   1.537
 7960SOL    HW124779   3.430   1.990   1.525
 7960SOL    HW224780   3.419   1.834   1.477
 7961SOL     OW24781   2.226   6.132   6.523
 7961SOL    HW124782   2.324   6.152   6.533
 7961SOL    HW224783   2.187   6.188   6.450
 7962SOL     OW24784   2.072   0.468   1.239
 7962SOL    HW124785   2.004   0.503   1.175
 7962SOL    HW224786   2.097   0.374   1.212
 7963SOL     OW24787   0.057   1.616   4.858
 7963SOL    HW124788   6.994   1.563   4.859
 7963SOL    HW224789   0.107   1.597   4.773
 7964SOL     OW24790   5.673   5.215   3.878
 7964SOL    HW124791   5.709   5.124   3.900
 7964SOL    HW224792   5.680   5.273   3.959
 7965SOL     OW24793   4.261   2.820   7.010
 7965SOL    HW124794   4.329   2.878   0.032
 7965SOL    HW224795   4.201   2.876   6.952
 7966SOL     OW24796   0.874   3.686   4.754
 7966SOL    HW124797   0.955   3.731   4.794
 7966SOL    HW224798   0.843   3.613   4.815
 7967SOL     OW24799   2.821   6.428   3.598
 7967SOL    HW124800   2.909   6.390   3.571
 7967SOL    HW224801   2.771   6.362   3.654
 7968SOL     OW24802   2.245   2.663   3.546
 7968SOL    HW124803   2.227   2.675   3.448
 7968SOL    HW224804   2.332   2.615   3.559
 7969SOL     OW24805   3.805   6.813   2.223
 7969SOL    HW124806   3.762   6.889   2.176
 7969SOL    HW224807   3.752   6.729   2.207
 7970SOL     OW24808   0.030   3.700   2.723
 7970SOL    HW124809   6.961   3.693   2.684
 7970SOL    HW224810   0.069   3.790   2.701
 7971SOL     OW24811   3.187   1.216   1.843
 7971SOL    HW124812   3.236   1.225   1.929
 7971SOL    HW224813   3.091   1.243   1.856
 7972SOL     OW24814   6.763   4.362   1.144
 7972SOL    HW124815   6.860   4.372   1.168
 7972SOL    HW224816   6.706   4.393   1.221
 7973SOL     OW24817   5.161   3.490   3.792
 7973SOL    HW124818   5.142   3.579   3.749
 7973SOL    HW224819   5.158   3.418   3.722
 7974SOL     OW24820   6.053   0.376   4.558
 7974SOL    HW124821   6.026   0.458   4.607
 7974SOL    HW224822   6.151   0.363   4.566
 7975SOL     OW24823   5.165   0.556   4.095
 7975SOL    HW124824   5.176   0.650   4.065
 7975SOL    HW224825   5.130   0.500   4.020
 7976SOL     OW24826   0.754   6.371   5.345
 7976SOL    HW124827   0.674   6.327   5.305
 7976SOL    HW224828   0.746   6.371   5.445
 7977SOL     OW24829   4.261   5.877   2.430
 7977SOL    HW124830   4.332   5.852   2.495
 7977SOL    HW224831   4.290   5.958   2.378
 7978SOL     OW24832   5.482   4.131   6.210
 7978SOL    HW124833   5.573   4.091   6.216
 7978SOL    HW224834   5.455   4.138   6.114
 7979SOL     OW24835   3.209   0.094   4.923
 7979SOL    HW124836   3.182   0.059   5.013
 7979SOL    HW224837   3.264   0.177   4.935
 7980SOL     OW24838   4.018   5.418   0.471
 7980SOL    HW124839   3.924   5.411   0.504
 7980SOL    HW224840   4.077   5.448   0.546
 7981SOL     OW24841   0.904   5.279   1.366
 7981SOL    HW124842   0.978   5.214   1.380
 7981SOL    HW224843   0.923   5.363   1.416
 7982SOL     OW24844   0.161   2.473   0.865
 7982SOL    HW124845   0.231   2.412   0.827
 7982SOL    HW224846   0.180   2.567   0.838
 7983SOL     OW24847   5.242   1.955   3.431
 7983SOL    HW124848   5.184   1.903   3.493
 7983SOL    HW224849   5.323   1.901   3.409
 7984SOL     OW24850   1.103   1.779   2.134
 7984SOL    HW124851   1.149   1.862   2.164
 7984SOL    HW224852   1.013   1.773   2.176
 7985SOL     OW24853   1.420   0.412   2.589
 7985SOL    HW124854   1.489   0.390   2.520
 7985SOL    HW224855   1.401   0.510   2.587
 7986SOL     OW24856   3.525   1.350   6.999
 7986SOL    HW124857   3.553   1.263   6.957
 7986SOL    HW224858   3.584   1.423   6.965
 7987SOL     OW24859   0.282   3.623   5.977
 7987SOL    HW124860   0.373   3.639   6.015
 7987SOL    HW224861   0.231   3.563   6.039
 7988SOL     OW24862   2.640   2.263   4.455
 7988SOL    HW124863   2.670   2.318   4.378
 7988SOL    HW224864   2.543   2.241   4.444
 7989SOL     OW24865   3.549   2.819   5.214
 7989SOL    HW124866   3.606   2.758   5.268
 7989SOL    HW224867   3.453   2.797   5.229
 7990SOL     OW24868   1.248   3.970   3.089
 7990SOL    HW124869   1.256   3.958   3.188
 7990SOL    HW224870   1.219   4.064   3.069
 7991SOL     OW24871   6.903   2.610   5.939
 7991SOL    HW124872   6.926   2.513   5.946
 7991SOL    HW224873   6.904   2.638   5.843
 7992SOL     OW24874   1.067   5.801   1.134
 7992SOL    HW124875   1.107   5.724   1.085
 7992SOL    HW224876   1.004   5.767   1.204
 7993SOL     OW24877   2.174   5.623   6.536
 7993SOL    HW124878   2.203   5.651   6.627
 7993SOL    HW224879   2.255   5.599   6.481
 7994SOL     OW24880   4.695   0.512   3.801
 7994SOL    HW124881   4.773   0.503   3.739
 7994SOL    HW224882   4.689   0.431   3.859
 7995SOL     OW24883   3.412   5.245   3.733
 7995SOL    HW124884   3.440   5.149   3.744
 7995SOL    HW224885   3.349   5.252   3.656
 7996SOL     OW24886   3.436   6.454   4.307
 7996SOL    HW124887   3.459   6.498   4.220
 7996SOL    HW224888   3.465   6.512   4.382
 7997SOL     OW24889   6.387   1.732   1.261
 7997SOL    HW124890   6.459   1.704   1.324
 7997SOL    HW224891   6.427   1.759   1.174
 7998SOL     OW24892   4.434   4.950   0.188
 7998SOL    HW124893   4.378   5.021   0.145
 7998SOL    HW224894   4.512   4.929   0.129
 7999SOL     OW24895   1.202   7.006   5.691
 7999SOL    HW124896   1.158   0.055   5.747
 7999SOL    HW224897   1.213   6.923   5.744
 8000SOL     OW24898   5.594   0.462   6.283
 8000SOL    HW124899   5.597   0.373   6.329
 8000SOL    HW224900   5.578   0.534   6.350
 8001SOL     OW24901   2.964   6.138   1.838
 8001SOL    HW124902   2.939   6.064   1.899
 8001SOL    HW224903   3.006   6.213   1.890
 8002SOL     OW24904   0.080   3.387   6.007
 8002SOL    HW124905   0.047   3.479   5.984
 8002SOL    HW224906   0.003   3.324   6.013
 8003SOL     OW24907   2.670   4.684   2.678
 8003SOL    HW124908   2.749   4.745   2.679
 8003SOL    HW224909   2.670   4.631   2.593
 8004SOL     OW24910   1.703   4.686   3.474
 8004SOL    HW124911   1.732   4.596   3.441
 8004SOL    HW224912   1.624   4.717   3.421
 8005SOL     OW24913   3.724   1.301   2.191
 8005SOL    HW124914   3.672   1.219   2.165
 8005SOL    HW224915   3.726   1.310   2.290
 8006SOL     OW24916   2.383   5.863   0.663
 8006SOL    HW124917   2.330   5.937   0.705
 8006SOL    HW224918   2.477   5.892   0.649
 8007SOL     OW24919   0.819   0.651   4.090
 8007SOL    HW124920   0.723   0.640   4.063
 8007SOL    HW224921   0.864   0.562   4.086
 8008SOL     OW24922   5.288   6.653   6.161
 8008SOL    HW124923   5.276   6.615   6.253
 8008SOL    HW224924   5.206   6.633   6.106
 8009SOL     OW24925   6.529   0.441   2.698
 8009SOL    HW124926   6.506   0.380   2.622
 8009SOL    HW224927   6.471   0.522   2.695
 8010SOL     OW24928   1.916   1.418   0.225
 8010SOL    HW124929   1.918   1.388   0.130
 8010SOL    HW224930   1.954   1.510   0.233
 8011SOL     OW24931   1.881   2.360   1.550
 8011SOL    HW124932   1.970   2.345   1.592
 8011SOL    HW224933   1.842   2.446   1.584
 8012SOL     OW24934   1.643   6.221   1.182
 8012SOL    HW124935   1.706   6.293   1.157
 8012SOL    HW224936   1.549   6.250   1.162
 8013SOL     OW24937   0.018   5.203   4.524
 8013SOL    HW124938   6.948   5.173   4.552
 8013SOL    HW224939   0.011   5.259   4.442
 8014SOL     OW24940   1.333   6.248   5.918
 8014SOL    HW124941   1.309   6.170   5.975
 8014SOL    HW224942   1.261   6.262   5.849
 8015SOL     OW24943   2.791   2.094   0.541
 8015SOL    HW124944   2.754   2.004   0.560
 8015SOL    HW224945   2.742   2.163   0.594
 8016SOL     OW24946   4.607   0.013   0.129
 8016SOL    HW124947   4.632   7.000   0.219
 8016SOL    HW224948   4.691   0.034   0.077
 8017SOL     OW24949   0.294   4.506   5.716
 8017SOL    HW124950   0.323   4.480   5.808
 8017SOL    HW224951   0.336   4.593   5.691
 8018SOL     OW24952   4.833   1.994   5.813
 8018SOL    HW124953   4.811   2.054   5.736
 8018SOL    HW224954   4.812   2.040   5.899
 8019SOL     OW24955   1.939   3.843   7.012
 8019SOL    HW124956   1.879   3.905   0.040
 8019SOL    HW224957   2.028   3.886   6.997
 8020SOL     OW24958   5.572   6.373   6.807
 8020SOL    HW124959   5.512   6.374   6.727
 8020SOL    HW224960   5.658   6.327   6.783
 8021SOL     OW24961   0.669   1.242   1.784
 8021SOL    HW124962   0.607   1.212   1.856
 8021SOL    HW224963   0.742   1.298   1.823
 8022SOL     OW24964   4.009   1.311   2.732
 8022SOL    HW124965   3.934   1.345   2.789
 8022SOL    HW224966   4.088   1.372   2.739
 8023SOL     OW24967   6.221   6.169   3.055
 8023SOL    HW124968   6.204   6.249   3.113
 8023SOL    HW224969   6.185   6.187   2.963
 8024SOL     OW24970   3.332   5.454   6.657
 8024SOL    HW124971   3.379   5.504   6.730
 8024SOL    HW224972   3.365   5.487   6.568
 8025SOL     OW24973   3.587   6.054   5.756
 8025SOL    HW124974   3.610   5.978   5.818
 8025SOL    HW224975   3.657   6.125   5.764
 8026SOL     OW24976   0.277   3.926   0.132
 8026SOL    HW124977   0.221   3.844   0.147
 8026SOL    HW224978   0.232   4.005   0.172
 8027SOL     OW24979   4.494   2.162   5.312
 8027SOL    HW124980   4.473   2.091   5.244
 8027SOL    HW224981   4.580   2.207   5.288
 8028SOL     OW24982   3.758   4.838   5.541
 8028SOL    HW124983   3.702   4.760   5.512
 8028SOL    HW224984   3.855   4.816   5.529
 8029SOL     OW24985   5.319   3.905   6.351
 8029SOL    HW124986   5.353   3.961   6.276
 8029SOL    HW224987   5.360   3.814   6.346
 8030SOL     OW24988   5.683   4.188   5.933
 8030SOL    HW124989   5.587   4.162   5.927
 8030SOL    HW224990   5.703   4.256   5.862
 8031SOL     OW24991   4.940   5.647   2.436
 8031SOL    HW124992   5.036   5.666   2.417
 8031SOL    HW224993   4.931   5.553   2.468
 8032SOL     OW24994   6.016   4.077   5.040
 8032SOL    HW124995   6.089   4.013   5.015
 8032SOL    HW224996   5.964   4.102   4.958
 8033SOL     OW24997   5.495   2.915   0.100
 8033SOL    HW124998   5.415   2.900   0.043
 8033SOL    HW224999   5.578   2.894   0.048
 8034SOL     OW25000   6.425   0.981   5.182
 8034SOL    HW125001   6.459   1.072   5.161
 8034SOL    HW225002   6.437   0.963   5.280
 8035SOL     OW25003   5.475   0.086   5.082
 8035SOL    HW125004   5.481   0.044   5.173
 8035SOL    HW225005   5.459   0.184   5.091
 8036SOL     OW25006   1.133   3.835   1.558
 8036SOL    HW125007   1.199   3.788   1.501
 8036SOL    HW225008   1.132   3.932   1.536
 8037SOL     OW25009   1.650   3.392   1.513
 8037SOL    HW125010   1.630   3.299   1.545
 8037SOL    HW225011   1.608   3.459   1.574
 8038SOL     OW25012   5.376   1.951   3.030
 8038SOL    HW125013   5.293   1.896   3.042
 8038SOL    HW225014   5.352   2.037   2.984
 8039SOL     OW25015   2.033   6.930   3.632
 8039SOL    HW125016   2.032   7.014   3.579
 8039SOL    HW225017   2.053   6.951   3.728
 8040SOL     OW25018   0.496   5.268   0.953
 8040SOL    HW125019   0.580   5.216   0.972
 8040SOL    HW225020   0.432   5.256   1.029
 8041SOL     OW25021   3.801   1.767   1.419
 8041SOL    HW125022   3.828   1.684   1.371
 8041SOL    HW225023   3.796   1.843   1.354
 8042SOL     OW25024   3.375   2.720   1.855
 8042SOL    HW125025   3.357   2.790   1.786
 8042SOL    HW225026   3.450   2.749   1.914
 8043SOL     OW25027   2.878   0.178   0.564
 8043SOL    HW125028   2.975   0.152   0.568
 8043SOL    HW225029   2.869   0.262   0.510
 8044SOL     OW25030   3.176   3.061   1.261
 8044SOL    HW125031   3.096   3.085   1.316
 8044SOL    HW225032   3.186   2.961   1.259
 8045SOL     OW25033   5.600   1.102   2.029
 8045SOL    HW125034   5.555   1.018   2.059
 8045SOL    HW225035   5.694   1.082   2.001
 8046SOL     OW25036   6.165   4.824   5.794
 8046SOL    HW125037   6.117   4.872   5.721
 8046SOL    HW225038   6.108   4.749   5.828
 8047SOL     OW25039   3.267   5.045   4.844
 8047SOL    HW125040   3.241   5.039   4.940
 8047SOL    HW225041   3.185   5.051   4.787
 8048SOL     OW25042   5.287   1.327   5.373
 8048SOL    HW125043   5.239   1.411   5.399
 8048SOL    HW225044   5.264   1.254   5.437
 8049SOL     OW25045   0.662   6.471   1.641
 8049SOL    HW125046   0.620   6.447   1.554
 8049SOL    HW225047   0.595   6.459   1.715
 8050SOL     OW25048   0.846   3.897   1.553
 8050SOL    HW125049   0.802   3.891   1.464
 8050SOL    HW225050   0.938   3.858   1.548
 8051SOL     OW25051   5.218   0.048   3.489
 8051SOL    HW125052   5.253   0.015   3.577
 8051SOL    HW225053   5.134   7.020   3.466
 8052SOL     OW25054   3.377   1.519   2.412
 8052SOL    HW125055   3.306   1.547   2.477
 8052SOL    HW225056   3.364   1.567   2.326
 8053SOL     OW25057   4.015   3.828   2.722
 8053SOL    HW125058   4.026   3.754   2.656
 8053SOL    HW225059   4.104   3.866   2.745
 8054SOL     OW25060   4.520   6.632   4.572
 8054SOL    HW125061   4.493   6.725   4.596
 8054SOL    HW225062   4.512   6.573   4.653
 8055SOL     OW25063   0.740   0.482   5.962
 8055SOL    HW125064   0.703   0.453   5.874
 8055SOL    HW225065   0.814   0.420   5.989
 8056SOL     OW25066   4.370   1.307   3.244
 8056SOL    HW125067   4.448   1.245   3.252
 8056SOL    HW225068   4.314   1.279   3.166
 8057SOL     OW25069   2.974   0.419   2.575
 8057SOL    HW125070   2.961   0.349   2.646
 8057SOL    HW225071   2.889   0.469   2.562
 8058SOL     OW25072   3.185   6.611   2.757
 8058SOL    HW125073   3.262   6.635   2.816
 8058SOL    HW225074   3.141   6.529   2.792
 8059SOL     OW25075   3.829   2.105   4.760
 8059SOL    HW125076   3.925   2.077   4.758
 8059SOL    HW225077   3.820   2.194   4.716
 8060SOL     OW25078   1.006   1.316   4.778
 8060SOL    HW125079   0.919   1.341   4.735
 8060SOL    HW225080   1.070   1.392   4.771
 8061SOL     OW25081   6.805   5.819   2.003
 8061SOL    HW125082   6.894   5.774   2.005
 8061SOL    HW225083   6.786   5.860   2.092
 8062SOL     OW25084   2.155   4.441   4.176
 8062SOL    HW125085   2.182   4.398   4.262
 8062SOL    HW225086   2.065   4.482   4.185
 8063SOL     OW25087   2.273   3.763   6.984
 8063SOL    HW125088   2.241   3.858   6.989
 8063SOL    HW225089   2.347   3.757   6.917
 8064SOL     OW25090   0.536   4.509   0.242
 8064SOL    HW125091   0.581   4.433   0.194
 8064SOL    HW225092   0.474   4.555   0.179
 8065SOL     OW25093   4.334   6.994   4.254
 8065SOL    HW125094   4.400   0.039   4.287
 8065SOL    HW225095   4.315   7.011   4.157
 8066SOL     OW25096   1.672   0.766   6.829
 8066SOL    HW125097   1.762   0.794   6.864
 8066SOL    HW225098   1.632   0.841   6.776
 8067SOL     OW25099   4.092   3.275   1.693
 8067SOL    HW125100   4.009   3.327   1.669
 8067SOL    HW225101   4.115   3.214   1.617
 8068SOL     OW25102   5.997   6.432   5.145
 8068SOL    HW125103   6.062   6.488   5.093
 8068SOL    HW225104   5.978   6.475   5.233
 8069SOL     OW25105   2.871   5.961   1.482
 8069SOL    HW125106   2.863   6.050   1.527
 8069SOL    HW225107   2.962   5.952   1.442
 8070SOL     OW25108   2.841   5.251   1.260
 8070SOL    HW125109   2.918   5.258   1.197
 8070SOL    HW225110   2.852   5.318   1.333
 8071SOL     OW25111   4.324   6.729   4.807
 8071SOL    HW125112   4.367   6.671   4.876
 8071SOL    HW225113   4.382   6.808   4.788
 8072SOL     OW25114   3.773   1.540   0.459
 8072SOL    HW125115   3.740   1.450   0.428
 8072SOL    HW225116   3.705   1.581   0.519
 8073SOL     OW25117   4.951   0.415   6.704
 8073SOL    HW125118   4.938   0.376   6.613
 8073SOL    HW225119   4.886   0.373   6.768
 8074SOL     OW25120   3.118   3.075   0.344
 8074SOL    HW125121   3.023   3.055   0.365
 8074SOL    HW225122   3.175   3.051   0.423
 8075SOL     OW25123   6.666   1.382   1.412
 8075SOL    HW125124   6.708   1.457   1.361
 8075SOL    HW225125   6.669   1.298   1.357
 8076SOL     OW25126   5.212   2.403   5.595
 8076SOL    HW125127   5.143   2.430   5.662
 8076SOL    HW225128   5.168   2.386   5.507
 8077SOL     OW25129   0.340   6.559   1.493
 8077SOL    HW125130   0.394   6.476   1.474
 8077SOL    HW225131   0.390   6.616   1.558
 8078SOL     OW25132   6.183   1.947   0.396
 8078SOL    HW125133   6.112   2.007   0.433
 8078SOL    HW225134   6.210   1.880   0.465
 8079SOL     OW25135   6.095   2.042   3.081
 8079SOL    HW125136   6.168   2.065   3.017
 8079SOL    HW225137   6.066   2.125   3.130
 8080SOL     OW25138   2.185   3.588   0.576
 8080SOL    HW125139   2.152   3.682   0.570
 8080SOL    HW225140   2.108   3.527   0.595
 8081SOL     OW25141   5.559   0.931   5.318
 8081SOL    HW125142   5.599   0.871   5.387
 8081SOL    HW225143   5.590   0.902   5.227
 8082SOL     OW25144   5.726   2.301   3.090
 8082SOL    HW125145   5.654   2.243   3.129
 8082SOL    HW225146   5.740   2.276   2.994
 8083SOL     OW25147   4.908   3.376   2.005
 8083SOL    HW125148   4.921   3.357   2.102
 8083SOL    HW225149   4.920   3.292   1.952
 8084SOL     OW25150   6.306   6.197   1.196
 8084SOL    HW125151   6.277   6.260   1.268
 8084SOL    HW225152   6.400   6.217   1.170
 8085SOL     OW25153   5.784   6.985   1.438
 8085SOL    HW125154   5.856   6.976   1.507
 8085SOL    HW225155   5.753   0.058   1.434
 8086SOL     OW25156   3.753   0.034   4.051
 8086SOL    HW125157   3.686   0.080   3.993
 8086SOL    HW225158   3.782   6.970   4.007
 8087SOL     OW25159   2.722   2.106   0.978
 8087SOL    HW125160   2.768   2.044   1.041
 8087SOL    HW225161   2.636   2.138   1.020
 8088SOL     OW25162   6.313   1.603   1.520
 8088SOL    HW125163   6.369   1.671   1.473
 8088SOL    HW225164   6.365   1.518   1.530
 8089SOL     OW25165   5.510   2.309   6.560
 8089SOL    HW125166   5.440   2.380   6.571
 8089SOL    HW225167   5.546   2.283   6.650
 8090SOL     OW25168   4.884   2.042   6.636
 8090SOL    HW125169   4.878   1.942   6.636
 8090SOL    HW225170   4.797   2.081   6.607
 8091SOL     OW25171   3.521   4.309   0.026
 8091SOL    HW125172   3.479   4.270   6.965
 8091SOL    HW225173   3.601   4.254   0.051
 8092SOL     OW25174   1.595   1.370   4.705
 8092SOL    HW125175   1.620   1.403   4.796
 8092SOL    HW225176   1.629   1.276   4.694
 8093SOL     OW25177   6.301   5.934   1.439
 8093SOL    HW125178   6.293   6.031   1.419
 8093SOL    HW225179   6.363   5.921   1.517
 8094SOL     OW25180   2.163   4.287   5.982
 8094SOL    HW125181   2.083   4.282   5.922
 8094SOL    HW225182   2.133   4.276   6.077
 8095SOL     OW25183   6.182   3.797   3.968
 8095SOL    HW125184   6.234   3.805   4.053
 8095SOL    HW225185   6.188   3.703   3.934
 8096SOL     OW25186   2.588   5.644   3.337
 8096SOL    HW125187   2.616   5.573   3.401
 8096SOL    HW225188   2.625   5.732   3.367
 8097SOL     OW25189   4.834   0.155   3.453
 8097SOL    HW125190   4.853   0.247   3.418
 8097SOL    HW225191   4.782   0.162   3.538
 8098SOL     OW25192   2.083   6.275   4.256
 8098SOL    HW125193   2.160   6.280   4.192
 8098SOL    HW225194   2.014   6.342   4.230
 8099SOL     OW25195   6.535   0.807   4.066
 8099SOL    HW125196   6.538   0.782   3.969
 8099SOL    HW225197   6.572   0.899   4.078
 8100SOL     OW25198   0.562   6.463   0.212
 8100SOL    HW125199   0.572   6.417   0.124
 8100SOL    HW225200   0.653   6.488   0.247
 8101SOL     OW25201   1.734   6.979   4.795
 8101SOL    HW125202   1.651   6.967   4.849
 8101SOL    HW225203   1.794   0.024   4.839
 8102SOL     OW25204   0.827   5.438   6.344
 8102SOL    HW125205   0.823   5.533   6.311
 8102SOL    HW225206   0.761   5.426   6.418
 8103SOL     OW25207   3.895   0.809   1.682
 8103SOL    HW125208   3.971   0.860   1.721
 8103SOL    HW225209   3.920   0.712   1.674
 8104SOL     OW25210   4.115   0.068   5.953
 8104SOL    HW125211   4.043   0.072   5.884
 8104SOL    HW225212   4.096   0.135   6.025
 8105SOL     OW25213   2.663   2.301   3.632
 8105SOL    HW125214   2.745   2.266   3.677
 8105SOL    HW225215   2.673   2.293   3.533
 8106SOL     OW25216   1.344   5.141   3.711
 8106SOL    HW125217   1.263   5.096   3.750
 8106SOL    HW225218   1.368   5.095   3.625
 8107SOL     OW25219   2.243   6.403   5.810
 8107SOL    HW125220   2.215   6.342   5.735
 8107SOL    HW225221   2.330   6.446   5.787
 8108SOL     OW25222   6.787   2.952   4.589
 8108SOL    HW125223   6.735   3.026   4.632
 8108SOL    HW225224   6.726   2.895   4.535
 8109SOL     OW25225   2.014   4.335   4.922
 8109SOL    HW125226   2.108   4.370   4.927
 8109SOL    HW225227   1.995   4.278   5.002
 8110SOL     OW25228   2.901   6.699   0.543
 8110SOL    HW125229   2.811   6.658   0.523
 8110SOL    HW225230   2.972   6.631   0.529
 8111SOL     OW25231   2.955   6.412   5.222
 8111SOL    HW125232   3.029   6.474   5.195
 8111SOL    HW225233   2.993   6.324   5.248
 8112SOL     OW25234   2.756   0.815   5.609
 8112SOL    HW125235   2.674   0.841   5.660
 8112SOL    HW225236   2.752   0.717   5.588
 8113SOL     OW25237   2.897   2.639   0.437
 8113SOL    HW125238   2.973   2.686   0.481
 8113SOL    HW225239   2.820   2.702   0.426
 8114SOL     OW25240   2.267   2.816   2.156
 8114SOL    HW125241   2.249   2.794   2.252
 8114SOL    HW225242   2.260   2.915   2.143
 8115SOL     OW25243   3.876   1.088   1.458
 8115SOL    HW125244   3.822   1.170   1.442
 8115SOL    HW225245   3.891   1.076   1.556
 8116SOL     OW25246   5.610   0.300   5.273
 8116SOL    HW125247   5.666   0.382   5.276
 8116SOL    HW225248   5.668   0.219   5.281
 8117SOL     OW25249   1.818   1.799   3.917
 8117SOL    HW125250   1.798   1.872   3.853
 8117SOL    HW225251   1.834   1.838   4.008
 8118SOL     OW25252   0.790   3.889   5.717
 8118SOL    HW125253   0.875   3.924   5.758
 8118SOL    HW225254   0.712   3.926   5.767
 8119SOL     OW25255   0.295   5.666   4.181
 8119SOL    HW125256   0.234   5.588   4.168
 8119SOL    HW225257   0.387   5.642   4.148
 8120SOL     OW25258   4.116   4.351   0.221
 8120SOL    HW125259   4.085   4.314   0.134
 8120SOL    HW225260   4.212   4.378   0.213
 8121SOL     OW25261   0.376   6.554   3.184
 8121SOL    HW125262   0.344   6.636   3.135
 8121SOL    HW225263   0.394   6.578   3.279
 8122SOL     OW25264   0.883   4.667   2.046
 8122SOL    HW125265   0.788   4.672   2.014
 8122SOL    HW225266   0.945   4.671   1.968
 8123SOL     OW25267   0.839   0.347   6.292
 8123SOL    HW125268   0.876   0.323   6.203
 8123SOL    HW225269   0.912   0.347   6.360
 8124SOL     OW25270   1.390   6.280   1.074
 8124SOL    HW125271   1.326   6.211   1.039
 8124SOL    HW225272   1.449   6.311   1.000
 8125SOL     OW25273   5.834   4.840   3.135
 8125SOL    HW125274   5.737   4.852   3.158
 8125SOL    HW225275   5.843   4.766   3.069
 8126SOL     OW25276   6.233   4.892   2.720
 8126SOL    HW125277   6.311   4.843   2.759
 8126SOL    HW225278   6.240   4.989   2.744
 8127SOL     OW25279   2.404   5.000   0.507
 8127SOL    HW125280   2.430   5.094   0.487
 8127SOL    HW225281   2.317   4.979   0.463
 8128SOL     OW25282   3.106   2.556   6.583
 8128SOL    HW125283   3.127   2.558   6.680
 8128SOL    HW225284   3.007   2.566   6.570
 8129SOL     OW25285   5.408   0.892   6.399
 8129SOL    HW125286   5.355   0.866   6.479
 8129SOL    HW225287   5.444   0.984   6.410
 8130SOL     OW25288   1.146   5.687   5.948
 8130SOL    HW125289   1.207   5.684   5.868
 8130SOL    HW225290   1.167   5.611   6.008
 8131SOL     OW25291   3.250   1.070   0.346
 8131SOL    HW125292   3.274   1.166   0.333
 8131SOL    HW225293   3.332   1.013   0.335
 8132SOL     OW25294   5.626   5.586   5.370
 8132SOL    HW125295   5.693   5.576   5.444
 8132SOL    HW225296   5.546   5.636   5.404
 8133SOL     OW25297   3.399   4.877   3.321
 8133SOL    HW125298   3.429   4.898   3.414
 8133SOL    HW225299   3.479   4.860   3.264
 8134SOL     OW25300   1.841   1.886   4.189
 8134SOL    HW125301   1.834   1.958   4.258
 8134SOL    HW225302   1.863   1.799   4.234
 8135SOL     OW25303   3.126   4.901   2.332
 8135SOL    HW125304   3.076   4.840   2.270
 8135SOL    HW225305   3.093   4.994   2.319
 8136SOL     OW25306   4.130   5.208   2.419
 8136SOL    HW125307   4.092   5.188   2.329
 8136SOL    HW225308   4.228   5.227   2.412
 8137SOL     OW25309   1.746   2.929   4.432
 8137SOL    HW125310   1.769   2.878   4.515
 8137SOL    HW225311   1.808   2.903   4.358
 8138SOL     OW25312   5.878   1.809   2.012
 8138SOL    HW125313   5.828   1.799   1.927
 8138SOL    HW225314   5.819   1.783   2.089
 8139SOL     OW25315   0.903   3.227   3.712
 8139SOL    HW125316   1.000   3.231   3.687
 8139SOL    HW225317   0.866   3.320   3.716
 8140SOL     OW25318   4.209   6.981   6.538
 8140SOL    HW125319   4.191   7.010   6.444
 8140SOL    HW225320   4.307   6.970   6.551
 8141SOL     OW25321   4.968   0.959   5.608
 8141SOL    HW125322   4.894   1.012   5.566
 8141SOL    HW225323   4.976   0.984   5.705
 8142SOL     OW25324   2.539   5.187   0.175
 8142SOL    HW125325   2.515   5.210   0.081
 8142SOL    HW225326   2.539   5.270   0.230
 8143SOL     OW25327   5.649   4.769   1.311
 8143SOL    HW125328   5.615   4.829   1.384
 8143SOL    HW225329   5.642   4.816   1.223
 8144SOL     OW25330   0.227   5.871   5.538
 8144SOL    HW125331   0.172   5.788   5.536
 8144SOL    HW225332   0.317   5.852   5.496
 8145SOL     OW25333   4.944   5.717   0.198
 8145SOL    HW125334   4.891   5.737   0.280
 8145SOL    HW225335   4.971   5.803   0.154
 8146SOL     OW25336   6.298   0.406   4.813
 8146SOL    HW125337   6.316   0.352   4.731
 8146SOL    HW225338   6.231   0.478   4.791
 8147SOL     OW25339   0.354   0.856   6.872
 8147SOL    HW125340   0.302   0.876   6.789
 8147SOL    HW225341   0.438   0.808   6.848
 8148SOL     OW25342   4.441   3.931   7.014
 8148SOL    HW125343   4.508   3.858   0.003
 8148SOL    HW225344   4.462   4.006   0.054
 8149SOL     OW25345   1.538   6.695   4.464
 8149SOL    HW125346   1.454   6.726   4.421
 8149SOL    HW225347   1.522   6.680   4.562
 8150SOL     OW25348   1.096   3.482   1.105
 8150SOL    HW125349   1.016   3.426   1.083
 8150SOL    HW225350   1.129   3.459   1.197
 8151SOL     OW25351   6.080   5.302   3.716
 8151SOL    HW125352   6.121   5.290   3.626
 8151SOL    HW225353   5.983   5.281   3.713
 8152SOL     OW25354   4.527   1.870   2.968
 8152SOL    HW125355   4.515   1.855   2.870
 8152SOL    HW225356   4.536   1.781   3.014
 8153SOL     OW25357   1.019   0.425   3.305
 8153SOL    HW125358   1.110   0.384   3.306
 8153SOL    HW225359   0.990   0.438   3.211
 8154SOL     OW25360   3.134   1.792   3.325
 8154SOL    HW125361   3.169   1.781   3.232
 8154SOL    HW225362   3.199   1.754   3.390
 8155SOL     OW25363   1.694   4.325   2.189
 8155SOL    HW125364   1.722   4.418   2.167
 8155SOL    HW225365   1.695   4.270   2.105
 8156SOL     OW25366   5.718   5.738   1.148
 8156SOL    HW125367   5.754   5.647   1.169
 8156SOL    HW225368   5.732   5.758   1.051
 8157SOL     OW25369   6.064   3.485   5.858
 8157SOL    HW125370   6.008   3.568   5.860
 8157SOL    HW225371   6.016   3.413   5.808
 8158SOL     OW25372   5.339   4.967   5.986
 8158SOL    HW125373   5.311   5.001   5.896
 8158SOL    HW225374   5.430   4.927   5.979
 8159SOL     OW25375   3.971   6.697   5.766
 8159SOL    HW125376   4.036   6.721   5.838
 8159SOL    HW225377   3.907   6.773   5.753
 8160SOL     OW25378   4.832   1.396   3.493
 8160SOL    HW125379   4.777   1.473   3.461
 8160SOL    HW225380   4.877   1.420   3.579
 8161SOL     OW25381   5.392   3.253   0.352
 8161SOL    HW125382   5.378   3.321   0.281
 8161SOL    HW225383   5.414   3.299   0.438
 8162SOL     OW25384   0.301   5.041   6.754
 8162SOL    HW125385   0.207   5.006   6.746
 8162SOL    HW225386   0.361   4.990   6.692
 8163SOL     OW25387   4.080   5.037   5.586
 8163SOL    HW125388   4.007   5.040   5.655
 8163SOL    HW225389   4.090   4.944   5.552
 8164SOL     OW25390   4.371   1.105   0.052
 8164SOL    HW125391   4.278   1.103   0.089
 8164SOL    HW225392   4.436   1.116   0.126
 8165SOL     OW25393   6.468   3.390   6.793
 8165SOL    HW125394   6.447   3.449   6.715
 8165SOL    HW225395   6.507   3.444   6.867
 8166SOL     OW25396   2.048   2.003   3.792
 8166SOL    HW125397   2.064   1.946   3.712
 8166SOL    HW225398   1.952   2.031   3.795
 8167SOL     OW25399   6.708   1.596   3.905
 8167SOL    HW125400   6.619   1.603   3.860
 8167SOL    HW225401   6.756   1.516   3.869
 8168SOL     OW25402   2.188   0.419   1.468
 8168SOL    HW125403   2.244   0.337   1.478
 8168SOL    HW225404   2.161   0.429   1.372
 8169SOL     OW25405   4.251   1.817   0.545
 8169SOL    HW125406   4.304   1.783   0.623
 8169SOL    HW225407   4.154   1.802   0.561
 8170SOL     OW25408   7.008   3.883   2.253
 8170SOL    HW125409   6.997   3.893   2.352
 8170SOL    HW225410   7.003   3.786   2.230
 8171SOL     OW25411   1.863   0.725   0.117
 8171SOL    HW125412   1.774   0.698   0.081
 8171SOL    HW225413   1.907   0.789   0.053
 8172SOL     OW25414   0.310   1.873   2.062
 8172SOL    HW125415   0.396   1.865   2.113
 8172SOL    HW225416   0.329   1.904   1.969
 8173SOL     OW25417   6.291   1.896   2.607
 8173SOL    HW125418   6.202   1.882   2.648
 8173SOL    HW225419   6.280   1.926   2.512
 8174SOL     OW25420   1.506   6.307   2.412
 8174SOL    HW125421   1.464   6.329   2.324
 8174SOL    HW225422   1.542   6.390   2.453
 8175SOL     OW25423   0.717   2.545   3.995
 8175SOL    HW125424   0.707   2.505   4.086
 8175SOL    HW225425   0.646   2.614   3.981
 8176SOL     OW25426   1.825   4.363   1.492
 8176SOL    HW125427   1.886   4.344   1.416
 8176SOL    HW225428   1.877   4.398   1.569
 8177SOL     OW25429   3.667   0.758   2.855
 8177SOL    HW125430   3.613   0.838   2.882
 8177SOL    HW225431   3.764   0.775   2.875
 8178SOL     OW25432   3.093   6.239   0.689
 8178SOL    HW125433   3.136   6.324   0.721
 8178SOL    HW225434   3.162   6.181   0.645
 8179SOL     OW25435   5.968   0.744   4.005
 8179SOL    HW125436   5.995   0.839   3.988
 8179SOL    HW225437   5.931   0.704   3.920
 8180SOL     OW25438   5.854   0.064   6.702
 8180SOL    HW125439   5.850   0.130   6.776
 8180SOL    HW225440   5.902   7.004   6.733
 8181SOL     OW25441   0.801   0.686   1.364
 8181SOL    HW125442   0.821   0.588   1.368
 8181SOL    HW225443   0.732   0.709   1.433
 8182SOL     OW25444   3.746   3.466   4.523
 8182SOL    HW125445   3.758   3.496   4.617
 8182SOL    HW225446   3.653   3.486   4.493
 8183SOL     OW25447   6.812   1.163   5.020
 8183SOL    HW125448   6.739   1.230   5.009
 8183SOL    HW225449   6.857   1.148   4.932
 8184SOL     OW25450   1.065   6.873   0.254
 8184SOL    HW125451   1.005   6.933   0.201
 8184SOL    HW225452   1.158   6.909   0.251
 8185SOL     OW25453   1.754   0.671   1.094
 8185SOL    HW125454   1.757   0.681   1.194
 8185SOL    HW225455   1.685   0.733   1.057
 8186SOL     OW25456   1.775   4.545   6.372
 8186SOL    HW125457   1.677   4.560   6.385
 8186SOL    HW225458   1.812   4.493   6.450
 8187SOL     OW25459   2.243   1.817   5.251
 8187SOL    HW125460   2.163   1.810   5.192
 8187SOL    HW225461   2.312   1.875   5.207
 8188SOL     OW25462   4.096   1.924   3.621
 8188SOL    HW125463   4.156   1.959   3.549
 8188SOL    HW225464   4.075   1.997   3.686
 8189SOL     OW25465   5.361   4.920   3.464
 8189SOL    HW125466   5.391   4.997   3.407
 8189SOL    HW225467   5.348   4.952   3.558
 8190SOL     OW25468   5.121   3.788   3.285
 8190SOL    HW125469   5.166   3.736   3.358
 8190SOL    HW225470   5.144   3.747   3.196
 8191SOL     OW25471   4.418   5.049   2.204
 8191SOL    HW125472   4.399   5.063   2.107
 8191SOL    HW225473   4.516   5.061   2.220
 8192SOL     OW25474   1.778   5.369   2.336
 8192SOL    HW125475   1.791   5.315   2.253
 8192SOL    HW225476   1.725   5.451   2.314
 8193SOL     OW25477   6.844   5.690   4.672
 8193SOL    HW125478   6.922   5.655   4.725
 8193SOL    HW225479   6.869   5.776   4.629
 8194SOL     OW25480   4.281   0.201   0.504
 8194SOL    HW125481   4.348   0.241   0.441
 8194SOL    HW225482   4.319   0.200   0.596
 8195SOL     OW25483   5.988   6.735   4.266
 8195SOL    HW125484   5.899   6.738   4.313
 8195SOL    HW225485   5.992   6.808   4.199
 8196SOL     OW25486   4.533   0.661   6.719
 8196SOL    HW125487   4.452   0.616   6.682
 8196SOL    HW225488   4.544   0.751   6.677
 8197SOL     OW25489   4.537   1.618   1.593
 8197SOL    HW125490   4.509   1.522   1.590
 8197SOL    HW225491   4.458   1.676   1.575
 8198SOL     OW25492   2.679   0.440   2.018
 8198SOL    HW125493   2.673   0.388   2.103
 8198SOL    HW225494   2.603   0.505   2.013
 8199SOL     OW25495   4.551   3.071   5.991
 8199SOL    HW125496   4.582   3.163   6.012
 8199SOL    HW225497   4.522   3.025   6.075
 8200SOL     OW25498   5.892   4.225   2.096
 8200SOL    HW125499   5.840   4.161   2.038
 8200SOL    HW225500   5.956   4.277   2.039
 8201SOL     OW25501   0.169   1.375   5.293
 8201SOL    HW125502   0.104   1.340   5.226
 8201SOL    HW225503   0.254   1.322   5.288
 8202SOL     OW25504   0.086   6.235   2.621
 8202SOL    HW125505   0.051   6.285   2.541
 8202SOL    HW225506   0.127   6.299   2.685
 8203SOL     OW25507   1.843   2.111   0.264
 8203SOL    HW125508   1.744   2.096   0.264
 8203SOL    HW225509   1.862   2.205   0.236
 8204SOL     OW25510   4.243   3.655   0.769
 8204SOL    HW125511   4.302   3.640   0.849
 8204SOL    HW225512   4.288   3.718   0.706
 8205SOL     OW25513   0.469   2.860   6.714
 8205SOL    HW125514   0.465   2.954   6.747
 8205SOL    HW225515   0.551   2.815   6.749
 8206SOL     OW25516   4.882   1.226   0.238
 8206SOL    HW125517   4.970   1.272   0.232
 8206SOL    HW225518   4.893   1.129   0.218
 8207SOL     OW25519   3.012   3.910   4.212
 8207SOL    HW125520   3.016   3.907   4.112
 8207SOL    HW225521   3.087   3.966   4.246
 8208SOL     OW25522   0.992   1.155   0.809
 8208SOL    HW125523   0.928   1.191   0.740
 8208SOL    HW225524   0.942   1.136   0.894
 8209SOL     OW25525   0.387   1.224   5.218
 8209SOL    HW125526   0.384   1.128   5.246
 8209SOL    HW225527   0.470   1.266   5.252
 8210SOL     OW25528   2.000   2.348   0.505
 8210SOL    HW125529   2.005   2.268   0.565
 8210SOL    HW225530   2.069   2.414   0.532
 8211SOL     OW25531   3.470   4.005   1.402
 8211SOL    HW125532   3.446   4.097   1.433
 8211SOL    HW225533   3.565   3.986   1.425
 8212SOL     OW25534   1.483   2.231   2.927
 8212SOL    HW125535   1.438   2.186   2.849
 8212SOL    HW225536   1.458   2.328   2.928
 8213SOL     OW25537   6.668   4.406   1.888
 8213SOL    HW125538   6.695   4.500   1.912
 8213SOL    HW225539   6.731   4.341   1.931
 8214SOL     OW25540   5.772   4.781   3.474
 8214SOL    HW125541   5.816   4.758   3.561
 8214SOL    HW225542   5.840   4.822   3.412
 8215SOL     OW25543   3.246   6.067   5.507
 8215SOL    HW125544   3.283   6.156   5.533
 8215SOL    HW225545   3.164   6.080   5.451
 8216SOL     OW25546   5.455   6.044   4.511
 8216SOL    HW125547   5.355   6.043   4.508
 8216SOL    HW225548   5.491   6.102   4.439
 8217SOL     OW25549   2.091   4.916   6.980
 8217SOL    HW125550   2.004   4.911   6.931
 8217SOL    HW225551   2.162   4.870   6.926
 8218SOL     OW25552   0.943   1.693   6.709
 8218SOL    HW125553   0.961   1.598   6.683
 8218SOL    HW225554   0.885   1.695   6.790
 8219SOL     OW25555   4.791   1.627   0.581
 8219SOL    HW125556   4.851   1.683   0.524
 8219SOL    HW225557   4.709   1.603   0.529
 8220SOL     OW25558   3.185   3.395   2.903
 8220SOL    HW125559   3.238   3.375   2.986
 8220SOL    HW225560   3.208   3.487   2.871
 8221SOL     OW25561   4.821   6.054   4.349
 8221SOL    HW125562   4.737   6.095   4.384
 8221SOL    HW225563   4.898   6.078   4.409
 8222SOL     OW25564   5.410   1.893   2.260
 8222SOL    HW125565   5.350   1.842   2.322
 8222SOL    HW225566   5.376   1.987   2.250
 8223SOL     OW25567   1.583   3.773   5.704
 8223SOL    HW125568   1.544   3.682   5.687
 8223SOL    HW225569   1.680   3.764   5.725
 8224SOL     OW25570   0.734   2.577   2.689
 8224SOL    HW125571   0.818   2.622   2.658
 8224SOL    HW225572   0.748   2.540   2.781
 8225SOL     OW25573   3.636   0.990   0.479
 8225SOL    HW125574   3.715   0.929   0.480
 8225SOL    HW225575   3.665   1.083   0.499
 8226SOL     OW25576   4.998   0.514   2.492
 8226SOL    HW125577   4.922   0.537   2.553
 8226SOL    HW225578   5.075   0.479   2.546
 8227SOL     OW25579   0.283   2.718   3.655
 8227SOL    HW125580   0.376   2.709   3.620
 8227SOL    HW225581   0.276   2.800   3.711
 8228SOL     OW25582   0.572   2.693   6.292
 8228SOL    HW125583   0.496   2.755   6.309
 8228SOL    HW225584   0.605   2.705   6.198
 8229SOL     OW25585   3.844   4.232   0.383
 8229SOL    HW125586   3.856   4.193   0.475
 8229SOL    HW225587   3.775   4.181   0.334
 8230SOL     OW25588   5.840   0.137   5.653
 8230SOL    HW125589   5.872   0.088   5.572
 8230SOL    HW225590   5.756   0.095   5.687
 8231SOL     OW25591   3.873   5.498   1.410
 8231SOL    HW125592   3.940   5.522   1.480
 8231SOL    HW225593   3.782   5.494   1.452
 8232SOL     OW25594   5.494   1.081   0.791
 8232SOL    HW125595   5.427   1.103   0.861
 8232SOL    HW225596   5.577   1.134   0.806
 8233SOL     OW25597   0.911   5.822   5.976
 8233SOL    HW125598   0.935   5.898   6.036
 8233SOL    HW225599   0.988   5.759   5.970
 8234SOL     OW25600   2.874   3.389   6.982
 8234SOL    HW125601   2.879   3.482   7.017
 8234SOL    HW225602   2.780   3.356   6.988
 8235SOL     OW25603   2.137   3.263   0.764
 8235SOL    HW125604   2.154   3.224   0.855
 8235SOL    HW225605   2.047   3.306   0.762
 8236SOL     OW25606   6.452   3.462   0.211
 8236SOL    HW125607   6.362   3.429   0.238
 8236SOL    HW225608   6.518   3.387   0.215
 8237SOL     OW25609   4.906   6.495   4.842
 8237SOL    HW125610   4.926   6.561   4.914
 8237SOL    HW225611   4.951   6.522   4.757
 8238SOL     OW25612   1.367   4.366   0.150
 8238SOL    HW125613   1.457   4.401   0.122
 8238SOL    HW225614   1.370   4.266   0.155
 8239SOL     OW25615   6.527   1.381   5.622
 8239SOL    HW125616   6.622   1.372   5.590
 8239SOL    HW225617   6.478   1.443   5.561
 8240SOL     OW25618   3.538   3.694   2.833
 8240SOL    HW125619   3.479   3.764   2.793
 8240SOL    HW225620   3.561   3.719   2.927
 8241SOL     OW25621   3.643   6.614   0.237
 8241SOL    HW125622   3.651   6.663   0.150
 8241SOL    HW225623   3.635   6.516   0.220
 8242SOL     OW25624   1.349   4.176   6.033
 8242SOL    HW125625   1.281   4.113   6.069
 8242SOL    HW225626   1.412   4.127   5.974
 8243SOL     OW25627   0.785   2.957   6.610
 8243SOL    HW125628   0.762   2.974   6.705
 8243SOL    HW225629   0.874   2.997   6.589
 8244SOL     OW25630   0.441   0.028   3.084
 8244SOL    HW125631   0.406   7.006   3.166
 8244SOL    HW225632   0.419   6.994   3.004
 8245SOL     OW25633   3.411   0.938   2.614
 8245SOL    HW125634   3.491   0.958   2.557
 8245SOL    HW225635   3.362   0.860   2.576
 8246SOL     OW25636   6.724   3.617   5.559
 8246SOL    HW125637   6.718   3.522   5.530
 8246SOL    HW225638   6.776   3.623   5.645
 8247SOL     OW25639   0.981   0.172   2.023
 8247SOL    HW125640   1.063   0.217   1.988
 8247SOL    HW225641   0.901   0.202   1.971
 8248SOL     OW25642   5.528   4.893   3.155
 8248SOL    HW125643   5.434   4.903   3.124
 8248SOL    HW225644   5.533   4.913   3.253
 8249SOL     OW25645   2.230   3.444   5.113
 8249SOL    HW125646   2.256   3.419   5.206
 8249SOL    HW225647   2.284   3.523   5.083
 8250SOL     OW25648   3.169   4.118   2.389
 8250SOL    HW125649   3.146   4.118   2.486
 8250SOL    HW225650   3.212   4.205   2.365
 8251SOL     OW25651   5.973   2.785   4.464
 8251SOL    HW125652   6.012   2.701   4.427
 8251SOL    HW225653   5.979   2.858   4.395
 8252SOL     OW25654   3.270   3.133   6.987
 8252SOL    HW125655   3.266   3.197   0.041
 8252SOL    HW225656   3.334   3.059   7.009
 8253SOL     OW25657   4.100   3.803   5.042
 8253SOL    HW125658   4.011   3.758   5.043
 8253SOL    HW225659   4.090   3.898   5.010
 8254SOL     OW25660   4.329   4.681   4.588
 8254SOL    HW125661   4.387   4.751   4.630
 8254SOL    HW225662   4.383   4.625   4.525
 8255SOL     OW25663   3.072   6.051   5.172
 8255SOL    HW125664   3.150   6.113   5.178
 8255SOL    HW225665   3.100   5.968   5.123
 8256SOL     OW25666   6.402   0.870   2.018
 8256SOL    HW125667   6.337   0.939   2.051
 8256SOL    HW225668   6.436   0.897   1.928
 8257SOL     OW25669   6.640   3.810   3.380
 8257SOL    HW125670   6.549   3.838   3.411
 8257SOL    HW225671   6.709   3.858   3.434
 8258SOL     OW25672   5.403   0.926   0.575
 8258SOL    HW125673   5.461   0.973   0.642
 8258SOL    HW225674   5.419   0.964   0.484
 8259SOL     OW25675   4.163   1.653   3.692
 8259SOL    HW125676   4.250   1.644   3.740
 8259SOL    HW225677   4.149   1.749   3.668
 8260SOL     OW25678   2.847   0.566   1.858
 8260SOL    HW125679   2.794   0.525   1.932
 8260SOL    HW225680   2.936   0.597   1.894
 8261SOL     OW25681   6.421   1.308   1.515
 8261SOL    HW125682   6.511   1.331   1.478
 8261SOL    HW225683   6.429   1.286   1.612
 8262SOL     OW25684   0.971   2.967   1.053
 8262SOL    HW125685   0.885   2.999   1.012
 8262SOL    HW225686   1.046   3.026   1.023
 8263SOL     OW25687   0.566   2.216   0.482
 8263SOL    HW125688   0.504   2.277   0.432
 8263SOL    HW225689   0.659   2.230   0.449
 8264SOL     OW25690   1.822   6.302   2.118
 8264SOL    HW125691   1.805   6.382   2.174
 8264SOL    HW225692   1.919   6.300   2.091
 8265SOL     OW25693   0.968   6.800   1.307
 8265SOL    HW125694   0.937   6.781   1.400
 8265SOL    HW225695   0.893   6.840   1.254
 8266SOL     OW25696   2.020   0.718   3.321
 8266SOL    HW125697   2.102   0.663   3.336
 8266SOL    HW225698   1.961   0.711   3.402
 8267SOL     OW25699   1.718   2.846   0.942
 8267SOL    HW125700   1.751   2.941   0.942
 8267SOL    HW225701   1.688   2.821   1.034
 8268SOL     OW25702   2.505   6.518   6.055
 8268SOL    HW125703   2.574   6.550   5.990
 8268SOL    HW225704   2.445   6.593   6.080
 8269SOL     OW25705   5.753   1.694   1.457
 8269SOL    HW125706   5.719   1.715   1.365
 8269SOL    HW225707   5.774   1.780   1.505
 8270SOL     OW25708   2.670   6.576   5.019
 8270SOL    HW125709   2.586   6.536   5.055
 8270SOL    HW225710   2.735   6.503   4.997
 8271SOL     OW25711   0.145   1.232   2.687
 8271SOL    HW125712   0.203   1.312   2.698
 8271SOL    HW225713   0.171   1.182   2.604
 8272SOL     OW25714   4.971   1.345   1.289
 8272SOL    HW125715   5.032   1.419   1.318
 8272SOL    HW225716   4.876   1.370   1.308
 8273SOL     OW25717   2.165   5.946   0.952
 8273SOL    HW125718   2.191   5.858   0.910
 8273SOL    HW225719   2.093   5.930   1.019
 8274SOL     OW25720   4.817   4.746   3.133
 8274SOL    HW125721   4.837   4.785   3.222
 8274SOL    HW225722   4.887   4.774   3.068
 8275SOL     OW25723   4.434   1.534   5.892
 8275SOL    HW125724   4.404   1.487   5.809
 8275SOL    HW225725   4.496   1.475   5.944
 8276SOL     OW25726   1.453   2.283   3.703
 8276SOL    HW125727   1.480   2.195   3.743
 8276SOL    HW225728   1.489   2.357   3.759
 8277SOL     OW25729   6.960   1.139   0.089
 8277SOL    HW125730   7.020   1.192   0.029
 8277SOL    HW225731   6.865   1.161   0.069
 8278SOL     OW25732   2.469   1.663   5.873
 8278SOL    HW125733   2.447   1.742   5.930
 8278SOL    HW225734   2.504   1.589   5.931
 8279SOL     OW25735   1.670   0.557   4.468
 8279SOL    HW125736   1.634   0.549   4.561
 8279SOL    HW225737   1.609   0.614   4.413
 8280SOL     OW25738   2.278   2.981   0.320
 8280SOL    HW125739   2.248   3.049   0.387
 8280SOL    HW225740   2.240   2.891   0.344
 8281SOL     OW25741   1.814   4.967   1.265
 8281SOL    HW125742   1.838   4.954   1.169
 8281SOL    HW225743   1.748   4.896   1.292
 8282SOL     OW25744   5.302   3.723   6.988
 8282SOL    HW125745   5.252   3.638   7.008
 8282SOL    HW225746   5.310   3.777   0.050
 8283SOL     OW25747   1.592   4.512   6.623
 8283SOL    HW125748   1.536   4.595   6.625
 8283SOL    HW225749   1.573   4.461   6.539
 8284SOL     OW25750   0.718   3.721   0.626
 8284SOL    HW125751   0.713   3.707   0.527
 8284SOL    HW225752   0.793   3.667   0.664
 8285SOL     OW25753   3.445   2.852   4.916
 8285SOL    HW125754   3.379   2.840   4.991
 8285SOL    HW225755   3.533   2.814   4.944
 8286SOL     OW25756   5.409   3.319   6.616
 8286SOL    HW125757   5.411   3.240   6.678
 8286SOL    HW225758   5.366   3.396   6.663
 8287SOL     OW25759   2.094   5.406   4.521
 8287SOL    HW125760   2.084   5.312   4.491
 8287SOL    HW225761   2.004   5.448   4.530
 8288SOL     OW25762   3.048   1.699   1.755
 8288SOL    HW125763   3.010   1.791   1.763
 8288SOL    HW225764   3.004   1.652   1.679
 8289SOL     OW25765   0.529   5.932   1.704
 8289SOL    HW125766   0.555   5.835   1.701
 8289SOL    HW225767   0.543   5.972   1.613
 8290SOL     OW25768   5.937   0.748   0.943
 8290SOL    HW125769   5.838   0.734   0.942
 8290SOL    HW225770   5.978   0.707   0.862
 8291SOL     OW25771   4.558   5.943   6.071
 8291SOL    HW125772   4.501   5.875   6.024
 8291SOL    HW225773   4.504   5.988   6.142
 8292SOL     OW25774   2.681   6.457   6.958
 8292SOL    HW125775   2.707   6.367   6.993
 8292SOL    HW225776   2.582   6.462   6.948
 8293SOL     OW25777   3.496   6.860   0.038
 8293SOL    HW125778   3.408   6.812   0.040
 8293SOL    HW225779   3.570   6.794   0.033
 8294SOL     OW25780   5.942   4.809   4.709
 8294SOL    HW125781   5.920   4.847   4.619
 8294SOL    HW225782   5.899   4.719   4.718
 8295SOL     OW25783   5.339   5.498   1.743
 8295SOL    HW125784   5.274   5.428   1.771
 8295SOL    HW225785   5.426   5.455   1.719
 8296SOL     OW25786   2.641   6.478   6.562
 8296SOL    HW125787   2.676   6.561   6.605
 8296SOL    HW225788   2.606   6.500   6.470
 8297SOL     OW25789   6.815   2.482   2.548
 8297SOL    HW125790   6.903   2.523   2.525
 8297SOL    HW225791   6.797   2.491   2.646
 8298SOL     OW25792   5.968   2.449   1.428
 8298SOL    HW125793   5.982   2.366   1.374
 8298SOL    HW225794   6.021   2.523   1.389
 8299SOL     OW25795   0.180   2.402   1.894
 8299SOL    HW125796   0.093   2.442   1.867
 8299SOL    HW225797   0.233   2.380   1.812
 8300SOL     OW25798   0.768   6.000   5.328
 8300SOL    HW125799   0.814   5.912   5.331
 8300SOL    HW225800   0.689   5.994   5.267
 8301SOL     OW25801   4.295   1.739   1.558
 8301SOL    HW125802   4.265   1.802   1.486
 8301SOL    HW225803   4.215   1.695   1.598
 8302SOL     OW25804   5.283   6.094   5.892
 8302SOL    HW125805   5.365   6.037   5.878
 8302SOL    HW225806   5.239   6.067   5.977
 8303SOL     OW25807   6.804   1.124   4.133
 8303SOL    HW125808   6.738   1.102   4.061
 8303SOL    HW225809   6.756   1.169   4.209
 8304SOL     OW25810   1.508   3.058   0.383
 8304SOL    HW125811   1.472   3.100   0.300
 8304SOL    HW225812   1.540   3.130   0.446
 8305SOL     OW25813   3.790   4.870   4.309
 8305SOL    HW125814   3.864   4.904   4.250
 8305SOL    HW225815   3.830   4.826   4.390
 8306SOL     OW25816   0.200   3.098   5.376
 8306SOL    HW125817   0.119   3.061   5.330
 8306SOL    HW225818   0.280   3.042   5.353
 8307SOL     OW25819   4.404   5.019   1.616
 8307SOL    HW125820   4.461   4.952   1.569
 8307SOL    HW225821   4.441   5.111   1.600
 8308SOL     OW25822   4.402   5.846   1.560
 8308SOL    HW125823   4.332   5.917   1.564
 8308SOL    HW225824   4.457   5.849   1.643
 8309SOL     OW25825   6.464   5.403   3.327
 8309SOL    HW125826   6.425   5.422   3.417
 8309SOL    HW225827   6.560   5.432   3.325
 8310SOL     OW25828   1.136   4.170   0.572
 8310SOL    HW125829   1.101   4.111   0.499
 8310SOL    HW225830   1.234   4.155   0.581
 8311SOL     OW25831   0.633   1.255   4.871
 8311SOL    HW125832   0.685   1.207   4.800
 8311SOL    HW225833   0.630   1.353   4.849
 8312SOL     OW25834   4.368   5.949   1.026
 8312SOL    HW125835   4.460   5.986   1.040
 8312SOL    HW225836   4.329   5.921   1.114
 8313SOL     OW25837   4.988   1.263   2.376
 8313SOL    HW125838   4.889   1.266   2.367
 8313SOL    HW225839   5.012   1.250   2.472
 8314SOL     OW25840   4.765   6.895   1.107
 8314SOL    HW125841   4.727   6.818   1.157
 8314SOL    HW225842   4.861   6.875   1.083
 8315SOL     OW25843   4.101   3.347   1.108
 8315SOL    HW125844   4.182   3.306   1.149
 8315SOL    HW225845   4.105   3.447   1.118
 8316SOL     OW25846   0.938   2.040   1.766
 8316SOL    HW125847   0.850   2.052   1.811
 8316SOL    HW225848   0.951   2.111   1.697
 8317SOL     OW25849   2.433   2.583   2.290
 8317SOL    HW125850   2.417   2.679   2.311
 8317SOL    HW225851   2.389   2.561   2.203
 8318SOL     OW25852   3.932   1.113   4.461
 8318SOL    HW125853   3.874   1.062   4.397
 8318SOL    HW225854   3.883   1.194   4.493
 8319SOL     OW25855   2.863   1.809   6.165
 8319SOL    HW125856   2.902   1.719   6.146
 8319SOL    HW225857   2.878   1.869   6.087
 8320SOL     OW25858   3.536   3.638   1.363
 8320SOL    HW125859   3.630   3.669   1.352
 8320SOL    HW225860   3.485   3.705   1.418
 8321SOL     OW25861   0.492   1.226   0.204
 8321SOL    HW125862   0.422   1.157   0.225
 8321SOL    HW225863   0.449   1.304   0.159
 8322SOL     OW25864   0.208   0.240   0.719
 8322SOL    HW125865   0.117   0.207   0.697
 8322SOL    HW225866   0.262   0.247   0.634
 8323SOL     OW25867   6.306   6.562   3.000
 8323SOL    HW125868   6.369   6.587   2.927
 8323SOL    HW225869   6.354   6.505   3.067
 8324SOL     OW25870   6.099   0.808   1.664
 8324SOL    HW125871   6.166   0.881   1.648
 8324SOL    HW225872   6.103   0.780   1.760
 8325SOL     OW25873   3.240   3.397   5.150
 8325SOL    HW125874   3.318   3.456   5.171
 8325SOL    HW225875   3.235   3.323   5.217
 8326SOL     OW25876   4.766   3.046   5.176
 8326SOL    HW125877   4.717   3.126   5.209
 8326SOL    HW225878   4.742   2.966   5.232
 8327SOL     OW25879   5.668   2.464   6.259
 8327SOL    HW125880   5.577   2.486   6.296
 8327SOL    HW225881   5.664   2.466   6.159
 8328SOL     OW25882   2.827   4.111   6.394
 8328SOL    HW125883   2.748   4.132   6.336
 8328SOL    HW225884   2.906   4.092   6.337
 8329SOL     OW25885   6.784   4.048   6.458
 8329SOL    HW125886   6.831   3.998   6.531
 8329SOL    HW225887   6.835   4.039   6.373
 8330SOL     OW25888   2.614   0.119   0.526
 8330SOL    HW125889   2.705   0.139   0.564
 8330SOL    HW225890   2.599   0.020   0.528
 8331SOL     OW25891   2.782   1.024   1.629
 8331SOL    HW125892   2.795   0.979   1.718
 8331SOL    HW225893   2.728   0.965   1.569
 8332SOL     OW25894   4.808   5.346   2.560
 8332SOL    HW125895   4.776   5.404   2.635
 8332SOL    HW225896   4.735   5.284   2.533
 8333SOL     OW25897   0.486   6.609   6.559
 8333SOL    HW125898   0.505   6.563   6.646
 8333SOL    HW225899   0.562   6.592   6.496
 8334SOL     OW25900   4.465   1.307   4.220
 8334SOL    HW125901   4.536   1.247   4.257
 8334SOL    HW225902   4.411   1.345   4.295
 8335SOL     OW25903   6.325   5.746   6.167
 8335SOL    HW125904   6.310   5.798   6.083
 8335SOL    HW225905   6.423   5.726   6.177
 8336SOL     OW25906   0.025   0.124   2.269
 8336SOL    HW125907   0.085   0.198   2.239
 8336SOL    HW225908   0.004   0.136   2.366
 8337SOL     OW25909   0.937   6.592   3.019
 8337SOL    HW125910   0.875   6.670   3.008
 8337SOL    HW225911   0.994   6.606   3.100
 8338SOL     OW25912   1.567   5.010   2.008
 8338SOL    HW125913   1.622   5.091   2.027
 8338SOL    HW225914   1.625   4.929   2.007
 8339SOL     OW25915   5.995   0.560   1.200
 8339SOL    HW125916   6.027   0.630   1.137
 8339SOL    HW225917   6.008   0.592   1.294
 8340SOL     OW25918   5.383   4.101   1.153
 8340SOL    HW125919   5.436   4.145   1.080
 8340SOL    HW225920   5.321   4.168   1.194
 8341SOL     OW25921   2.961   6.646   6.898
 8341SOL    HW125922   2.879   6.659   6.843
 8341SOL    HW225923   2.977   6.548   6.911
 8342SOL     OW25924   3.602   0.167   1.519
 8342SOL    HW125925   3.600   0.219   1.433
 8342SOL    HW225926   3.605   0.069   1.499
 8343SOL     OW25927   1.070   4.845   5.963
 8343SOL    HW125928   1.053   4.749   5.944
 8343SOL    HW225929   1.093   4.893   5.878
 8344SOL     OW25930   4.542   6.996   5.238
 8344SOL    HW125931   4.522   6.914   5.291
 8344SOL    HW225932   4.457   0.019   5.213
 8345SOL     OW25933   5.295   1.736   3.834
 8345SOL    HW125934   5.327   1.830   3.850
 8345SOL    HW225935   5.275   1.724   3.737
 8346SOL     OW25936   3.261   4.330   0.319
 8346SOL    HW125937   3.209   4.318   0.234
 8346SOL    HW225938   3.315   4.415   0.313
 8347SOL     OW25939   3.570   6.372   4.894
 8347SOL    HW125940   3.640   6.351   4.825
 8347SOL    HW225941   3.591   6.323   4.979
 8348SOL     OW25942   0.906   6.666   1.596
 8348SOL    HW125943   0.837   6.599   1.622
 8348SOL    HW225944   0.994   6.619   1.583
 8349SOL     OW25945   6.091   5.646   1.309
 8349SOL    HW125946   6.059   5.619   1.400
 8349SOL    HW225947   6.191   5.649   1.308
 8350SOL     OW25948   4.961   1.198   4.745
 8350SOL    HW125949   4.965   1.100   4.729
 8350SOL    HW225950   5.029   1.223   4.815
 8351SOL     OW25951   4.606   5.268   4.245
 8351SOL    HW125952   4.574   5.349   4.197
 8351SOL    HW225953   4.642   5.294   4.334
 8352SOL     OW25954   6.905   6.617   2.540
 8352SOL    HW125955   6.847   6.619   2.621
 8352SOL    HW225956   7.000   6.603   2.567
 8353SOL     OW25957   5.917   3.834   2.045
 8353SOL    HW125958   6.010   3.871   2.048
 8353SOL    HW225959   5.908   3.770   1.968
 8354SOL     OW25960   3.344   0.499   6.569
 8354SOL    HW125961   3.405   0.420   6.559
 8354SOL    HW225962   3.269   0.492   6.503
 8355SOL     OW25963   3.106   0.434   0.083
 8355SOL    HW125964   3.100   0.449   7.006
 8355SOL    HW225965   3.127   0.521   0.129
 8356SOL     OW25966   1.597   6.237   0.542
 8356SOL    HW125967   1.657   6.311   0.570
 8356SOL    HW225968   1.595   6.166   0.612
 8357SOL     OW25969   3.728   6.964   5.763
 8357SOL    HW125970   3.711   6.869   5.791
 8357SOL    HW225971   3.779   6.965   5.677
 8358SOL     OW25972   1.393   2.936   5.315
 8358SOL    HW125973   1.391   3.033   5.339
 8358SOL    HW225974   1.488   2.907   5.301
 8359SOL     OW25975   3.195   6.256   4.514
 8359SOL    HW125976   3.120   6.193   4.536
 8359SOL    HW225977   3.158   6.347   4.495
 8360SOL     OW25978   3.778   5.843   1.660
 8360SOL    HW125979   3.707   5.813   1.596
 8360SOL    HW225980   3.794   5.941   1.649
 8361SOL     OW25981   2.151   0.549   2.542
 8361SOL    HW125982   2.189   0.460   2.568
 8361SOL    HW225983   2.106   0.591   2.620
 8362SOL     OW25984   2.555   2.087   0.741
 8362SOL    HW125985   2.567   2.001   0.691
 8362SOL    HW225986   2.613   2.088   0.822
 8363SOL     OW25987   0.235   2.468   6.817
 8363SOL    HW125988   0.330   2.443   6.798
 8363SOL    HW225989   0.233   2.553   6.870
 8364SOL     OW25990   6.185   3.212   2.895
 8364SOL    HW125991   6.240   3.223   2.812
 8364SOL    HW225992   6.209   3.126   2.940
 8365SOL     OW25993   1.186   4.350   1.577
 8365SOL    HW125994   1.167   4.265   1.528
 8365SOL    HW225995   1.116   4.418   1.557
 8366SOL     OW25996   3.693   5.186   2.261
 8366SOL    HW125997   3.609   5.159   2.307
 8366SOL    HW225998   3.753   5.107   2.252
 8367SOL     OW25999   3.923   6.019   3.636
 8367SOL    HW126000   3.892   6.109   3.607
 8367SOL    HW226001   3.873   5.948   3.587
 8368SOL     OW26002   2.502   6.268   6.199
 8368SOL    HW126003   2.517   6.361   6.165
 8368SOL    HW226004   2.429   6.225   6.146
 8369SOL     OW26005   2.008   0.061   6.586
 8369SOL    HW126006   2.012   0.082   6.488
 8369SOL    HW226007   1.982   0.143   6.637
 8370SOL     OW26008   2.379   1.972   5.759
 8370SOL    HW126009   2.381   2.058   5.709
 8370SOL    HW226010   2.399   1.896   5.697
 8371SOL     OW26011   1.593   4.172   0.985
 8371SOL    HW126012   1.647   4.093   1.012
 8371SOL    HW226013   1.581   4.171   0.885
 8372SOL     OW26014   0.426   6.061   2.753
 8372SOL    HW126015   0.499   6.093   2.814
 8372SOL    HW226016   0.341   6.108   2.775
 8373SOL     OW26017   1.117   0.413   4.608
 8373SOL    HW126018   1.130   0.342   4.677
 8373SOL    HW226019   1.203   0.462   4.594
 8374SOL     OW26020   6.550   0.484   6.376
 8374SOL    HW126021   6.558   0.546   6.454
 8374SOL    HW226022   6.543   0.538   6.292
 8375SOL     OW26023   3.235   6.686   5.608
 8375SOL    HW126024   3.279   6.613   5.556
 8375SOL    HW226025   3.149   6.712   5.563
 8376SOL     OW26026   2.351   0.064   4.118
 8376SOL    HW126027   2.270   0.122   4.106
 8376SOL    HW226028   2.326   7.003   4.168
 8377SOL     OW26029   5.494   5.872   1.180
 8377SOL    HW126030   5.580   5.825   1.157
 8377SOL    HW226031   5.464   5.926   1.101
 8378SOL     OW26032   4.413   4.546   2.883
 8378SOL    HW126033   4.432   4.461   2.933
 8378SOL    HW226034   4.441   4.624   2.939
 8379SOL     OW26035   6.458   2.597   1.156
 8379SOL    HW126036   6.543   2.547   1.171
 8379SOL    HW226037   6.380   2.537   1.174
 8380SOL     OW26038   6.721   1.316   2.816
 8380SOL    HW126039   6.798   1.376   2.840
 8380SOL    HW226040   6.663   1.362   2.748
 8381SOL     OW26041   0.404   4.193   5.028
 8381SOL    HW126042   0.333   4.124   5.029
 8381SOL    HW226043   0.430   4.214   4.933
 8382SOL     OW26044   1.431   1.374   2.057
 8382SOL    HW126045   1.419   1.473   2.055
 8382SOL    HW226046   1.510   1.351   2.113
 8383SOL     OW26047   2.423   0.629   6.340
 8383SOL    HW126048   2.491   0.687   6.384
 8383SOL    HW226049   2.466   0.543   6.313
 8384SOL     OW26050   0.411   0.096   0.138
 8384SOL    HW126051   0.474   0.146   0.197
 8384SOL    HW226052   0.373   0.018   0.187
 8385SOL     OW26053   5.923   2.794   1.614
 8385SOL    HW126054   5.986   2.750   1.550
 8385SOL    HW226055   5.963   2.794   1.706
 8386SOL     OW26056   0.876   4.112   2.551
 8386SOL    HW126057   0.966   4.068   2.544
 8386SOL    HW226058   0.830   4.109   2.462
 8387SOL     OW26059   1.020   1.124   1.382
 8387SOL    HW126060   0.968   1.182   1.445
 8387SOL    HW226061   1.100   1.174   1.350
 8388SOL     OW26062   1.824   5.766   0.430
 8388SOL    HW126063   1.751   5.770   0.499
 8388SOL    HW226064   1.859   5.672   0.426
 8389SOL     OW26065   6.126   3.693   2.366
 8389SOL    HW126066   6.200   3.699   2.434
 8389SOL    HW226067   6.159   3.729   2.279
 8390SOL     OW26068   3.711   1.595   6.373
 8390SOL    HW126069   3.781   1.653   6.415
 8390SOL    HW226070   3.745   1.502   6.364
 8391SOL     OW26071   5.994   5.913   0.586
 8391SOL    HW126072   5.941   5.997   0.602
 8391SOL    HW226073   6.011   5.868   0.674
 8392SOL     OW26074   6.228   3.472   3.597
 8392SOL    HW126075   6.194   3.560   3.630
 8392SOL    HW226076   6.176   3.398   3.640
 8393SOL     OW26077   6.140   0.818   2.583
 8393SOL    HW126078   6.112   0.832   2.678
 8393SOL    HW226079   6.188   0.899   2.550
 8394SOL     OW26080   5.668   3.243   1.943
 8394SOL    HW126081   5.756   3.230   1.989
 8394SOL    HW226082   5.606   3.169   1.969
 8395SOL     OW26083   2.811   6.842   5.877
 8395SOL    HW126084   2.793   6.881   5.967
 8395SOL    HW226085   2.888   6.889   5.835
 8396SOL     OW26086   4.638   4.486   3.222
 8396SOL    HW126087   4.624   4.426   3.143
 8396SOL    HW226088   4.642   4.581   3.191
 8397SOL     OW26089   0.420   0.850   3.425
 8397SOL    HW126090   0.422   0.872   3.523
 8397SOL    HW226091   0.443   0.754   3.412
 8398SOL     OW26092   5.174   2.567   6.196
 8398SOL    HW126093   5.159   2.524   6.107
 8398SOL    HW226094   5.206   2.661   6.183
 8399SOL     OW26095   5.998   6.316   0.005
 8399SOL    HW126096   6.001   6.357   0.096
 8399SOL    HW226097   6.090   6.310   6.990
 8400SOL     OW26098   1.920   2.313   3.980
 8400SOL    HW126099   1.941   2.281   4.073
 8400SOL    HW226100   2.004   2.340   3.934
 8401SOL     OW26101   2.383   1.220   5.540
 8401SOL    HW126102   2.418   1.314   5.547
 8401SOL    HW226103   2.457   1.160   5.510
 8402SOL     OW26104   5.505   1.734   6.310
 8402SOL    HW126105   5.480   1.814   6.364
 8402SOL    HW226106   5.439   1.661   6.326
 8403SOL     OW26107   0.623   3.445   4.698
 8403SOL    HW126108   0.648   3.452   4.795
 8403SOL    HW226109   0.668   3.365   4.658
 8404SOL     OW26110   4.152   0.438   6.001
 8404SOL    HW126111   4.123   0.531   5.980
 8404SOL    HW226112   4.247   0.425   5.970
 8405SOL     OW26113   3.390   1.983   6.277
 8405SOL    HW126114   3.326   1.998   6.202
 8405SOL    HW226115   3.435   2.069   6.301
 8406SOL     OW26116   4.241   6.988   0.277
 8406SOL    HW126117   4.168   6.988   0.345
 8406SOL    HW226118   4.285   0.056   0.275
 8407SOL     OW26119   4.212   6.413   3.379
 8407SOL    HW126120   4.278   6.435   3.307
 8407SOL    HW226121   4.139   6.481   3.378
 8408SOL     OW26122   5.431   5.087   0.404
 8408SOL    HW126123   5.355   5.091   0.469
 8408SOL    HW226124   5.432   5.170   0.348
 8409SOL     OW26125   4.744   2.234   1.939
 8409SOL    HW126126   4.756   2.251   1.841
 8409SOL    HW226127   4.684   2.155   1.952
 8410SOL     OW26128   6.446   2.122   1.877
 8410SOL    HW126129   6.388   2.147   1.954
 8410SOL    HW226130   6.439   2.024   1.861
 8411SOL     OW26131   0.340   5.832   1.145
 8411SOL    HW126132   0.319   5.830   1.242
 8411SOL    HW226133   0.418   5.771   1.127
 8412SOL     OW26134   4.001   2.241   1.195
 8412SOL    HW126135   3.923   2.250   1.134
 8412SOL    HW226136   4.083   2.274   1.149
 8413SOL     OW26137   4.320   5.477   6.178
 8413SOL    HW126138   4.342   5.457   6.274
 8413SOL    HW226139   4.363   5.409   6.119
 8414SOL     OW26140   2.598   1.088   2.909
 8414SOL    HW126141   2.560   1.163   2.856
 8414SOL    HW226142   2.616   1.119   3.003
 8415SOL     OW26143   2.049   6.660   4.328
 8415SOL    HW126144   2.130   6.700   4.285
 8415SOL    HW226145   2.024   6.713   4.408
 8416SOL     OW26146   6.165   1.715   4.532
 8416SOL    HW126147   6.265   1.715   4.525
 8416SOL    HW226148   6.133   1.624   4.558
 8417SOL     OW26149   2.103   2.953   5.453
 8417SOL    HW126150   2.126   2.868   5.404
 8417SOL    HW226151   2.023   2.995   5.411
 8418SOL     OW26152   0.184   5.526   1.982
 8418SOL    HW126153   0.106   5.466   1.966
 8418SOL    HW226154   0.269   5.478   1.958
 8419SOL     OW26155   5.717   1.522   2.787
 8419SOL    HW126156   5.736   1.579   2.867
 8419SOL    HW226157   5.676   1.577   2.715
 8420SOL     OW26158   3.235   6.447   2.091
 8420SOL    HW126159   3.259   6.351   2.105
 8420SOL    HW226160   3.319   6.500   2.081
 8421SOL     OW26161   3.183   5.207   6.970
 8421SOL    HW126162   3.235   5.285   7.003
 8421SOL    HW226163   3.157   5.222   6.875
 8422SOL     OW26164   3.869   1.985   2.491
 8422SOL    HW126165   3.893   1.890   2.470
 8422SOL    HW226166   3.901   2.044   2.417
 8423SOL     OW26167   4.321   4.244   5.520
 8423SOL    HW126168   4.320   4.240   5.420
 8423SOL    HW226169   4.415   4.230   5.552
 8424SOL     OW26170   2.144   1.895   3.550
 8424SOL    HW126171   2.187   1.975   3.508
 8424SOL    HW226172   2.212   1.842   3.600
 8425SOL     OW26173   4.153   3.388   4.387
 8425SOL    HW126174   4.102   3.473   4.373
 8425SOL    HW226175   4.176   3.348   4.299
 8426SOL     OW26176   3.374   3.165   2.719
 8426SOL    HW126177   3.472   3.174   2.701
 8426SOL    HW226178   3.350   3.068   2.721
 8427SOL     OW26179   3.105   3.724   3.289
 8427SOL    HW126180   3.071   3.636   3.255
 8427SOL    HW226181   3.047   3.754   3.365
 8428SOL     OW26182   6.686   6.243   1.537
 8428SOL    HW126183   6.659   6.193   1.455
 8428SOL    HW226184   6.710   6.337   1.513
 8429SOL     OW26185   1.701   5.447   5.882
 8429SOL    HW126186   1.729   5.455   5.978
 8429SOL    HW226187   1.604   5.468   5.873
 8430SOL     OW26188   3.871   5.202   4.180
 8430SOL    HW126189   3.775   5.190   4.157
 8430SOL    HW226190   3.928   5.153   4.114
 8431SOL     OW26191   3.734   3.438   0.078
 8431SOL    HW126192   3.714   3.535   0.090
 8431SOL    HW226193   3.761   3.420   7.005
 8432SOL     OW26194   6.813   5.494   5.111
 8432SOL    HW126195   6.721   5.472   5.142
 8432SOL    HW226196   6.811   5.518   5.014
 8433SOL     OW26197   4.149   2.576   0.743
 8433SOL    HW126198   4.108   2.647   0.800
 8433SOL    HW226199   4.147   2.489   0.792
 8434SOL     OW26200   2.460   6.236   4.308
 8434SOL    HW126201   2.403   6.303   4.260
 8434SOL    HW226202   2.457   6.149   4.259
 8435SOL     OW26203   5.349   0.629   3.097
 8435SOL    HW126204   5.264   0.675   3.123
 8435SOL    HW226205   5.423   0.659   3.156
 8436SOL     OW26206   3.144   6.338   3.971
 8436SOL    HW126207   3.215   6.315   4.037
 8436SOL    HW226208   3.085   6.259   3.956
 8437SOL     OW26209   2.237   2.790   2.417
 8437SOL    HW126210   2.155   2.734   2.422
 8437SOL    HW226211   2.213   2.886   2.426
 8438SOL     OW26212   2.310   4.467   2.789
 8438SOL    HW126213   2.407   4.460   2.765
 8438SOL    HW226214   2.273   4.375   2.806
 8439SOL     OW26215   6.732   5.093   3.201
 8439SOL    HW126216   6.727   5.034   3.121
 8439SOL    HW226217   6.641   5.097   3.244
 8440SOL     OW26218   2.558   1.989   3.572
 8440SOL    HW126219   2.612   2.056   3.624
 8440SOL    HW226220   2.499   2.037   3.508
 8441SOL     OW26221   5.386   5.896   5.609
 8441SOL    HW126222   5.465   5.887   5.670
 8441SOL    HW226223   5.318   5.826   5.634
 8442SOL     OW26224   3.857   0.956   5.487
 8442SOL    HW126225   3.804   1.034   5.453
 8442SOL    HW226226   3.881   0.896   5.411
 8443SOL     OW26227   2.150   4.970   3.635
 8443SOL    HW126228   2.113   4.911   3.564
 8443SOL    HW226229   2.079   4.989   3.703
 8444SOL     OW26230   3.249   6.686   3.484
 8444SOL    HW126231   3.188   6.762   3.459
 8444SOL    HW226232   3.217   6.645   3.569
 8445SOL     OW26233   2.716   0.504   0.706
 8445SOL    HW126234   2.663   0.584   0.735
 8445SOL    HW226235   2.673   0.462   0.626
 8446SOL     OW26236   6.577   6.131   5.236
 8446SOL    HW126237   6.512   6.079   5.181
 8446SOL    HW226238   6.611   6.208   5.182
 8447SOL     OW26239   3.750   1.318   1.432
 8447SOL    HW126240   3.660   1.307   1.474
 8447SOL    HW226241   3.800   1.390   1.480
 8448SOL     OW26242   4.804   6.552   3.594
 8448SOL    HW126243   4.769   6.502   3.674
 8448SOL    HW226244   4.822   6.487   3.520
 8449SOL     OW26245   0.438   3.239   3.757
 8449SOL    HW126246   0.522   3.185   3.769
 8449SOL    HW226247   0.421   3.250   3.659
 8450SOL     OW26248   0.410   0.893   1.329
 8450SOL    HW126249   0.364   0.927   1.247
 8450SOL    HW226250   0.361   0.924   1.410
 8451SOL     OW26251   3.114   0.845   0.370
 8451SOL    HW126252   3.149   0.939   0.363
 8451SOL    HW226253   3.059   0.836   0.452
 8452SOL     OW26254   5.193   2.734   4.568
 8452SOL    HW126255   5.129   2.811   4.576
 8452SOL    HW226256   5.268   2.746   4.633
 8453SOL     OW26257   0.009   5.453   0.032
 8453SOL    HW126258   6.968   5.498   0.095
 8453SOL    HW226259   6.992   5.366   0.002
 8454SOL     OW26260   0.019   5.070   0.113
 8454SOL    HW126261   0.008   5.117   0.025
 8454SOL    HW226262   7.016   5.132   0.187
 8455SOL     OW26263   6.844   2.300   3.092
 8455SOL    HW126264   6.798   2.335   3.174
 8455SOL    HW226265   6.791   2.224   3.054
 8456SOL     OW26266   4.828   0.811   3.549
 8456SOL    HW126267   4.873   0.892   3.513
 8456SOL    HW226268   4.887   0.766   3.616
 8457SOL     OW26269   6.663   6.216   4.971
 8457SOL    HW126270   6.587   6.198   4.909
 8457SOL    HW226271   6.693   6.311   4.961
 8458SOL     OW26272   1.323   0.261   1.030
 8458SOL    HW126273   1.279   0.247   1.119
 8458SOL    HW226274   1.420   0.239   1.038
 8459SOL     OW26275   1.830   5.820   3.284
 8459SOL    HW126276   1.756   5.837   3.219
 8459SOL    HW226277   1.792   5.783   3.369
 8460SOL     OW26278   4.402   3.955   5.333
 8460SOL    HW126279   4.460   3.876   5.314
 8460SOL    HW226280   4.451   4.039   5.309
 8461SOL     OW26281   1.099   2.220   5.049
 8461SOL    HW126282   1.063   2.310   5.074
 8461SOL    HW226283   1.023   2.156   5.034
 8462SOL     OW26284   3.368   1.542   0.486
 8462SOL    HW126285   3.347   1.602   0.564
 8462SOL    HW226286   3.384   1.449   0.519
 8463SOL     OW26287   6.378   0.126   1.986
 8463SOL    HW126288   6.316   0.048   1.972
 8463SOL    HW226289   6.381   0.181   1.903
 8464SOL     OW26290   5.796   4.250   4.343
 8464SOL    HW126291   5.884   4.274   4.383
 8464SOL    HW226292   5.750   4.333   4.312
 8465SOL     OW26293   1.758   2.234   0.564
 8465SOL    HW126294   1.767   2.139   0.594
 8465SOL    HW226295   1.848   2.278   0.569
 8466SOL     OW26296   1.119   6.053   3.954
 8466SOL    HW126297   1.083   5.996   3.880
 8466SOL    HW226298   1.216   6.070   3.940
 8467SOL     OW26299   2.892   5.847   0.723
 8467SOL    HW126300   2.955   5.807   0.656
 8467SOL    HW226301   2.938   5.856   0.811
 8468SOL     OW26302   3.374   1.621   0.978
 8468SOL    HW126303   3.458   1.599   1.027
 8468SOL    HW226304   3.353   1.718   0.989
 8469SOL     OW26305   3.229   3.069   6.577
 8469SOL    HW126306   3.255   2.973   6.576
 8469SOL    HW226307   3.151   3.083   6.516
 8470SOL     OW26308   2.393   3.028   1.712
 8470SOL    HW126309   2.473   3.086   1.700
 8470SOL    HW226310   2.310   3.080   1.688
 8471SOL     OW26311   2.410   0.642   3.278
 8471SOL    HW126312   2.502   0.682   3.279
 8471SOL    HW226313   2.417   0.543   3.269
 8472SOL     OW26314   0.343   0.197   4.386
 8472SOL    HW126315   0.419   0.152   4.340
 8472SOL    HW226316   0.348   0.296   4.371
 8473SOL     OW26317   0.186   5.665   6.926
 8473SOL    HW126318   0.110   5.609   6.959
 8473SOL    HW226319   0.176   5.682   6.828
 8474SOL     OW26320   3.065   3.004   2.025
 8474SOL    HW126321   3.036   3.074   2.090
 8474SOL    HW226322   3.125   2.939   2.070
 8475SOL     OW26323   6.562   1.931   2.632
 8475SOL    HW126324   6.599   1.843   2.660
 8475SOL    HW226325   6.466   1.920   2.605
 8476SOL     OW26326   6.333   0.372   2.085
 8476SOL    HW126327   6.355   0.277   2.060
 8476SOL    HW226328   6.251   0.402   2.037
 8477SOL     OW26329   2.989   6.233   1.231
 8477SOL    HW126330   2.967   6.311   1.172
 8477SOL    HW226331   2.906   6.179   1.247
 8478SOL     OW26332   1.372   0.561   5.342
 8478SOL    HW126333   1.329   0.637   5.294
 8478SOL    HW226334   1.302   0.508   5.390
 8479SOL     OW26335   5.843   1.095   0.194
 8479SOL    HW126336   5.789   1.179   0.184
 8479SOL    HW226337   5.879   1.090   0.288
 8480SOL     OW26338   3.292   1.095   1.256
 8480SOL    HW126339   3.250   1.041   1.183
 8480SOL    HW226340   3.221   1.140   1.310
 8481SOL     OW26341   3.550   1.558   4.016
 8481SOL    HW126342   3.536   1.461   3.993
 8481SOL    HW226343   3.648   1.578   4.019
 8482SOL     OW26344   2.244   7.007   2.241
 8482SOL    HW126345   2.307   6.932   2.221
 8482SOL    HW226346   2.157   6.991   2.194
 8483SOL     OW26347   3.175   5.485   2.732
 8483SOL    HW126348   3.248   5.420   2.716
 8483SOL    HW226349   3.094   5.437   2.766
 8484SOL     OW26350   0.161   4.642   2.659
 8484SOL    HW126351   0.095   4.611   2.728
 8484SOL    HW226352   0.185   4.737   2.676
 8485SOL     OW26353   1.712   3.762   6.842
 8485SOL    HW126354   1.792   3.763   6.903
 8485SOL    HW226355   1.712   3.677   6.790
 8486SOL     OW26356   5.460   1.320   2.187
 8486SOL    HW126357   5.376   1.351   2.143
 8486SOL    HW226358   5.506   1.254   2.127
 8487SOL     OW26359   5.063   0.230   0.614
 8487SOL    HW126360   5.151   0.187   0.591
 8487SOL    HW226361   5.055   0.236   0.713
 8488SOL     OW26362   5.610   5.404   5.062
 8488SOL    HW126363   5.648   5.496   5.069
 8488SOL    HW226364   5.612   5.374   4.967
 8489SOL     OW26365   5.842   6.196   1.470
 8489SOL    HW126366   5.797   6.147   1.545
 8489SOL    HW226367   5.775   6.249   1.420
 8490SOL     OW26368   4.719   6.321   3.752
 8490SOL    HW126369   4.654   6.326   3.827
 8490SOL    HW226370   4.730   6.225   3.723
 8491SOL     OW26371   2.321   0.710   1.617
 8491SOL    HW126372   2.323   0.666   1.527
 8491SOL    HW226373   2.262   0.657   1.678
 8492SOL     OW26374   4.710   3.600   5.521
 8492SOL    HW126375   4.637   3.626   5.457
 8492SOL    HW226376   4.672   3.547   5.596
 8493SOL     OW26377   3.268   2.154   0.397
 8493SOL    HW126378   3.201   2.212   0.443
 8493SOL    HW226379   3.281   2.070   0.450
 8494SOL     OW26380   1.904   4.806   6.444
 8494SOL    HW126381   1.912   4.802   6.543
 8494SOL    HW226382   1.900   4.712   6.407
 8495SOL     OW26383   0.067   3.251   0.897
 8495SOL    HW126384   0.079   3.198   0.812
 8495SOL    HW226385   7.007   3.219   0.944
 8496SOL     OW26386   0.544   2.071   3.095
 8496SOL    HW126387   0.600   2.070   3.178
 8496SOL    HW226388   0.551   2.161   3.051
 8497SOL     OW26389   5.535   6.318   4.036
 8497SOL    HW126390   5.473   6.242   4.058
 8497SOL    HW226391   5.600   6.288   3.967
 8498SOL     OW26392   0.129   6.571   1.673
 8498SOL    HW126393   0.112   6.669   1.658
 8498SOL    HW226394   0.206   6.542   1.616
 8499SOL     OW26395   2.404   5.609   6.386
 8499SOL    HW126396   2.439   5.621   6.293
 8499SOL    HW226397   2.459   5.664   6.449
 8500SOL     OW26398   2.408   0.438   5.690
 8500SOL    HW126399   2.357   0.521   5.670
 8500SOL    HW226400   2.411   0.380   5.609
 8501SOL     OW26401   1.712   2.525   0.063
 8501SOL    HW126402   1.698   2.518   6.986
 8501SOL    HW226403   1.631   2.567   0.105
 8502SOL     OW26404   0.976   5.505   1.461
 8502SOL    HW126405   0.952   5.492   1.557
 8502SOL    HW226406   0.952   5.598   1.433
 8503SOL     OW26407   1.156   5.282   2.926
 8503SOL    HW126408   1.102   5.266   2.843
 8503SOL    HW226409   1.150   5.378   2.953
 8504SOL     OW26410   1.771   6.022   3.733
 8504SOL    HW126411   1.783   5.938   3.786
 8504SOL    HW226412   1.825   6.017   3.649
 8505SOL     OW26413   4.996   4.125   3.177
 8505SOL    HW126414   4.915   4.174   3.207
 8505SOL    HW226415   5.068   4.190   3.153
 8506SOL     OW26416   0.651   6.877   0.229
 8506SOL    HW126417   0.666   6.789   0.275
 8506SOL    HW226418   0.610   6.942   0.293
 8507SOL     OW26419   2.430   0.989   5.219
 8507SOL    HW126420   2.339   1.029   5.218
 8507SOL    HW226421   2.464   0.985   5.313
 8508SOL     OW26422   6.796   3.002   4.972
 8508SOL    HW126423   6.863   3.054   4.919
 8508SOL    HW226424   6.736   2.952   4.910
 8509SOL     OW26425   5.888   1.498   5.121
 8509SOL    HW126426   5.911   1.417   5.067
 8509SOL    HW226427   5.892   1.579   5.062
 8510SOL     OW26428   6.839   5.279   3.361
 8510SOL    HW126429   6.805   5.202   3.307
 8510SOL    HW226430   6.933   5.300   3.334
 8511SOL     OW26431   5.648   4.272   1.725
 8511SOL    HW126432   5.637   4.177   1.756
 8511SOL    HW226433   5.565   4.323   1.747
 8512SOL     OW26434   3.998   1.836   0.343
 8512SOL    HW126435   4.059   1.915   0.356
 8512SOL    HW226436   4.052   1.752   0.345
 8513SOL     OW26437   4.795   4.056   1.203
 8513SOL    HW126438   4.827   3.968   1.169
 8513SOL    HW226439   4.854   4.086   1.279
 8514SOL     OW26440   2.517   2.527   3.528
 8514SOL    HW126441   2.551   2.464   3.597
 8514SOL    HW226442   2.509   2.479   3.440
 8515SOL     OW26443   0.583   1.206   6.823
 8515SOL    HW126444   0.600   1.154   6.907
 8515SOL    HW226445   0.569   1.142   6.747
 8516SOL     OW26446   6.073   3.388   2.107
 8516SOL    HW126447   6.008   3.326   2.062
 8516SOL    HW226448   6.032   3.424   2.190
 8517SOL     OW26449   2.176   2.922   5.896
 8517SOL    HW126450   2.199   2.853   5.965
 8517SOL    HW226451   2.083   2.956   5.913
 8518SOL     OW26452   5.229   4.222   6.269
 8518SOL    HW126453   5.233   4.312   6.311
 8518SOL    HW226454   5.322   4.186   6.260
 8519SOL     OW26455   0.400   4.644   0.796
 8519SOL    HW126456   0.404   4.697   0.881
 8519SOL    HW226457   0.474   4.672   0.736
 8520SOL     OW26458   3.281   3.412   5.474
 8520SOL    HW126459   3.331   3.494   5.444
 8520SOL    HW226460   3.330   3.370   5.550
 8521SOL     OW26461   1.993   6.452   5.562
 8521SOL    HW126462   2.001   6.377   5.629
 8521SOL    HW226463   2.071   6.449   5.500
 8522SOL     OW26464   0.170   6.752   1.386
 8522SOL    HW126465   0.186   6.845   1.421
 8522SOL    HW226466   0.246   6.693   1.412
 8523SOL     OW26467   3.250   6.720   0.014
 8523SOL    HW126468   3.176   6.684   6.980
 8523SOL    HW226469   3.213   6.762   0.097
 8524SOL     OW26470   1.352   3.827   5.082
 8524SOL    HW126471   1.345   3.924   5.103
 8524SOL    HW226472   1.443   3.807   5.045
 8525SOL     OW26473   5.624   5.404   1.061
 8525SOL    HW126474   5.549   5.468   1.073
 8525SOL    HW226475   5.707   5.441   1.102
 8526SOL     OW26476   3.239   6.450   0.742
 8526SOL    HW126477   3.227   6.506   0.825
 8526SOL    HW226478   3.228   6.508   0.661
 8527SOL     OW26479   3.747   0.490   0.163
 8527SOL    HW126480   3.713   0.410   0.114
 8527SOL    HW226481   3.672   0.555   0.175
 8528SOL     OW26482   3.814   1.547   0.808
 8528SOL    HW126483   3.861   1.596   0.735
 8528SOL    HW226484   3.861   1.461   0.827
 8529SOL     OW26485   1.197   6.522   0.487
 8529SOL    HW126486   1.187   6.621   0.500
 8529SOL    HW226487   1.242   6.505   0.400
 8530SOL     OW26488   3.741   3.723   4.797
 8530SOL    HW126489   3.663   3.724   4.734
 8530SOL    HW226490   3.826   3.726   4.744
 8531SOL     OW26491   7.015   5.655   2.761
 8531SOL    HW126492   6.915   5.653   2.758
 8531SOL    HW226493   0.023   5.730   2.821
 8532SOL     OW26494   3.856   6.085   4.479
 8532SOL    HW126495   3.922   6.156   4.504
 8532SOL    HW226496   3.793   6.121   4.410
 8533SOL     OW26497   1.711   5.951   6.983
 8533SOL    HW126498   1.707   5.909   0.052
 8533SOL    HW226499   1.646   5.904   6.922
 8534SOL     OW26500   4.553   2.621   3.773
 8534SOL    HW126501   4.641   2.666   3.787
 8534SOL    HW226502   4.536   2.611   3.675
 8535SOL     OW26503   5.485   1.233   4.417
 8535SOL    HW126504   5.552   1.229   4.343
 8535SOL    HW226505   5.529   1.202   4.502
 8536SOL     OW26506   0.914   1.770   4.889
 8536SOL    HW126507   0.818   1.771   4.916
 8536SOL    HW226508   0.969   1.733   4.964
 8537SOL     OW26509   5.568   1.880   3.576
 8537SOL    HW126510   5.529   1.965   3.609
 8537SOL    HW226511   5.530   1.859   3.486
 8538SOL     OW26512   2.292   1.711   0.065
 8538SOL    HW126513   2.211   1.668   0.106
 8538SOL    HW226514   2.370   1.702   0.127
 8539SOL     OW26515   6.645   1.853   2.243
 8539SOL    HW126516   6.598   1.939   2.265
 8539SOL    HW226517   6.631   1.831   2.147
 8540SOL     OW26518   5.540   0.298   6.554
 8540SOL    HW126519   5.452   0.335   6.526
 8540SOL    HW226520   5.571   0.344   6.637
 8541SOL     OW26521   3.508   1.910   3.318
 8541SOL    HW126522   3.469   1.917   3.410
 8541SOL    HW226523   3.435   1.900   3.251
 8542SOL     OW26524   3.957   4.237   6.427
 8542SOL    HW126525   3.948   4.193   6.337
 8542SOL    HW226526   3.941   4.170   6.499
 8543SOL     OW26527   1.953   1.356   1.327
 8543SOL    HW126528   1.975   1.432   1.389
 8543SOL    HW226529   1.911   1.393   1.244
 8544SOL     OW26530   5.522   2.964   4.326
 8544SOL    HW126531   5.611   2.951   4.371
 8544SOL    HW226532   5.462   2.887   4.348
 8545SOL     OW26533   4.682   6.834   5.554
 8545SOL    HW126534   4.677   6.737   5.575
 8545SOL    HW226535   4.626   6.885   5.620
 8546SOL     OW26536   5.549   2.416   4.076
 8546SOL    HW126537   5.624   2.357   4.105
 8546SOL    HW226538   5.468   2.360   4.058
 8547SOL     OW26539   0.604   6.294   6.207
 8547SOL    HW126540   0.552   6.372   6.174
 8547SOL    HW226541   0.547   6.211   6.203
 8548SOL     OW26542   6.062   2.662   4.832
 8548SOL    HW126543   6.114   2.649   4.916
 8548SOL    HW226544   6.054   2.575   4.784
 8549SOL     OW26545   0.356   3.617   4.083
 8549SOL    HW126546   0.395   3.533   4.045
 8549SOL    HW226547   0.258   3.619   4.062
 8550SOL     OW26548   1.775   4.553   6.855
 8550SOL    HW126549   1.782   4.463   6.899
 8550SOL    HW226550   1.720   4.545   6.772
 8551SOL     OW26551   3.847   4.514   6.504
 8551SOL    HW126552   3.899   4.431   6.528
 8551SOL    HW226553   3.910   4.583   6.469
 8552SOL     OW26554   3.001   6.281   4.201
 8552SOL    HW126555   3.081   6.235   4.239
 8552SOL    HW226556   3.027   6.326   4.115
 8553SOL     OW26557   5.548   5.602   6.722
 8553SOL    HW126558   5.644   5.627   6.703
 8553SOL    HW226559   5.521   5.529   6.660
 8554SOL     OW26560   0.319   4.917   0.243
 8554SOL    HW126561   0.275   4.926   0.332
 8554SOL    HW226562   0.328   4.820   0.220
 8555SOL     OW26563   0.983   0.434   3.040
 8555SOL    HW126564   0.924   0.481   2.975
 8555SOL    HW226565   1.071   0.481   3.047
 8556SOL     OW26566   0.680   6.866   3.253
 8556SOL    HW126567   0.706   6.961   3.269
 8556SOL    HW226568   0.669   6.850   3.155
 8557SOL     OW26569   6.669   1.505   2.252
 8557SOL    HW126570   6.636   1.574   2.187
 8557SOL    HW226571   6.669   1.543   2.344
 8558SOL     OW26572   2.558   5.524   2.920
 8558SOL    HW126573   2.580   5.427   2.912
 8558SOL    HW226574   2.514   5.555   2.836
 8559SOL     OW26575   6.766   0.609   2.470
 8559SOL    HW126576   6.788   0.704   2.447
 8559SOL    HW226577   6.730   0.605   2.563
 8560SOL     OW26578   6.875   0.392   1.008
 8560SOL    HW126579   6.930   0.434   0.936
 8560SOL    HW226580   6.801   0.454   1.034
 8561SOL     OW26581   3.704   5.914   2.346
 8561SOL    HW126582   3.763   5.898   2.426
 8561SOL    HW226583   3.673   5.827   2.309
 8562SOL     OW26584   5.143   0.060   4.793
 8562SOL    HW126585   5.103   0.098   4.710
 8562SOL    HW226586   5.139   0.128   4.867
 8563SOL     OW26587   2.651   3.018   6.632
 8563SOL    HW126588   2.623   3.090   6.695
 8563SOL    HW226589   2.605   2.933   6.656
 8564SOL     OW26590   2.138   0.407   3.301
 8564SOL    HW126591   2.127   0.427   3.398
 8564SOL    HW226592   2.111   0.312   3.284
 8565SOL     OW26593   4.327   6.664   1.876
 8565SOL    HW126594   4.335   6.565   1.869
 8565SOL    HW226595   4.230   6.689   1.871
 8566SOL     OW26596   1.372   1.154   2.689
 8566SOL    HW126597   1.394   1.182   2.596
 8566SOL    HW226598   1.274   1.166   2.706
 8567SOL     OW26599   6.579   1.711   1.438
 8567SOL    HW126600   6.624   1.676   1.520
 8567SOL    HW226601   6.645   1.715   1.363
 8568SOL     OW26602   4.984   1.569   0.048
 8568SOL    HW126603   4.909   1.504   0.063
 8568SOL    HW226604   5.038   1.577   0.132
 8569SOL     OW26605   4.913   1.785   5.521
 8569SOL    HW126606   4.829   1.829   5.489
 8569SOL    HW226607   4.897   1.746   5.612
 8570SOL     OW26608   1.173   2.731   6.221
 8570SOL    HW126609   1.092   2.789   6.210
 8570SOL    HW226610   1.208   2.705   6.131
 8571SOL     OW26611   0.201   5.110   5.502
 8571SOL    HW126612   0.102   5.113   5.489
 8571SOL    HW226613   0.239   5.201   5.482
 8572SOL     OW26614   2.235   5.252   5.872
 8572SOL    HW126615   2.303   5.197   5.826
 8572SOL    HW226616   2.146   5.240   5.828
 8573SOL     OW26617   3.836   6.245   6.387
 8573SOL    HW126618   3.821   6.153   6.422
 8573SOL    HW226619   3.758   6.303   6.411
 8574SOL     OW26620   0.548   4.655   5.543
 8574SOL    HW126621   0.487   4.721   5.587
 8574SOL    HW226622   0.643   4.676   5.567
 8575SOL     OW26623   2.598   2.372   6.986
 8575SOL    HW126624   2.680   2.315   6.988
 8575SOL    HW226625   2.539   2.350   0.041
 8576SOL     OW26626   0.725   6.530   1.212
 8576SOL    HW126627   0.817   6.564   1.189
 8576SOL    HW226628   0.719   6.433   1.189
 8577SOL     OW26629   6.034   5.375   4.783
 8577SOL    HW126630   5.947   5.380   4.734
 8577SOL    HW226631   6.038   5.290   4.835
 8578SOL     OW26632   4.900   0.272   4.120
 8578SOL    HW126633   4.820   0.299   4.065
 8578SOL    HW226634   4.983   0.294   4.069
 8579SOL     OW26635   1.093   5.700   3.498
 8579SOL    HW126636   1.073   5.698   3.401
 8579SOL    HW226637   1.172   5.641   3.517
 8580SOL     OW26638   2.433   6.838   1.838
 8580SOL    HW126639   2.392   6.925   1.811
 8580SOL    HW226640   2.511   6.856   1.898
 8581SOL     OW26641   3.574   2.594   1.720
 8581SOL    HW126642   3.483   2.621   1.751
 8581SOL    HW226643   3.601   2.509   1.765
 8582SOL     OW26644   4.847   4.454   2.424
 8582SOL    HW126645   4.788   4.374   2.409
 8582SOL    HW226646   4.869   4.461   2.521
 8583SOL     OW26647   5.789   0.753   6.390
 8583SOL    HW126648   5.739   0.701   6.459
 8583SOL    HW226649   5.810   0.695   6.312
 8584SOL     OW26650   0.331   4.648   0.117
 8584SOL    HW126651   0.378   4.608   0.038
 8584SOL    HW226652   0.255   4.589   0.143
 8585SOL     OW26653   0.062   6.879   0.473
 8585SOL    HW126654   0.032   6.864   0.567
 8585SOL    HW226655   0.037   6.801   0.417
 8586SOL     OW26656   2.592   6.224   3.058
 8586SOL    HW126657   2.625   6.130   3.059
 8586SOL    HW226658   2.577   6.253   2.963
 8587SOL     OW26659   0.656   0.585   2.660
 8587SOL    HW126660   0.667   0.632   2.572
 8587SOL    HW226661   0.636   0.488   2.643
 8588SOL     OW26662   3.167   1.362   0.363
 8588SOL    HW126663   3.114   1.377   0.446
 8588SOL    HW226664   3.124   1.410   0.287
 8589SOL     OW26665   4.310   1.482   4.452
 8589SOL    HW126666   4.395   1.483   4.504
 8589SOL    HW226667   4.272   1.575   4.448
 8590SOL     OW26668   6.744   5.929   4.145
 8590SOL    HW126669   6.798   5.995   4.197
 8590SOL    HW226670   6.778   5.836   4.164
 8591SOL     OW26671   0.222   4.230   6.707
 8591SOL    HW126672   0.142   4.276   6.670
 8591SOL    HW226673   0.228   4.247   6.805
 8592SOL     OW26674   0.114   4.465   0.138
 8592SOL    HW126675   0.032   4.503   0.181
 8592SOL    HW226676   0.156   4.398   0.199
 8593SOL     OW26677   0.725   6.659   1.955
 8593SOL    HW126678   0.786   6.590   1.916
 8593SOL    HW226679   0.685   6.624   2.040
 8594SOL     OW26680   3.291   4.052   4.824
 8594SOL    HW126681   3.305   3.953   4.813
 8594SOL    HW226682   3.319   4.099   4.741
 8595SOL     OW26683   2.091   1.566   2.574
 8595SOL    HW126684   2.136   1.527   2.494
 8595SOL    HW226685   2.101   1.504   2.652
 8596SOL     OW26686   5.709   5.456   2.320
 8596SOL    HW126687   5.692   5.405   2.405
 8596SOL    HW226688   5.771   5.403   2.262
 8597SOL     OW26689   3.789   1.958   1.213
 8597SOL    HW126690   3.728   2.038   1.209
 8597SOL    HW226691   3.804   1.923   1.121
 8598SOL     OW26692   0.155   5.575   1.283
 8598SOL    HW126693   0.156   5.477   1.306
 8598SOL    HW226694   0.244   5.615   1.305
 8599SOL     OW26695   1.191   3.196   3.736
 8599SOL    HW126696   1.216   3.099   3.740
 8599SOL    HW226697   1.216   3.240   3.822
 8600SOL     OW26698   5.610   4.962   6.527
 8600SOL    HW126699   5.678   4.937   6.597
 8600SOL    HW226700   5.657   4.992   6.445
 8601SOL     OW26701   0.608   1.199   4.526
 8601SOL    HW126702   0.528   1.231   4.576
 8601SOL    HW226703   0.603   1.100   4.513
 8602SOL     OW26704   2.618   6.602   2.457
 8602SOL    HW126705   2.518   6.597   2.465
 8602SOL    HW226706   2.643   6.646   2.371
 8603SOL     OW26707   3.866   3.790   0.151
 8603SOL    HW126708   3.902   3.699   0.133
 8603SOL    HW226709   3.939   3.849   0.187
 8604SOL     OW26710   5.732   3.028   3.899
 8604SOL    HW126711   5.677   2.945   3.897
 8604SOL    HW226712   5.806   3.021   3.831
 8605SOL     OW26713   3.277   4.983   4.312
 8605SOL    HW126714   3.369   4.964   4.345
 8605SOL    HW226715   3.215   4.994   4.391
 8606SOL     OW26716   2.248   3.984   5.981
 8606SOL    HW126717   2.207   4.073   5.962
 8606SOL    HW226718   2.182   3.912   5.960
 8607SOL     OW26719   3.079   4.970   1.200
 8607SOL    HW126720   3.078   4.929   1.291
 8607SOL    HW226721   2.989   4.961   1.158
 8608SOL     OW26722   4.654   5.081   3.122
 8608SOL    HW126723   4.662   5.161   3.063
 8608SOL    HW226724   4.702   5.098   3.208
 8609SOL     OW26725   4.101   0.775   4.052
 8609SOL    HW126726   4.072   0.871   4.054
 8609SOL    HW226727   4.029   0.720   4.010
 8610SOL     OW26728   1.187   0.240   2.943
 8610SOL    HW126729   1.119   0.224   3.015
 8610SOL    HW226730   1.248   0.161   2.938
 8611SOL     OW26731   1.627   2.185   4.367
 8611SOL    HW126732   1.607   2.184   4.269
 8611SOL    HW226733   1.719   2.149   4.383
 8612SOL     OW26734   3.335   3.223   6.340
 8612SOL    HW126735   3.293   3.176   6.417
 8612SOL    HW226736   3.387   3.157   6.285
 8613SOL     OW26737   2.322   1.369   1.457
 8613SOL    HW126738   2.412   1.328   1.468
 8613SOL    HW226739   2.283   1.343   1.369
 8614SOL     OW26740   0.937   3.873   2.869
 8614SOL    HW126741   0.984   3.961   2.858
 8614SOL    HW226742   0.999   3.808   2.913
 8615SOL     OW26743   4.544   1.741   4.967
 8615SOL    HW126744   4.485   1.819   4.990
 8615SOL    HW226745   4.503   1.657   5.001
 8616SOL     OW26746   0.621   4.951   0.429
 8616SOL    HW126747   0.544   4.912   0.480
 8616SOL    HW226748   0.671   5.014   0.488
 8617SOL     OW26749   6.486   1.616   0.557
 8617SOL    HW126750   6.546   1.628   0.478
 8617SOL    HW226751   6.496   1.523   0.592
 8618SOL     OW26752   4.804   6.964   1.752
 8618SOL    HW126753   4.842   6.886   1.701
 8618SOL    HW226754   4.866   6.989   1.826
 8619SOL     OW26755   3.608   4.796   0.238
 8619SOL    HW126756   3.695   4.783   0.286
 8619SOL    HW226757   3.592   4.719   0.176
 8620SOL     OW26758   6.444   6.707   2.800
 8620SOL    HW126759   6.524   6.757   2.833
 8620SOL    HW226760   6.423   6.734   2.706
 8621SOL     OW26761   5.950   1.448   3.493
 8621SOL    HW126762   5.988   1.541   3.495
 8621SOL    HW226763   6.020   1.384   3.462
 8622SOL     OW26764   4.588   4.331   0.295
 8622SOL    HW126765   4.612   4.295   0.385
 8622SOL    HW226766   4.662   4.388   0.261
 8623SOL     OW26767   0.514   4.301   3.290
 8623SOL    HW126768   0.497   4.280   3.194
 8623SOL    HW226769   0.442   4.361   3.324
 8624SOL     OW26770   1.276   4.803   3.665
 8624SOL    HW126771   1.205   4.865   3.698
 8624SOL    HW226772   1.347   4.792   3.735
 8625SOL     OW26773   4.484   0.624   4.014
 8625SOL    HW126774   4.398   0.575   4.017
 8625SOL    HW226775   4.503   0.653   3.921
 8626SOL     OW26776   3.701   3.217   4.285
 8626SOL    HW126777   3.638   3.154   4.329
 8626SOL    HW226778   3.675   3.311   4.307
 8627SOL     OW26779   1.186   0.247   2.506
 8627SOL    HW126780   1.190   0.240   2.407
 8627SOL    HW226781   1.278   0.261   2.543
 8628SOL     OW26782   6.281   6.666   0.823
 8628SOL    HW126783   6.372   6.626   0.810
 8628SOL    HW226784   6.214   6.593   0.837
 8629SOL     OW26785   1.863   5.148   4.657
 8629SOL    HW126786   1.803   5.068   4.659
 8629SOL    HW226787   1.952   5.124   4.695
 8630SOL     OW26788   5.944   4.147   4.793
 8630SOL    HW126789   5.976   4.104   4.709
 8630SOL    HW226790   5.846   4.130   4.804
 8631SOL     OW26791   3.971   6.385   6.201
 8631SOL    HW126792   4.062   6.346   6.186
 8631SOL    HW226793   3.926   6.337   6.276
 8632SOL     OW26794   3.448   6.299   4.039
 8632SOL    HW126795   3.538   6.257   4.047
 8632SOL    HW226796   3.458   6.398   4.026
 8633SOL     OW26797   5.214   1.155   4.098
 8633SOL    HW126798   5.149   1.201   4.038
 8633SOL    HW226799   5.216   1.201   4.187
 8634SOL     OW26800   6.556   2.804   0.809
 8634SOL    HW126801   6.561   2.902   0.828
 8634SOL    HW226802   6.487   2.762   0.868
 8635SOL     OW26803   5.853   3.664   5.859
 8635SOL    HW126804   5.769   3.611   5.851
 8635SOL    HW226805   5.847   3.746   5.802
 8636SOL     OW26806   5.966   5.225   6.831
 8636SOL    HW126807   5.913   5.145   6.801
 8636SOL    HW226808   5.922   5.308   6.799
 8637SOL     OW26809   1.268   0.577   0.772
 8637SOL    HW126810   1.315   0.661   0.744
 8637SOL    HW226811   1.191   0.560   0.711
 8638SOL     OW26812   1.948   3.370   0.079
 8638SOL    HW126813   2.026   3.350   0.139
 8638SOL    HW226814   1.977   3.436   0.009
 8639SOL     OW26815   5.797   2.511   1.864
 8639SOL    HW126816   5.740   2.490   1.785
 8639SOL    HW226817   5.891   2.480   1.847
 8640SOL     OW26818   5.261   3.917   0.528
 8640SOL    HW126819   5.321   3.991   0.497
 8640SOL    HW226820   5.182   3.911   0.468
 8641SOL     OW26821   6.986   4.033   4.166
 8641SOL    HW126822   6.935   4.095   4.106
 8641SOL    HW226823   0.033   4.085   4.216
 8642SOL     OW26824   4.392   0.193   2.299
 8642SOL    HW126825   4.352   0.146   2.378
 8642SOL    HW226826   4.423   0.125   2.232
 8643SOL     OW26827   4.184   6.729   6.716
 8643SOL    HW126828   4.206   6.769   6.805
 8643SOL    HW226829   4.235   6.776   6.645
 8644SOL     OW26830   5.325   2.293   5.805
 8644SOL    HW126831   5.416   2.250   5.800
 8644SOL    HW226832   5.308   2.344   5.720
 8645SOL     OW26833   5.840   4.951   1.875
 8645SOL    HW126834   5.756   4.908   1.841
 8645SOL    HW226835   5.914   4.884   1.874
 8646SOL     OW26836   6.130   0.999   0.941
 8646SOL    HW126837   6.095   1.071   0.882
 8646SOL    HW226838   6.056   0.936   0.965
 8647SOL     OW26839   3.913   4.899   6.351
 8647SOL    HW126840   3.970   4.981   6.355
 8647SOL    HW226841   3.969   4.818   6.368
 8648SOL     OW26842   5.646   1.359   5.134
 8648SOL    HW126843   5.738   1.391   5.154
 8648SOL    HW226844   5.579   1.423   5.173
 8649SOL     OW26845   5.620   4.833   5.811
 8649SOL    HW126846   5.582   4.795   5.895
 8649SOL    HW226847   5.596   4.774   5.734
 8650SOL     OW26848   1.754   4.909   4.680
 8650SOL    HW126849   1.807   4.830   4.647
 8650SOL    HW226850   1.704   4.882   4.762
 8651SOL     OW26851   4.170   0.534   0.422
 8651SOL    HW126852   4.112   0.492   0.492
 8651SOL    HW226853   4.264   0.502   0.432
 8652SOL     OW26854   1.330   4.533   3.043
 8652SOL    HW126855   1.266   4.583   3.102
 8652SOL    HW226856   1.417   4.582   3.039
 8653SOL     OW26857   6.415   2.839   6.412
 8653SOL    HW126858   6.412   2.900   6.333
 8653SOL    HW226859   6.331   2.850   6.465
 8654SOL     OW26860   0.476   6.398   1.812
 8654SOL    HW126861   0.410   6.461   1.852
 8654SOL    HW226862   0.530   6.356   1.885
 8655SOL     OW26863   5.843   0.556   3.791
 8655SOL    HW126864   5.745   0.539   3.779
 8655SOL    HW226865   5.890   0.469   3.805
 8656SOL     OW26866   6.376   1.230   1.047
 8656SOL    HW126867   6.420   1.199   1.131
 8656SOL    HW226868   6.363   1.329   1.051
 8657SOL     OW26869   4.292   5.418   6.477
 8657SOL    HW126870   4.352   5.410   6.556
 8657SOL    HW226871   4.234   5.337   6.471
 8658SOL     OW26872   4.594   5.611   0.258
 8658SOL    HW126873   4.601   5.571   0.167
 8658SOL    HW226874   4.573   5.708   0.251
 8659SOL     OW26875   4.679   1.337   2.918
 8659SOL    HW126876   4.696   1.373   3.009
 8659SOL    HW226877   4.627   1.404   2.865
 8660SOL     OW26878   5.212   3.759   0.754
 8660SOL    HW126879   5.214   3.790   0.659
 8660SOL    HW226880   5.248   3.831   0.813
 8661SOL     OW26881   5.782   4.029   1.918
 8661SOL    HW126882   5.815   3.939   1.944
 8661SOL    HW226883   5.825   4.057   1.832
 8662SOL     OW26884   5.166   6.421   1.972
 8662SOL    HW126885   5.074   6.408   2.010
 8662SOL    HW226886   5.213   6.493   2.023
 8663SOL     OW26887   2.466   5.604   0.575
 8663SOL    HW126888   2.478   5.603   0.476
 8663SOL    HW226889   2.435   5.694   0.604
 8664SOL     OW26890   3.817   4.863   0.594
 8664SOL    HW126891   3.831   4.789   0.660
 8664SOL    HW226892   3.815   4.825   0.502
 8665SOL     OW26893   5.401   5.147   5.041
 8665SOL    HW126894   5.397   5.217   5.112
 8665SOL    HW226895   5.358   5.182   4.957
 8666SOL     OW26896   5.357   2.624   4.925
 8666SOL    HW126897   5.359   2.558   4.850
 8666SOL    HW226898   5.405   2.587   5.004
 8667SOL     OW26899   5.029   2.254   2.856
 8667SOL    HW126900   4.952   2.269   2.917
 8667SOL    HW226901   5.006   2.289   2.764
 8668SOL     OW26902   4.895   2.613   3.988
 8668SOL    HW126903   4.836   2.536   3.963
 8668SOL    HW226904   4.990   2.582   3.992
 8669SOL     OW26905   3.164   0.272   6.760
 8669SOL    HW126906   3.162   0.198   6.692
 8669SOL    HW226907   3.179   0.233   6.850
 8670SOL     OW26908   3.241   5.070   5.128
 8670SOL    HW126909   3.219   5.163   5.158
 8670SOL    HW226910   3.171   5.007   5.162
 8671SOL     OW26911   5.712   0.941   4.120
 8671SOL    HW126912   5.633   0.997   4.146
 8671SOL    HW226913   5.713   0.928   4.021
 8672SOL     OW26914   2.613   6.010   4.338
 8672SOL    HW126915   2.648   5.918   4.354
 8672SOL    HW226916   2.555   6.038   4.415
 8673SOL     OW26917   0.283   1.076   0.003
 8673SOL    HW126918   0.300   0.993   6.970
 8673SOL    HW226919   0.294   1.054   0.100
 8674SOL     OW26920   6.540   5.906   1.622
 8674SOL    HW126921   6.531   5.970   1.698
 8674SOL    HW226922   6.569   5.817   1.657
 8675SOL     OW26923   3.351   2.062   4.075
 8675SOL    HW126924   3.436   2.114   4.086
 8675SOL    HW226925   3.296   2.073   4.158
 8676SOL     OW26926   3.244   6.660   3.127
 8676SOL    HW126927   3.329   6.644   3.177
 8676SOL    HW226928   3.168   6.664   3.192
 8677SOL     OW26929   2.059   5.383   6.461
 8677SOL    HW126930   2.037   5.308   6.524
 8677SOL    HW226931   2.092   5.462   6.513
 8678SOL     OW26932   0.001   6.965   0.115
 8678SOL    HW126933   0.084   6.930   0.158
 8678SOL    HW226934   0.015   0.039   0.088
 8679SOL     OW26935   6.106   2.875   4.686
 8679SOL    HW126936   6.101   2.799   4.751
 8679SOL    HW226937   6.064   2.848   4.599
 8680SOL     OW26938   0.574   3.838   0.860
 8680SOL    HW126939   0.491   3.788   0.886
 8680SOL    HW226940   0.633   3.779   0.805
 8681SOL     OW26941   4.805   4.500   0.256
 8681SOL    HW126942   4.861   4.498   0.173
 8681SOL    HW226943   4.804   4.593   0.293
 8682SOL     OW26944   3.791   6.656   2.781
 8682SOL    HW126945   3.815   6.672   2.685
 8682SOL    HW226946   3.730   6.577   2.787
 8683SOL     OW26947   1.633   2.289   1.985
 8683SOL    HW126948   1.568   2.244   2.047
 8683SOL    HW226949   1.611   2.266   1.891
 8684SOL     OW26950   0.287   3.137   4.963
 8684SOL    HW126951   0.310   3.058   5.019
 8684SOL    HW226952   0.342   3.136   4.879
 8685SOL     OW26953   0.965   2.226   5.794
 8685SOL    HW126954   0.879   2.176   5.786
 8685SOL    HW226955   1.034   2.167   5.836
 8686SOL     OW26956   6.589   1.817   1.987
 8686SOL    HW126957   6.503   1.824   1.935
 8686SOL    HW226958   6.665   1.846   1.928
 8687SOL     OW26959   3.408   5.878   2.775
 8687SOL    HW126960   3.482   5.851   2.713
 8687SOL    HW226961   3.359   5.956   2.736
 8688SOL     OW26962   3.066   6.243   6.759
 8688SOL    HW126963   2.966   6.249   6.748
 8688SOL    HW226964   3.099   6.162   6.712
 8689SOL     OW26965   3.255   5.466   6.991
 8689SOL    HW126966   3.321   5.513   6.933
 8689SOL    HW226967   3.178   5.527   7.010
 8690SOL     OW26968   1.637   2.461   3.839
 8690SOL    HW126969   1.689   2.507   3.911
 8690SOL    HW226970   1.699   2.437   3.763
 8691SOL     OW26971   4.393   2.802   6.124
 8691SOL    HW126972   4.322   2.831   6.059
 8691SOL    HW226973   4.410   2.877   6.189
 8692SOL     OW26974   3.241   1.997   2.475
 8692SOL    HW126975   3.142   2.011   2.474
 8692SOL    HW226976   3.279   2.028   2.388
 8693SOL     OW26977   5.717   2.073   0.818
 8693SOL    HW126978   5.805   2.048   0.860
 8693SOL    HW226979   5.643   2.034   0.873
 8694SOL     OW26980   4.380   1.141   6.786
 8694SOL    HW126981   4.345   1.130   6.878
 8694SOL    HW226982   4.369   1.056   6.735
 8695SOL     OW26983   4.602   2.714   5.920
 8695SOL    HW126984   4.574   2.718   6.016
 8695SOL    HW226985   4.521   2.700   5.863
 8696SOL     OW26986   3.373   5.915   1.002
 8696SOL    HW126987   3.427   5.992   0.967
 8696SOL    HW226988   3.281   5.947   1.023
 8697SOL     OW26989   6.526   3.894   0.651
 8697SOL    HW126990   6.487   3.833   0.581
 8697SOL    HW226991   6.599   3.845   0.700
 8698SOL     OW26992   6.075   5.954   3.830
 8698SOL    HW126993   6.108   5.935   3.923
 8698SOL    HW226994   6.004   6.025   3.834
 8699SOL     OW26995   1.249   2.394   5.483
 8699SOL    HW126996   1.229   2.307   5.438
 8699SOL    HW226997   1.174   2.457   5.469
 8700SOL     OW26998   2.331   1.032   4.632
 8700SOL    HW126999   2.274   1.060   4.555
 8700SOL    HW227000   2.291   0.951   4.676
 8701SOL     OW27001   1.634   0.620   0.049
 8701SOL    HW127002   1.649   0.645   6.975
 8701SOL    HW227003   1.569   0.684   0.091
 8702SOL     OW27004   5.579   4.721   0.185
 8702SOL    HW127005   5.614   4.637   0.142
 8702SOL    HW227006   5.625   4.800   0.145
 8703SOL     OW27007   2.578   5.245   1.134
 8703SOL    HW127008   2.572   5.240   1.234
 8703SOL    HW227009   2.673   5.239   1.106
 8704SOL     OW27010   6.156   3.598   2.896
 8704SOL    HW127011   6.178   3.551   2.810
 8704SOL    HW227012   6.190   3.692   2.891
 8705SOL     OW27013   5.179   0.992   0.151
 8705SOL    HW127014   5.228   0.906   0.146
 8705SOL    HW227015   5.083   0.975   0.171
 8706SOL     OW27016   4.574   2.388   5.674
 8706SOL    HW127017   4.502   2.354   5.734
 8706SOL    HW227018   4.662   2.380   5.720
 8707SOL     OW27019   5.092   2.472   0.272
 8707SOL    HW127020   5.016   2.441   0.330
 8707SOL    HW227021   5.089   2.423   0.185
 8708SOL     OW27022   4.232   2.251   1.935
 8708SOL    HW127023   4.137   2.221   1.945
 8708SOL    HW227024   4.261   2.298   2.018
 8709SOL     OW27025   6.761   5.778   6.425
 8709SOL    HW127026   6.696   5.707   6.453
 8709SOL    HW227027   6.743   5.862   6.476
 8710SOL     OW27028   1.918   3.008   3.072
 8710SOL    HW127029   2.017   3.023   3.067
 8710SOL    HW227030   1.897   2.915   3.039
 8711SOL     OW27031   6.796   5.957   2.256
 8711SOL    HW127032   6.710   5.906   2.255
 8711SOL    HW227033   6.858   5.915   2.322
 8712SOL     OW27034   4.083   2.154   3.819
 8712SOL    HW127035   4.159   2.111   3.867
 8712SOL    HW227036   4.118   2.224   3.757
 8713SOL     OW27037   0.673   4.094   3.368
 8713SOL    HW127038   0.636   4.186   3.380
 8713SOL    HW227039   0.701   4.082   3.272
 8714SOL     OW27040   0.478   0.822   5.827
 8714SOL    HW127041   0.459   0.910   5.784
 8714SOL    HW227042   0.411   0.755   5.794
 8715SOL     OW27043   4.766   0.572   1.082
 8715SOL    HW127044   4.800   0.548   1.173
 8715SOL    HW227045   4.832   0.631   1.036
 8716SOL     OW27046   0.643   0.767   1.585
 8716SOL    HW127047   0.689   0.849   1.618
 8716SOL    HW227048   0.550   0.763   1.623
 8717SOL     OW27049   4.002   3.310   2.728
 8717SOL    HW127050   4.059   3.252   2.787
 8717SOL    HW227051   3.906   3.294   2.749
 8718SOL     OW27052   1.148   2.943   5.714
 8718SOL    HW127053   1.202   2.877   5.662
 8718SOL    HW227054   1.151   3.032   5.667
 8719SOL     OW27055   2.064   0.235   6.358
 8719SOL    HW127056   2.077   0.333   6.374
 8719SOL    HW227057   2.132   0.203   6.291
 8720SOL     OW27058   6.440   5.121   5.749
 8720SOL    HW127059   6.531   5.159   5.767
 8720SOL    HW227060   6.377   5.196   5.726
 8721SOL     OW27061   5.311   2.279   4.022
 8721SOL    HW127062   5.331   2.202   3.962
 8721SOL    HW227063   5.280   2.245   4.111
 8722SOL     OW27064   3.661   0.443   0.648
 8722SOL    HW127065   3.577   0.494   0.627
 8722SOL    HW227066   3.636   0.353   0.684
 8723SOL     OW27067   5.585   6.211   1.832
 8723SOL    HW127068   5.489   6.200   1.856
 8723SOL    HW227069   5.641   6.194   1.913
 8724SOL     OW27070   6.119   6.554   4.610
 8724SOL    HW127071   6.043   6.586   4.554
 8724SOL    HW227072   6.099   6.568   4.706
 8725SOL     OW27073   2.982   6.862   0.055
 8725SOL    HW127074   2.972   6.788   7.009
 8725SOL    HW227075   2.892   6.888   0.089
 8726SOL     OW27076   6.662   0.851   1.090
 8726SOL    HW127077   6.563   0.842   1.078
 8726SOL    HW227078   6.688   0.947   1.089
 8727SOL     OW27079   6.390   6.496   2.030
 8727SOL    HW127080   6.431   6.515   1.940
 8727SOL    HW227081   6.434   6.554   2.099
 8728SOL     OW27082   4.123   6.947   4.463
 8728SOL    HW127083   4.164   6.921   4.376
 8728SOL    HW227084   4.157   0.015   4.491
 8729SOL     OW27085   4.710   6.212   3.307
 8729SOL    HW127086   4.768   6.285   3.342
 8729SOL    HW227087   4.632   6.199   3.369
 8730SOL     OW27088   6.723   5.562   2.704
 8730SOL    HW127089   6.723   5.462   2.701
 8730SOL    HW227090   6.661   5.594   2.775
 8731SOL     OW27091   2.325   1.877   2.801
 8731SOL    HW127092   2.249   1.831   2.847
 8731SOL    HW227093   2.380   1.809   2.752
 8732SOL     OW27094   4.841   4.561   1.876
 8732SOL    HW127095   4.930   4.594   1.847
 8732SOL    HW227096   4.818   4.478   1.824
 8733SOL     OW27097   1.405   5.949   3.124
 8733SOL    HW127098   1.439   5.914   3.037
 8733SOL    HW227099   1.449   6.037   3.145
 8734SOL     OW27100   1.008   4.640   1.803
 8734SOL    HW127101   1.097   4.678   1.829
 8734SOL    HW227102   0.982   4.675   1.712
 8735SOL     OW27103   0.841   1.362   0.018
 8735SOL    HW127104   0.829   1.442   6.981
 8735SOL    HW227105   0.872   1.284   6.986
 8736SOL     OW27106   0.997   6.619   0.215
 8736SOL    HW127107   1.075   6.561   0.192
 8736SOL    HW227108   1.029   6.710   0.239
 8737SOL     OW27109   3.248   6.980   6.132
 8737SOL    HW127110   3.266   6.887   6.164
 8737SOL    HW227111   3.194   0.007   6.201
 8738SOL     OW27112   2.224   3.976   4.022
 8738SOL    HW127113   2.247   4.072   4.009
 8738SOL    HW227114   2.180   3.964   4.111
 8739SOL     OW27115   6.558   5.414   5.702
 8739SOL    HW127116   6.500   5.493   5.687
 8739SOL    HW227117   6.595   5.383   5.615
 8740SOL     OW27118   4.091   1.474   5.533
 8740SOL    HW127119   4.185   1.482   5.566
 8740SOL    HW227120   4.089   1.415   5.452
 8741SOL     OW27121   1.865   1.231   2.132
 8741SOL    HW127122   1.933   1.184   2.188
 8741SOL    HW227123   1.827   1.167   2.065
 8742SOL     OW27124   5.252   5.978   1.738
 8742SOL    HW127125   5.240   6.055   1.676
 8742SOL    HW227126   5.256   5.893   1.685
 8743SOL     OW27127   2.206   6.766   2.903
 8743SOL    HW127128   2.211   6.801   2.996
 8743SOL    HW227129   2.277   6.810   2.847
 8744SOL     OW27130   3.696   2.641   6.291
 8744SOL    HW127131   3.739   2.645   6.201
 8744SOL    HW227132   3.711   2.550   6.331
 8745SOL     OW27133   6.549   2.671   5.633
 8745SOL    HW127134   6.533   2.769   5.639
 8745SOL    HW227135   6.481   2.622   5.687
 8746SOL     OW27136   4.470   4.326   5.289
 8746SOL    HW127137   4.539   4.265   5.249
 8746SOL    HW227138   4.416   4.368   5.216
 8747SOL     OW27139   0.832   2.772   3.304
 8747SOL    HW127140   0.802   2.699   3.365
 8747SOL    HW227141   0.825   2.860   3.351
 8748SOL     OW27142   0.533   1.032   6.640
 8748SOL    HW127143   0.510   1.094   6.565
 8748SOL    HW227144   0.477   0.949   6.633
 8749SOL     OW27145   2.574   7.005   4.833
 8749SOL    HW127146   2.594   0.080   4.849
 8749SOL    HW227147   2.530   6.995   4.743
 8750SOL     OW27148   2.570   3.238   5.344
 8750SOL    HW127149   2.619   3.184   5.413
 8750SOL    HW227150   2.526   3.176   5.279
 8751SOL     OW27151   6.387   6.801   2.103
 8751SOL    HW127152   6.460   6.826   2.167
 8751SOL    HW227153   6.427   6.778   2.014
 8752SOL     OW27154   2.906   4.151   6.993
 8752SOL    HW127155   2.845   4.120   0.045
 8752SOL    HW227156   2.899   4.088   6.916
 8753SOL     OW27157   5.044   1.631   4.674
 8753SOL    HW127158   5.137   1.667   4.678
 8753SOL    HW227159   4.990   1.671   4.748
 8754SOL     OW27160   0.734   2.070   5.795
 8754SOL    HW127161   0.726   2.091   5.892
 8754SOL    HW227162   0.673   2.131   5.743
 8755SOL     OW27163   2.837   1.336   6.676
 8755SOL    HW127164   2.912   1.275   6.650
 8755SOL    HW227165   2.801   1.308   6.765
 8756SOL     OW27166   2.196   3.233   3.275
 8756SOL    HW127167   2.224   3.329   3.269
 8756SOL    HW227168   2.154   3.216   3.365
 8757SOL     OW27169   5.700   6.638   5.627
 8757SOL    HW127170   5.666   6.643   5.721
 8757SOL    HW227171   5.796   6.608   5.628
 8758SOL     OW27172   5.119   5.911   2.356
 8758SOL    HW127173   5.182   5.988   2.368
 8758SOL    HW227174   5.024   5.943   2.365
 8759SOL     OW27175   4.268   1.949   6.442
 8759SOL    HW127176   4.283   1.918   6.535
 8759SOL    HW227177   4.253   1.870   6.382
 8760SOL     OW27178   2.190   1.829   4.945
 8760SOL    HW127179   2.145   1.916   4.925
 8760SOL    HW227180   2.126   1.768   4.992
 8761SOL     OW27181   4.394   0.214   0.791
 8761SOL    HW127182   4.328   0.268   0.842
 8761SOL    HW227183   4.484   0.224   0.832
 8762SOL     OW27184   1.491   3.113   2.564
 8762SOL    HW127185   1.585   3.134   2.591
 8762SOL    HW227186   1.428   3.151   2.631
 8763SOL     OW27187   6.201   6.085   4.642
 8763SOL    HW127188   6.146   6.002   4.650
 8763SOL    HW227189   6.251   6.084   4.555
 8764SOL     OW27190   4.803   1.030   4.083
 8764SOL    HW127191   4.713   0.987   4.075
 8764SOL    HW227192   4.841   1.010   4.173
 8765SOL     OW27193   6.147   6.299   4.795
 8765SOL    HW127194   6.164   6.236   4.719
 8765SOL    HW227195   6.066   6.354   4.775
 8766SOL     OW27196   4.153   4.709   3.143
 8766SOL    HW127197   4.232   4.666   3.187
 8766SOL    HW227198   4.175   4.731   3.048
 8767SOL     OW27199   4.553   0.624   3.087
 8767SOL    HW127200   4.470   0.572   3.106
 8767SOL    HW227201   4.582   0.673   3.169
 8768SOL     OW27202   2.155   3.116   0.088
 8768SOL    HW127203   2.063   3.129   0.125
 8768SOL    HW227204   2.216   3.086   0.161
 8769SOL     OW27205   0.567   0.492   5.194
 8769SOL    HW127206   0.575   0.402   5.235
 8769SOL    HW227207   0.621   0.496   5.110
 8770SOL     OW27208   5.030   4.052   2.006
 8770SOL    HW127209   5.053   4.148   1.992
 8770SOL    HW227210   4.938   4.035   1.972
 8771SOL     OW27211   2.225   0.177   6.134
 8771SOL    HW127212   2.225   0.263   6.082
 8771SOL    HW227213   2.186   0.104   6.078
 8772SOL     OW27214   5.764   0.020   0.082
 8772SOL    HW127215   5.859   7.010   0.079
 8772SOL    HW227216   5.748   0.084   0.007
 8773SOL     OW27217   4.518   1.930   3.625
 8773SOL    HW127218   4.449   1.946   3.555
 8773SOL    HW227219   4.595   1.992   3.612
 8774SOL     OW27220   1.710   1.171   0.652
 8774SOL    HW127221   1.776   1.108   0.694
 8774SOL    HW227222   1.759   1.247   0.610
 8775SOL     OW27223   5.893   0.154   4.045
 8775SOL    HW127224   5.850   0.176   3.958
 8775SOL    HW227225   5.883   0.232   4.108
 8776SOL     OW27226   3.219   2.962   5.097
 8776SOL    HW127227   3.163   3.018   5.157
 8776SOL    HW227228   3.228   3.007   5.008
 8777SOL     OW27229   6.857   4.070   1.279
 8777SOL    HW127230   6.903   4.113   1.202
 8777SOL    HW227231   6.914   4.080   1.361
 8778SOL     OW27232   0.470   2.739   4.344
 8778SOL    HW127233   0.380   2.761   4.382
 8778SOL    HW227234   0.463   2.657   4.287
 8779SOL     OW27235   2.037   5.370   1.840
 8779SOL    HW127236   1.967   5.299   1.836
 8779SOL    HW227237   2.074   5.385   1.748
 8780SOL     OW27238   1.386   5.871   3.406
 8780SOL    HW127239   1.380   5.967   3.434
 8780SOL    HW227240   1.363   5.864   3.309
 8781SOL     OW27241   6.847   2.010   3.821
 8781SOL    HW127242   6.797   2.040   3.903
 8781SOL    HW227243   6.820   2.065   3.743
 8782SOL     OW27244   5.583   0.957   1.108
 8782SOL    HW127245   5.637   0.909   1.178
 8782SOL    HW227246   5.526   1.026   1.152
 8783SOL     OW27247   5.875   3.659   3.803
 8783SOL    HW127248   5.819   3.593   3.854
 8783SOL    HW227249   5.849   3.752   3.831
 8784SOL     OW27250   4.805   4.525   5.171
 8784SOL    HW127251   4.770   4.436   5.144
 8784SOL    HW227252   4.904   4.519   5.185
 8785SOL     OW27253   5.499   3.449   0.137
 8785SOL    HW127254   5.566   3.463   0.209
 8785SOL    HW227255   5.529   3.374   0.078
 8786SOL     OW27256   2.415   6.517   6.965
 8786SOL    HW127257   2.386   6.502   6.870
 8786SOL    HW227258   2.361   6.590   7.005
 8787SOL     OW27259   1.597   2.599   1.974
 8787SOL    HW127260   1.591   2.639   2.066
 8787SOL    HW227261   1.654   2.516   1.977
 8788SOL     OW27262   6.613   2.180   5.593
 8788SOL    HW127263   6.530   2.193   5.539
 8788SOL    HW227264   6.594   2.202   5.689
 8789SOL     OW27265   5.893   0.182   6.037
 8789SOL    HW127266   5.976   0.236   6.050
 8789SOL    HW227267   5.857   0.154   6.126
 8790SOL     OW27268   6.695   1.097   0.331
 8790SOL    HW127269   6.680   1.102   0.233
 8790SOL    HW227270   6.722   1.187   0.365
 8791SOL     OW27271   5.026   0.294   5.616
 8791SOL    HW127272   4.984   0.372   5.570
 8791SOL    HW227273   4.983   0.209   5.584
 8792SOL     OW27274   4.179   6.680   3.056
 8792SOL    HW127275   4.257   6.710   3.001
 8792SOL    HW227276   4.141   6.758   3.105
 8793SOL     OW27277   2.011   5.800   4.237
 8793SOL    HW127278   2.032   5.798   4.139
 8793SOL    HW227279   2.078   5.856   4.284
 8794SOL     OW27280   3.147   6.132   2.360
 8794SOL    HW127281   3.181   6.118   2.453
 8794SOL    HW227282   3.098   6.219   2.355
 8795SOL     OW27283   1.364   6.714   5.089
 8795SOL    HW127284   1.341   6.658   5.010
 8795SOL    HW227285   1.451   6.760   5.073
 8796SOL     OW27286   3.789   1.406   5.381
 8796SOL    HW127287   3.811   1.399   5.478
 8796SOL    HW227288   3.809   1.499   5.349
 8797SOL     OW27289   1.694   6.495   5.923
 8797SOL    HW127290   1.625   6.438   5.879
 8797SOL    HW227291   1.771   6.439   5.952
 8798SOL     OW27292   5.732   4.296   5.243
 8798SOL    HW127293   5.830   4.314   5.235
 8798SOL    HW227294   5.681   4.380   5.228
 8799SOL     OW27295   2.394   4.733   3.274
 8799SOL    HW127296   2.376   4.830   3.291
 8799SOL    HW227297   2.367   4.710   3.180
 8800SOL     OW27298   5.307   3.552   5.329
 8800SOL    HW127299   5.213   3.536   5.357
 8800SOL    HW227300   5.321   3.650   5.314
 8801SOL     OW27301   2.238   0.836   4.215
 8801SOL    HW127302   2.267   0.782   4.294
 8801SOL    HW227303   2.268   0.931   4.226
 8802SOL     OW27304   1.071   0.336   1.478
 8802SOL    HW127305   1.013   0.263   1.514
 8802SOL    HW227306   1.047   0.354   1.382
 8803SOL     OW27307   1.648   4.693   6.035
 8803SOL    HW127308   1.663   4.594   6.046
 8803SOL    HW227309   1.587   4.709   5.959
 8804SOL     OW27310   3.762   0.715   1.461
 8804SOL    HW127311   3.816   0.739   1.380
 8804SOL    HW227312   3.805   0.754   1.543
 8805SOL     OW27313   2.493   0.157   3.607
 8805SOL    HW127314   2.503   0.160   3.706
 8805SOL    HW227315   2.447   0.072   3.580
 8806SOL     OW27316   2.135   5.410   1.578
 8806SOL    HW127317   2.226   5.440   1.548
 8806SOL    HW227318   2.110   5.326   1.529
 8807SOL     OW27319   6.544   5.940   6.275
 8807SOL    HW127320   6.584   5.984   6.356
 8807SOL    HW227321   6.528   6.009   6.205
 8808SOL     OW27322   5.428   1.624   0.906
 8808SOL    HW127323   5.507   1.565   0.888
 8808SOL    HW227324   5.359   1.610   0.835
 8809SOL     OW27325   5.450   3.866   1.851
 8809SOL    HW127326   5.355   3.835   1.858
 8809SOL    HW227327   5.482   3.898   1.940
 8810SOL     OW27328   5.722   1.151   5.354
 8810SOL    HW127329   5.660   1.082   5.317
 8810SOL    HW227330   5.691   1.242   5.327
 8811SOL     OW27331   2.380   1.744   4.125
 8811SOL    HW127332   2.424   1.821   4.172
 8811SOL    HW227333   2.359   1.771   4.031
 8812SOL     OW27334   0.884   0.800   0.818
 8812SOL    HW127335   0.847   0.709   0.803
 8812SOL    HW227336   0.843   0.841   0.900
 8813SOL     OW27337   0.889   4.989   1.759
 8813SOL    HW127338   0.817   5.057   1.744
 8813SOL    HW227339   0.965   5.008   1.697
 8814SOL     OW27340   6.760   0.825   0.367
 8814SOL    HW127341   6.705   0.900   0.330
 8814SOL    HW227342   6.803   0.854   0.453
 8815SOL     OW27343   6.468   5.896   0.743
 8815SOL    HW127344   6.544   5.960   0.759
 8815SOL    HW227345   6.458   5.836   0.822
 8816SOL     OW27346   1.069   0.181   0.947
 8816SOL    HW127347   1.044   0.085   0.932
 8816SOL    HW227348   1.166   0.186   0.971
 8817SOL     OW27349   0.448   5.550   5.697
 8817SOL    HW127350   0.508   5.598   5.633
 8817SOL    HW227351   0.368   5.607   5.716
 8818SOL     OW27352   0.469   3.607   3.264
 8818SOL    HW127353   0.480   3.599   3.164
 8818SOL    HW227354   0.388   3.556   3.293
 8819SOL     OW27355   4.814   6.410   4.140
 8819SOL    HW127356   4.727   6.391   4.093
 8819SOL    HW227357   4.821   6.508   4.156
 8820SOL     OW27358   2.543   2.224   4.126
 8820SOL    HW127359   2.537   2.144   4.186
 8820SOL    HW227360   2.511   2.199   4.034
 8821SOL     OW27361   1.558   6.419   6.825
 8821SOL    HW127362   1.571   6.368   6.740
 8821SOL    HW227363   1.507   6.503   6.806
 8822SOL     OW27364   0.712   0.354   3.191
 8822SOL    HW127365   0.680   0.354   3.096
 8822SOL    HW227366   0.700   0.445   3.230
 8823SOL     OW27367   1.878   0.182   1.169
 8823SOL    HW127368   1.852   0.207   1.262
 8823SOL    HW227369   1.861   0.260   1.108
 8824SOL     OW27370   2.664   3.616   0.756
 8824SOL    HW127371   2.636   3.551   0.685
 8824SOL    HW227372   2.624   3.705   0.738
 8825SOL     OW27373   1.817   0.446   3.617
 8825SOL    HW127374   1.907   0.415   3.587
 8825SOL    HW227375   1.747   0.414   3.552
 8826SOL     OW27376   6.209   2.339   0.384
 8826SOL    HW127377   6.135   2.347   0.317
 8826SOL    HW227378   6.195   2.257   0.439
 8827SOL     OW27379   3.244   1.557   3.088
 8827SOL    HW127380   3.322   1.507   3.125
 8827SOL    HW227381   3.161   1.502   3.100
 8828SOL     OW27382   4.110   5.555   3.980
 8828SOL    HW127383   4.107   5.607   4.065
 8828SOL    HW227384   4.147   5.614   3.907
 8829SOL     OW27385   0.127   3.104   0.410
 8829SOL    HW127386   0.159   3.136   0.321
 8829SOL    HW227387   0.119   3.004   0.408
 8830SOL     OW27388   0.093   1.589   0.179
 8830SOL    HW127389   0.130   1.673   0.218
 8830SOL    HW227390   0.015   1.558   0.235
 8831SOL     OW27391   5.222   1.124   3.463
 8831SOL    HW127392   5.151   1.162   3.404
 8831SOL    HW227393   5.279   1.061   3.410
 8832SOL     OW27394   6.764   6.489   2.328
 8832SOL    HW127395   6.669   6.511   2.304
 8832SOL    HW227396   6.797   6.554   2.396
 8833SOL     OW27397   2.135   6.470   5.241
 8833SOL    HW127398   2.097   6.390   5.194
 8833SOL    HW227399   2.175   6.532   5.174
 8834SOL     OW27400   5.634   3.709   4.430
 8834SOL    HW127401   5.564   3.644   4.399
 8834SOL    HW227402   5.591   3.797   4.449
 8835SOL     OW27403   6.128   0.516   5.540
 8835SOL    HW127404   6.167   0.587   5.481
 8835SOL    HW227405   6.075   0.559   5.614
 8836SOL     OW27406   4.119   1.099   0.180
 8836SOL    HW127407   4.072   1.063   0.099
 8836SOL    HW227408   4.055   1.151   0.236
 8837SOL     OW27409   0.827   0.198   2.459
 8837SOL    HW127410   0.888   0.183   2.537
 8837SOL    HW227411   0.835   0.293   2.428
 8838SOL     OW27412   2.898   5.308   3.125
 8838SOL    HW127413   2.923   5.313   3.028
 8838SOL    HW227414   2.798   5.309   3.133
 8839SOL     OW27415   5.470   5.960   2.892
 8839SOL    HW127416   5.526   6.035   2.856
 8839SOL    HW227417   5.529   5.882   2.913
 8840SOL     OW27418   6.536   2.112   2.254
 8840SOL    HW127419   6.596   2.115   2.333
 8840SOL    HW227420   6.584   2.146   2.174
 8841SOL     OW27421   1.410   0.863   5.218
 8841SOL    HW127422   1.455   0.873   5.129
 8841SOL    HW227423   1.466   0.906   5.288
 8842SOL     OW27424   3.355   2.687   0.204
 8842SOL    HW127425   3.426   2.649   0.264
 8842SOL    HW227426   3.381   2.780   0.178
 8843SOL     OW27427   1.421   2.493   5.717
 8843SOL    HW127428   1.366   2.455   5.643
 8843SOL    HW227429   1.473   2.572   5.683
 8844SOL     OW27430   5.559   1.132   6.419
 8844SOL    HW127431   5.634   1.167   6.476
 8844SOL    HW227432   5.474   1.177   6.445
 8845SOL     OW27433   4.032   3.508   0.117
 8845SOL    HW127434   4.002   3.435   0.177
 8845SOL    HW227435   4.121   3.543   0.147
 8846SOL     OW27436   2.369   6.037   4.165
 8846SOL    HW127437   2.357   5.981   4.083
 8846SOL    HW227438   2.325   5.992   4.243
 8847SOL     OW27439   3.166   0.811   2.757
 8847SOL    HW127440   3.134   0.871   2.830
 8847SOL    HW227441   3.117   0.832   2.673
 8848SOL     OW27442   2.523   1.078   1.229
 8848SOL    HW127443   2.460   1.071   1.152
 8848SOL    HW227444   2.472   1.071   1.315
 8849SOL     OW27445   2.688   5.992   3.101
 8849SOL    HW127446   2.655   5.897   3.099
 8849SOL    HW227447   2.776   5.996   3.147
 8850SOL     OW27448   1.817   1.713   0.206
 8850SOL    HW127449   1.735   1.769   0.194
 8850SOL    HW227450   1.802   1.648   0.281
 8851SOL     OW27451   1.952   4.828   2.751
 8851SOL    HW127452   1.956   4.891   2.829
 8851SOL    HW227453   1.991   4.740   2.778
 8852SOL     OW27454   1.004   1.848   5.851
 8852SOL    HW127455   1.038   1.820   5.761
 8852SOL    HW227456   0.905   1.857   5.849
 8853SOL     OW27457   3.108   1.428   1.610
 8853SOL    HW127458   3.042   1.362   1.575
 8853SOL    HW227459   3.142   1.397   1.699
 8854SOL     OW27460   2.019   3.288   4.705
 8854SOL    HW127461   2.078   3.292   4.786
 8854SOL    HW227462   2.038   3.204   4.655
 8855SOL     OW27463   6.455   5.058   1.666
 8855SOL    HW127464   6.427   5.105   1.582
 8855SOL    HW227465   6.531   5.108   1.709
 8856SOL     OW27466   6.142   5.751   6.473
 8856SOL    HW127467   6.068   5.802   6.429
 8856SOL    HW227468   6.206   5.814   6.516
 8857SOL     OW27469   6.648   1.946   5.091
 8857SOL    HW127470   6.734   1.988   5.062
 8857SOL    HW227471   6.654   1.922   5.188
 8858SOL     OW27472   0.234   4.703   4.961
 8858SOL    HW127473   0.174   4.706   4.881
 8858SOL    HW227474   0.211   4.777   5.023
 8859SOL     OW27475   1.215   0.990   4.032
 8859SOL    HW127476   1.306   0.984   3.993
 8859SOL    HW227477   1.202   1.080   4.073
 8860SOL     OW27478   6.971   3.183   1.492
 8860SOL    HW127479   6.873   3.181   1.468
 8860SOL    HW227480   7.022   3.229   1.419
 8861SOL     OW27481   3.958   1.198   0.614
 8861SOL    HW127482   3.917   1.197   0.523
 8861SOL    HW227483   3.953   1.107   0.654
 8862SOL     OW27484   4.736   5.811   4.224
 8862SOL    HW127485   4.788   5.894   4.244
 8862SOL    HW227486   4.662   5.831   4.160
 8863SOL     OW27487   1.838   4.896   3.330
 8863SOL    HW127488   1.795   4.840   3.401
 8863SOL    HW227489   1.768   4.931   3.268
 8864SOL     OW27490   4.787   3.546   6.305
 8864SOL    HW127491   4.760   3.467   6.359
 8864SOL    HW227492   4.706   3.591   6.268
 8865SOL     OW27493   2.913   1.282   5.996
 8865SOL    HW127494   2.824   1.262   6.038
 8865SOL    HW227495   2.907   1.268   5.898
 8866SOL     OW27496   5.653   6.630   2.598
 8866SOL    HW127497   5.750   6.649   2.586
 8866SOL    HW227498   5.615   6.692   2.667
 8867SOL     OW27499   6.149   3.705   3.693
 8867SOL    HW127500   6.185   3.791   3.730
 8867SOL    HW227501   6.052   3.697   3.716
 8868SOL     OW27502   6.935   3.149   2.214
 8868SOL    HW127503   6.961   3.221   2.149
 8868SOL    HW227504   6.909   3.191   2.301
 8869SOL     OW27505   4.171   5.232   4.317
 8869SOL    HW127506   4.085   5.191   4.286
 8869SOL    HW227507   4.242   5.162   4.322
 8870SOL     OW27508   2.151   6.550   1.536
 8870SOL    HW127509   2.078   6.484   1.551
 8870SOL    HW227510   2.186   6.582   1.624
 8871SOL     OW27511   1.272   1.399   3.064
 8871SOL    HW127512   1.339   1.332   3.030
 8871SOL    HW227513   1.189   1.351   3.092
 8872SOL     OW27514   1.200   4.534   6.258
 8872SOL    HW127515   1.263   4.473   6.210
 8872SOL    HW227516   1.125   4.480   6.296
 8873SOL     OW27517   1.818   0.519   1.763
 8873SOL    HW127518   1.851   0.539   1.671
 8873SOL    HW227519   1.743   0.582   1.786
 8874SOL     OW27520   1.216   5.008   1.514
 8874SOL    HW127521   1.150   4.984   1.443
 8874SOL    HW227522   1.308   4.982   1.484
 8875SOL     OW27523   6.740   3.174   4.152
 8875SOL    HW127524   6.808   3.150   4.083
 8875SOL    HW227525   6.783   3.177   4.242
 8876SOL     OW27526   2.912   0.622   6.536
 8876SOL    HW127527   2.962   0.707   6.522
 8876SOL    HW227528   2.871   0.593   6.450
 8877SOL     OW27529   1.190   3.602   2.082
 8877SOL    HW127530   1.122   3.665   2.119
 8877SOL    HW227531   1.278   3.650   2.074
 8878SOL     OW27532   3.453   4.210   0.760
 8878SOL    HW127533   3.545   4.177   0.780
 8878SOL    HW227534   3.457   4.308   0.737
 8879SOL     OW27535   6.933   4.904   2.621
 8879SOL    HW127536   6.892   4.963   2.551
 8879SOL    HW227537   6.939   4.811   2.586
 8880SOL     OW27538   4.157   6.422   3.976
 8880SOL    HW127539   4.200   6.510   3.955
 8880SOL    HW227540   4.060   6.437   3.995
 8881SOL     OW27541   5.475   4.858   3.874
 8881SOL    HW127542   5.417   4.781   3.903
 8881SOL    HW227543   5.489   4.920   3.952
 8882SOL     OW27544   3.889   0.856   0.363
 8882SOL    HW127545   3.824   0.814   0.300
 8882SOL    HW227546   3.978   0.810   0.355
 8883SOL     OW27547   0.232   6.868   5.971
 8883SOL    HW127548   0.314   6.913   5.935
 8883SOL    HW227549   0.228   6.882   6.070
 8884SOL     OW27550   5.573   4.484   5.170
 8884SOL    HW127551   5.485   4.460   5.128
 8884SOL    HW227552   5.625   4.542   5.107
 8885SOL     OW27553   5.536   5.096   6.996
 8885SOL    HW127554   5.438   5.080   7.002
 8885SOL    HW227555   5.554   5.194   7.007
 8886SOL     OW27556   3.735   5.514   6.247
 8886SOL    HW127557   3.765   5.429   6.288
 8886SOL    HW227558   3.815   5.571   6.225
 8887SOL     OW27559   4.289   0.690   0.975
 8887SOL    HW127560   4.382   0.671   0.943
 8887SOL    HW227561   4.290   0.706   1.073
 8888SOL     OW27562   1.461   1.694   3.404
 8888SOL    HW127563   1.408   1.693   3.488
 8888SOL    HW227564   1.559   1.686   3.425
 8889SOL     OW27565   6.622   6.607   6.419
 8889SOL    HW127566   6.540   6.661   6.438
 8889SOL    HW227567   6.650   6.559   6.502
 8890SOL     OW27568   0.777   6.044   6.800
 8890SOL    HW127569   0.702   5.978   6.811
 8890SOL    HW227570   0.802   6.082   6.889
 8891SOL     OW27571   4.746   4.379   6.825
 8891SOL    HW127572   4.735   4.296   6.771
 8891SOL    HW227573   4.843   4.402   6.832
 8892SOL     OW27574   3.787   4.885   3.835
 8892SOL    HW127575   3.879   4.856   3.861
 8892SOL    HW227576   3.786   4.984   3.822
 8893SOL     OW27577   1.365   5.020   5.072
 8893SOL    HW127578   1.277   4.995   5.111
 8893SOL    HW227579   1.351   5.078   4.991
 8894SOL     OW27580   4.978   2.000   0.792
 8894SOL    HW127581   5.034   1.919   0.808
 8894SOL    HW227582   4.900   1.999   0.854
 8895SOL     OW27583   0.891   3.117   0.655
 8895SOL    HW127584   0.865   3.209   0.685
 8895SOL    HW227585   0.991   3.111   0.649
 8896SOL     OW27586   1.663   2.619   5.319
 8896SOL    HW127587   1.680   2.632   5.221
 8896SOL    HW227588   1.593   2.549   5.332
 8897SOL     OW27589   2.117   3.980   3.419
 8897SOL    HW127590   2.053   4.057   3.422
 8897SOL    HW227591   2.170   3.978   3.503
 8898SOL     OW27592   5.696   3.826   2.661
 8898SOL    HW127593   5.611   3.820   2.609
 8898SOL    HW227594   5.774   3.807   2.601
 8899SOL     OW27595   6.561   5.350   6.103
 8899SOL    HW127596   6.644   5.370   6.154
 8899SOL    HW227597   6.584   5.310   6.015
 8900SOL     OW27598   5.371   2.419   3.442
 8900SOL    HW127599   5.337   2.424   3.348
 8900SOL    HW227600   5.471   2.424   3.442
 8901SOL     OW27601   1.020   2.274   3.295
 8901SOL    HW127602   1.066   2.241   3.213
 8901SOL    HW227603   1.084   2.329   3.349
 8902SOL     OW27604   1.398   5.075   0.249
 8902SOL    HW127605   1.457   4.995   0.254
 8902SOL    HW227606   1.409   5.131   0.331
 8903SOL     OW27607   1.472   1.264   5.338
 8903SOL    HW127608   1.375   1.264   5.364
 8903SOL    HW227609   1.481   1.251   5.240
 8904SOL     OW27610   0.512   1.517   2.927
 8904SOL    HW127611   0.498   1.464   3.011
 8904SOL    HW227612   0.608   1.512   2.901
 8905SOL     OW27613   1.679   2.871   2.665
 8905SOL    HW127614   1.638   2.860   2.574
 8905SOL    HW227615   1.774   2.840   2.662
 8906SOL     OW27616   0.630   6.565   0.829
 8906SOL    HW127617   0.534   6.558   0.801
 8906SOL    HW227618   0.663   6.475   0.855
 8907SOL     OW27619   3.264   2.739   5.251
 8907SOL    HW127620   3.239   2.646   5.223
 8907SOL    HW227621   3.227   2.805   5.186
 8908SOL     OW27622   1.374   4.754   0.469
 8908SOL    HW127623   1.417   4.726   0.384
 8908SOL    HW227624   1.292   4.699   0.485
 8909SOL     OW27625   2.572   1.276   6.327
 8909SOL    HW127626   2.654   1.223   6.310
 8909SOL    HW227627   2.506   1.261   6.253
 8910SOL     OW27628   0.817   2.393   5.325
 8910SOL    HW127629   0.840   2.319   5.388
 8910SOL    HW227630   0.794   2.475   5.378
 8911SOL     OW27631   4.940   1.619   4.418
 8911SOL    HW127632   4.982   1.636   4.507
 8911SOL    HW227633   4.955   1.523   4.392
 8912SOL     OW27634   3.800   3.097   5.465
 8912SOL    HW127635   3.777   3.078   5.370
 8912SOL    HW227636   3.742   3.171   5.500
 8913SOL     OW27637   5.238   5.066   0.052
 8913SOL    HW127638   5.276   4.989   0.104
 8913SOL    HW227639   5.205   5.034   6.985
 8914SOL     OW27640   4.994   6.939   5.042
 8914SOL    HW127641   5.087   6.950   5.007
 8914SOL    HW227642   4.933   7.001   4.993
 8915SOL     OW27643   1.090   1.638   4.126
 8915SOL    HW127644   1.113   1.571   4.196
 8915SOL    HW227645   1.005   1.611   4.081
 8916SOL     OW27646   5.664   1.893   6.648
 8916SOL    HW127647   5.616   1.973   6.686
 8916SOL    HW227648   5.600   1.817   6.638
 8917SOL     OW27649   6.008   1.720   0.522
 8917SOL    HW127650   6.095   1.738   0.568
 8917SOL    HW227651   5.955   1.805   0.517
 8918SOL     OW27652   1.597   5.406   0.824
 8918SOL    HW127653   1.607   5.306   0.831
 8918SOL    HW227654   1.526   5.437   0.887
 8919SOL     OW27655   4.750   4.935   6.619
 8919SOL    HW127656   4.677   4.884   6.663
 8919SOL    HW227657   4.780   5.009   6.679
 8920SOL     OW27658   0.728   1.263   0.320
 8920SOL    HW127659   0.634   1.252   0.287
 8920SOL    HW227660   0.791   1.253   0.244
 8921SOL     OW27661   1.079   2.730   1.111
 8921SOL    HW127662   1.166   2.716   1.063
 8921SOL    HW227663   1.060   2.828   1.115
 8922SOL     OW27664   3.643   6.601   2.138
 8922SOL    HW127665   3.711   6.561   2.077
 8922SOL    HW227666   3.586   6.530   2.177
 8923SOL     OW27667   1.193   2.045   5.891
 8923SOL    HW127668   1.132   1.966   5.882
 8923SOL    HW227669   1.281   2.025   5.849
 8924SOL     OW27670   5.278   5.745   4.798
 8924SOL    HW127671   5.242   5.756   4.705
 8924SOL    HW227672   5.203   5.724   4.861
 8925SOL     OW27673   0.310   0.693   2.319
 8925SOL    HW127674   0.356   0.677   2.406
 8925SOL    HW227675   0.235   0.627   2.308
 8926SOL     OW27676   6.746   3.767   5.277
 8926SOL    HW127677   6.678   3.836   5.250
 8926SOL    HW227678   6.716   3.723   5.362
 8927SOL     OW27679   6.854   2.116   5.479
 8927SOL    HW127680   6.890   2.163   5.398
 8927SOL    HW227681   6.768   2.160   5.506
 8928SOL     OW27682   2.104   0.046   5.920
 8928SOL    HW127683   2.103   0.143   5.898
 8928SOL    HW227684   2.010   0.013   5.931
 8929SOL     OW27685   6.196   2.273   4.949
 8929SOL    HW127686   6.189   2.372   4.951
 8929SOL    HW227687   6.116   2.232   4.994
 8930SOL     OW27688   0.823   3.413   2.934
 8930SOL    HW127689   0.825   3.360   3.018
 8930SOL    HW227690   0.791   3.506   2.953
 8931SOL     OW27691   3.003   2.681   1.570
 8931SOL    HW127692   3.070   2.658   1.499
 8931SOL    HW227693   3.051   2.715   1.651
 8932SOL     OW27694   0.225   1.991   3.148
 8932SOL    HW127695   0.222   1.926   3.072
 8932SOL    HW227696   0.321   2.009   3.172
 8933SOL     OW27697   2.749   2.249   6.594
 8933SOL    HW127698   2.829   2.189   6.588
 8933SOL    HW227699   2.714   2.267   6.502
 8934SOL     OW27700   3.263   5.422   4.945
 8934SOL    HW127701   3.272   5.338   4.891
 8934SOL    HW227702   3.254   5.398   5.041
 8935SOL     OW27703   0.464   4.971   0.795
 8935SOL    HW127704   0.548   5.006   0.836
 8935SOL    HW227705   0.435   5.032   0.722
 8936SOL     OW27706   1.900   3.715   0.543
 8936SOL    HW127707   1.910   3.733   0.445
 8936SOL    HW227708   1.957   3.780   0.594
 8937SOL     OW27709   0.556   6.928   5.422
 8937SOL    HW127710   0.565   6.837   5.380
 8937SOL    HW227711   0.514   6.991   5.357
 8938SOL     OW27712   0.388   5.530   0.871
 8938SOL    HW127713   0.289   5.522   0.881
 8938SOL    HW227714   0.432   5.455   0.921
 8939SOL     OW27715   4.717   2.331   4.718
 8939SOL    HW127716   4.679   2.419   4.746
 8939SOL    HW227717   4.724   2.328   4.618
 8940SOL     OW27718   0.409   1.077   3.891
 8940SOL    HW127719   0.382   1.026   3.972
 8940SOL    HW227720   0.498   1.121   3.907
 8941SOL     OW27721   5.782   1.986   5.836
 8941SOL    HW127722   5.778   1.896   5.792
 8941SOL    HW227723   5.788   1.974   5.935
 8942SOL     OW27724   0.544   3.435   5.844
 8942SOL    HW127725   0.622   3.495   5.823
 8942SOL    HW227726   0.479   3.439   5.768
 8943SOL     OW27727   4.776   3.963   0.509
 8943SOL    HW127728   4.767   3.883   0.568
 8943SOL    HW227729   4.702   4.027   0.528
 8944SOL     OW27730   5.121   5.335   5.503
 8944SOL    HW127731   5.129   5.317   5.601
 8944SOL    HW227732   5.034   5.379   5.484
 8945SOL     OW27733   2.092   0.714   4.555
 8945SOL    HW127734   2.173   0.693   4.500
 8945SOL    HW227735   2.015   0.659   4.522
 8946SOL     OW27736   3.142   2.097   4.968
 8946SOL    HW127737   3.211   2.067   4.901
 8946SOL    HW227738   3.171   2.183   5.009
 8947SOL     OW27739   1.460   3.374   5.124
 8947SOL    HW127740   1.560   3.362   5.122
 8947SOL    HW227741   1.422   3.350   5.035
 8948SOL     OW27742   5.987   5.556   3.875
 8948SOL    HW127743   5.939   5.596   3.797
 8948SOL    HW227744   6.045   5.480   3.843
 8949SOL     OW27745   1.684   0.003   0.820
 8949SOL    HW127746   1.643   0.090   0.794
 8949SOL    HW227747   1.780   0.018   0.845
 8950SOL     OW27748   4.703   3.134   5.553
 8950SOL    HW127749   4.743   3.086   5.630
 8950SOL    HW227750   4.747   3.223   5.542
 8951SOL     OW27751   2.079   2.091   4.883
 8951SOL    HW127752   1.982   2.077   4.903
 8951SOL    HW227753   2.123   2.135   4.961
 8952SOL     OW27754   1.013   0.881   2.195
 8952SOL    HW127755   1.055   0.905   2.282
 8952SOL    HW227756   1.046   0.791   2.166
 8953SOL     OW27757   1.009   3.715   6.733
 8953SOL    HW127758   1.045   3.707   6.640
 8953SOL    HW227759   1.031   3.632   6.784
 8954SOL     OW27760   0.507   5.923   5.444
 8954SOL    HW127761   0.573   5.864   5.493
 8954SOL    HW227762   0.515   6.016   5.478
 8955SOL     OW27763   0.164   3.922   2.600
 8955SOL    HW127764   0.199   3.841   2.552
 8955SOL    HW227765   0.078   3.950   2.559
 8956SOL     OW27766   0.121   1.517   6.792
 8956SOL    HW127767   0.204   1.574   6.791
 8956SOL    HW227768   0.051   1.562   6.848
 8957SOL     OW27769   3.124   4.148   1.557
 8957SOL    HW127770   3.028   4.124   1.570
 8957SOL    HW227771   3.169   4.157   1.645
 8958SOL     OW27772   1.077   0.781   4.167
 8958SOL    HW127773   1.127   0.830   4.096
 8958SOL    HW227774   0.995   0.738   4.128
 8959SOL     OW27775   1.314   4.192   1.041
 8959SOL    HW127776   1.329   4.141   0.956
 8959SOL    HW227777   1.403   4.222   1.077
 8960SOL     OW27778   4.783   5.531   2.830
 8960SOL    HW127779   4.726   5.579   2.897
 8960SOL    HW227780   4.879   5.557   2.843
 8961SOL     OW27781   1.531   2.365   4.537
 8961SOL    HW127782   1.553   2.296   4.469
 8961SOL    HW227783   1.558   2.455   4.504
 8962SOL     OW27784   6.117   7.008   1.958
 8962SOL    HW127785   6.098   6.966   2.047
 8962SOL    HW227786   6.129   6.937   1.889
 8963SOL     OW27787   4.800   6.670   4.224
 8963SOL    HW127788   4.805   6.717   4.312
 8963SOL    HW227789   4.832   6.730   4.151
 8964SOL     OW27790   6.003   4.082   2.714
 8964SOL    HW127791   6.054   4.093   2.799
 8964SOL    HW227792   6.067   4.067   2.639
 8965SOL     OW27793   1.768   4.805   1.004
 8965SOL    HW127794   1.720   4.718   0.996
 8965SOL    HW227795   1.781   4.845   0.913
 8966SOL     OW27796   1.872   3.628   5.605
 8966SOL    HW127797   1.865   3.563   5.530
 8966SOL    HW227798   1.966   3.662   5.612
 8967SOL     OW27799   3.344   5.927   1.571
 8967SOL    HW127800   3.261   5.933   1.516
 8967SOL    HW227801   3.321   5.940   1.667
 8968SOL     OW27802   4.582   5.543   2.576
 8968SOL    HW127803   4.612   5.573   2.667
 8968SOL    HW227804   4.497   5.492   2.585
 8969SOL     OW27805   6.418   0.688   3.824
 8969SOL    HW127806   6.321   0.674   3.803
 8969SOL    HW227807   6.462   0.733   3.747
 8970SOL     OW27808   3.221   2.512   0.469
 8970SOL    HW127809   3.173   2.589   0.512
 8970SOL    HW227810   3.198   2.508   0.372
 8971SOL     OW27811   3.545   5.730   2.543
 8971SOL    HW127812   3.542   5.830   2.542
 8971SOL    HW227813   3.480   5.694   2.476
 8972SOL     OW27814   4.634   6.050   6.463
 8972SOL    HW127815   4.562   6.045   6.395
 8972SOL    HW227816   4.609   6.116   6.534
 8973SOL     OW27817   0.443   3.364   2.020
 8973SOL    HW127818   0.514   3.320   1.965
 8973SOL    HW227819   0.391   3.427   1.962
 8974SOL     OW27820   1.644   4.217   5.753
 8974SOL    HW127821   1.706   4.206   5.675
 8974SOL    HW227822   1.575   4.144   5.752
 8975SOL     OW27823   2.836   0.855   6.898
 8975SOL    HW127824   2.737   0.843   6.888
 8975SOL    HW227825   2.856   0.906   6.982
 8976SOL     OW27826   1.082   4.952   5.122
 8976SOL    HW127827   1.049   4.868   5.165
 8976SOL    HW227828   1.007   5.018   5.116
 8977SOL     OW27829   5.742   1.701   6.859
 8977SOL    HW127830   5.830   1.654   6.872
 8977SOL    HW227831   5.707   1.681   6.768
 8978SOL     OW27832   6.152   6.308   6.344
 8978SOL    HW127833   6.105   6.396   6.329
 8978SOL    HW227834   6.117   6.266   6.427
 8979SOL     OW27835   1.422   3.247   4.018
 8979SOL    HW127836   1.424   3.290   4.108
 8979SOL    HW227837   1.437   3.317   3.947
 8980SOL     OW27838   2.435   2.871   5.636
 8980SOL    HW127839   2.364   2.804   5.614
 8980SOL    HW227840   2.410   2.960   5.599
 8981SOL     OW27841   4.043   1.833   5.074
 8981SOL    HW127842   4.005   1.925   5.075
 8981SOL    HW227843   4.042   1.798   4.980
 8982SOL     OW27844   1.307   2.697   0.175
 8982SOL    HW127845   1.330   2.610   0.133
 8982SOL    HW227846   1.251   2.682   0.257
 8983SOL     OW27847   2.669   6.042   6.681
 8983SOL    HW127848   2.701   6.089   6.763
 8983SOL    HW227849   2.739   5.978   6.649
 8984SOL     OW27850   1.151   0.121   3.953
 8984SOL    HW127851   1.182   0.162   4.038
 8984SOL    HW227852   1.218   0.053   3.922
 8985SOL     OW27853   3.862   2.184   0.915
 8985SOL    HW127854   3.806   2.244   0.857
 8985SOL    HW227855   3.803   2.117   0.960
 8986SOL     OW27856   4.386   5.314   3.003
 8986SOL    HW127857   4.360   5.220   2.979
 8986SOL    HW227858   4.318   5.378   2.967
 8987SOL     OW27859   3.790   6.452   1.979
 8987SOL    HW127860   3.818   6.360   2.006
 8987SOL    HW227861   3.826   6.473   1.888
 8988SOL     OW27862   1.631   4.769   4.239
 8988SOL    HW127863   1.690   4.800   4.165
 8988SOL    HW227864   1.686   4.726   4.310
 8989SOL     OW27865   4.729   3.343   6.456
 8989SOL    HW127866   4.741   3.249   6.426
 8989SOL    HW227867   4.764   3.354   6.549
 8990SOL     OW27868   1.375   5.208   4.655
 8990SOL    HW127869   1.446   5.219   4.724
 8990SOL    HW227870   1.402   5.137   4.590
 8991SOL     OW27871   1.749   3.345   4.671
 8991SOL    HW127872   1.840   3.304   4.683
 8991SOL    HW227873   1.738   3.422   4.734
 8992SOL     OW27874   4.638   1.928   0.776
 8992SOL    HW127875   4.545   1.895   0.765
 8992SOL    HW227876   4.663   1.983   0.696
 8993SOL     OW27877   3.625   2.871   0.662
 8993SOL    HW127878   3.564   2.794   0.684
 8993SOL    HW227879   3.575   2.938   0.608
 8994SOL     OW27880   1.806   4.184   5.530
 8994SOL    HW127881   1.780   4.241   5.452
 8994SOL    HW227882   1.799   4.088   5.506
 8995SOL     OW27883   0.478   1.685   0.109
 8995SOL    HW127884   0.488   1.608   0.046
 8995SOL    HW227885   0.507   1.659   0.200
 8996SOL     OW27886   5.555   4.330   6.423
 8996SOL    HW127887   5.516   4.239   6.409
 8996SOL    HW227888   5.482   4.399   6.414
 8997SOL     OW27889   4.827   1.474   5.975
 8997SOL    HW127890   4.766   1.514   6.044
 8997SOL    HW227891   4.896   1.417   6.021
 8998SOL     OW27892   5.919   3.637   4.366
 8998SOL    HW127893   5.837   3.679   4.406
 8998SOL    HW227894   5.897   3.603   4.274
 8999SOL     OW27895   4.629   6.454   6.570
 8999SOL    HW127896   4.628   6.463   6.470
 8999SOL    HW227897   4.609   6.542   6.612
 9000SOL     OW27898   1.861   3.202   2.353
 9000SOL    HW127899   1.793   3.258   2.304
 9000SOL    HW227900   1.953   3.231   2.325
 9001SOL     OW27901   1.073   4.895   1.941
 9001SOL    HW127902   1.072   4.892   2.041
 9001SOL    HW227903   0.980   4.910   1.907
 9002SOL     OW27904   2.058   5.264   5.064
 9002SOL    HW127905   2.035   5.326   4.988
 9002SOL    HW227906   2.070   5.171   5.029
 9003SOL     OW27907   5.571   4.170   1.346
 9003SOL    HW127908   5.502   4.134   1.283
 9003SOL    HW227909   5.640   4.221   1.295
 9004SOL     OW27910   4.239   5.356   0.930
 9004SOL    HW127911   4.232   5.412   1.013
 9004SOL    HW227912   4.149   5.319   0.908
 9005SOL     OW27913   6.692   1.890   5.391
 9005SOL    HW127914   6.595   1.911   5.403
 9005SOL    HW227915   6.747   1.963   5.429
 9006SOL     OW27916   2.568   5.835   1.151
 9006SOL    HW127917   2.619   5.831   1.065
 9006SOL    HW227918   2.491   5.899   1.141
 9007SOL     OW27919   3.307   0.854   3.111
 9007SOL    HW127920   3.221   0.854   3.059
 9007SOL    HW227921   3.379   0.896   3.056
 9008SOL     OW27922   0.334   5.287   2.745
 9008SOL    HW127923   0.368   5.367   2.795
 9008SOL    HW227924   0.351   5.299   2.647
 9009SOL     OW27925   3.640   4.623   0.849
 9009SOL    HW127926   3.638   4.722   0.837
 9009SOL    HW227927   3.696   4.600   0.930
 9010SOL     OW27928   1.879   6.441   4.130
 9010SOL    HW127929   1.794   6.469   4.175
 9010SOL    HW227930   1.918   6.518   4.081
 9011SOL     OW27931   4.537   0.584   1.287
 9011SOL    HW127932   4.525   0.485   1.287
 9011SOL    HW227933   4.630   0.607   1.258
 9012SOL     OW27934   2.053   5.216   0.019
 9012SOL    HW127935   2.139   5.260   0.044
 9012SOL    HW227936   2.071   5.122   7.011
 9013SOL     OW27937   1.022   0.988   6.081
 9013SOL    HW127938   1.052   0.895   6.104
 9013SOL    HW227939   1.088   1.030   6.018
 9014SOL     OW27940   0.009   1.960   0.728
 9014SOL    HW127941   0.087   2.013   0.695
 9014SOL    HW227942   6.984   1.918   0.650
 9015SOL     OW27943   4.832   2.308   1.691
 9015SOL    HW127944   4.748   2.282   1.642
 9015SOL    HW227945   4.874   2.387   1.646
 9016SOL     OW27946   6.300   5.878   6.668
 9016SOL    HW127947   6.303   5.971   6.631
 9016SOL    HW227948   6.359   5.872   6.748
 9017SOL     OW27949   4.557   1.422   3.963
 9017SOL    HW127950   4.608   1.507   3.952
 9017SOL    HW227951   4.466   1.442   3.997
 9018SOL     OW27952   2.540   3.373   5.613
 9018SOL    HW127953   2.622   3.346   5.562
 9018SOL    HW227954   2.459   3.336   5.568
 9019SOL     OW27955   1.321   5.300   2.657
 9019SOL    HW127956   1.402   5.280   2.713
 9019SOL    HW227957   1.240   5.262   2.703
 9020SOL     OW27958   0.065   4.316   0.725
 9020SOL    HW127959   0.156   4.339   0.760
 9020SOL    HW227960   0.058   4.216   0.718
 9021SOL     OW27961   6.883   1.516   3.511
 9021SOL    HW127962   6.785   1.529   3.498
 9021SOL    HW227963   6.923   1.473   3.430
 9022SOL     OW27964   3.418   1.276   0.223
 9022SOL    HW127965   3.448   1.327   0.142
 9022SOL    HW227966   3.335   1.318   0.260
 9023SOL     OW27967   3.876   3.740   1.770
 9023SOL    HW127968   3.942   3.685   1.821
 9023SOL    HW227969   3.792   3.688   1.756
 9024SOL     OW27970   1.213   3.829   5.408
 9024SOL    HW127971   1.143   3.765   5.376
 9024SOL    HW227972   1.289   3.777   5.447
 9025SOL     OW27973   0.409   5.189   0.612
 9025SOL    HW127974   0.475   5.193   0.537
 9025SOL    HW227975   0.354   5.273   0.612
 9026SOL     OW27976   3.586   2.143   1.200
 9026SOL    HW127977   3.560   2.224   1.148
 9026SOL    HW227978   3.581   2.163   1.298
 9027SOL     OW27979   0.245   3.405   3.029
 9027SOL    HW127980   0.248   3.328   3.091
 9027SOL    HW227981   0.336   3.448   3.024
 9028SOL     OW27982   3.443   3.050   5.483
 9028SOL    HW127983   3.456   3.146   5.507
 9028SOL    HW227984   3.521   3.019   5.428
 9029SOL     OW27985   4.137   6.409   4.851
 9029SOL    HW127986   4.062   6.423   4.787
 9029SOL    HW227987   4.223   6.399   4.801
 9030SOL     OW27988   2.375   1.801   3.671
 9030SOL    HW127989   2.438   1.849   3.611
 9030SOL    HW227990   2.412   1.712   3.695
 9031SOL     OW27991   4.064   6.698   4.238
 9031SOL    HW127992   4.052   6.601   4.220
 9031SOL    HW227993   4.001   6.751   4.181
 9032SOL     OW27994   4.574   4.335   0.789
 9032SOL    HW127995   4.626   4.405   0.740
 9032SOL    HW227996   4.626   4.304   0.868
 9033SOL     OW27997   0.701   4.701   2.664
 9033SOL    HW127998   0.799   4.697   2.641
 9033SOL    HW227999   0.653   4.625   2.621
 9034SOL     OW28000   3.080   5.865   4.840
 9034SOL    HW128001   3.172   5.827   4.851
 9034SOL    HW228002   3.054   5.862   4.743
 9035SOL     OW28003   2.131   4.753   0.365
 9035SOL    HW128004   2.195   4.684   0.332
 9035SOL    HW228005   2.121   4.825   0.297
 9036SOL     OW28006   2.147   3.298   5.870
 9036SOL    HW128007   2.179   3.311   5.777
 9036SOL    HW228008   2.209   3.236   5.918
 9037SOL     OW28009   1.484   3.809   3.636
 9037SOL    HW128010   1.467   3.801   3.734
 9037SOL    HW228011   1.483   3.906   3.610
 9038SOL     OW28012   4.659   2.502   0.044
 9038SOL    HW128013   4.724   2.574   0.019
 9038SOL    HW228014   4.566   2.534   0.030
 9039SOL     OW28015   2.357   4.753   6.605
 9039SOL    HW128016   2.438   4.811   6.594
 9039SOL    HW228017   2.380   4.659   6.580
 9040SOL     OW28018   2.622   2.417   2.415
 9040SOL    HW128019   2.550   2.479   2.385
 9040SOL    HW228020   2.619   2.407   2.515
 9041SOL     OW28021   1.047   2.080   0.731
 9041SOL    HW128022   0.978   2.075   0.658
 9041SOL    HW228023   1.013   2.138   0.805
 9042SOL     OW28024   3.884   0.210   4.218
 9042SOL    HW128025   3.858   0.153   4.140
 9042SOL    HW228026   3.982   0.230   4.214
 9043SOL     OW28027   2.420   0.942   6.522
 9043SOL    HW128028   2.499   0.907   6.472
 9043SOL    HW228029   2.435   1.038   6.546
 9044SOL     OW28030   6.916   0.897   0.602
 9044SOL    HW128031   6.982   0.960   0.644
 9044SOL    HW228032   6.965   0.821   0.559
 9045SOL     OW28033   3.713   0.734   2.391
 9045SOL    HW128034   3.728   0.703   2.485
 9045SOL    HW228035   3.791   0.707   2.334
 9046SOL     OW28036   3.602   4.119   2.845
 9046SOL    HW128037   3.689   4.076   2.819
 9046SOL    HW228038   3.614   4.169   2.931
 9047SOL     OW28039   1.507   3.489   4.766
 9047SOL    HW128040   1.457   3.514   4.683
 9047SOL    HW228041   1.462   3.409   4.808
 9048SOL     OW28042   6.758   2.792   6.279
 9048SOL    HW128043   6.698   2.862   6.239
 9048SOL    HW228044   6.702   2.718   6.317
 9049SOL     OW28045   4.645   6.573   5.625
 9049SOL    HW128046   4.661   6.545   5.720
 9049SOL    HW228047   4.643   6.492   5.566
 9050SOL     OW28048   0.378   3.781   1.400
 9050SOL    HW128049   0.367   3.846   1.325
 9050SOL    HW228050   0.389   3.689   1.363
 9051SOL     OW28051   2.313   0.151   1.424
 9051SOL    HW128052   2.272   0.061   1.405
 9051SOL    HW228053   2.347   0.152   1.518
 9052SOL     OW28054   2.200   2.814   4.019
 9052SOL    HW128055   2.159   2.765   4.096
 9052SOL    HW228056   2.261   2.752   3.969
 9053SOL     OW28057   2.117   1.086   1.944
 9053SOL    HW128058   2.048   1.080   1.873
 9053SOL    HW228059   2.178   1.163   1.925
 9054SOL     OW28060   2.662   5.619   4.985
 9054SOL    HW128061   2.754   5.654   4.969
 9054SOL    HW228062   2.656   5.586   5.080
 9055SOL     OW28063   6.136   2.548   3.735
 9055SOL    HW128064   6.160   2.565   3.831
 9055SOL    HW228065   6.219   2.544   3.680
 9056SOL     OW28066   0.093   2.023   1.494
 9056SOL    HW128067   0.176   2.006   1.548
 9056SOL    HW228068   0.101   1.977   1.406
 9057SOL     OW28069   4.549   2.520   5.143
 9057SOL    HW128070   4.648   2.525   5.128
 9057SOL    HW228071   4.513   2.613   5.152
 9058SOL     OW28072   1.640   1.285   1.612
 9058SOL    HW128073   1.716   1.227   1.585
 9058SOL    HW228074   1.588   1.241   1.685
 9059SOL     OW28075   1.434   2.241   3.198
 9059SOL    HW128076   1.471   2.330   3.225
 9059SOL    HW228077   1.493   2.201   3.128
 9060SOL     OW28078   5.752   2.952   4.490
 9060SOL    HW128079   5.759   3.009   4.572
 9060SOL    HW228080   5.818   2.878   4.495
 9061SOL     OW28081   2.938   5.445   2.363
 9061SOL    HW128082   2.919   5.494   2.448
 9061SOL    HW228083   2.890   5.490   2.287
 9062SOL     OW28084   1.067   6.242   1.604
 9062SOL    HW128085   1.118   6.222   1.520
 9062SOL    HW228086   1.128   6.286   1.670
 9063SOL     OW28087   2.992   0.275   3.766
 9063SOL    HW128088   3.041   0.249   3.683
 9063SOL    HW228089   2.915   0.333   3.742
 9064SOL     OW28090   6.224   3.474   6.520
 9064SOL    HW128091   6.243   3.547   6.586
 9064SOL    HW228092   6.150   3.502   6.459
 9065SOL     OW28093   3.949   0.217   0.144
 9065SOL    HW128094   3.977   0.202   0.239
 9065SOL    HW228095   4.022   0.186   0.083
 9066SOL     OW28096   5.002   0.056   0.185
 9066SOL    HW128097   5.026   0.132   0.246
 9066SOL    HW228098   5.060   6.999   0.205
 9067SOL     OW28099   1.101   0.645   3.699
 9067SOL    HW128100   1.065   0.624   3.608
 9067SOL    HW228101   1.029   0.686   3.755
 9068SOL     OW28102   1.467   6.667   4.734
 9068SOL    HW128103   1.507   6.722   4.807
 9068SOL    HW228104   1.434   6.580   4.771
 9069SOL     OW28105   1.409   3.163   0.147
 9069SOL    HW128106   1.457   3.213   0.075
 9069SOL    HW228107   1.373   3.077   0.109
 9070SOL     OW28108   1.930   3.537   5.043
 9070SOL    HW128109   1.917   3.636   5.034
 9070SOL    HW228110   2.022   3.518   5.078
 9071SOL     OW28111   6.494   6.371   0.642
 9071SOL    HW128112   6.410   6.328   0.609
 9071SOL    HW228113   6.555   6.301   0.678
 9072SOL     OW28114   6.956   2.971   1.224
 9072SOL    HW128115   6.931   2.894   1.166
 9072SOL    HW228116   6.907   2.965   1.311
 9073SOL     OW28117   2.034   6.924   2.086
 9073SOL    HW128118   2.041   6.872   2.001
 9073SOL    HW228119   1.938   6.937   2.109
 9074SOL     OW28120   1.136   0.495   2.694
 9074SOL    HW128121   1.193   0.462   2.619
 9074SOL    HW228122   1.179   0.471   2.781
 9075SOL     OW28123   6.859   1.125   2.652
 9075SOL    HW128124   6.800   1.172   2.718
 9075SOL    HW228125   6.949   1.111   2.692
 9076SOL     OW28126   0.779   1.000   6.562
 9076SOL    HW128127   0.694   0.993   6.614
 9076SOL    HW228128   0.781   1.087   6.513
 9077SOL     OW28129   4.492   6.194   1.692
 9077SOL    HW128130   4.549   6.196   1.610
 9077SOL    HW228131   4.406   6.148   1.672
 9078SOL     OW28132   3.427   2.863   4.631
 9078SOL    HW128133   3.429   2.852   4.730
 9078SOL    HW228134   3.333   2.869   4.599
 9079SOL     OW28135   2.900   0.353   4.696
 9079SOL    HW128136   2.937   0.336   4.605
 9079SOL    HW228137   2.903   0.451   4.716
 9080SOL     OW28138   5.163   2.989   6.449
 9080SOL    HW128139   5.258   2.996   6.419
 9080SOL    HW228140   5.129   3.080   6.472
 9081SOL     OW28141   5.041   6.133   2.663
 9081SOL    HW128142   5.092   6.205   2.711
 9081SOL    HW228143   5.090   6.047   2.671
 9082SOL     OW28144   1.707   6.936   4.485
 9082SOL    HW128145   1.715   6.960   4.582
 9082SOL    HW228146   1.630   6.873   4.473
 9083SOL     OW28147   4.920   4.756   5.992
 9083SOL    HW128148   4.915   4.666   5.949
 9083SOL    HW228149   4.851   4.816   5.952
 9084SOL     OW28150   4.029   3.653   3.056
 9084SOL    HW128151   3.965   3.719   3.016
 9084SOL    HW228152   3.988   3.562   3.055
 9085SOL     OW28153   2.163   0.783   0.800
 9085SOL    HW128154   2.118   0.697   0.827
 9085SOL    HW228155   2.100   0.837   0.745
 9086SOL     OW28156   0.496   4.418   0.483
 9086SOL    HW128157   0.459   4.329   0.509
 9086SOL    HW228158   0.487   4.430   0.384
 9087SOL     OW28159   5.114   2.925   2.348
 9087SOL    HW128160   5.173   2.848   2.375
 9087SOL    HW228161   5.165   3.011   2.356
 9088SOL     OW28162   6.139   0.400   0.528
 9088SOL    HW128163   6.183   0.327   0.475
 9088SOL    HW228164   6.146   0.379   0.626
 9089SOL     OW28165   4.995   6.427   5.596
 9089SOL    HW128166   4.963   6.522   5.594
 9089SOL    HW228167   5.069   6.415   5.530
 9090SOL     OW28168   6.106   1.025   5.140
 9090SOL    HW128169   6.089   0.985   5.050
 9090SOL    HW228170   6.205   1.035   5.154
 9091SOL     OW28171   2.875   3.309   6.482
 9091SOL    HW128172   2.886   3.402   6.447
 9091SOL    HW228173   2.840   3.312   6.575
 9092SOL     OW28174   6.676   1.157   0.063
 9092SOL    HW128175   6.630   1.089   0.006
 9092SOL    HW228176   6.619   1.238   0.073
 9093SOL     OW28177   1.778   5.937   5.436
 9093SOL    HW128178   1.865   5.973   5.403
 9093SOL    HW228179   1.769   5.840   5.411
 9094SOL     OW28180   0.428   3.991   3.095
 9094SOL    HW128181   0.527   3.993   3.079
 9094SOL    HW228182   0.384   3.935   3.024
 9095SOL     OW28183   4.635   4.800   5.493
 9095SOL    HW128184   4.614   4.801   5.591
 9095SOL    HW228185   4.558   4.839   5.442
 9096SOL     OW28186   6.744   4.805   3.340
 9096SOL    HW128187   6.669   4.761   3.290
 9096SOL    HW228188   6.705   4.862   3.413
 9097SOL     OW28189   1.630   2.457   6.439
 9097SOL    HW128190   1.659   2.464   6.344
 9097SOL    HW228191   1.684   2.521   6.495
 9098SOL     OW28192   2.230   2.171   5.114
 9098SOL    HW128193   2.289   2.092   5.129
 9098SOL    HW228194   2.283   2.246   5.074
 9099SOL     OW28195   2.457   2.602   6.429
 9099SOL    HW128196   2.535   2.630   6.372
 9099SOL    HW228197   2.426   2.680   6.483
 9100SOL     OW28198   0.873   3.741   2.428
 9100SOL    HW128199   0.818   3.761   2.509
 9100SOL    HW228200   0.897   3.643   2.429
 9101SOL     OW28201   2.935   1.433   2.642
 9101SOL    HW128202   2.877   1.457   2.564
 9101SOL    HW228203   3.030   1.454   2.621
 9102SOL     OW28204   4.401   6.528   2.133
 9102SOL    HW128205   4.383   6.601   2.066
 9102SOL    HW228206   4.394   6.566   2.226
 9103SOL     OW28207   5.962   1.505   6.885
 9103SOL    HW128208   5.943   1.407   6.890
 9103SOL    HW228209   5.991   1.528   6.792
 9104SOL     OW28210   6.674   0.639   1.816
 9104SOL    HW128211   6.768   0.645   1.781
 9104SOL    HW228212   6.611   0.622   1.740
 9105SOL     OW28213   1.019   0.000   5.423
 9105SOL    HW128214   1.017   0.074   5.355
 9105SOL    HW228215   1.100   0.011   5.480
 9106SOL     OW28216   0.526   4.209   0.208
 9106SOL    HW128217   0.434   4.246   0.221
 9106SOL    HW228218   0.525   4.110   0.222
 9107SOL     OW28219   2.469   0.128   6.339
 9107SOL    HW128220   2.442   0.123   6.435
 9107SOL    HW228221   2.424   0.055   6.288
 9108SOL     OW28222   5.391   4.970   5.425
 9108SOL    HW128223   5.333   4.892   5.400
 9108SOL    HW228224   5.480   4.961   5.379
 9109SOL     OW28225   4.923   3.305   2.264
 9109SOL    HW128226   5.015   3.295   2.301
 9109SOL    HW228227   4.870   3.223   2.283
 9110SOL     OW28228   0.804   5.708   4.603
 9110SOL    HW128229   0.897   5.735   4.628
 9110SOL    HW228230   0.754   5.788   4.570
 9111SOL     OW28231   4.719   2.930   5.811
 9111SOL    HW128232   4.693   2.845   5.857
 9111SOL    HW228233   4.639   2.991   5.807
 9112SOL     OW28234   1.872   5.299   2.798
 9112SOL    HW128235   1.877   5.216   2.853
 9112SOL    HW228236   1.954   5.354   2.815
 9113SOL     OW28237   5.341   2.682   3.530
 9113SOL    HW128238   5.426   2.735   3.532
 9113SOL    HW228239   5.362   2.587   3.507
 9114SOL     OW28240   1.377   6.140   4.004
 9114SOL    HW128241   1.454   6.203   4.013
 9114SOL    HW228242   1.387   6.066   4.070
 9115SOL     OW28243   5.761   4.529   3.273
 9115SOL    HW128244   5.676   4.513   3.324
 9115SOL    HW228245   5.838   4.529   3.336
 9116SOL     OW28246   0.424   6.903   3.342
 9116SOL    HW128247   0.434   6.934   3.436
 9116SOL    HW228248   0.515   6.881   3.305
 9117SOL     OW28249   4.303   1.381   6.969
 9117SOL    HW128250   4.321   1.298   7.021
 9117SOL    HW228251   4.389   1.427   6.947
 9118SOL     OW28252   6.039   3.753   0.420
 9118SOL    HW128253   6.075   3.774   0.511
 9118SOL    HW228254   6.027   3.654   0.411
 9119SOL     OW28255   3.547   6.544   1.134
 9119SOL    HW128256   3.582   6.468   1.080
 9119SOL    HW228257   3.601   6.553   1.218
 9120SOL     OW28258   6.645   2.527   6.387
 9120SOL    HW128259   6.698   2.450   6.420
 9120SOL    HW228260   6.547   2.509   6.401
 9121SOL     OW28261   4.020   0.475   5.601
 9121SOL    HW128262   4.119   0.474   5.613
 9121SOL    HW228263   3.995   0.406   5.532
 9122SOL     OW28264   2.113   3.981   1.904
 9122SOL    HW128265   2.016   3.978   1.928
 9122SOL    HW228266   2.139   4.075   1.882
 9123SOL     OW28267   1.476   0.104   3.635
 9123SOL    HW128268   1.380   0.130   3.644
 9123SOL    HW228269   1.505   0.054   3.716
 9124SOL     OW28270   3.710   4.825   1.443
 9124SOL    HW128271   3.749   4.735   1.461
 9124SOL    HW228272   3.653   4.853   1.521
 9125SOL     OW28273   3.612   5.893   0.071
 9125SOL    HW128274   3.564   5.896   7.004
 9125SOL    HW228275   3.591   5.807   0.117
 9126SOL     OW28276   4.443   4.614   1.018
 9126SOL    HW128277   4.418   4.617   0.921
 9126SOL    HW228278   4.541   4.596   1.026
 9127SOL     OW28279   0.009   3.839   4.874
 9127SOL    HW128280   6.976   3.782   4.935
 9127SOL    HW228281   0.038   3.921   4.923
 9128SOL     OW28282   6.116   3.161   4.804
 9128SOL    HW128283   6.127   3.187   4.708
 9128SOL    HW228284   6.161   3.073   4.819
 9129SOL     OW28285   2.226   1.861   1.013
 9129SOL    HW128286   2.129   1.876   1.028
 9129SOL    HW228287   2.278   1.890   1.094
 9130SOL     OW28288   3.169   4.506   5.689
 9130SOL    HW128289   3.247   4.564   5.661
 9130SOL    HW228290   3.094   4.520   5.625
 9131SOL     OW28291   6.366   2.765   0.984
 9131SOL    HW128292   6.397   2.696   1.049
 9131SOL    HW228293   6.280   2.737   0.943
 9132SOL     OW28294   0.879   4.684   3.689
 9132SOL    HW128295   0.956   4.622   3.702
 9132SOL    HW228296   0.794   4.631   3.688
 9133SOL     OW28297   4.056   0.565   0.895
 9133SOL    HW128298   4.004   0.549   0.979
 9133SOL    HW228299   4.142   0.612   0.917
 9134SOL     OW28300   4.471   5.188   0.925
 9134SOL    HW128301   4.552   5.210   0.980
 9134SOL    HW228302   4.402   5.259   0.937
 9135SOL     OW28303   1.434   6.046   1.595
 9135SOL    HW128304   1.497   5.992   1.540
 9135SOL    HW228305   1.366   6.089   1.535
 9136SOL     OW28306   5.413   5.119   6.223
 9136SOL    HW128307   5.395   5.068   6.139
 9136SOL    HW228308   5.347   5.092   6.293
 9137SOL     OW28309   4.856   6.249   6.481
 9137SOL    HW128310   4.855   6.175   6.548
 9137SOL    HW228311   4.766   6.256   6.438
 9138SOL     OW28312   2.693   2.841   0.398
 9138SOL    HW128313   2.629   2.829   0.322
 9138SOL    HW228314   2.642   2.843   0.484
 9139SOL     OW28315   0.063   0.365   1.205
 9139SOL    HW128316   7.012   0.364   1.137
 9139SOL    HW228317   0.148   0.332   1.164
 9140SOL     OW28318   0.712   4.112   2.319
 9140SOL    HW128319   0.730   4.168   2.238
 9140SOL    HW228320   0.616   4.086   2.321
 9141SOL     OW28321   0.035   5.579   5.908
 9141SOL    HW128322   6.973   5.631   5.897
 9141SOL    HW228323   0.018   5.499   5.965
 9142SOL     OW28324   1.186   3.712   2.672
 9142SOL    HW128325   1.121   3.639   2.691
 9142SOL    HW228326   1.253   3.717   2.745
 9143SOL     OW28327   0.389   3.662   2.765
 9143SOL    HW128328   0.292   3.653   2.740
 9143SOL    HW228329   0.412   3.758   2.776
 9144SOL     OW28330   2.584   5.069   5.052
 9144SOL    HW128331   2.545   5.159   5.074
 9144SOL    HW228332   2.561   5.004   5.125
 9145SOL     OW28333   0.895   6.947   6.588
 9145SOL    HW128334   0.912   6.947   6.686
 9145SOL    HW228335   0.804   6.985   6.570
 9146SOL     OW28336   5.806   3.091   3.454
 9146SOL    HW128337   5.880   3.024   3.443
 9146SOL    HW228338   5.834   3.179   3.415
 9147SOL     OW28339   5.758   6.750   3.958
 9147SOL    HW128340   5.764   6.845   3.928
 9147SOL    HW228341   5.842   6.702   3.933
 9148SOL     OW28342   6.511   0.213   1.268
 9148SOL    HW128343   6.426   0.235   1.315
 9148SOL    HW228344   6.558   0.297   1.243
 9149SOL     OW28345   6.241   3.810   1.018
 9149SOL    HW128346   6.263   3.842   0.926
 9149SOL    HW228347   6.291   3.864   1.086
 9150SOL     OW28348   2.748   4.375   0.004
 9150SOL    HW128349   2.823   4.312   7.006
 9150SOL    HW228350   2.695   4.390   6.942
 9151SOL     OW28351   1.668   3.914   3.887
 9151SOL    HW128352   1.610   3.994   3.869
 9151SOL    HW228353   1.751   3.920   3.832
 9152SOL     OW28354   1.964   4.192   3.929
 9152SOL    HW128355   1.917   4.185   4.017
 9152SOL    HW228356   2.053   4.236   3.942
 9153SOL     OW28357   0.082   2.283   6.554
 9153SOL    HW128358   0.098   2.259   6.458
 9153SOL    HW228359   0.124   2.214   6.613
 9154SOL     OW28360   6.181   5.187   3.474
 9154SOL    HW128361   6.102   5.231   3.431
 9154SOL    HW228362   6.186   5.091   3.445
 9155SOL     OW28363   1.057   6.122   2.488
 9155SOL    HW128364   1.008   6.048   2.442
 9155SOL    HW228365   0.992   6.191   2.521
 9156SOL     OW28366   6.889   4.075   0.407
 9156SOL    HW128367   6.813   4.085   0.344
 9156SOL    HW228368   6.928   4.165   0.428
 9157SOL     OW28369   3.349   4.325   6.550
 9157SOL    HW128370   3.448   4.317   6.534
 9157SOL    HW228371   3.303   4.242   6.520
 9158SOL     OW28372   0.354   3.760   3.672
 9158SOL    HW128373   0.399   3.779   3.584
 9158SOL    HW228374   0.420   3.770   3.746
 9159SOL     OW28375   3.494   6.953   3.404
 9159SOL    HW128376   3.438   6.870   3.406
 9159SOL    HW228377   3.481   7.000   3.317
 9160SOL     OW28378   0.443   4.863   6.601
 9160SOL    HW128379   0.465   4.774   6.643
 9160SOL    HW228380   0.387   4.848   6.520
 9161SOL     OW28381   5.732   4.011   1.514
 9161SOL    HW128382   5.762   3.936   1.454
 9161SOL    HW228383   5.692   4.084   1.459
 9162SOL     OW28384   4.819   2.225   2.286
 9162SOL    HW128385   4.814   2.243   2.187
 9162SOL    HW228386   4.797   2.308   2.336
 9163SOL     OW28387   1.639   1.928   3.220
 9163SOL    HW128388   1.695   2.009   3.239
 9163SOL    HW228389   1.543   1.948   3.236
 9164SOL     OW28390   2.743   0.412   6.849
 9164SOL    HW128391   2.673   0.480   6.828
 9164SOL    HW228392   2.764   0.414   6.947
 9165SOL     OW28393   4.828   2.512   5.119
 9165SOL    HW128394   4.844   2.489   5.023
 9165SOL    HW228395   4.908   2.560   5.155
 9166SOL     OW28396   4.868   5.592   1.749
 9166SOL    HW128397   4.788   5.551   1.706
 9166SOL    HW228398   4.874   5.562   1.844
 9167SOL     OW28399   1.182   1.154   5.920
 9167SOL    HW128400   1.187   1.093   5.842
 9167SOL    HW228401   1.153   1.245   5.890
 9168SOL     OW28402   6.593   5.422   4.375
 9168SOL    HW128403   6.529   5.497   4.362
 9168SOL    HW228404   6.553   5.354   4.436
 9169SOL     OW28405   6.259   6.139   0.145
 9169SOL    HW128406   6.234   6.150   0.241
 9169SOL    HW228407   6.261   6.042   0.121
 9170SOL     OW28408   1.335   1.450   6.343
 9170SOL    HW128409   1.387   1.509   6.405
 9170SOL    HW228410   1.245   1.490   6.326
 9171SOL     OW28411   3.413   4.727   0.499
 9171SOL    HW128412   3.371   4.768   0.580
 9171SOL    HW228413   3.456   4.799   0.444
 9172SOL     OW28414   5.219   1.488   4.516
 9172SOL    HW128415   5.249   1.432   4.593
 9172SOL    HW228416   5.140   1.543   4.543
 9173SOL     OW28417   6.305   2.151   4.181
 9173SOL    HW128418   6.282   2.097   4.262
 9173SOL    HW228419   6.287   2.248   4.198
 9174SOL     OW28420   0.922   5.639   0.017
 9174SOL    HW128421   0.940   5.728   6.997
 9174SOL    HW228422   1.001   5.611   0.070
 9175SOL     OW28423   1.753   6.713   6.786
 9175SOL    HW128424   1.834   6.770   6.789
 9175SOL    HW228425   1.727   6.687   6.879
 9176SOL     OW28426   1.586   1.501   2.817
 9176SOL    HW128427   1.632   1.434   2.875
 9176SOL    HW228428   1.495   1.468   2.794
 9177SOL     OW28429   0.164   4.663   3.864
 9177SOL    HW128430   0.153   4.751   3.910
 9177SOL    HW228431   0.116   4.592   3.916
 9178SOL     OW28432   2.069   6.155   0.417
 9178SOL    HW128433   1.996   6.178   0.353
 9178SOL    HW228434   2.158   6.163   0.371
 9179SOL     OW28435   4.383   6.259   5.108
 9179SOL    HW128436   4.365   6.191   5.179
 9179SOL    HW228437   4.326   6.340   5.124
 9180SOL     OW28438   6.946   2.169   4.121
 9180SOL    HW128439   6.868   2.112   4.098
 9180SOL    HW228440   0.009   2.120   4.100
 9181SOL     OW28441   3.758   1.920   3.653
 9181SOL    HW128442   3.713   1.866   3.724
 9181SOL    HW228443   3.795   1.859   3.583
 9182SOL     OW28444   2.112   1.196   3.280
 9182SOL    HW128445   2.074   1.128   3.218
 9182SOL    HW228446   2.037   1.240   3.331
 9183SOL     OW28447   5.442   2.418   6.054
 9183SOL    HW128448   5.367   2.457   6.000
 9183SOL    HW228449   5.521   2.403   5.996
 9184SOL     OW28450   3.619   2.842   1.215
 9184SOL    HW128451   3.668   2.762   1.253
 9184SOL    HW228452   3.684   2.899   1.164
 9185SOL     OW28453   0.419   0.493   6.870
 9185SOL    HW128454   0.457   0.585   6.859
 9185SOL    HW228455   0.424   0.445   6.783
 9186SOL     OW28456   5.359   0.590   6.209
 9186SOL    HW128457   5.353   0.604   6.110
 9186SOL    HW228458   5.433   0.524   6.228
 9187SOL     OW28459   5.228   1.799   0.452
 9187SOL    HW128460   5.292   1.818   0.378
 9187SOL    HW228461   5.268   1.731   0.514
 9188SOL     OW28462   1.079   6.929   1.956
 9188SOL    HW128463   1.063   0.005   1.974
 9188SOL    HW228464   1.058   6.909   1.860
 9189SOL     OW28465   3.074   1.448   3.625
 9189SOL    HW128466   3.060   1.399   3.539
 9189SOL    HW228467   3.141   1.400   3.681
 9190SOL     OW28468   5.728   3.973   5.523
 9190SOL    HW128469   5.656   4.036   5.552
 9190SOL    HW228470   5.763   4.001   5.433
 9191SOL     OW28471   5.175   6.324   6.147
 9191SOL    HW128472   5.189   6.405   6.089
 9191SOL    HW228473   5.096   6.273   6.114
 9192SOL     OW28474   6.694   4.031   5.729
 9192SOL    HW128475   6.782   3.999   5.765
 9192SOL    HW228476   6.636   4.059   5.806
 9193SOL     OW28477   3.843   3.034   3.231
 9193SOL    HW128478   3.898   3.088   3.295
 9193SOL    HW228479   3.746   3.052   3.249
 9194SOL     OW28480   2.778   5.727   3.012
 9194SOL    HW128481   2.698   5.672   2.986
 9194SOL    HW228482   2.859   5.669   3.013
 9195SOL     OW28483   0.474   3.037   3.463
 9195SOL    HW128484   0.451   2.956   3.409
 9195SOL    HW228485   0.573   3.052   3.460
 9196SOL     OW28486   4.136   0.413   2.915
 9196SOL    HW128487   4.221   0.419   2.966
 9196SOL    HW228488   4.138   0.478   2.839
 9197SOL     OW28489   3.031   3.088   6.402
 9197SOL    HW128490   3.070   3.055   6.316
 9197SOL    HW228491   2.973   3.167   6.384
 9198SOL     OW28492   5.661   3.120   5.606
 9198SOL    HW128493   5.634   3.200   5.659
 9198SOL    HW228494   5.664   3.144   5.509
 9199SOL     OW28495   1.771   4.158   6.427
 9199SOL    HW128496   1.764   4.137   6.525
 9199SOL    HW228497   1.718   4.090   6.375
 9200SOL     OW28498   6.449   0.043   0.280
 9200SOL    HW128499   6.524   0.034   0.345
 9200SOL    HW228500   6.407   0.133   0.289
 9201SOL     OW28501   0.175   4.082   2.223
 9201SOL    HW128502   0.113   4.005   2.239
 9201SOL    HW228503   0.251   4.053   2.165
 9202SOL     OW28504   2.818   5.110   4.444
 9202SOL    HW128505   2.905   5.061   4.439
 9202SOL    HW228506   2.783   5.107   4.537
 9203SOL     OW28507   5.188   1.108   5.547
 9203SOL    HW128508   5.269   1.073   5.594
 9203SOL    HW228509   5.109   1.052   5.571
 9204SOL     OW28510   5.530   4.118   2.913
 9204SOL    HW128511   5.616   4.085   2.873
 9204SOL    HW228512   5.540   4.215   2.936
 9205SOL     OW28513   5.954   2.834   2.881
 9205SOL    HW128514   5.861   2.844   2.845
 9205SOL    HW228515   5.965   2.743   2.921
 9206SOL     OW28516   1.758   6.537   3.348
 9206SOL    HW128517   1.790   6.443   3.356
 9206SOL    HW228518   1.808   6.595   3.414
 9207SOL     OW28519   4.086   6.154   6.762
 9207SOL    HW128520   4.058   6.215   6.688
 9207SOL    HW228521   4.031   6.071   6.759
 9208SOL     OW28522   5.010   3.620   2.095
 9208SOL    HW128523   5.002   3.542   2.032
 9208SOL    HW228524   4.948   3.693   2.065
 9209SOL     OW28525   3.697   1.021   2.394
 9209SOL    HW128526   3.710   0.922   2.398
 9209SOL    HW228527   3.663   1.047   2.304
 9210SOL     OW28528   2.152   0.204   1.161
 9210SOL    HW128529   2.213   0.139   1.116
 9210SOL    HW228530   2.058   0.169   1.159
 9211SOL     OW28531   4.981   1.848   6.970
 9211SOL    HW128532   4.882   1.852   6.956
 9211SOL    HW228533   5.005   1.757   7.004
 9212SOL     OW28534   5.511   4.456   4.556
 9212SOL    HW128535   5.569   4.535   4.538
 9212SOL    HW228536   5.544   4.408   4.637
 9213SOL     OW28537   6.052   6.661   3.530
 9213SOL    HW128538   5.992   6.608   3.470
 9213SOL    HW228539   6.069   6.609   3.614
 9214SOL     OW28540   2.477   2.640   4.406
 9214SOL    HW128541   2.546   2.606   4.469
 9214SOL    HW228542   2.500   2.614   4.312
 9215SOL     OW28543   0.523   4.177   2.642
 9215SOL    HW128544   0.525   4.138   2.550
 9215SOL    HW228545   0.445   4.239   2.650
 9216SOL     OW28546   2.474   6.020   5.249
 9216SOL    HW128547   2.566   6.001   5.214
 9216SOL    HW228548   2.406   6.000   5.179
 9217SOL     OW28549   4.649   1.386   6.424
 9217SOL    HW128550   4.612   1.408   6.514
 9217SOL    HW228551   4.730   1.441   6.406
 9218SOL     OW28552   5.882   6.388   5.907
 9218SOL    HW128553   5.846   6.379   5.999
 9218SOL    HW228554   5.935   6.472   5.900
 9219SOL     OW28555   3.555   3.295   5.338
 9219SOL    HW128556   3.525   3.221   5.278
 9219SOL    HW228557   3.479   3.321   5.398
 9220SOL     OW28558   1.610   6.752   2.908
 9220SOL    HW128559   1.617   6.714   3.000
 9220SOL    HW228560   1.700   6.779   2.875
 9221SOL     OW28561   2.293   0.577   6.732
 9221SOL    HW128562   2.246   0.664   6.720
 9221SOL    HW228563   2.280   0.543   6.825
 9222SOL     OW28564   1.454   4.401   3.498
 9222SOL    HW128565   1.540   4.405   3.445
 9222SOL    HW228566   1.388   4.464   3.457
 9223SOL     OW28567   1.365   3.562   4.548
 9223SOL    HW128568   1.314   3.630   4.600
 9223SOL    HW228569   1.309   3.529   4.473
 9224SOL     OW28570   2.054   4.422   3.721
 9224SOL    HW128571   2.153   4.416   3.710
 9224SOL    HW228572   2.026   4.371   3.802
 9225SOL     OW28573   4.543   6.833   6.285
 9225SOL    HW128574   4.559   6.898   6.211
 9225SOL    HW228575   4.550   6.880   6.373
 9226SOL     OW28576   1.056   0.316   0.656
 9226SOL    HW128577   1.069   0.314   0.756
 9226SOL    HW228578   1.075   0.409   0.623
 9227SOL     OW28579   2.610   5.141   0.766
 9227SOL    HW128580   2.627   5.225   0.819
 9227SOL    HW228581   2.661   5.146   0.680
 9228SOL     OW28582   2.986   2.239   5.706
 9228SOL    HW128583   2.918   2.174   5.741
 9228SOL    HW228584   2.944   2.328   5.691
 9229SOL     OW28585   0.201   4.678   6.770
 9229SOL    HW128586   0.208   4.742   6.846
 9229SOL    HW228587   0.170   4.726   6.688
 9230SOL     OW28588   4.672   1.867   3.848
 9230SOL    HW128589   4.703   1.772   3.839
 9230SOL    HW228590   4.609   1.889   3.773
 9231SOL     OW28591   0.848   5.063   5.149
 9231SOL    HW128592   0.805   5.018   5.228
 9231SOL    HW228593   0.779   5.082   5.080
 9232SOL     OW28594   1.692   5.442   1.504
 9232SOL    HW128595   1.785   5.480   1.503
 9232SOL    HW228596   1.676   5.395   1.591
 9233SOL     OW28597   0.804   0.737   0.130
 9233SOL    HW128598   0.853   0.704   0.210
 9233SOL    HW228599   0.870   0.773   0.063
 9234SOL     OW28600   2.451   4.535   0.579
 9234SOL    HW128601   2.406   4.508   0.664
 9234SOL    HW228602   2.477   4.453   0.528
 9235SOL     OW28603   2.539   2.555   4.152
 9235SOL    HW128604   2.543   2.552   4.052
 9235SOL    HW228605   2.627   2.527   4.190
 9236SOL     OW28606   1.889   3.131   6.736
 9236SOL    HW128607   1.841   3.061   6.684
 9236SOL    HW228608   1.970   3.091   6.779
 9237SOL     OW28609   5.672   5.320   3.048
 9237SOL    HW128610   5.574   5.338   3.042
 9237SOL    HW228611   5.692   5.229   3.010
 9238SOL     OW28612   1.513   3.034   4.895
 9238SOL    HW128613   1.550   3.061   4.806
 9238SOL    HW228614   1.413   3.039   4.892
 9239SOL     OW28615   0.806   4.857   0.234
 9239SOL    HW128616   0.849   4.785   0.289
 9239SOL    HW228617   0.726   4.892   0.284
 9240SOL     OW28618   4.806   2.834   2.896
 9240SOL    HW128619   4.774   2.928   2.906
 9240SOL    HW228620   4.899   2.834   2.860
 9241SOL     OW28621   6.009   6.580   0.817
 9241SOL    HW128622   5.951   6.535   0.749
 9241SOL    HW228623   6.072   6.513   0.856
 9242SOL     OW28624   1.402   2.259   1.709
 9242SOL    HW128625   1.373   2.344   1.666
 9242SOL    HW228626   1.342   2.184   1.681
 9243SOL     OW28627   0.495   0.421   1.487
 9243SOL    HW128628   0.530   0.458   1.401
 9243SOL    HW228629   0.554   0.345   1.517
 9244SOL     OW28630   4.475   6.629   5.064
 9244SOL    HW128631   4.397   6.591   5.114
 9244SOL    HW228632   4.547   6.652   5.129
 9245SOL     OW28633   1.178   4.727   3.217
 9245SOL    HW128634   1.194   4.822   3.188
 9245SOL    HW228635   1.087   4.698   3.186
 9246SOL     OW28636   6.322   1.074   4.581
 9246SOL    HW128637   6.312   1.003   4.650
 9246SOL    HW228638   6.362   1.036   4.498
 9247SOL     OW28639   3.696   5.568   3.177
 9247SOL    HW128640   3.640   5.520   3.245
 9247SOL    HW228641   3.639   5.630   3.123
 9248SOL     OW28642   2.678   1.300   5.670
 9248SOL    HW128643   2.639   1.386   5.638
 9248SOL    HW228644   2.775   1.296   5.647
 9249SOL     OW28645   3.865   4.941   1.900
 9249SOL    HW128646   3.790   4.876   1.916
 9249SOL    HW228647   3.841   5.029   1.941
 9250SOL     OW28648   0.022   3.517   4.274
 9250SOL    HW128649   0.006   3.519   4.175
 9250SOL    HW228650   0.061   3.604   4.303
 9251SOL     OW28651   3.804   2.331   0.666
 9251SOL    HW128652   3.844   2.244   0.637
 9251SOL    HW228653   3.863   2.406   0.636
 9252SOL     OW28654   4.691   0.217   5.371
 9252SOL    HW128655   4.745   0.155   5.428
 9252SOL    HW228656   4.644   0.164   5.300
 9253SOL     OW28657   1.164   4.795   5.573
 9253SOL    HW128658   1.229   4.834   5.638
 9253SOL    HW228659   1.130   4.867   5.512
 9254SOL     OW28660   6.293   4.843   2.451
 9254SOL    HW128661   6.249   4.876   2.535
 9254SOL    HW228662   6.246   4.761   2.418
 9255SOL     OW28663   6.000   4.658   0.383
 9255SOL    HW128664   6.032   4.683   0.475
 9255SOL    HW228665   5.910   4.616   0.390
 9256SOL     OW28666   2.032   6.738   1.873
 9256SOL    HW128667   2.091   6.713   1.950
 9256SOL    HW228668   1.975   6.659   1.848
 9257SOL     OW28669   0.097   5.784   3.999
 9257SOL    HW128670   0.136   5.753   4.086
 9257SOL    HW228671   0.013   5.733   3.980
 9258SOL     OW28672   3.788   3.377   0.715
 9258SOL    HW128673   3.691   3.397   0.719
 9258SOL    HW228674   3.841   3.457   0.742
 9259SOL     OW28675   2.144   1.774   6.855
 9259SOL    HW128676   2.191   1.827   6.926
 9259SOL    HW228677   2.104   1.836   6.788
 9260SOL     OW28678   5.881   2.680   5.621
 9260SOL    HW128679   5.944   2.603   5.613
 9260SOL    HW228680   5.928   2.757   5.664
 9261SOL     OW28681   4.132   1.963   1.139
 9261SOL    HW128682   4.172   1.979   1.049
 9261SOL    HW228683   4.067   2.036   1.160
 9262SOL     OW28684   6.383   6.308   4.018
 9262SOL    HW128685   6.336   6.250   4.085
 9262SOL    HW228686   6.389   6.401   4.053
 9263SOL     OW28687   2.212   4.006   3.120
 9263SOL    HW128688   2.171   4.092   3.152
 9263SOL    HW228689   2.239   3.951   3.199
 9264SOL     OW28690   5.234   4.089   6.544
 9264SOL    HW128691   5.266   4.034   6.467
 9264SOL    HW228692   5.142   4.123   6.524
 9265SOL     OW28693   4.721   2.088   6.947
 9265SOL    HW128694   4.648   2.137   6.993
 9265SOL    HW228695   4.707   1.989   6.958
 9266SOL     OW28696   0.272   4.352   1.568
 9266SOL    HW128697   0.371   4.357   1.584
 9266SOL    HW228698   0.249   4.401   1.484
 9267SOL     OW28699   0.464   0.898   3.679
 9267SOL    HW128700   0.421   0.950   3.753
 9267SOL    HW228701   0.447   0.801   3.693
 9268SOL     OW28702   0.569   6.392   1.407
 9268SOL    HW128703   0.628   6.315   1.384
 9268SOL    HW228704   0.582   6.465   1.340
 9269SOL     OW28705   4.415   0.174   0.237
 9269SOL    HW128706   4.485   0.103   0.229
 9269SOL    HW228707   4.441   0.253   0.182
 9270SOL     OW28708   3.048   0.980   6.215
 9270SOL    HW128709   3.124   1.045   6.209
 9270SOL    HW228710   3.083   0.887   6.222
 9271SOL     OW28711   1.166   0.287   6.693
 9271SOL    HW128712   1.145   0.326   6.783
 9271SOL    HW228713   1.258   0.248   6.695
 9272SOL     OW28714   6.880   6.500   5.998
 9272SOL    HW128715   6.977   6.497   5.973
 9272SOL    HW228716   6.842   6.589   5.974
 9273SOL     OW28717   4.778   5.249   3.675
 9273SOL    HW128718   4.781   5.226   3.773
 9273SOL    HW228719   4.811   5.342   3.662
 9274SOL     OW28720   0.809   3.497   0.029
 9274SOL    HW128721   0.863   3.573   0.064
 9274SOL    HW228722   0.782   3.437   0.105
 9275SOL     OW28723   0.684   6.200   1.193
 9275SOL    HW128724   0.591   6.163   1.185
 9275SOL    HW228725   0.749   6.125   1.200
 9276SOL     OW28726   3.368   4.087   0.364
 9276SOL    HW128727   3.458   4.087   0.321
 9276SOL    HW228728   3.335   4.182   0.370
 9277SOL     OW28729   4.186   4.843   2.642
 9277SOL    HW128730   4.126   4.868   2.567
 9277SOL    HW228731   4.259   4.783   2.608
 9278SOL     OW28732   0.587   0.931   4.458
 9278SOL    HW128733   0.673   0.890   4.427
 9278SOL    HW228734   0.530   0.861   4.501
 9279SOL     OW28735   3.983   4.916   1.366
 9279SOL    HW128736   3.888   4.916   1.395
 9279SOL    HW228737   4.033   4.844   1.415
 9280SOL     OW28738   1.477   1.240   2.942
 9280SOL    HW128739   1.466   1.202   2.850
 9280SOL    HW228740   1.572   1.268   2.955
 9281SOL     OW28741   3.414   4.251   6.807
 9281SOL    HW128742   3.319   4.220   6.816
 9281SOL    HW228743   3.425   4.298   6.719
 9282SOL     OW28744   3.610   0.090   4.976
 9282SOL    HW128745   3.588   7.016   4.957
 9282SOL    HW228746   3.526   0.145   4.973
 9283SOL     OW28747   4.846   6.073   6.703
 9283SOL    HW128748   4.814   5.979   6.689
 9283SOL    HW228749   4.772   6.129   6.739
 9284SOL     OW28750   3.046   4.050   5.159
 9284SOL    HW128751   3.067   4.148   5.156
 9284SOL    HW228752   3.126   4.000   5.193
 9285SOL     OW28753   6.017   3.350   2.699
 9285SOL    HW128754   6.093   3.404   2.662
 9285SOL    HW228755   6.048   3.301   2.780
 9286SOL     OW28756   4.758   6.087   0.708
 9286SOL    HW128757   4.850   6.081   0.746
 9286SOL    HW228758   4.692   6.106   0.782
 9287SOL     OW28759   2.996   4.695   6.212
 9287SOL    HW128760   3.059   4.640   6.157
 9287SOL    HW228761   2.923   4.730   6.154
 9288SOL     OW28762   4.253   1.996   3.968
 9288SOL    HW128763   4.241   1.992   4.067
 9288SOL    HW228764   4.270   1.904   3.933
 9289SOL     OW28765   4.367   6.145   6.852
 9289SOL    HW128766   4.270   6.143   6.825
 9289SOL    HW228767   4.373   6.164   6.950
 9290SOL     OW28768   5.521   0.790   4.661
 9290SOL    HW128769   5.575   0.721   4.710
 9290SOL    HW228770   5.442   0.746   4.618
 9291SOL     OW28771   0.901   5.388   5.488
 9291SOL    HW128772   0.964   5.465   5.495
 9291SOL    HW228773   0.943   5.316   5.432
 9292SOL     OW28774   1.530   1.278   6.298
 9292SOL    HW128775   1.462   1.349   6.316
 9292SOL    HW228776   1.520   1.246   6.204
 9293SOL     OW28777   5.143   2.841   5.613
 9293SOL    HW128778   5.212   2.913   5.619
 9293SOL    HW228779   5.156   2.790   5.528
 9294SOL     OW28780   4.865   1.055   0.534
 9294SOL    HW128781   4.915   0.972   0.511
 9294SOL    HW228782   4.916   1.135   0.504
 9295SOL     OW28783   0.561   0.785   5.267
 9295SOL    HW128784   0.628   0.785   5.341
 9295SOL    HW228785   0.546   0.691   5.236
 9296SOL     OW28786   2.704   4.545   0.888
 9296SOL    HW128787   2.641   4.554   0.965
 9296SOL    HW228788   2.710   4.449   0.860
 9297SOL     OW28789   6.658   6.668   3.149
 9297SOL    HW128790   6.677   6.580   3.106
 9297SOL    HW228791   6.697   6.668   3.241
 9298SOL     OW28792   1.520   6.381   5.779
 9298SOL    HW128793   1.443   6.339   5.828
 9298SOL    HW228794   1.495   6.397   5.684
 9299SOL     OW28795   2.340   2.459   5.056
 9299SOL    HW128796   2.243   2.481   5.051
 9299SOL    HW228797   2.379   2.454   4.964
 9300SOL     OW28798   1.607   5.834   5.649
 9300SOL    HW128799   1.643   5.894   5.578
 9300SOL    HW228800   1.510   5.819   5.634
 9301SOL     OW28801   0.362   4.221   4.557
 9301SOL    HW128802   0.326   4.133   4.525
 9301SOL    HW228803   0.293   4.292   4.543
 9302SOL     OW28804   2.157   3.223   4.938
 9302SOL    HW128805   2.140   3.307   4.989
 9302SOL    HW228806   2.250   3.191   4.958
 9303SOL     OW28807   2.754   4.048   0.171
 9303SOL    HW128808   2.815   3.992   0.227
 9303SOL    HW228809   2.662   4.008   0.172
 9304SOL     OW28810   5.149   4.874   0.388
 9304SOL    HW128811   5.096   4.956   0.410
 9304SOL    HW228812   5.168   4.871   0.290
 9305SOL     OW28813   2.943   1.216   0.976
 9305SOL    HW128814   2.895   1.301   0.954
 9305SOL    HW228815   2.888   1.162   1.040
 9306SOL     OW28816   0.626   4.318   5.184
 9306SOL    HW128817   0.587   4.321   5.276
 9306SOL    HW228818   0.554   4.299   5.118
 9307SOL     OW28819   2.445   3.158   1.134
 9307SOL    HW128820   2.471   3.082   1.194
 9307SOL    HW228821   2.392   3.225   1.186
 9308SOL     OW28822   1.735   3.965   1.318
 9308SOL    HW128823   1.646   3.949   1.276
 9308SOL    HW228824   1.724   4.015   1.404
 9309SOL     OW28825   4.208   6.038   5.280
 9309SOL    HW128826   4.115   6.017   5.310
 9309SOL    HW228827   4.234   5.977   5.206
 9310SOL     OW28828   4.356   6.362   5.883
 9310SOL    HW128829   4.394   6.347   5.974
 9310SOL    HW228830   4.308   6.280   5.852
 9311SOL     OW28831   4.718   3.631   1.555
 9311SOL    HW128832   4.733   3.552   1.614
 9311SOL    HW228833   4.783   3.630   1.479
 9312SOL     OW28834   0.453   2.268   1.033
 9312SOL    HW128835   0.440   2.288   1.130
 9312SOL    HW228836   0.389   2.197   1.004
 9313SOL     OW28837   1.082   6.519   1.820
 9313SOL    HW128838   1.125   6.559   1.901
 9313SOL    HW228839   1.151   6.477   1.762
 9314SOL     OW28840   5.187   2.478   0.735
 9314SOL    HW128841   5.097   2.438   0.722
 9314SOL    HW228842   5.257   2.409   0.715
 9315SOL     OW28843   5.767   1.224   6.569
 9315SOL    HW128844   5.822   1.305   6.548
 9315SOL    HW228845   5.734   1.229   6.663
 9316SOL     OW28846   4.679   0.963   5.637
 9316SOL    HW128847   4.646   1.042   5.688
 9316SOL    HW228848   4.622   0.884   5.658
 9317SOL     OW28849   3.057   5.862   4.095
 9317SOL    HW128850   2.976   5.835   4.146
 9317SOL    HW228851   3.110   5.781   4.071
 9318SOL     OW28852   4.601   6.289   0.333
 9318SOL    HW128853   4.580   6.342   0.415
 9318SOL    HW228854   4.644   6.202   0.359
 9319SOL     OW28855   2.321   4.413   0.780
 9319SOL    HW128856   2.320   4.426   0.879
 9319SOL    HW228857   2.267   4.332   0.756
 9320SOL     OW28858   6.221   0.129   6.136
 9320SOL    HW128859   6.238   0.032   6.120
 9320SOL    HW228860   6.297   0.168   6.187
 9321SOL     OW28861   0.216   3.240   5.808
 9321SOL    HW128862   0.168   3.222   5.894
 9321SOL    HW228863   0.221   3.339   5.792
 9322SOL     OW28864   5.900   4.246   5.600
 9322SOL    HW128865   5.925   4.304   5.523
 9322SOL    HW228866   5.854   4.301   5.670
 9323SOL     OW28867   1.291   3.199   3.339
 9323SOL    HW128868   1.342   3.129   3.289
 9323SOL    HW228869   1.212   3.228   3.284
 9324SOL     OW28870   0.709   4.131   1.241
 9324SOL    HW128871   0.724   4.033   1.249
 9324SOL    HW228872   0.626   4.148   1.187
 9325SOL     OW28873   1.513   5.547   2.514
 9325SOL    HW128874   1.551   5.467   2.559
 9325SOL    HW228875   1.492   5.617   2.582
 9326SOL     OW28876   4.241   4.019   6.843
 9326SOL    HW128877   4.318   3.997   6.902
 9326SOL    HW228878   4.168   3.951   6.857
 9327SOL     OW28879   4.552   1.107   3.268
 9327SOL    HW128880   4.552   1.041   3.192
 9327SOL    HW228881   4.603   1.069   3.345
 9328SOL     OW28882   2.637   6.473   4.334
 9328SOL    HW128883   2.616   6.376   4.321
 9328SOL    HW228884   2.734   6.489   4.314
 9329SOL     OW28885   0.259   6.206   6.383
 9329SOL    HW128886   0.179   6.154   6.414
 9329SOL    HW228887   0.321   6.144   6.335
 9330SOL     OW28888   5.910   6.828   6.305
 9330SOL    HW128889   5.859   6.854   6.223
 9330SOL    HW228890   5.847   6.786   6.370
 9331SOL     OW28891   1.729   3.316   5.066
 9331SOL    HW128892   1.788   3.396   5.075
 9331SOL    HW228893   1.755   3.266   4.983
 9332SOL     OW28894   4.346   5.701   0.667
 9332SOL    HW128895   4.364   5.714   0.765
 9332SOL    HW228896   4.264   5.646   0.656
 9333SOL     OW28897   3.642   4.897   0.818
 9333SOL    HW128898   3.698   4.893   0.735
 9333SOL    HW228899   3.689   4.950   0.888
 9334SOL     OW28900   4.779   6.216   5.464
 9334SOL    HW128901   4.792   6.120   5.492
 9334SOL    HW228902   4.847   6.273   5.511
 9335SOL     OW28903   2.635   2.014   1.813
 9335SOL    HW128904   2.539   2.038   1.798
 9335SOL    HW228905   2.690   2.098   1.816
 9336SOL     OW28906   6.621   1.348   4.965
 9336SOL    HW128907   6.555   1.417   4.994
 9336SOL    HW228908   6.578   1.289   4.895
 9337SOL     OW28909   4.456   0.619   5.971
 9337SOL    HW128910   4.546   0.660   5.988
 9337SOL    HW228911   4.397   0.635   6.050
 9338SOL     OW28912   6.428   6.008   6.953
 9338SOL    HW128913   6.356   5.942   6.974
 9338SOL    HW228914   6.418   6.089   7.011
 9339SOL     OW28915   6.615   5.008   6.079
 9339SOL    HW128916   6.532   4.961   6.049
 9339SOL    HW228917   6.664   5.044   5.999
 9340SOL     OW28918   3.522   6.004   2.534
 9340SOL    HW128919   3.544   6.099   2.557
 9340SOL    HW228920   3.544   5.986   2.439
 9341SOL     OW28921   5.642   4.261   6.789
 9341SOL    HW128922   5.640   4.164   6.766
 9341SOL    HW228923   5.688   4.312   6.717
 9342SOL     OW28924   2.754   0.040   4.521
 9342SOL    HW128925   2.810   6.982   4.498
 9342SOL    HW228926   2.783   0.118   4.465
 9343SOL     OW28927   4.755   4.281   1.777
 9343SOL    HW128928   4.671   4.274   1.831
 9343SOL    HW228929   4.825   4.222   1.817
 9344SOL     OW28930   6.000   5.229   5.628
 9344SOL    HW128931   6.012   5.131   5.614
 9344SOL    HW228932   5.951   5.268   5.550
 9345SOL     OW28933   6.908   6.055   6.929
 9345SOL    HW128934   6.956   6.056   7.017
 9345SOL    HW228935   6.826   5.998   6.938
 9346SOL     OW28936   5.659   6.867   2.043
 9346SOL    HW128937   5.696   6.861   1.950
 9346SOL    HW228938   5.669   6.960   2.077
 9347SOL     OW28939   3.898   5.238   1.288
 9347SOL    HW128940   3.916   5.330   1.320
 9347SOL    HW228941   3.848   5.242   1.201
 9348SOL     OW28942   2.260   5.819   2.733
 9348SOL    HW128943   2.189   5.823   2.803
 9348SOL    HW228944   2.232   5.758   2.660
 9349SOL     OW28945   6.620   5.573   2.073
 9349SOL    HW128946   6.624   5.533   2.164
 9349SOL    HW228947   6.674   5.657   2.071
 9350SOL     OW28948   6.923   1.824   4.821
 9350SOL    HW128949   6.832   1.782   4.810
 9350SOL    HW228950   6.988   1.754   4.850
 9351SOL     OW28951   2.982   0.634   5.408
 9351SOL    HW128952   2.974   0.714   5.467
 9351SOL    HW228953   2.923   0.561   5.442
 9352SOL     OW28954   2.585   2.257   5.784
 9352SOL    HW128955   2.635   2.338   5.753
 9352SOL    HW228956   2.506   2.241   5.725
 9353SOL     OW28957   0.961   4.157   1.673
 9353SOL    HW128958   0.971   4.126   1.579
 9353SOL    HW228959   0.984   4.082   1.736
 9354SOL     OW28960   6.610   2.290   1.419
 9354SOL    HW128961   6.552   2.265   1.341
 9354SOL    HW228962   6.669   2.367   1.393
 9355SOL     OW28963   0.030   0.334   4.340
 9355SOL    HW128964   6.986   0.279   4.289
 9355SOL    HW228965   0.122   0.299   4.325
 9356SOL     OW28966   4.182   5.017   1.856
 9356SOL    HW128967   4.115   4.981   1.791
 9356SOL    HW228968   4.184   5.117   1.849
 9357SOL     OW28969   2.833   3.345   0.701
 9357SOL    HW128970   2.746   3.364   0.654
 9357SOL    HW228971   2.830   3.252   0.738
 9358SOL     OW28972   6.148   4.410   1.680
 9358SOL    HW128973   6.144   4.422   1.581
 9358SOL    HW228974   6.146   4.500   1.724
 9359SOL     OW28975   6.979   4.321   6.594
 9359SOL    HW128976   6.969   4.420   6.604
 9359SOL    HW228977   0.002   4.301   6.507
 9360SOL     OW28978   2.215   0.308   5.848
 9360SOL    HW128979   2.305   0.346   5.828
 9360SOL    HW228980   2.147   0.350   5.787
 9361SOL     OW28981   2.926   5.887   2.590
 9361SOL    HW128982   2.902   5.881   2.687
 9361SOL    HW228983   3.024   5.867   2.578
 9362SOL     OW28984   2.293   1.102   2.319
 9362SOL    HW128985   2.392   1.091   2.311
 9362SOL    HW228986   2.253   1.018   2.355
 9363SOL     OW28987   3.256   5.678   2.895
 9363SOL    HW128988   3.313   5.756   2.869
 9363SOL    HW228989   3.232   5.626   2.813
 9364SOL     OW28990   4.478   3.040   6.274
 9364SOL    HW128991   4.449   3.135   6.272
 9364SOL    HW228992   4.445   2.996   6.358
 9365SOL     OW28993   2.705   2.382   4.889
 9365SOL    HW128994   2.610   2.397   4.861
 9365SOL    HW228995   2.723   2.435   4.972
 9366SOL     OW28996   3.309   1.704   0.710
 9366SOL    HW128997   3.355   1.681   0.796
 9366SOL    HW228998   3.214   1.727   0.728
 9367SOL     OW28999   6.946   5.353   3.681
 9367SOL    HW129000   6.925   5.445   3.648
 9367SOL    HW229001   6.932   5.349   3.780
 9368SOL     OW29002   3.692   1.824   1.667
 9368SOL    HW129003   3.701   1.803   1.570
 9368SOL    HW229004   3.725   1.917   1.684
 9369SOL     OW29005   6.522   1.376   6.217
 9369SOL    HW129006   6.461   1.331   6.282
 9369SOL    HW229007   6.521   1.327   6.130
 9370SOL     OW29008   5.895   1.168   3.035
 9370SOL    HW129009   5.994   1.179   3.033
 9370SOL    HW229010   5.858   1.212   3.116
 9371SOL     OW29011   1.059   5.504   0.212
 9371SOL    HW129012   1.100   5.565   0.281
 9371SOL    HW229013   1.104   5.415   0.217
 9372SOL     OW29014   5.903   6.485   3.369
 9372SOL    HW129015   5.821   6.494   3.313
 9372SOL    HW229016   5.941   6.393   3.358
 9373SOL     OW29017   4.324   1.681   3.174
 9373SOL    HW129018   4.290   1.653   3.085
 9373SOL    HW229019   4.301   1.778   3.190
 9374SOL     OW29020   6.112   2.886   0.469
 9374SOL    HW129021   6.034   2.835   0.504
 9374SOL    HW229022   6.184   2.822   0.441
 9375SOL     OW29023   6.803   1.848   3.365
 9375SOL    HW129024   6.894   1.854   3.404
 9375SOL    HW229025   6.750   1.778   3.413
 9376SOL     OW29026   3.472   3.914   1.058
 9376SOL    HW129027   3.494   3.826   1.100
 9376SOL    HW229028   3.544   3.939   0.993
 9377SOL     OW29029   6.507   5.535   3.706
 9377SOL    HW129030   6.454   5.460   3.667
 9377SOL    HW229031   6.599   5.536   3.667
 9378SOL     OW29032   2.760   6.868   6.197
 9378SOL    HW129033   2.673   6.866   6.147
 9378SOL    HW229034   2.780   6.961   6.226
 9379SOL     OW29035   4.753   4.663   4.582
 9379SOL    HW129036   4.713   4.731   4.520
 9379SOL    HW229037   4.751   4.698   4.676
 9380SOL     OW29038   6.763   6.718   5.685
 9380SOL    HW129039   6.664   6.716   5.670
 9380SOL    HW229040   6.808   6.651   5.626
 9381SOL     OW29041   2.673   2.794   5.412
 9381SOL    HW129042   2.680   2.868   5.478
 9381SOL    HW229043   2.583   2.795   5.370
 9382SOL     OW29044   4.190   0.923   3.111
 9382SOL    HW129045   4.118   0.866   3.152
 9382SOL    HW229046   4.203   0.896   3.015
 9383SOL     OW29047   3.309   6.495   4.835
 9383SOL    HW129048   3.388   6.438   4.857
 9383SOL    HW229049   3.330   6.553   4.756
 9384SOL     OW29050   3.977   5.852   2.445
 9384SOL    HW129051   4.035   5.784   2.400
 9384SOL    HW229052   4.023   5.940   2.444
 9385SOL     OW29053   4.016   1.693   2.736
 9385SOL    HW129054   4.060   1.734   2.656
 9385SOL    HW229055   3.920   1.722   2.739
 9386SOL     OW29056   3.406   6.216   4.663
 9386SOL    HW129057   3.353   6.188   4.744
 9386SOL    HW229058   3.343   6.255   4.596
 9387SOL     OW29059   4.093   6.628   1.264
 9387SOL    HW129060   4.031   6.602   1.190
 9387SOL    HW229061   4.131   6.545   1.306
 9388SOL     OW29062   1.335   6.313   2.167
 9388SOL    HW129063   1.285   6.262   2.236
 9388SOL    HW229064   1.360   6.252   2.092
 9389SOL     OW29065   2.551   0.429   5.376
 9389SOL    HW129066   2.526   0.522   5.352
 9389SOL    HW229067   2.513   0.365   5.309
 9390SOL     OW29068   3.978   5.803   3.270
 9390SOL    HW129069   4.008   5.721   3.220
 9390SOL    HW229070   4.035   5.881   3.244
 9391SOL     OW29071   2.104   0.949   5.859
 9391SOL    HW129072   2.046   0.982   5.785
 9391SOL    HW229073   2.176   1.016   5.877
 9392SOL     OW29074   0.580   6.673   5.287
 9392SOL    HW129075   0.521   6.599   5.254
 9392SOL    HW229076   0.671   6.635   5.308
 9393SOL     OW29077   3.694   1.625   4.480
 9393SOL    HW129078   3.644   1.581   4.555
 9393SOL    HW229079   3.629   1.665   4.416
 9394SOL     OW29080   6.010   2.467   3.355
 9394SOL    HW129081   5.993   2.471   3.454
 9394SOL    HW229082   6.108   2.461   3.339
 9395SOL     OW29083   2.561   2.330   0.472
 9395SOL    HW129084   2.484   2.265   0.477
 9395SOL    HW229085   2.570   2.377   0.559
 9396SOL     OW29086   7.020   6.596   4.665
 9396SOL    HW129087   0.070   6.552   4.612
 9396SOL    HW229088   6.931   6.560   4.637
 9397SOL     OW29089   2.619   0.396   0.472
 9397SOL    HW129090   2.587   0.304   0.493
 9397SOL    HW229091   2.712   0.392   0.435
 9398SOL     OW29092   2.006   0.498   0.175
 9398SOL    HW129093   1.948   0.578   0.181
 9398SOL    HW229094   2.095   0.517   0.217
 9399SOL     OW29095   6.818   1.972   0.151
 9399SOL    HW129096   6.774   2.060   0.133
 9399SOL    HW229097   6.811   1.914   0.070
 9400SOL     OW29098   5.023   3.546   1.683
 9400SOL    HW129099   5.008   3.644   1.674
 9400SOL    HW229100   4.945   3.505   1.732
 9401SOL     OW29101   2.787   6.633   3.416
 9401SOL    HW129102   2.817   6.592   3.330
 9401SOL    HW229103   2.819   6.577   3.492
 9402SOL     OW29104   1.956   4.988   6.253
 9402SOL    HW129105   1.941   4.934   6.170
 9402SOL    HW229106   1.942   4.931   6.334
 9403SOL     OW29107   4.971   1.954   2.636
 9403SOL    HW129108   4.875   1.974   2.617
 9403SOL    HW229109   5.028   2.027   2.596
 9404SOL     OW29110   0.862   4.860   6.173
 9404SOL    HW129111   0.907   4.849   6.084
 9404SOL    HW229112   0.841   4.956   6.188
 9405SOL     OW29113   6.425   6.639   1.720
 9405SOL    HW129114   6.452   6.546   1.695
 9405SOL    HW229115   6.484   6.671   1.794
 9406SOL     OW29116   0.389   1.508   5.691
 9406SOL    HW129117   0.488   1.496   5.694
 9406SOL    HW229118   0.360   1.525   5.597
 9407SOL     OW29119   2.911   6.816   2.113
 9407SOL    HW129120   2.873   6.724   2.122
 9407SOL    HW229121   2.877   6.873   2.188
 9408SOL     OW29122   3.566   1.100   5.626
 9408SOL    HW129123   3.533   1.117   5.534
 9408SOL    HW229124   3.507   1.031   5.670
 9409SOL     OW29125   4.712   4.326   4.596
 9409SOL    HW129126   4.790   4.303   4.654
 9409SOL    HW229127   4.653   4.390   4.644
 9410SOL     OW29128   3.617   5.511   1.528
 9410SOL    HW129129   3.652   5.602   1.549
 9410SOL    HW229130   3.574   5.512   1.438
 9411SOL     OW29131   3.768   4.568   1.070
 9411SOL    HW129132   3.834   4.617   1.126
 9411SOL    HW229133   3.681   4.562   1.119
 9412SOL     OW29134   0.921   3.319   1.508
 9412SOL    HW129135   0.935   3.381   1.585
 9412SOL    HW229136   0.830   3.276   1.516
 9413SOL     OW29137   4.116   5.515   4.876
 9413SOL    HW129138   4.101   5.495   4.779
 9413SOL    HW229139   4.035   5.490   4.928
 9414SOL     OW29140   3.304   1.474   2.847
 9414SOL    HW129141   3.372   1.541   2.816
 9414SOL    HW229142   3.251   1.514   2.922
 9415SOL     OW29143   1.999   6.595   2.621
 9415SOL    HW129144   2.042   6.684   2.632
 9415SOL    HW229145   1.944   6.575   2.702
 9416SOL     OW29146   0.308   1.231   1.794
 9416SOL    HW129147   0.297   1.330   1.797
 9416SOL    HW229148   0.296   1.193   1.886
 9417SOL     OW29149   2.866   6.895   5.548
 9417SOL    HW129150   2.936   6.842   5.501
 9417SOL    HW229151   2.781   6.841   5.553
 9418SOL     OW29152   2.498   6.277   0.847
 9418SOL    HW129153   2.405   6.314   0.854
 9418SOL    HW229154   2.514   6.213   0.922
 9419SOL     OW29155   3.683   6.272   5.155
 9419SOL    HW129156   3.758   6.217   5.117
 9419SOL    HW229157   3.720   6.351   5.203
 9420SOL     OW29158   0.443   1.603   5.202
 9420SOL    HW129159   0.526   1.548   5.193
 9420SOL    HW229160   0.378   1.577   5.131
 9421SOL     OW29161   2.383   5.921   5.589
 9421SOL    HW129162   2.301   5.978   5.597
 9421SOL    HW229163   2.379   5.847   5.657
 9422SOL     OW29164   5.465   0.413   2.732
 9422SOL    HW129165   5.366   0.423   2.722
 9422SOL    HW229166   5.488   0.315   2.736
 9423SOL     OW29167   4.184   0.871   2.829
 9423SOL    HW129168   4.233   0.911   2.751
 9423SOL    HW229169   4.184   0.771   2.821
 9424SOL     OW29170   5.060   0.730   5.507
 9424SOL    HW129171   5.024   0.650   5.554
 9424SOL    HW229172   5.011   0.811   5.538
 9425SOL     OW29173   6.706   3.522   6.506
 9425SOL    HW129174   6.670   3.430   6.515
 9425SOL    HW229175   6.728   3.540   6.410
 9426SOL     OW29176   2.745   1.594   0.256
 9426SOL    HW129177   2.658   1.645   0.248
 9426SOL    HW229178   2.740   1.532   0.334
 9427SOL     OW29179   2.670   4.711   5.280
 9427SOL    HW129180   2.670   4.723   5.181
 9427SOL    HW229181   2.763   4.698   5.313
 9428SOL     OW29182   5.497   0.273   2.423
 9428SOL    HW129183   5.480   0.317   2.335
 9428SOL    HW229184   5.589   0.234   2.424
 9429SOL     OW29185   1.290   4.251   1.812
 9429SOL    HW129186   1.254   4.278   1.722
 9429SOL    HW229187   1.227   4.282   1.883
 9430SOL     OW29188   6.162   6.245   1.786
 9430SOL    HW129189   6.122   6.322   1.736
 9430SOL    HW229190   6.090   6.201   1.840
 9431SOL     OW29191   5.324   4.132   0.319
 9431SOL    HW129192   5.246   4.192   0.303
 9431SOL    HW229193   5.307   4.042   0.278
 9432SOL     OW29194   6.576   0.321   3.717
 9432SOL    HW129195   6.599   0.374   3.635
 9432SOL    HW229196   6.607   0.226   3.705
 9433SOL     OW29197   3.060   4.839   4.214
 9433SOL    HW129198   3.142   4.880   4.254
 9433SOL    HW229199   2.988   4.836   4.283
 9434SOL     OW29200   5.524   4.656   3.514
 9434SOL    HW129201   5.445   4.710   3.484
 9434SOL    HW229202   5.607   4.712   3.509
 9435SOL     OW29203   1.384   1.364   4.339
 9435SOL    HW129204   1.290   1.376   4.310
 9435SOL    HW229205   1.400   1.417   4.423
 9436SOL     OW29206   1.164   3.623   1.722
 9436SOL    HW129207   1.133   3.701   1.668
 9436SOL    HW229208   1.246   3.584   1.680
 9437SOL     OW29209   1.167   6.240   3.612
 9437SOL    HW129210   1.136   6.281   3.698
 9437SOL    HW229211   1.115   6.156   3.595
 9438SOL     OW29212   0.992   6.267   1.088
 9438SOL    HW129213   1.029   6.211   1.014
 9438SOL    HW229214   0.972   6.359   1.054
 9439SOL     OW29215   0.277   3.010   1.966
 9439SOL    HW129216   0.244   2.924   2.004
 9439SOL    HW229217   0.367   3.032   2.004
 9440SOL     OW29218   4.905   5.163   4.267
 9440SOL    HW129219   4.958   5.079   4.279
 9440SOL    HW229220   4.966   5.236   4.234
 9441SOL     OW29221   1.500   5.181   5.241
 9441SOL    HW129222   1.438   5.257   5.262
 9441SOL    HW229223   1.457   5.120   5.174
 9442SOL     OW29224   6.155   1.672   7.006
 9442SOL    HW129225   6.078   1.639   6.952
 9442SOL    HW229226   6.179   1.604   0.054
 9443SOL     OW29227   2.002   4.316   1.302
 9443SOL    HW129228   2.019   4.268   1.215
 9443SOL    HW229229   2.090   4.333   1.347
 9444SOL     OW29230   0.542   3.522   6.942
 9444SOL    HW129231   0.631   3.489   6.976
 9444SOL    HW229232   0.550   3.547   6.846
 9445SOL     OW29233   5.198   3.259   2.378
 9445SOL    HW129234   5.268   3.198   2.340
 9445SOL    HW229235   5.230   3.353   2.374
 9446SOL     OW29236   6.422   0.011   2.881
 9446SOL    HW129237   6.510   0.006   2.834
 9446SOL    HW229238   6.418   6.963   2.953
 9447SOL     OW29239   5.385   3.360   3.357
 9447SOL    HW129240   5.322   3.409   3.418
 9447SOL    HW229241   5.392   3.265   3.386
 9448SOL     OW29242   5.101   5.934   6.108
 9448SOL    HW129243   5.032   5.937   6.035
 9448SOL    HW229244   5.059   5.962   6.195
 9449SOL     OW29245   6.953   5.711   6.200
 9449SOL    HW129246   6.885   5.767   6.248
 9449SOL    HW229247   7.011   5.664   6.267
 9450SOL     OW29248   2.854   5.074   4.966
 9450SOL    HW129249   2.754   5.075   4.965
 9450SOL    HW229250   2.886   5.081   5.061
 9451SOL     OW29251   4.735   5.561   5.658
 9451SOL    HW129252   4.668   5.537   5.729
 9451SOL    HW229253   4.687   5.586   5.574
 9452SOL     OW29254   1.773   3.343   0.868
 9452SOL    HW129255   1.690   3.286   0.865
 9452SOL    HW229256   1.775   3.393   0.955
 9453SOL     OW29257   1.726   4.007   3.051
 9453SOL    HW129258   1.737   3.913   3.020
 9453SOL    HW229259   1.816   4.048   3.065
 9454SOL     OW29260   2.280   3.610   5.674
 9454SOL    HW129261   2.379   3.621   5.675
 9454SOL    HW229262   2.237   3.699   5.660
 9455SOL     OW29263   3.573   1.313   2.473
 9455SOL    HW129264   3.636   1.340   2.545
 9455SOL    HW229265   3.500   1.381   2.464
 9456SOL     OW29266   0.323   4.617   0.537
 9456SOL    HW129267   0.327   4.600   0.636
 9456SOL    HW229268   0.400   4.569   0.493
 9457SOL     OW29269   1.161   3.649   6.337
 9457SOL    HW129270   1.149   3.734   6.284
 9457SOL    HW229271   1.073   3.606   6.352
 9458SOL     OW29272   1.115   4.634   6.716
 9458SOL    HW129273   1.076   4.707   6.773
 9458SOL    HW229274   1.134   4.554   6.773
 9459SOL     OW29275   6.609   5.020   2.234
 9459SOL    HW129276   6.651   5.068   2.157
 9459SOL    HW229277   6.547   4.949   2.199
 9460SOL     OW29278   0.123   1.984   5.313
 9460SOL    HW129279   0.072   1.899   5.307
 9460SOL    HW229280   0.103   2.041   5.233
 9461SOL     OW29281   6.140   1.669   3.491
 9461SOL    HW129282   6.145   1.748   3.431
 9461SOL    HW229283   6.092   1.693   3.575
 9462SOL     OW29284   1.861   3.419   3.261
 9462SOL    HW129285   1.960   3.408   3.252
 9462SOL    HW229286   1.816   3.331   3.249
 9463SOL     OW29287   0.221   0.660   1.067
 9463SOL    HW129288   0.250   0.576   1.021
 9463SOL    HW229289   0.288   0.683   1.139
 9464SOL     OW29290   5.484   6.674   6.604
 9464SOL    HW129291   5.463   6.586   6.561
 9464SOL    HW229292   5.549   6.725   6.548
 9465SOL     OW29293   0.045   0.371   3.549
 9465SOL    HW129294   0.019   0.377   3.453
 9465SOL    HW229295   7.017   0.440   3.602
 9466SOL     OW29296   4.229   3.630   5.210
 9466SOL    HW129297   4.204   3.549   5.157
 9466SOL    HW229298   4.210   3.712   5.156
 9467SOL     OW29299   1.343   3.100   1.274
 9467SOL    HW129300   1.323   3.006   1.304
 9467SOL    HW229301   1.330   3.107   1.176
 9468SOL     OW29302   5.835   2.680   6.308
 9468SOL    HW129303   5.922   2.632   6.308
 9468SOL    HW229304   5.765   2.622   6.266
 9469SOL     OW29305   5.879   5.429   1.756
 9469SOL    HW129306   5.925   5.345   1.785
 9469SOL    HW229307   5.891   5.499   1.826
 9470SOL     OW29308   5.414   2.989   6.338
 9470SOL    HW129309   5.459   3.058   6.281
 9470SOL    HW229310   5.377   2.916   6.279
 9471SOL     OW29311   6.879   2.944   5.658
 9471SOL    HW129312   6.975   2.935   5.686
 9471SOL    HW229313   6.834   2.855   5.665
 9472SOL     OW29314   6.647   3.704   4.372
 9472SOL    HW129315   6.699   3.618   4.370
 9472SOL    HW229316   6.703   3.777   4.411
 9473SOL     OW29317   3.878   6.470   5.553
 9473SOL    HW129318   3.953   6.407   5.576
 9473SOL    HW229319   3.891   6.556   5.602
 9474SOL     OW29320   6.240   3.659   1.451
 9474SOL    HW129321   6.175   3.709   1.509
 9474SOL    HW229322   6.290   3.723   1.393
 9475SOL     OW29323   3.081   3.410   0.603
 9475SOL    HW129324   3.147   3.392   0.677
 9475SOL    HW229325   2.990   3.383   0.633
 9476SOL     OW29326   3.009   3.235   4.680
 9476SOL    HW129327   2.978   3.328   4.662
 9476SOL    HW229328   2.972   3.205   4.768
 9477SOL     OW29329   0.735   3.492   1.786
 9477SOL    HW129330   0.677   3.488   1.705
 9477SOL    HW229331   0.765   3.586   1.801
 9478SOL     OW29332   5.899   3.837   6.102
 9478SOL    HW129333   5.910   3.741   6.127
 9478SOL    HW229334   5.897   3.846   6.003
 9479SOL     OW29335   5.586   6.699   6.162
 9479SOL    HW129336   5.638   6.757   6.099
 9479SOL    HW229337   5.516   6.650   6.111
 9480SOL     OW29338   4.240   4.305   6.462
 9480SOL    HW129339   4.279   4.321   6.371
 9480SOL    HW229340   4.186   4.222   6.462
 9481SOL     OW29341   6.015   3.678   1.295
 9481SOL    HW129342   5.966   3.603   1.249
 9481SOL    HW229343   6.101   3.643   1.332
 9482SOL     OW29344   6.032   1.459   3.045
 9482SOL    HW129345   6.108   1.438   2.984
 9482SOL    HW229346   5.973   1.528   3.002
 9483SOL     OW29347   2.240   1.319   1.213
 9483SOL    HW129348   2.240   1.416   1.188
 9483SOL    HW229349   2.149   1.292   1.244
 9484SOL     OW29350   5.418   1.743   3.377
 9484SOL    HW129351   5.491   1.687   3.338
 9484SOL    HW229352   5.332   1.692   3.375
 9485SOL     OW29353   0.779   6.912   1.562
 9485SOL    HW129354   0.816   6.819   1.562
 9485SOL    HW229355   0.710   6.920   1.490
 9486SOL     OW29356   2.148   5.054   0.741
 9486SOL    HW129357   2.085   5.128   0.719
 9486SOL    HW229358   2.106   4.967   0.715
 9487SOL     OW29359   2.874   3.626   3.955
 9487SOL    HW129360   2.900   3.722   3.962
 9487SOL    HW229361   2.819   3.601   4.035
 9488SOL     OW29362   2.679   6.394   1.424
 9488SOL    HW129363   2.644   6.486   1.441
 9488SOL    HW229364   2.735   6.364   1.501
 9489SOL     OW29365   3.204   3.861   1.262
 9489SOL    HW129366   3.152   3.852   1.347
 9489SOL    HW229367   3.204   3.774   1.213
 9490SOL     OW29368   5.590   0.103   0.292
 9490SOL    HW129369   5.639   0.056   0.219
 9490SOL    HW229370   5.592   0.202   0.275
 9491SOL     OW29371   6.625   4.980   4.947
 9491SOL    HW129372   6.621   5.001   4.850
 9491SOL    HW229373   6.541   5.011   4.992
 9492SOL     OW29374   3.134   3.564   2.539
 9492SOL    HW129375   3.157   3.640   2.479
 9492SOL    HW229376   3.217   3.510   2.556
 9493SOL     OW29377   4.414   5.364   3.703
 9493SOL    HW129378   4.450   5.449   3.742
 9493SOL    HW229379   4.480   5.326   3.638
 9494SOL     OW29380   4.776   3.805   0.833
 9494SOL    HW129381   4.799   3.713   0.801
 9494SOL    HW229382   4.844   3.834   0.900
 9495SOL     OW29383   6.568   2.091   4.312
 9495SOL    HW129384   6.583   2.135   4.400
 9495SOL    HW229385   6.485   2.128   4.270
 9496SOL     OW29386   5.057   4.739   6.892
 9496SOL    HW129387   5.131   4.682   6.859
 9496SOL    HW229388   4.974   4.721   6.839
 9497SOL     OW29389   4.539   3.820   0.390
 9497SOL    HW129390   4.621   3.864   0.354
 9497SOL    HW229391   4.466   3.825   0.322
 9498SOL     OW29392   5.359   0.594   5.924
 9498SOL    HW129393   5.438   0.533   5.918
 9498SOL    HW229394   5.336   0.626   5.832
 9499SOL     OW29395   2.180   3.330   5.615
 9499SOL    HW129396   2.240   3.279   5.554
 9499SOL    HW229397   2.214   3.424   5.624
 9500SOL     OW29398   3.000   6.406   1.939
 9500SOL    HW129399   2.950   6.485   1.904
 9500SOL    HW229400   3.087   6.436   1.979
 9501SOL     OW29401   3.344   1.534   5.074
 9501SOL    HW129402   3.440   1.522   5.048
 9501SOL    HW229403   3.327   1.630   5.096
 9502SOL     OW29404   0.066   2.155   5.077
 9502SOL    HW129405   0.104   2.077   5.029
 9502SOL    HW229406   0.108   2.239   5.045
 9503SOL     OW29407   0.295   1.011   1.596
 9503SOL    HW129408   0.294   1.087   1.661
 9503SOL    HW229409   0.215   1.017   1.536
 9504SOL     OW29410   6.859   2.089   0.895
 9504SOL    HW129411   6.870   2.188   0.902
 9504SOL    HW229412   6.942   2.048   0.856
 9505SOL     OW29413   5.797   3.774   3.413
 9505SOL    HW129414   5.767   3.762   3.318
 9505SOL    HW229415   5.742   3.716   3.473
 9506SOL     OW29416   0.668   3.053   6.380
 9506SOL    HW129417   0.655   3.152   6.390
 9506SOL    HW229418   0.683   3.011   6.469
 9507SOL     OW29419   2.186   1.118   4.433
 9507SOL    HW129420   2.218   1.148   4.343
 9507SOL    HW229421   2.093   1.082   4.425
 9508SOL     OW29422   6.171   2.663   0.812
 9508SOL    HW129423   6.129   2.585   0.858
 9508SOL    HW229424   6.157   2.656   0.713
 9509SOL     OW29425   1.297   6.485   5.345
 9509SOL    HW129426   1.216   6.475   5.287
 9509SOL    HW229427   1.279   6.443   5.434
 9510SOL     OW29428   0.418   3.957   1.653
 9510SOL    HW129429   0.421   3.924   1.558
 9510SOL    HW229430   0.329   3.999   1.670
 9511SOL     OW29431   0.458   1.943   6.774
 9511SOL    HW129432   0.528   1.916   6.708
 9511SOL    HW229433   0.502   1.986   6.853
 9512SOL     OW29434   5.676   2.175   3.385
 9512SOL    HW129435   5.706   2.270   3.394
 9512SOL    HW229436   5.752   2.114   3.407
 9513SOL     OW29437   1.681   3.324   4.422
 9513SOL    HW129438   1.764   3.339   4.368
 9513SOL    HW229439   1.700   3.337   4.519
 9514SOL     OW29440   1.807   4.049   0.139
 9514SOL    HW129441   1.891   4.081   0.184
 9514SOL    HW229442   1.737   4.031   0.208
 9515SOL     OW29443   1.488   5.685   6.880
 9515SOL    HW129444   1.403   5.669   6.932
 9515SOL    HW229445   1.507   5.606   6.823
 9516SOL     OW29446   4.955   3.610   4.643
 9516SOL    HW129447   5.032   3.557   4.678
 9516SOL    HW229448   4.907   3.557   4.573
 9517SOL     OW29449   1.436   4.928   0.924
 9517SOL    HW129450   1.389   4.888   0.845
 9517SOL    HW229451   1.476   4.855   0.979
 9518SOL     OW29452   1.473   2.424   6.773
 9518SOL    HW129453   1.568   2.449   6.793
 9518SOL    HW229454   1.460   2.327   6.790
 9519SOL     OW29455   3.208   3.673   2.900
 9519SOL    HW129456   3.112   3.696   2.910
 9519SOL    HW229457   3.244   3.713   2.816
 9520SOL     OW29458   6.336   1.596   4.286
 9520SOL    HW129459   6.420   1.649   4.300
 9520SOL    HW229460   6.328   1.527   4.358
 9521SOL     OW29461   3.409   4.267   1.533
 9521SOL    HW129462   3.339   4.297   1.467
 9521SOL    HW229463   3.484   4.332   1.533
 9522SOL     OW29464   4.157   5.617   2.452
 9522SOL    HW129465   4.225   5.560   2.405
 9522SOL    HW229466   4.187   5.712   2.453
 9523SOL     OW29467   2.621   5.506   5.235
 9523SOL    HW129468   2.568   5.565   5.295
 9523SOL    HW229469   2.705   5.478   5.281
 9524SOL     OW29470   1.589   3.016   1.347
 9524SOL    HW129471   1.497   3.031   1.311
 9524SOL    HW229472   1.598   3.061   1.436
 9525SOL     OW29473   1.703   1.622   5.849
 9525SOL    HW129474   1.734   1.634   5.943
 9525SOL    HW229475   1.739   1.696   5.792
 9526SOL     OW29476   5.874   4.990   0.446
 9526SOL    HW129477   5.934   5.036   0.512
 9526SOL    HW229478   5.930   4.952   0.371
 9527SOL     OW29479   2.466   0.064   4.522
 9527SOL    HW129480   2.565   0.055   4.511
 9527SOL    HW229481   2.425   6.996   4.535
 9528SOL     OW29482   6.122   1.670   1.242
 9528SOL    HW129483   6.093   1.635   1.331
 9528SOL    HW229484   6.208   1.719   1.253
 9529SOL     OW29485   5.504   3.723   0.890
 9529SOL    HW129486   5.492   3.788   0.815
 9529SOL    HW229487   5.416   3.705   0.934
 9530SOL     OW29488   1.169   4.264   4.479
 9530SOL    HW129489   1.261   4.240   4.448
 9530SOL    HW229490   1.147   4.357   4.450
 9531SOL     OW29491   4.267   5.063   3.310
 9531SOL    HW129492   4.177   5.024   3.328
 9531SOL    HW229493   4.278   5.082   3.213
 9532SOL     OW29494   6.489   5.042   1.036
 9532SOL    HW129495   6.406   5.044   1.092
 9532SOL    HW229496   6.497   4.952   0.993
 9533SOL     OW29497   0.645   5.368   3.843
 9533SOL    HW129498   0.586   5.317   3.781
 9533SOL    HW229499   0.664   5.312   3.924
 9534SOL     OW29500   5.802   4.573   4.707
 9534SOL    HW129501   5.776   4.578   4.610
 9534SOL    HW229502   5.867   4.499   4.720
 9535SOL     OW29503   1.809   0.914   6.447
 9535SOL    HW129504   1.870   0.910   6.526
 9535SOL    HW229505   1.859   0.952   6.369
 9536SOL     OW29506   3.768   3.414   5.205
 9536SOL    HW129507   3.851   3.416   5.261
 9536SOL    HW229508   3.695   3.370   5.257
 9537SOL     OW29509   3.155   1.773   4.760
 9537SOL    HW129510   3.253   1.766   4.779
 9537SOL    HW229511   3.140   1.788   4.662
 9538SOL     OW29512   4.830   0.627   4.264
 9538SOL    HW129513   4.853   0.708   4.317
 9538SOL    HW229514   4.887   0.623   4.182
 9539SOL     OW29515   2.862   3.518   4.238
 9539SOL    HW129516   2.861   3.604   4.289
 9539SOL    HW229517   2.946   3.512   4.184
 9540SOL     OW29518   5.136   5.554   4.263
 9540SOL    HW129519   5.162   5.604   4.180
 9540SOL    HW229520   5.126   5.457   4.242
 9541SOL     OW29521   1.578   0.617   5.756
 9541SOL    HW129522   1.644   0.549   5.788
 9541SOL    HW229523   1.622   0.678   5.691
 9542SOL     OW29524   5.494   5.031   4.091
 9542SOL    HW129525   5.574   5.065   4.141
 9542SOL    HW229526   5.436   4.979   4.153
 9543SOL     OW29527   3.526   0.525   6.074
 9543SOL    HW129528   3.542   0.480   5.986
 9543SOL    HW229529   3.576   0.612   6.076
 9544SOL     OW29530   5.116   3.412   4.046
 9544SOL    HW129531   5.062   3.329   4.031
 9544SOL    HW229532   5.151   3.445   3.958
 9545SOL     OW29533   6.653   5.233   2.412
 9545SOL    HW129534   6.639   5.214   2.509
 9545SOL    HW229535   6.596   5.170   2.358
 9546SOL     OW29536   3.635   1.622   5.876
 9546SOL    HW129537   3.714   1.682   5.868
 9546SOL    HW229538   3.608   1.615   5.972
 9547SOL     OW29539   2.398   5.574   3.994
 9547SOL    HW129540   2.333   5.534   3.929
 9547SOL    HW229541   2.442   5.500   4.044
 9548SOL     OW29542   0.626   5.465   4.963
 9548SOL    HW129543   0.646   5.391   4.899
 9548SOL    HW229544   0.547   5.516   4.932
 9549SOL     OW29545   2.558   1.033   2.322
 9549SOL    HW129546   2.614   1.058   2.243
 9549SOL    HW229547   2.586   0.943   2.356
 9550SOL     OW29548   6.234   2.406   1.225
 9550SOL    HW129549   6.170   2.472   1.186
 9550SOL    HW229550   6.192   2.315   1.226
 9551SOL     OW29551   5.923   3.329   5.696
 9551SOL    HW129552   5.832   3.343   5.734
 9551SOL    HW229553   5.923   3.252   5.633
 9552SOL     OW29554   2.178   6.357   6.079
 9552SOL    HW129555   2.224   6.413   6.148
 9552SOL    HW229556   2.193   6.397   5.989
 9553SOL     OW29557   5.777   2.526   7.010
 9553SOL    HW129558   5.810   2.574   6.929
 9553SOL    HW229559   5.787   2.585   0.069
 9554SOL     OW29560   1.444   6.604   3.544
 9554SOL    HW129561   1.535   6.577   3.574
 9554SOL    HW229562   1.375   6.559   3.602
 9555SOL     OW29563   0.506   1.372   3.162
 9555SOL    HW129564   0.474   1.285   3.201
 9555SOL    HW229565   0.514   1.440   3.235
 9556SOL     OW29566   1.929   3.813   0.844
 9556SOL    HW129567   1.928   3.903   0.888
 9556SOL    HW229568   1.971   3.747   0.905
 9557SOL     OW29569   5.398   6.725   1.373
 9557SOL    HW129570   5.471   6.657   1.372
 9557SOL    HW229571   5.421   6.801   1.312
 9558SOL     OW29572   5.744   6.414   5.056
 9558SOL    HW129573   5.685   6.390   5.134
 9558SOL    HW229574   5.835   6.440   5.090
 9559SOL     OW29575   1.032   3.926   6.923
 9559SOL    HW129576   1.022   3.868   6.842
 9559SOL    HW229577   1.010   4.021   6.898
 9560SOL     OW29578   2.779   0.894   2.848
 9560SOL    HW129579   2.691   0.924   2.885
 9560SOL    HW229580   2.832   0.974   2.820
 9561SOL     OW29581   0.488   0.127   1.353
 9561SOL    HW129582   0.394   0.162   1.358
 9561SOL    HW229583   0.528   0.151   1.265
 9562SOL     OW29584   2.511   6.296   4.568
 9562SOL    HW129585   2.474   6.277   4.477
 9562SOL    HW229586   2.584   6.364   4.562
 9563SOL     OW29587   0.321   6.718   6.913
 9563SOL    HW129588   0.314   6.626   6.875
 9563SOL    HW229589   0.405   6.726   6.966
 9564SOL     OW29590   2.634   1.005   0.819
 9564SOL    HW129591   2.547   1.048   0.843
 9564SOL    HW229592   2.676   0.966   0.901
 9565SOL     OW29593   3.379   0.902   5.690
 9565SOL    HW129594   3.381   0.867   5.784
 9565SOL    HW229595   3.293   0.876   5.647
 9566SOL     OW29596   2.682   5.768   0.350
 9566SOL    HW129597   2.604   5.710   0.323
 9566SOL    HW229598   2.657   5.822   0.430
 9567SOL     OW29599   5.510   4.265   0.145
 9567SOL    HW129600   5.468   4.212   0.219
 9567SOL    HW229601   5.602   4.230   0.127
 9568SOL     OW29602   4.090   1.638   0.087
 9568SOL    HW129603   4.126   1.558   0.040
 9568SOL    HW229604   4.052   1.610   0.176
 9569SOL     OW29605   0.083   1.210   2.202
 9569SOL    HW129606   0.064   1.306   2.224
 9569SOL    HW229607   0.169   1.204   2.152
 9570SOL     OW29608   0.326   2.811   1.104
 9570SOL    HW129609   0.298   2.906   1.094
 9570SOL    HW229610   0.387   2.802   1.183
 9571SOL     OW29611   2.950   3.261   5.726
 9571SOL    HW129612   2.898   3.176   5.731
 9571SOL    HW229613   2.941   3.300   5.635
 9572SOL     OW29614   1.821   5.048   2.401
 9572SOL    HW129615   1.806   5.147   2.392
 9572SOL    HW229616   1.829   5.007   2.311
 9573SOL     OW29617   0.401   1.737   6.553
 9573SOL    HW129618   0.334   1.710   6.622
 9573SOL    HW229619   0.363   1.812   6.498
 9574SOL     OW29620   3.376   2.853   2.494
 9574SOL    HW129621   3.309   2.861   2.569
 9574SOL    HW229622   3.334   2.883   2.409
 9575SOL     OW29623   6.965   1.478   2.269
 9575SOL    HW129624   6.907   1.413   2.319
 9575SOL    HW229625   6.931   1.570   2.284
 9576SOL     OW29626   2.046   2.140   0.696
 9576SOL    HW129627   2.009   2.075   0.763
 9576SOL    HW229628   2.141   2.116   0.675
 9577SOL     OW29629   0.803   0.059   5.796
 9577SOL    HW129630   0.741   0.060   5.874
 9577SOL    HW229631   0.866   7.003   5.805
 9578SOL     OW29632   1.075   2.824   2.858
 9578SOL    HW129633   1.065   2.923   2.865
 9578SOL    HW229634   0.987   2.783   2.834
 9579SOL     OW29635   0.312   6.298   3.378
 9579SOL    HW129636   0.336   6.394   3.361
 9579SOL    HW229637   0.264   6.291   3.466
 9580SOL     OW29638   4.798   3.292   0.852
 9580SOL    HW129639   4.723   3.297   0.918
 9580SOL    HW229640   4.784   3.212   0.794
 9581SOL     OW29641   0.422   0.442   6.603
 9581SOL    HW129642   0.337   0.445   6.550
 9581SOL    HW229643   0.496   0.482   6.549
 9582SOL     OW29644   3.956   5.787   4.758
 9582SOL    HW129645   3.911   5.709   4.802
 9582SOL    HW229646   3.982   5.855   4.826
 9583SOL     OW29647   3.050   3.830   1.485
 9583SOL    HW129648   3.004   3.745   1.458
 9583SOL    HW229649   3.100   3.815   1.570
 9584SOL     OW29650   0.109   4.813   5.739
 9584SOL    HW129651   0.046   4.738   5.720
 9584SOL    HW229652   0.059   4.889   5.781
 9585SOL     OW29653   5.509   6.861   3.160
 9585SOL    HW129654   5.435   6.929   3.166
 9585SOL    HW229655   5.512   6.824   3.068
 9586SOL     OW29656   4.612   5.644   2.321
 9586SOL    HW129657   4.604   5.585   2.401
 9586SOL    HW229658   4.674   5.719   2.341
 9587SOL     OW29659   0.768   6.891   1.140
 9587SOL    HW129660   0.730   6.866   1.051
 9587SOL    HW229661   0.694   6.911   1.204
 9588SOL     OW29662   5.960   6.818   0.675
 9588SOL    HW129663   5.954   6.735   0.730
 9588SOL    HW229664   6.055   6.846   0.666
 9589SOL     OW29665   1.855   4.673   0.383
 9589SOL    HW129666   1.954   4.679   0.391
 9589SOL    HW229667   1.819   4.757   0.343
 9590SOL     OW29668   6.018   2.825   2.075
 9590SOL    HW129669   6.097   2.810   2.136
 9590SOL    HW229670   5.934   2.808   2.126
 9591SOL     OW29671   2.935   5.384   6.094
 9591SOL    HW129672   2.865   5.432   6.146
 9591SOL    HW229673   2.955   5.296   6.138
 9592SOL     OW29674   2.929   4.528   0.616
 9592SOL    HW129675   2.976   4.616   0.629
 9592SOL    HW229676   2.909   4.487   0.705
 9593SOL     OW29677   0.886   1.279   6.471
 9593SOL    HW129678   0.856   1.326   6.388
 9593SOL    HW229679   0.972   1.231   6.454
 9594SOL     OW29680   2.066   5.223   4.162
 9594SOL    HW129681   2.165   5.207   4.159
 9594SOL    HW229682   2.024   5.162   4.230
 9595SOL     OW29683   0.199   2.875   3.864
 9595SOL    HW129684   0.243   2.924   3.940
 9595SOL    HW229685   0.139   2.804   3.901
 9596SOL     OW29686   0.646   5.061   6.585
 9596SOL    HW129687   0.587   4.982   6.603
 9596SOL    HW229688   0.729   5.031   6.538
 9597SOL     OW29689   6.984   4.094   1.510
 9597SOL    HW129690   6.914   4.145   1.560
 9597SOL    HW229691   7.020   4.021   1.568
 9598SOL     OW29692   2.033   4.593   3.234
 9598SOL    HW129693   2.069   4.684   3.252
 9598SOL    HW229694   2.104   4.536   3.192
 9599SOL     OW29695   2.702   0.661   3.943
 9599SOL    HW129696   2.787   0.641   3.991
 9599SOL    HW229697   2.664   0.747   3.977
 9600SOL     OW29698   3.076   0.054   6.959
 9600SOL    HW129699   3.003   0.077   6.896
 9600SOL    HW229700   3.047   7.003   7.020
 9601SOL     OW29701   5.187   4.502   0.514
 9601SOL    HW129702   5.269   4.555   0.538
 9601SOL    HW229703   5.168   4.436   0.586
 9602SOL     OW29704   6.181   4.297   6.470
 9602SOL    HW129705   6.123   4.316   6.549
 9602SOL    HW229706   6.257   4.238   6.498
 9603SOL     OW29707   4.405   1.442   6.285
 9603SOL    HW129708   4.326   1.450   6.347
 9603SOL    HW229709   4.486   1.417   6.339
 9604SOL     OW29710   4.973   6.925   0.865
 9604SOL    HW129711   4.990   7.021   0.888
 9604SOL    HW229712   5.039   6.867   0.913
 9605SOL     OW29713   1.084   6.246   3.024
 9605SOL    HW129714   1.182   6.258   3.042
 9605SOL    HW229715   1.034   6.248   3.111
 9606SOL     OW29716   1.729   6.355   0.050
 9606SOL    HW129717   1.800   6.287   0.029
 9606SOL    HW229718   1.659   6.352   7.001
 9607SOL     OW29719   2.576   1.200   6.827
 9607SOL    HW129720   2.488   1.224   6.787
 9607SOL    HW229721   2.606   1.274   6.888
 9608SOL     OW29722   6.997   4.337   1.716
 9608SOL    HW129723   6.984   4.417   1.657
 9608SOL    HW229724   0.070   4.306   1.711
 9609SOL     OW29725   2.858   2.931   0.172
 9609SOL    HW129726   2.803   2.879   0.238
 9609SOL    HW229727   2.952   2.898   0.174
 9610SOL     OW29728   1.534   5.138   3.900
 9610SOL    HW129729   1.465   5.138   3.827
 9610SOL    HW229730   1.544   5.230   3.937
 9611SOL     OW29731   0.983   6.333   0.532
 9611SOL    HW129732   1.069   6.384   0.527
 9611SOL    HW229733   1.001   6.235   0.522
 9612SOL     OW29734   0.209   3.657   1.661
 9612SOL    HW129735   0.120   3.611   1.659
 9612SOL    HW229736   0.245   3.663   1.567
 9613SOL     OW29737   5.002   0.084   3.234
 9613SOL    HW129738   4.997   0.103   3.332
 9613SOL    HW229739   4.988   0.168   3.182
 9614SOL     OW29740   4.176   2.323   1.674
 9614SOL    HW129741   4.215   2.288   1.759
 9614SOL    HW229742   4.077   2.309   1.674
 9615SOL     OW29743   2.523   0.719   0.720
 9615SOL    HW129744   2.506   0.695   0.816
 9615SOL    HW229745   2.558   0.813   0.715
 9616SOL     OW29746   3.719   3.932   1.439
 9616SOL    HW129747   3.771   3.857   1.397
 9616SOL    HW229748   3.758   3.954   1.528
 9617SOL     OW29749   1.483   3.023   3.211
 9617SOL    HW129750   1.437   2.952   3.265
 9617SOL    HW229751   1.477   3.001   3.114
 9618SOL     OW29752   3.138   6.549   0.459
 9618SOL    HW129753   3.136   6.454   0.430
 9618SOL    HW229754   3.188   6.603   0.391
 9619SOL     OW29755   1.503   6.908   6.426
 9619SOL    HW129756   1.433   6.979   6.419
 9619SOL    HW229757   1.462   6.819   6.403
 9620SOL     OW29758   4.287   0.692   6.163
 9620SOL    HW129759   4.191   0.670   6.144
 9620SOL    HW229760   4.320   0.634   6.238
 9621SOL     OW29761   1.393   2.445   2.131
 9621SOL    HW129762   1.440   2.429   2.044
 9621SOL    HW229763   1.451   2.413   2.206
 9622SOL     OW29764   7.017   1.081   0.368
 9622SOL    HW129765   6.939   1.063   0.428
 9622SOL    HW229766   6.984   1.117   0.280
 9623SOL     OW29767   3.019   3.645   5.579
 9623SOL    HW129768   2.973   3.562   5.546
 9623SOL    HW229769   3.055   3.696   5.500
 9624SOL     OW29770   6.704   3.668   3.020
 9624SOL    HW129771   6.613   3.674   3.062
 9624SOL    HW229772   6.734   3.572   3.020
 9625SOL     OW29773   4.812   5.800   6.654
 9625SOL    HW129774   4.762   5.717   6.629
 9625SOL    HW229775   4.910   5.782   6.653
 9626SOL     OW29776   4.301   5.237   0.557
 9626SOL    HW129777   4.328   5.330   0.584
 9626SOL    HW229778   4.370   5.199   0.496
 9627SOL     OW29779   6.903   6.208   5.205
 9627SOL    HW129780   6.987   6.158   5.225
 9627SOL    HW229781   6.859   6.169   5.124
 9628SOL     OW29782   4.816   4.758   0.354
 9628SOL    HW129783   4.782   4.795   0.440
 9628SOL    HW229784   4.837   4.832   0.291
 9629SOL     OW29785   0.383   6.820   1.616
 9629SOL    HW129786   0.293   6.831   1.659
 9629SOL    HW229787   0.454   6.850   1.679
 9630SOL     OW29788   6.394   6.904   4.572
 9630SOL    HW129789   6.307   6.907   4.523
 9630SOL    HW229790   6.386   6.955   4.658
 9631SOL     OW29791   6.955   6.679   6.922
 9631SOL    HW129792   6.865   6.722   6.914
 9631SOL    HW229793   6.996   6.671   6.831
 9632SOL     OW29794   1.044   0.154   2.716
 9632SOL    HW129795   1.088   0.185   2.631
 9632SOL    HW229796   1.082   0.204   2.794
 9633SOL     OW29797   5.156   5.214   6.014
 9633SOL    HW129798   5.117   5.225   6.106
 9633SOL    HW229799   5.239   5.158   6.020
 9634SOL     OW29800   1.008   5.908   4.161
 9634SOL    HW129801   1.073   5.834   4.177
 9634SOL    HW229802   1.043   5.969   4.090
 9635SOL     OW29803   1.765   5.032   5.332
 9635SOL    HW129804   1.768   4.993   5.240
 9635SOL    HW229805   1.702   4.979   5.389
 9636SOL     OW29806   3.692   2.228   6.057
 9636SOL    HW129807   3.635   2.151   6.026
 9636SOL    HW229808   3.649   2.314   6.031
 9637SOL     OW29809   2.243   1.585   6.528
 9637SOL    HW129810   2.186   1.653   6.482
 9637SOL    HW229811   2.201   1.562   6.616
 9638SOL     OW29812   6.568   3.934   6.776
 9638SOL    HW129813   6.493   3.958   6.838
 9638SOL    HW229814   6.531   3.904   6.689
 9639SOL     OW29815   3.952   1.107   2.353
 9639SOL    HW129816   3.857   1.076   2.361
 9639SOL    HW229817   3.991   1.072   2.268
 9640SOL     OW29818   2.354   2.634   3.867
 9640SOL    HW129819   2.317   2.620   3.775
 9640SOL    HW229820   2.429   2.570   3.883
 9641SOL     OW29821   3.825   5.963   0.884
 9641SOL    HW129822   3.786   6.036   0.829
 9641SOL    HW229823   3.919   5.987   0.910
 9642SOL     OW29824   3.360   6.817   5.021
 9642SOL    HW129825   3.360   6.849   4.926
 9642SOL    HW229826   3.445   6.769   5.040
 9643SOL     OW29827   5.605   5.505   4.285
 9643SOL    HW129828   5.564   5.558   4.210
 9643SOL    HW229829   5.550   5.515   4.367
 9644SOL     OW29830   0.932   4.247   6.075
 9644SOL    HW129831   0.862   4.176   6.079
 9644SOL    HW229832   0.934   4.297   6.162
 9645SOL     OW29833   2.615   5.525   4.534
 9645SOL    HW129834   2.601   5.466   4.454
 9645SOL    HW229835   2.564   5.488   4.612
 9646SOL     OW29836   2.769   4.905   1.949
 9646SOL    HW129837   2.864   4.907   1.980
 9646SOL    HW229838   2.739   4.810   1.940
 9647SOL     OW29839   6.554   5.460   1.812
 9647SOL    HW129840   6.508   5.450   1.900
 9647SOL    HW229841   6.607   5.377   1.793
 9648SOL     OW29842   4.312   1.112   0.420
 9648SOL    HW129843   4.251   1.109   0.342
 9648SOL    HW229844   4.377   1.188   0.409
 9649SOL     OW29845   3.050   6.387   6.993
 9649SOL    HW129846   3.057   6.326   6.914
 9649SOL    HW229847   3.142   6.411   0.004
 9650SOL     OW29848   6.325   5.230   2.095
 9650SOL    HW129849   6.368   5.321   2.092
 9650SOL    HW229850   6.363   5.173   2.023
 9651SOL     OW29851   0.106   1.141   6.166
 9651SOL    HW129852   0.087   1.070   6.099
 9651SOL    HW229853   0.033   1.209   6.164
 9652SOL     OW29854   1.976   4.256   0.786
 9652SOL    HW129855   2.032   4.269   0.705
 9652SOL    HW229856   1.882   4.283   0.766
 9653SOL     OW29857   4.123   4.970   4.571
 9653SOL    HW129858   4.167   4.933   4.489
 9653SOL    HW229859   4.156   4.921   4.652
 9654SOL     OW29860   3.260   2.676   1.462
 9654SOL    HW129861   3.289   2.580   1.464
 9654SOL    HW229862   3.309   2.727   1.533
 9655SOL     OW29863   0.352   1.008   0.301
 9655SOL    HW129864   0.298   0.931   0.334
 9655SOL    HW229865   0.445   0.977   0.279
 9656SOL     OW29866   2.619   1.210   1.482
 9656SOL    HW129867   2.646   1.295   1.527
 9656SOL    HW229868   2.692   1.142   1.491
 9657SOL     OW29869   5.290   0.554   3.689
 9657SOL    HW129870   5.238   0.494   3.629
 9657SOL    HW229871   5.383   0.520   3.700
 9658SOL     OW29872   6.670   2.354   3.303
 9658SOL    HW129873   6.618   2.278   3.342
 9658SOL    HW229874   6.690   2.421   3.375
 9659SOL     OW29875   6.631   4.506   0.290
 9659SOL    HW129876   6.553   4.445   0.277
 9659SOL    HW229877   6.607   4.598   0.258
 9660SOL     OW29878   0.325   5.455   0.537
 9660SOL    HW129879   0.415   5.493   0.553
 9660SOL    HW229880   0.279   5.508   0.465
 9661SOL     OW29881   4.270   5.560   1.388
 9661SOL    HW129882   4.359   5.604   1.403
 9661SOL    HW229883   4.197   5.618   1.425
 9662SOL     OW29884   6.369   2.782   4.636
 9662SOL    HW129885   6.378   2.707   4.702
 9662SOL    HW229886   6.305   2.850   4.673
 9663SOL     OW29887   1.408   5.711   4.241
 9663SOL    HW129888   1.491   5.766   4.233
 9663SOL    HW229889   1.360   5.710   4.153
 9664SOL     OW29890   5.531   0.137   2.817
 9664SOL    HW129891   5.581   0.204   2.873
 9664SOL    HW229892   5.441   0.120   2.857
 9665SOL     OW29893   5.702   5.126   5.532
 9665SOL    HW129894   5.754   5.207   5.558
 9665SOL    HW229895   5.649   5.145   5.450
 9666SOL     OW29896   5.475   4.053   1.657
 9666SOL    HW129897   5.457   3.997   1.738
 9666SOL    HW229898   5.565   4.031   1.620
 9667SOL     OW29899   3.980   3.070   4.232
 9667SOL    HW129900   3.882   3.085   4.243
 9667SOL    HW229901   4.007   2.986   4.280
 9668SOL     OW29902   6.738   1.353   6.366
 9668SOL    HW129903   6.676   1.377   6.291
 9668SOL    HW229904   6.695   1.374   6.454
 9669SOL     OW29905   0.942   1.485   1.102
 9669SOL    HW129906   0.932   1.386   1.109
 9669SOL    HW229907   0.952   1.525   1.193
 9670SOL     OW29908   4.726   4.951   5.944
 9670SOL    HW129909   4.633   4.921   5.962
 9670SOL    HW229910   4.735   5.049   5.962
 9671SOL     OW29911   0.557   5.316   6.186
 9671SOL    HW129912   0.625   5.363   6.130
 9671SOL    HW229913   0.551   5.220   6.157
 9672SOL     OW29914   1.310   0.015   4.301
 9672SOL    HW129915   1.220   0.027   4.259
 9672SOL    HW229916   1.374   0.082   4.263
 9673SOL     OW29917   5.355   4.276   6.734
 9673SOL    HW129918   5.453   4.290   6.748
 9673SOL    HW229919   5.341   4.195   6.676
 9674SOL     OW29920   2.928   5.891   2.859
 9674SOL    HW129921   2.882   5.832   2.926
 9674SOL    HW229922   3.017   5.920   2.895
 9675SOL     OW29923   5.752   1.169   1.687
 9675SOL    HW129924   5.822   1.232   1.652
 9675SOL    HW229925   5.666   1.218   1.697
 9676SOL     OW29926   1.316   3.542   5.262
 9676SOL    HW129927   1.376   3.471   5.227
 9676SOL    HW229928   1.221   3.511   5.256
 9677SOL     OW29929   2.727   4.457   6.137
 9677SOL    HW129930   2.821   4.426   6.147
 9677SOL    HW229931   2.680   4.400   6.070
 9678SOL     OW29932   3.350   3.983   2.923
 9678SOL    HW129933   3.433   4.035   2.903
 9678SOL    HW229934   3.370   3.912   2.990
 9679SOL     OW29935   0.926   1.369   1.753
 9679SOL    HW129936   1.005   1.429   1.762
 9679SOL    HW229937   0.904   1.358   1.656
 9680SOL     OW29938   6.213   0.345   3.428
 9680SOL    HW129939   6.287   0.365   3.364
 9680SOL    HW229940   6.148   0.281   3.387
 9681SOL     OW29941   2.556   0.593   1.395
 9681SOL    HW129942   2.598   0.562   1.480
 9681SOL    HW229943   2.526   0.514   1.341
 9682SOL     OW29944   5.105   5.318   2.984
 9682SOL    HW129945   5.071   5.396   2.931
 9682SOL    HW229946   5.046   5.239   2.970
 9683SOL     OW29947   3.711   5.281   1.007
 9683SOL    HW129948   3.699   5.182   1.013
 9683SOL    HW229949   3.633   5.327   1.050
 9684SOL     OW29950   0.290   3.424   5.001
 9684SOL    HW129951   0.217   3.467   5.055
 9684SOL    HW229952   0.286   3.325   5.013
 9685SOL     OW29953   2.032   3.046   1.259
 9685SOL    HW129954   1.956   2.984   1.277
 9685SOL    HW229955   2.061   3.089   1.345
 9686SOL     OW29956   6.408   2.088   0.786
 9686SOL    HW129957   6.351   2.007   0.796
 9686SOL    HW229958   6.478   2.090   0.857
 9687SOL     OW29959   1.837   0.712   3.524
 9687SOL    HW129960   1.846   0.762   3.610
 9687SOL    HW229961   1.818   0.615   3.543
 9688SOL     OW29962   6.451   2.613   3.412
 9688SOL    HW129963   6.359   2.648   3.426
 9688SOL    HW229964   6.493   2.660   3.334
 9689SOL     OW29965   1.782   6.446   0.540
 9689SOL    HW129966   1.738   6.525   0.498
 9689SOL    HW229967   1.817   6.471   0.630
 9690SOL     OW29968   5.672   5.503   6.292
 9690SOL    HW129969   5.706   5.452   6.371
 9690SOL    HW229970   5.636   5.439   6.224
 9691SOL     OW29971   2.642   4.830   1.492
 9691SOL    HW129972   2.687   4.767   1.429
 9691SOL    HW229973   2.548   4.799   1.508
 9692SOL     OW29974   2.219   5.314   2.495
 9692SOL    HW129975   2.251   5.374   2.568
 9692SOL    HW229976   2.185   5.229   2.534
 9693SOL     OW29977   0.062   5.285   1.921
 9693SOL    HW129978   0.093   5.200   1.964
 9693SOL    HW229979   7.016   5.329   1.979
 9694SOL     OW29980   1.921   1.038   6.240
 9694SOL    HW129981   1.956   0.954   6.199
 9694SOL    HW229982   1.909   1.107   6.168
 9695SOL     OW29983   6.219   4.359   1.149
 9695SOL    HW129984   6.301   4.360   1.092
 9695SOL    HW229985   6.139   4.380   1.093
 9696SOL     OW29986   4.864   2.466   1.180
 9696SOL    HW129987   4.885   2.563   1.175
 9696SOL    HW229988   4.768   2.453   1.206
 9697SOL     OW29989   0.026   5.341   6.691
 9697SOL    HW129990   0.008   5.295   6.778
 9697SOL    HW229991   0.106   5.300   6.647
 9698SOL     OW29992   6.172   0.981   5.485
 9698SOL    HW129993   6.232   1.004   5.562
 9698SOL    HW229994   6.080   1.015   5.503
 9699SOL     OW29995   0.090   4.277   6.330
 9699SOL    HW129996   0.004   4.250   6.286
 9699SOL    HW229997   0.167   4.244   6.276
 9700SOL     OW29998   3.993   4.883   5.945
 9700SOL    HW129999   3.961   4.886   6.040
 9700SOL    HW230000   3.921   4.915   5.884
 9701SOL     OW30001   3.672   5.610   4.696
 9701SOL    HW130002   3.716   5.575   4.613
 9701SOL    HW230003   3.593   5.666   4.672
 9702SOL     OW30004   5.273   0.363   6.557
 9702SOL    HW130005   5.229   0.446   6.523
 9702SOL    HW230006   5.242   0.345   6.650
 9703SOL     OW30007   3.555   5.691   4.395
 9703SOL    HW130008   3.553   5.781   4.352
 9703SOL    HW230009   3.648   5.654   4.391
 9704SOL     OW30010   3.098   0.857   2.465
 9704SOL    HW130011   3.186   0.812   2.477
 9704SOL    HW230012   3.083   0.878   2.368
 9705SOL     OW30013   4.991   5.102   0.462
 9705SOL    HW130014   4.900   5.089   0.499
 9705SOL    HW230015   4.985   5.111   0.362
 9706SOL     OW30016   0.102   2.078   1.095
 9706SOL    HW130017   0.092   2.116   1.187
 9706SOL    HW230018   0.091   1.979   1.098
 9707SOL     OW30019   6.557   4.166   2.273
 9707SOL    HW130020   6.517   4.252   2.242
 9707SOL    HW230021   6.604   4.121   2.197
 9708SOL     OW30022   2.014   2.530   3.289
 9708SOL    HW130023   1.996   2.436   3.258
 9708SOL    HW230024   1.941   2.559   3.351
 9709SOL     OW30025   0.203   6.028   3.482
 9709SOL    HW130026   0.275   6.001   3.546
 9709SOL    HW230027   0.244   6.073   3.402
 9710SOL     OW30028   0.439   1.707   2.464
 9710SOL    HW130029   0.458   1.744   2.554
 9710SOL    HW230030   0.343   1.722   2.440
 9711SOL     OW30031   1.509   3.350   6.101
 9711SOL    HW130032   1.484   3.277   6.037
 9711SOL    HW230033   1.560   3.311   6.178
 9712SOL     OW30034   5.450   3.304   4.609
 9712SOL    HW130035   5.484   3.384   4.559
 9712SOL    HW230036   5.372   3.331   4.665
 9713SOL     OW30037   0.264   5.081   2.920
 9713SOL    HW130038   0.226   5.116   3.007
 9713SOL    HW230039   0.280   5.158   2.858
 9714SOL     OW30040   1.706   0.995   1.838
 9714SOL    HW130041   1.723   0.968   1.933
 9714SOL    HW230042   1.770   1.068   1.812
 9715SOL     OW30043   6.933   5.927   4.591
 9715SOL    HW130044   6.997   5.943   4.516
 9715SOL    HW230045   6.858   5.992   4.585
 9716SOL     OW30046   4.069   2.670   0.125
 9716SOL    HW130047   4.076   2.635   0.031
 9716SOL    HW230048   4.116   2.758   0.132
 9717SOL     OW30049   5.526   6.046   5.223
 9717SOL    HW130050   5.543   6.033   5.125
 9717SOL    HW230051   5.491   5.960   5.262
 9718SOL     OW30052   4.704   3.214   1.674
 9718SOL    HW130053   4.681   3.150   1.748
 9718SOL    HW230054   4.753   3.165   1.602
 9719SOL     OW30055   0.604   1.925   0.055
 9719SOL    HW130056   0.563   1.836   0.075
 9719SOL    HW230057   0.561   1.995   0.112
 9720SOL     OW30058   0.754   5.722   1.656
 9720SOL    HW130059   0.800   5.801   1.615
 9720SOL    HW230060   0.688   5.684   1.591
 9721SOL     OW30061   0.861   2.501   1.636
 9721SOL    HW130062   0.854   2.499   1.736
 9721SOL    HW230063   0.773   2.475   1.597
 9722SOL     OW30064   0.432   6.955   3.610
 9722SOL    HW130065   0.347   6.921   3.648
 9722SOL    HW230066   0.437   0.032   3.621
 9723SOL     OW30067   1.674   6.294   2.664
 9723SOL    HW130068   1.717   6.307   2.574
 9723SOL    HW230069   1.721   6.221   2.713
 9724SOL     OW30070   3.378   2.897   1.616
 9724SOL    HW130071   3.447   2.944   1.560
 9724SOL    HW230072   3.318   2.964   1.658
 9725SOL     OW30073   4.244   3.640   6.015
 9725SOL    HW130074   4.188   3.586   6.078
 9725SOL    HW230075   4.256   3.733   6.052
 9726SOL     OW30076   4.510   0.481   4.622
 9726SOL    HW130077   4.609   0.493   4.627
 9726SOL    HW230078   4.467   0.521   4.703
 9727SOL     OW30079   1.451   3.194   5.342
 9727SOL    HW130080   1.549   3.196   5.364
 9727SOL    HW230081   1.435   3.248   5.260
 9728SOL     OW30082   0.948   6.389   6.621
 9728SOL    HW130083   0.916   6.480   6.594
 9728SOL    HW230084   0.888   6.319   6.581
 9729SOL     OW30085   1.485   4.339   2.911
 9729SOL    HW130086   1.463   4.363   2.817
 9729SOL    HW230087   1.416   4.378   2.973
 9730SOL     OW30088   6.925   3.319   2.442
 9730SOL    HW130089   7.008   3.288   2.489
 9730SOL    HW230090   6.845   3.277   2.486
 9731SOL     OW30091   4.427   4.744   0.772
 9731SOL    HW130092   4.490   4.736   0.695
 9731SOL    HW230093   4.333   4.753   0.738
 9732SOL     OW30094   5.891   6.235   2.921
 9732SOL    HW130095   5.899   6.140   2.953
 9732SOL    HW230096   5.971   6.258   2.866
 9733SOL     OW30097   5.583   5.293   4.811
 9733SOL    HW130098   5.650   5.220   4.799
 9733SOL    HW230099   5.509   5.282   4.744
 9734SOL     OW30100   5.149   1.952   4.052
 9734SOL    HW130101   5.167   2.045   4.083
 9734SOL    HW230102   5.183   1.887   4.121
 9735SOL     OW30103   1.605   4.757   2.842
 9735SOL    HW130104   1.642   4.666   2.821
 9735SOL    HW230105   1.644   4.824   2.778
 9736SOL     OW30106   5.367   1.398   5.732
 9736SOL    HW130107   5.381   1.377   5.635
 9736SOL    HW230108   5.455   1.392   5.780
 9737SOL     OW30109   4.674   2.815   4.948
 9737SOL    HW130110   4.723   2.895   4.914
 9737SOL    HW230111   4.635   2.835   5.038
 9738SOL     OW30112   1.753   0.152   3.263
 9738SOL    HW130113   1.735   0.174   3.359
 9738SOL    HW230114   1.680   0.191   3.206
 9739SOL     OW30115   0.702   4.836   1.879
 9739SOL    HW130116   0.685   4.869   1.972
 9739SOL    HW230117   0.770   4.894   1.835
 9740SOL     OW30118   6.088   3.051   3.469
 9740SOL    HW130119   6.166   3.108   3.495
 9740SOL    HW230120   6.092   3.031   3.371
 9741SOL     OW30121   4.659   1.336   2.519
 9741SOL    HW130122   4.732   1.313   2.584
 9741SOL    HW230123   4.648   1.435   2.516
 9742SOL     OW30124   4.667   0.089   3.073
 9742SOL    HW130125   4.734   0.050   3.010
 9742SOL    HW230126   4.622   0.016   3.124
 9743SOL     OW30127   2.114   1.843   5.748
 9743SOL    HW130128   2.188   1.904   5.778
 9743SOL    HW230129   2.126   1.822   5.651
 9744SOL     OW30130   0.829   0.614   2.875
 9744SOL    HW130131   0.830   0.708   2.909
 9744SOL    HW230132   0.774   0.610   2.792
 9745SOL     OW30133   0.205   2.405   5.794
 9745SOL    HW130134   0.223   2.369   5.702
 9745SOL    HW230135   0.220   2.504   5.794
 9746SOL     OW30136   5.721   1.858   5.208
 9746SOL    HW130137   5.652   1.786   5.214
 9746SOL    HW230138   5.745   1.890   5.300
 9747SOL     OW30139   1.476   1.255   1.816
 9747SOL    HW130140   1.382   1.235   1.788
 9747SOL    HW230141   1.478   1.274   1.914
 9748SOL     OW30142   1.208   0.048   4.577
 9748SOL    HW130143   1.219   6.980   4.617
 9748SOL    HW230144   1.273   0.059   4.501
 9749SOL     OW30145   2.085   2.521   5.432
 9749SOL    HW130146   2.175   2.541   5.469
 9749SOL    HW230147   2.023   2.495   5.507
 9750SOL     OW30148   5.807   5.083   4.170
 9750SOL    HW130149   5.810   5.181   4.187
 9750SOL    HW230150   5.885   5.038   4.213
 9751SOL     OW30151   2.096   2.561   1.414
 9751SOL    HW130152   2.089   2.618   1.496
 9751SOL    HW230153   2.070   2.467   1.437
 9752SOL     OW30154   4.452   0.872   6.339
 9752SOL    HW130155   4.420   0.963   6.312
 9752SOL    HW230156   4.397   0.803   6.291
 9753SOL     OW30157   6.309   6.311   5.016
 9753SOL    HW130158   6.277   6.222   5.049
 9753SOL    HW230159   6.280   6.322   4.920
 9754SOL     OW30160   1.213   1.648   0.141
 9754SOL    HW130161   1.125   1.625   0.183
 9754SOL    HW230162   1.209   1.742   0.107
 9755SOL     OW30163   4.169   3.437   4.671
 9755SOL    HW130164   4.213   3.414   4.584
 9755SOL    HW230165   4.114   3.359   4.702
 9756SOL     OW30166   6.283   2.678   0.110
 9756SOL    HW130167   6.288   2.711   0.204
 9756SOL    HW230168   6.235   2.590   0.108
 9757SOL     OW30169   4.854   3.265   3.243
 9757SOL    HW130170   4.859   3.344   3.181
 9757SOL    HW230171   4.942   3.216   3.241
 9758SOL     OW30172   1.630   6.989   6.088
 9758SOL    HW130173   1.600   0.062   6.096
 9758SOL    HW230174   1.669   6.959   6.175
 9759SOL     OW30175   2.449   6.850   1.333
 9759SOL    HW130176   2.350   6.869   1.335
 9759SOL    HW230177   2.494   6.913   1.270
 9760SOL     OW30178   5.099   3.958   5.188
 9760SOL    HW130179   5.108   4.008   5.101
 9760SOL    HW230180   5.114   3.860   5.171
 9761SOL     OW30181   5.525   6.195   2.135
 9761SOL    HW130182   5.450   6.176   2.073
 9761SOL    HW230183   5.553   6.109   2.179
 9762SOL     OW30184   2.723   1.998   4.699
 9762SOL    HW130185   2.717   2.084   4.648
 9762SOL    HW230186   2.810   1.994   4.747
 9763SOL     OW30187   4.644   1.962   1.514
 9763SOL    HW130188   4.688   2.042   1.556
 9763SOL    HW230189   4.545   1.967   1.528
 9764SOL     OW30190   1.314   2.070   3.370
 9764SOL    HW130191   1.353   2.150   3.324
 9764SOL    HW230192   1.314   1.992   3.307
 9765SOL     OW30193   6.616   1.781   4.866
 9765SOL    HW130194   6.624   1.838   4.948
 9765SOL    HW230195   6.603   1.839   4.786
 9766SOL     OW30196   2.302   0.532   2.830
 9766SOL    HW130197   2.276   0.517   2.925
 9766SOL    HW230198   2.285   0.449   2.777
 9767SOL     OW30199   4.941   2.193   4.845
 9767SOL    HW130200   5.001   2.199   4.766
 9767SOL    HW230201   4.860   2.251   4.831
 9768SOL     OW30202   5.472   2.200   2.525
 9768SOL    HW130203   5.511   2.113   2.556
 9768SOL    HW230204   5.522   2.232   2.445
 9769SOL     OW30205   1.782   1.562   1.939
 9769SOL    HW130206   1.708   1.575   2.005
 9769SOL    HW230207   1.867   1.539   1.987
 9770SOL     OW30208   5.759   6.326   6.158
 9770SOL    HW130209   5.667   6.360   6.138
 9770SOL    HW230210   5.773   6.240   6.108
 9771SOL     OW30211   4.539   4.592   1.364
 9771SOL    HW130212   4.545   4.504   1.317
 9771SOL    HW230213   4.610   4.653   1.329
 9772SOL     OW30214   6.830   6.633   1.596
 9772SOL    HW130215   6.852   6.601   1.504
 9772SOL    HW230216   6.785   6.560   1.647
 9773SOL     OW30217   5.982   6.225   3.401
 9773SOL    HW130218   6.067   6.193   3.441
 9773SOL    HW230219   5.939   6.151   3.350
 9774SOL     OW30220   5.874   5.487   3.143
 9774SOL    HW130221   5.800   5.434   3.101
 9774SOL    HW230222   5.911   5.552   3.075
 9775SOL     OW30223   2.321   1.952   4.561
 9775SOL    HW130224   2.305   2.014   4.484
 9775SOL    HW230225   2.367   2.002   4.635
 9776SOL     OW30226   0.013   5.569   4.797
 9776SOL    HW130227   0.057   5.624   4.868
 9776SOL    HW230228   0.060   5.480   4.790
 9777SOL     OW30229   5.491   5.162   6.647
 9777SOL    HW130230   5.505   5.158   6.746
 9777SOL    HW230231   5.528   5.080   6.605
 9778SOL     OW30232   5.603   0.347   3.523
 9778SOL    HW130233   5.657   0.358   3.439
 9778SOL    HW230234   5.509   0.322   3.499
 9779SOL     OW30235   2.532   1.557   4.743
 9779SOL    HW130236   2.507   1.482   4.682
 9779SOL    HW230237   2.631   1.563   4.749
 9780SOL     OW30238   2.435   2.298   0.871
 9780SOL    HW130239   2.359   2.356   0.843
 9780SOL    HW230240   2.456   2.233   0.798
 9781SOL     OW30241   1.892   4.513   4.103
 9781SOL    HW130242   1.860   4.557   4.020
 9781SOL    HW230243   1.828   4.440   4.129
 9782SOL     OW30244   6.721   0.221   0.738
 9782SOL    HW130245   6.739   0.319   0.727
 9782SOL    HW230246   6.748   0.192   0.830
 9783SOL     OW30247   6.172   1.191   1.767
 9783SOL    HW130248   6.245   1.252   1.797
 9783SOL    HW230249   6.210   1.101   1.747
 9784SOL     OW30250   4.521   1.531   3.267
 9784SOL    HW130251   4.483   1.439   3.268
 9784SOL    HW230252   4.453   1.595   3.231
 9785SOL     OW30253   6.942   2.768   3.089
 9785SOL    HW130254   6.864   2.740   3.146
 9785SOL    HW230255   6.922   2.746   2.994
 9786SOL     OW30256   1.757   4.980   5.753
 9786SOL    HW130257   1.752   5.076   5.726
 9786SOL    HW230258   1.664   4.944   5.766
 9787SOL     OW30259   5.237   3.703   1.975
 9787SOL    HW130260   5.289   3.619   1.956
 9787SOL    HW230261   5.158   3.681   2.032
 9788SOL     OW30262   0.554   0.600   3.962
 9788SOL    HW130263   0.621   0.535   3.927
 9788SOL    HW230264   0.477   0.607   3.899
 9789SOL     OW30265   2.023   5.556   5.942
 9789SOL    HW130266   2.019   5.492   5.865
 9789SOL    HW230267   2.053   5.508   6.024
 9790SOL     OW30268   5.735   2.469   4.536
 9790SOL    HW130269   5.710   2.394   4.598
 9790SOL    HW230270   5.682   2.550   4.559
 9791SOL     OW30271   0.767   0.799   1.921
 9791SOL    HW130272   0.865   0.798   1.942
 9791SOL    HW230273   0.750   0.857   1.842
 9792SOL     OW30274   4.439   5.139   1.964
 9792SOL    HW130275   4.377   5.192   1.906
 9792SOL    HW230276   4.502   5.200   2.011
 9793SOL     OW30277   4.656   5.861   2.768
 9793SOL    HW130278   4.742   5.827   2.729
 9793SOL    HW230279   4.643   5.824   2.860
 9794SOL     OW30280   5.629   3.314   6.460
 9794SOL    HW130281   5.555   3.306   6.528
 9794SOL    HW230282   5.595   3.287   6.370
 9795SOL     OW30283   0.996   2.552   3.990
 9795SOL    HW130284   0.896   2.552   3.991
 9795SOL    HW230285   1.031   2.591   4.075
 9796SOL     OW30286   3.048   4.553   0.881
 9796SOL    HW130287   3.051   4.652   0.899
 9796SOL    HW230288   3.136   4.512   0.905
 9797SOL     OW30289   4.656   3.507   0.200
 9797SOL    HW130290   4.722   3.498   0.125
 9797SOL    HW230291   4.574   3.554   0.167
 9798SOL     OW30292   2.299   0.634   1.156
 9798SOL    HW130293   2.213   0.588   1.179
 9798SOL    HW230294   2.371   0.606   1.220
 9799SOL     OW30295   3.371   3.425   2.590
 9799SOL    HW130296   3.370   3.331   2.622
 9799SOL    HW230297   3.435   3.479   2.646
 9800SOL     OW30298   4.187   6.118   5.802
 9800SOL    HW130299   4.161   6.073   5.888
 9800SOL    HW230300   4.258   6.065   5.756
 9801SOL     OW30301   4.359   5.606   6.914
 9801SOL    HW130302   4.262   5.583   6.911
 9801SOL    HW230303   4.370   5.699   6.948
 9802SOL     OW30304   0.188   3.220   1.647
 9802SOL    HW130305   0.150   3.219   1.740
 9802SOL    HW230306   0.115   3.197   1.582
 9803SOL     OW30307   6.321   0.436   6.644
 9803SOL    HW130308   6.394   0.369   6.629
 9803SOL    HW230309   6.321   0.502   6.569
 9804SOL     OW30310   0.230   4.999   3.619
 9804SOL    HW130311   0.279   5.086   3.619
 9804SOL    HW230312   0.131   5.017   3.622
 9805SOL     OW30313   1.197   5.455   6.630
 9805SOL    HW130314   1.168   5.546   6.599
 9805SOL    HW230315   1.248   5.410   6.557
 9806SOL     OW30316   0.849   2.762   1.274
 9806SOL    HW130317   0.919   2.729   1.210
 9806SOL    HW230318   0.886   2.837   1.328
 9807SOL     OW30319   3.329   2.052   6.960
 9807SOL    HW130320   3.397   2.073   6.890
 9807SOL    HW230321   3.342   2.111   0.018
 9808SOL     OW30322   5.721   0.811   5.557
 9808SOL    HW130323   5.711   0.712   5.544
 9808SOL    HW230324   5.696   0.835   5.651
 9809SOL     OW30325   1.090   1.331   5.689
 9809SOL    HW130326   1.067   1.385   5.771
 9809SOL    HW230327   1.188   1.336   5.672
 9810SOL     OW30328   2.961   1.771   2.969
 9810SOL    HW130329   2.908   1.761   3.053
 9810SOL    HW230330   3.048   1.815   2.989
 9811SOL     OW30331   6.243   6.052   3.364
 9811SOL    HW130332   6.329   6.001   3.375
 9811SOL    HW230333   6.246   6.134   3.422
 9812SOL     OW30334   4.032   2.141   6.470
 9812SOL    HW130335   4.042   2.163   6.567
 9812SOL    HW230336   4.092   2.064   6.447
 9813SOL     OW30337   6.499   5.147   0.259
 9813SOL    HW130338   6.590   5.120   0.289
 9813SOL    HW230339   6.486   5.245   0.276
 9814SOL     OW30340   6.343   0.590   6.113
 9814SOL    HW130341   6.272   0.658   6.133
 9814SOL    HW230342   6.340   0.567   6.016
 9815SOL     OW30343   6.896   2.767   1.039
 9815SOL    HW130344   6.820   2.703   1.025
 9815SOL    HW230345   6.939   2.787   0.951
 9816SOL     OW30346   6.077   0.793   6.567
 9816SOL    HW130347   6.136   0.752   6.497
 9816SOL    HW230348   6.083   0.892   6.561
 9817SOL     OW30349   3.298   5.311   1.759
 9817SOL    HW130350   3.226   5.302   1.828
 9817SOL    HW230351   3.321   5.408   1.747
 9818SOL     OW30352   2.021   1.561   3.230
 9818SOL    HW130353   1.947   1.599   3.175
 9818SOL    HW230354   1.995   1.470   3.262
 9819SOL     OW30355   5.588   3.840   4.723
 9819SOL    HW130356   5.552   3.813   4.634
 9819SOL    HW230357   5.668   3.784   4.745
 9820SOL     OW30358   3.134   1.901   6.586
 9820SOL    HW130359   3.156   1.805   6.565
 9820SOL    HW230360   3.199   1.936   6.653
 9821SOL     OW30361   4.596   2.234   1.614
 9821SOL    HW130362   4.539   2.224   1.696
 9821SOL    HW230363   4.542   2.270   1.539
 9822SOL     OW30364   4.096   5.952   4.463
 9822SOL    HW130365   4.008   5.992   4.488
 9822SOL    HW230366   4.170   6.008   4.500
 9823SOL     OW30367   1.304   0.670   2.209
 9823SOL    HW130368   1.300   0.637   2.303
 9823SOL    HW230369   1.222   0.641   2.159
 9824SOL     OW30370   2.206   6.040   6.058
 9824SOL    HW130371   2.187   5.985   5.976
 9824SOL    HW230372   2.215   6.136   6.031
 9825SOL     OW30373   4.924   5.951   5.014
 9825SOL    HW130374   5.019   5.963   5.043
 9825SOL    HW230375   4.870   6.029   5.044
 9826SOL     OW30376   3.524   0.151   5.707
 9826SOL    HW130377   3.435   0.107   5.698
 9826SOL    HW230378   3.593   0.095   5.661
 9827SOL     OW30379   1.890   5.689   2.684
 9827SOL    HW130380   1.956   5.741   2.739
 9827SOL    HW230381   1.847   5.620   2.742
 9828SOL     OW30382   3.617   1.932   4.805
 9828SOL    HW130383   3.637   1.884   4.890
 9828SOL    HW230384   3.687   2.002   4.789
 9829SOL     OW30385   4.659   6.197   6.001
 9829SOL    HW130386   4.619   6.106   6.006
 9829SOL    HW230387   4.759   6.190   6.008
 9830SOL     OW30388   6.144   1.543   2.479
 9830SOL    HW130389   6.191   1.455   2.488
 9830SOL    HW230390   6.153   1.595   2.564
 9831SOL     OW30391   0.288   3.733   2.439
 9831SOL    HW130392   0.376   3.770   2.410
 9831SOL    HW230393   0.289   3.633   2.429
 9832SOL     OW30394   5.019   4.705   4.590
 9832SOL    HW130395   4.924   4.682   4.568
 9832SOL    HW230396   5.075   4.697   4.507
 9833SOL     OW30397   3.792   4.106   3.865
 9833SOL    HW130398   3.878   4.082   3.820
 9833SOL    HW230399   3.809   4.124   3.962
 9834SOL     OW30400   2.503   5.013   5.943
 9834SOL    HW130401   2.528   5.058   5.858
 9834SOL    HW230402   2.568   5.039   6.015
 9835SOL     OW30403   3.933   4.047   4.647
 9835SOL    HW130404   3.920   3.954   4.612
 9835SOL    HW230405   4.030   4.070   4.644
 9836SOL     OW30406   0.742   4.022   6.380
 9836SOL    HW130407   0.834   3.995   6.408
 9836SOL    HW230408   0.745   4.071   6.293
 9837SOL     OW30409   6.124   1.915   1.599
 9837SOL    HW130410   6.061   1.978   1.644
 9837SOL    HW230411   6.122   1.827   1.647
 9838SOL     OW30412   1.293   5.911   1.236
 9838SOL    HW130413   1.201   5.893   1.200
 9838SOL    HW230414   1.321   5.836   1.295
 9839SOL     OW30415   4.240   1.019   3.425
 9839SOL    HW130416   4.309   1.089   3.404
 9839SOL    HW230417   4.221   0.966   3.342
 9840SOL     OW30418   5.220   1.838   6.783
 9840SOL    HW130419   5.288   1.904   6.815
 9840SOL    HW230420   5.128   1.874   6.800
 9841SOL     OW30421   0.242   5.280   3.691
 9841SOL    HW130422   0.296   5.338   3.752
 9841SOL    HW230423   0.148   5.314   3.688
 9842SOL     OW30424   3.724   2.381   0.097
 9842SOL    HW130425   3.786   2.374   0.174
 9842SOL    HW230426   3.644   2.323   0.113
 9843SOL     OW30427   6.774   6.214   0.968
 9843SOL    HW130428   6.792   6.313   0.973
 9843SOL    HW230429   6.831   6.168   1.036
 9844SOL     OW30430   5.202   0.468   4.384
 9844SOL    HW130431   5.206   0.460   4.284
 9844SOL    HW230432   5.126   0.413   4.419
 9845SOL     OW30433   1.116   2.470   1.968
 9845SOL    HW130434   1.178   2.450   2.045
 9845SOL    HW230435   1.106   2.569   1.958
 9846SOL     OW30436   5.461   1.188   1.200
 9846SOL    HW130437   5.543   1.236   1.229
 9846SOL    HW230438   5.386   1.207   1.264
 9847SOL     OW30439   3.835   3.268   1.101
 9847SOL    HW130440   3.934   3.283   1.095
 9847SOL    HW230441   3.815   3.171   1.092
 9848SOL     OW30442   3.424   3.603   5.344
 9848SOL    HW130443   3.519   3.592   5.313
 9848SOL    HW230444   3.395   3.697   5.327
 9849SOL     OW30445   1.356   0.661   6.795
 9849SOL    HW130446   1.406   0.582   6.830
 9849SOL    HW230447   1.403   0.696   6.714
 9850SOL     OW30448   0.049   0.731   4.230
 9850SOL    HW130449   0.121   0.679   4.184
 9850SOL    HW230450   6.988   0.732   4.173
 9851SOL     OW30451   3.789   5.296   4.413
 9851SOL    HW130452   3.692   5.311   4.394
 9851SOL    HW230453   3.834   5.264   4.330
 9852SOL     OW30454   1.507   1.216   6.868
 9852SOL    HW130455   1.429   1.158   6.843
 9852SOL    HW230456   1.565   1.167   6.933
 9853SOL     OW30457   0.346   4.511   4.183
 9853SOL    HW130458   0.347   4.427   4.129
 9853SOL    HW230459   0.314   4.491   4.275
 9854SOL     OW30460   0.454   6.021   5.951
 9854SOL    HW130461   0.524   6.038   5.882
 9854SOL    HW230462   0.364   6.040   5.913
 9855SOL     OW30463   0.758   3.353   0.804
 9855SOL    HW130464   0.841   3.409   0.798
 9855SOL    HW230465   0.690   3.385   0.738
 9856SOL     OW30466   5.996   4.897   3.346
 9856SOL    HW130467   6.090   4.868   3.366
 9856SOL    HW230468   5.973   4.872   3.252
 9857SOL     OW30469   5.023   2.611   3.289
 9857SOL    HW130470   4.962   2.634   3.214
 9857SOL    HW230471   5.106   2.666   3.283
 9858SOL     OW30472   1.207   6.362   2.468
 9858SOL    HW130473   1.294   6.356   2.516
 9858SOL    HW230474   1.160   6.274   2.472
 9859SOL     OW30475   0.391   5.034   5.045
 9859SOL    HW130476   0.411   5.015   5.141
 9859SOL    HW230477   0.463   4.994   4.987
 9860SOL     OW30478   1.944   2.052   5.415
 9860SOL    HW130479   1.906   2.142   5.439
 9860SOL    HW230480   2.037   2.063   5.381
 9861SOL     OW30481   2.789   1.308   3.927
 9861SOL    HW130482   2.828   1.399   3.917
 9861SOL    HW230483   2.781   1.265   3.837
 9862SOL     OW30484   2.464   4.721   1.029
 9862SOL    HW130485   2.463   4.779   1.111
 9862SOL    HW230486   2.481   4.778   0.948
 9863SOL     OW30487   3.032   5.756   0.975
 9863SOL    HW130488   3.060   5.783   1.068
 9863SOL    HW230489   2.939   5.718   0.979
 9864SOL     OW30490   2.882   6.141   5.330
 9864SOL    HW130491   2.956   6.102   5.276
 9864SOL    HW230492   2.799   6.144   5.274
 9865SOL     OW30493   0.447   7.007   5.662
 9865SOL    HW130494   0.362   0.029   5.635
 9865SOL    HW230495   0.500   6.984   5.581
 9866SOL     OW30496   6.369   4.677   4.371
 9866SOL    HW130497   6.415   4.663   4.459
 9866SOL    HW230498   6.399   4.763   4.331
 9867SOL     OW30499   5.225   1.911   1.814
 9867SOL    HW130500   5.195   1.816   1.821
 9867SOL    HW230501   5.285   1.922   1.735
 9868SOL     OW30502   1.337   4.651   3.440
 9868SOL    HW130503   1.299   4.685   3.526
 9868SOL    HW230504   1.273   4.670   3.366
 9869SOL     OW30505   0.283   2.548   1.160
 9869SOL    HW130506   0.236   2.513   1.079
 9869SOL    HW230507   0.264   2.646   1.170
 9870SOL     OW30508   3.520   1.306   1.870
 9870SOL    HW130509   3.499   1.384   1.812
 9870SOL    HW230510   3.453   1.301   1.945
 9871SOL     OW30511   0.091   3.680   5.469
 9871SOL    HW130512   0.055   3.727   5.389
 9871SOL    HW230513   0.027   3.607   5.496
 9872SOL     OW30514   2.235   5.522   5.220
 9872SOL    HW130515   2.280   5.555   5.137
 9872SOL    HW230516   2.247   5.423   5.227
 9873SOL     OW30517   2.143   2.004   6.185
 9873SOL    HW130518   2.133   2.100   6.213
 9873SOL    HW230519   2.131   1.945   6.265
 9874SOL     OW30520   0.760   2.621   4.924
 9874SOL    HW130521   0.702   2.612   4.844
 9874SOL    HW230522   0.848   2.662   4.897
 9875SOL     OW30523   6.652   6.152   0.728
 9875SOL    HW130524   6.687   6.206   0.652
 9875SOL    HW230525   6.697   6.181   0.813
 9876SOL     OW30526   2.708   6.954   3.175
 9876SOL    HW130527   2.658   6.871   3.199
 9876SOL    HW230528   2.701   7.019   3.251
 9877SOL     OW30529   0.577   4.926   4.905
 9877SOL    HW130530   0.622   4.845   4.942
 9877SOL    HW230531   0.543   4.906   4.813
 9878SOL     OW30532   1.868   3.123   0.181
 9878SOL    HW130533   1.843   3.213   0.145
 9878SOL    HW230534   1.803   3.055   0.148
 9879SOL     OW30535   1.655   4.419   6.018
 9879SOL    HW130536   1.620   4.344   5.962
 9879SOL    HW230537   1.740   4.391   6.062
 9880SOL     OW30538   2.359   1.332   0.037
 9880SOL    HW130539   2.342   1.311   6.962
 9880SOL    HW230540   2.310   1.267   0.095
 9881SOL     OW30541   5.044   0.668   4.557
 9881SOL    HW130542   5.098   0.705   4.632
 9881SOL    HW230543   5.093   0.590   4.517
 9882SOL     OW30544   3.687   2.906   4.484
 9882SOL    HW130545   3.596   2.890   4.524
 9882SOL    HW230546   3.720   2.996   4.513
 9883SOL     OW30547   1.965   6.358   0.945
 9883SOL    HW130548   1.935   6.285   1.007
 9883SOL    HW230549   2.062   6.347   0.924
 9884SOL     OW30550   1.497   3.371   6.626
 9884SOL    HW130551   1.484   3.305   6.553
 9884SOL    HW230552   1.588   3.358   6.667
 9885SOL     OW30553   6.487   3.263   3.880
 9885SOL    HW130554   6.522   3.306   3.963
 9885SOL    HW230555   6.478   3.332   3.808
 9886SOL     OW30556   5.213   6.214   1.595
 9886SOL    HW130557   5.269   6.295   1.577
 9886SOL    HW230558   5.128   6.242   1.638
 9887SOL     OW30559   3.864   6.405   0.336
 9887SOL    HW130560   3.917   6.435   0.256
 9887SOL    HW230561   3.766   6.412   0.316
 9888SOL     OW30562   5.587   6.064   2.483
 9888SOL    HW130563   5.633   5.992   2.534
 9888SOL    HW230564   5.644   6.145   2.480
 9889SOL     OW30565   0.312   4.844   3.018
 9889SOL    HW130566   0.404   4.844   3.056
 9889SOL    HW230567   0.289   4.936   2.985
 9890SOL     OW30568   6.501   3.461   0.990
 9890SOL    HW130569   6.410   3.503   1.002
 9890SOL    HW230570   6.525   3.463   0.893
 9891SOL     OW30571   4.779   5.179   0.743
 9891SOL    HW130572   4.798   5.277   0.749
 9891SOL    HW230573   4.861   5.128   0.771
 9892SOL     OW30574   2.137   5.507   4.103
 9892SOL    HW130575   2.106   5.413   4.117
 9892SOL    HW230576   2.237   5.509   4.100
 9893SOL     OW30577   5.926   5.078   3.005
 9893SOL    HW130578   5.869   5.016   3.059
 9893SOL    HW230579   5.873   5.112   2.927
 9894SOL     OW30580   3.595   2.479   5.957
 9894SOL    HW130581   3.516   2.503   5.901
 9894SOL    HW230582   3.590   2.528   6.044
 9895SOL     OW30583   5.618   2.963   6.535
 9895SOL    HW130584   5.680   3.025   6.487
 9895SOL    HW230585   5.538   2.944   6.477
 9896SOL     OW30586   3.542   3.203   0.855
 9896SOL    HW130587   3.533   3.242   0.946
 9896SOL    HW230588   3.633   3.223   0.819
 9897SOL     OW30589   4.976   1.622   2.637
 9897SOL    HW130590   5.038   1.641   2.713
 9897SOL    HW230591   5.029   1.589   2.558
 9898SOL     OW30592   1.027   5.229   5.307
 9898SOL    HW130593   1.032   5.315   5.256
 9898SOL    HW230594   0.957   5.170   5.266
 9899SOL     OW30595   5.058   4.909   2.110
 9899SOL    HW130596   5.008   4.994   2.095
 9899SOL    HW230597   5.051   4.882   2.206
 9900SOL     OW30598   1.768   2.061   3.774
 9900SOL    HW130599   1.735   2.145   3.818
 9900SOL    HW230600   1.747   2.065   3.676
 9901SOL     OW30601   2.175   2.520   6.244
 9901SOL    HW130602   2.249   2.454   6.239
 9901SOL    HW230603   2.183   2.575   6.327
 9902SOL     OW30604   3.737   3.870   0.961
 9902SOL    HW130605   3.719   3.811   0.883
 9902SOL    HW230606   3.811   3.831   1.016
 9903SOL     OW30607   4.494   2.118   2.353
 9903SOL    HW130608   4.500   2.079   2.262
 9903SOL    HW230609   4.521   2.214   2.351
 9904SOL     OW30610   6.857   2.536   0.203
 9904SOL    HW130611   6.893   2.463   0.261
 9904SOL    HW230612   6.927   2.564   0.137
 9905SOL     OW30613   1.390   6.509   6.321
 9905SOL    HW130614   1.432   6.458   6.246
 9905SOL    HW230615   1.439   6.489   6.406
 9906SOL     OW30616   2.117   2.891   6.316
 9906SOL    HW130617   2.137   2.962   6.383
 9906SOL    HW230618   2.021   2.864   6.323
 9907SOL     OW30619   2.323   5.883   3.162
 9907SOL    HW130620   2.237   5.835   3.140
 9907SOL    HW230621   2.398   5.841   3.112
 9908SOL     OW30622   0.463   3.639   6.389
 9908SOL    HW130623   0.482   3.615   6.294
 9908SOL    HW230624   0.443   3.737   6.395
 9909SOL     OW30625   3.291   1.210   2.912
 9909SOL    HW130626   3.200   1.174   2.891
 9909SOL    HW230627   3.292   1.309   2.897
 9910SOL     OW30628   6.519   4.804   0.923
 9910SOL    HW130629   6.553   4.829   0.833
 9910SOL    HW230630   6.476   4.714   0.919
 9911SOL     OW30631   4.503   4.881   3.300
 9911SOL    HW130632   4.433   4.909   3.366
 9911SOL    HW230633   4.563   4.958   3.281
 9912SOL     OW30634   5.036   0.271   2.017
 9912SOL    HW130635   5.131   0.249   2.040
 9912SOL    HW230636   5.012   0.360   2.056
 9913SOL     OW30637   5.469   2.865   2.913
 9913SOL    HW130638   5.555   2.875   2.862
 9913SOL    HW230639   5.484   2.806   2.993
 9914SOL     OW30640   1.598   0.073   5.131
 9914SOL    HW130641   1.693   0.085   5.101
 9914SOL    HW230642   1.555   0.162   5.144
 9915SOL     OW30643   4.917   3.577   4.150
 9915SOL    HW130644   4.834   3.587   4.096
 9915SOL    HW230645   4.983   3.521   4.100
 9916SOL     OW30646   2.121   3.027   2.407
 9916SOL    HW130647   2.122   3.072   2.497
 9916SOL    HW230648   2.029   3.032   2.369
 9917SOL     OW30649   3.152   4.074   5.448
 9917SOL    HW130650   3.064   4.043   5.485
 9917SOL    HW230651   3.203   4.121   5.520
 9918SOL     OW30652   2.211   1.334   6.428
 9918SOL    HW130653   2.208   1.323   6.329
 9918SOL    HW230654   2.204   1.431   6.451
 9919SOL     OW30655   1.227   5.851   2.388
 9919SOL    HW130656   1.234   5.786   2.313
 9919SOL    HW230657   1.315   5.897   2.401
 9920SOL     OW30658   3.879   6.203   1.239
 9920SOL    HW130659   3.921   6.247   1.160
 9920SOL    HW230660   3.781   6.225   1.242
 9921SOL     OW30661   6.173   0.060   3.144
 9921SOL    HW130662   6.181   0.093   3.050
 9921SOL    HW230663   6.263   0.061   3.188
 9922SOL     OW30664   4.383   4.462   0.568
 9922SOL    HW130665   4.478   4.491   0.561
 9922SOL    HW230666   4.365   4.429   0.661
 9923SOL     OW30667   6.517   1.937   6.401
 9923SOL    HW130668   6.488   1.842   6.389
 9923SOL    HW230669   6.606   1.939   6.446
 9924SOL     OW30670   6.551   1.381   3.049
 9924SOL    HW130671   6.566   1.330   2.965
 9924SOL    HW230672   6.637   1.388   3.100
 9925SOL     OW30673   2.604   3.799   5.733
 9925SOL    HW130674   2.524   3.859   5.737
 9925SOL    HW230675   2.584   3.712   5.778
 9926SOL     OW30676   1.400   1.549   0.894
 9926SOL    HW130677   1.409   1.631   0.951
 9926SOL    HW230678   1.488   1.503   0.887
 9927SOL     OW30679   0.575   2.116   2.499
 9927SOL    HW130680   0.558   2.062   2.582
 9927SOL    HW230681   0.608   2.206   2.524
 9928SOL     OW30682   0.566   4.109   1.935
 9928SOL    HW130683   0.613   4.022   1.930
 9928SOL    HW230684   0.630   4.181   1.962
 9929SOL     OW30685   3.387   4.329   6.087
 9929SOL    HW130686   3.465   4.309   6.146
 9929SOL    HW230687   3.325   4.250   6.086
 9930SOL     OW30688   6.782   0.366   6.448
 9930SOL    HW130689   6.809   0.288   6.392
 9930SOL    HW230690   6.695   0.402   6.416
 9931SOL     OW30691   1.503   6.386   5.505
 9931SOL    HW130692   1.586   6.336   5.528
 9931SOL    HW230693   1.527   6.474   5.463
 9932SOL     OW30694   2.086   1.559   0.769
 9932SOL    HW130695   2.021   1.554   0.693
 9932SOL    HW230696   2.055   1.628   0.835
 9933SOL     OW30697   2.654   1.138   3.175
 9933SOL    HW130698   2.648   1.038   3.176
 9933SOL    HW230699   2.604   1.175   3.253
 9934SOL     OW30700   5.859   1.760   6.459
 9934SOL    HW130701   5.805   1.839   6.486
 9934SOL    HW230702   5.940   1.791   6.409
 9935SOL     OW30703   2.798   2.040   0.253
 9935SOL    HW130704   2.795   2.069   0.349
 9935SOL    HW230705   2.872   1.974   0.240
 9936SOL     OW30706   5.224   5.687   5.723
 9936SOL    HW130707   5.244   5.689   5.820
 9936SOL    HW230708   5.135   5.729   5.706
 9937SOL     OW30709   0.311   0.167   2.796
 9937SOL    HW130710   0.211   0.167   2.791
 9937SOL    HW230711   0.342   0.251   2.840
 9938SOL     OW30712   6.774   0.843   4.568
 9938SOL    HW130713   6.798   0.821   4.473
 9938SOL    HW230714   6.710   0.919   4.570
 9939SOL     OW30715   2.123   3.861   0.603
 9939SOL    HW130716   2.099   3.955   0.582
 9939SOL    HW230717   2.157   3.854   0.697
 9940SOL     OW30718   0.413   6.928   2.817
 9940SOL    HW130719   0.374   7.017   2.794
 9940SOL    HW230720   0.478   6.902   2.745
 9941SOL     OW30721   4.086   4.777   5.533
 9941SOL    HW130722   4.059   4.757   5.439
 9941SOL    HW230723   4.082   4.692   5.587
 9942SOL     OW30724   4.493   4.504   3.611
 9942SOL    HW130725   4.568   4.571   3.615
 9942SOL    HW230726   4.406   4.552   3.598
 9943SOL     OW30727   1.910   3.719   0.258
 9943SOL    HW130728   1.857   3.634   0.260
 9943SOL    HW230729   1.922   3.750   0.164
 9944SOL     OW30730   1.588   4.874   0.241
 9944SOL    HW130731   1.683   4.891   0.216
 9944SOL    HW230732   1.547   4.809   0.176
 9945SOL     OW30733   6.116   3.993   0.314
 9945SOL    HW130734   6.161   4.052   0.381
 9945SOL    HW230735   6.090   3.907   0.357
 9946SOL     OW30736   5.717   1.189   2.612
 9946SOL    HW130737   5.651   1.257   2.642
 9946SOL    HW230738   5.783   1.231   2.550
 9947SOL     OW30739   1.533   1.859   4.257
 9947SOL    HW130740   1.489   1.792   4.196
 9947SOL    HW230741   1.618   1.892   4.215
 9948SOL     OW30742   6.580   0.478   3.928
 9948SOL    HW130743   6.579   0.407   3.857
 9948SOL    HW230744   6.514   0.549   3.904
 9949SOL     OW30745   6.501   4.368   4.739
 9949SOL    HW130746   6.412   4.342   4.776
 9949SOL    HW230747   6.516   4.324   4.651
 9950SOL     OW30748   6.671   5.229   5.872
 9950SOL    HW130749   6.638   5.300   5.811
 9950SOL    HW230750   6.764   5.250   5.901
 9951SOL     OW30751   0.797   2.944   2.675
 9951SOL    HW130752   0.857   2.873   2.639
 9951SOL    HW230753   0.798   3.023   2.614
 9952SOL     OW30754   0.661   4.578   1.753
 9952SOL    HW130755   0.682   4.670   1.786
 9952SOL    HW230756   0.740   4.519   1.769
 9953SOL     OW30757   5.993   2.724   3.555
 9953SOL    HW130758   5.992   2.659   3.632
 9953SOL    HW230759   5.987   2.817   3.590
 9954SOL     OW30760   3.135   1.739   5.781
 9954SOL    HW130761   3.079   1.750   5.699
 9954SOL    HW230762   3.229   1.721   5.755
 9955SOL     OW30763   4.845   3.470   1.086
 9955SOL    HW130764   4.750   3.462   1.056
 9955SOL    HW230765   4.903   3.489   1.006
 9956SOL     OW30766   1.587   4.655   3.081
 9956SOL    HW130767   1.598   4.688   2.987
 9956SOL    HW230768   1.670   4.607   3.110
 9957SOL     OW30769   5.371   6.646   1.740
 9957SOL    HW130770   5.285   6.694   1.756
 9957SOL    HW230771   5.428   6.652   1.822
 9958SOL     OW30772   4.232   4.799   5.847
 9958SOL    HW130773   4.201   4.816   5.753
 9958SOL    HW230774   4.154   4.808   5.909
 9959SOL     OW30775   4.218   4.102   1.188
 9959SOL    HW130776   4.257   4.137   1.273
 9959SOL    HW230777   4.150   4.167   1.153
 9960SOL     OW30778   6.658   6.813   0.399
 9960SOL    HW130779   6.559   6.817   0.384
 9960SOL    HW230780   6.706   6.818   0.312
 9961SOL     OW30781   2.239   4.214   1.837
 9961SOL    HW130782   2.223   4.308   1.866
 9961SOL    HW230783   2.322   4.209   1.782
 9962SOL     OW30784   3.397   5.275   2.726
 9962SOL    HW130785   3.452   5.192   2.737
 9962SOL    HW230786   3.448   5.353   2.760
 9963SOL     OW30787   1.909   1.345   0.572
 9963SOL    HW130788   1.959   1.333   0.658
 9963SOL    HW230789   1.872   1.438   0.568
 9964SOL     OW30790   4.780   4.280   5.499
 9964SOL    HW130791   4.789   4.376   5.473
 9964SOL    HW230792   4.825   4.223   5.431
 9965SOL     OW30793   2.710   5.954   5.143
 9965SOL    HW130794   2.774   6.002   5.083
 9965SOL    HW230795   2.762   5.890   5.201
 9966SOL     OW30796   2.854   4.751   2.303
 9966SOL    HW130797   2.877   4.692   2.226
 9966SOL    HW230798   2.763   4.729   2.336
 9967SOL     OW30799   6.649   0.016   2.398
 9967SOL    HW130800   6.617   0.096   2.348
 9967SOL    HW230801   6.619   6.955   2.351
 9968SOL     OW30802   4.163   6.322   0.244
 9968SOL    HW130803   4.102   6.246   0.222
 9968SOL    HW230804   4.125   6.407   0.207
 9969SOL     OW30805   1.123   4.316   4.735
 9969SOL    HW130806   1.167   4.277   4.654
 9969SOL    HW230807   1.079   4.243   4.787
 9970SOL     OW30808   5.515   4.968   2.206
 9970SOL    HW130809   5.552   5.057   2.177
 9970SOL    HW230810   5.436   4.945   2.150
 9971SOL     OW30811   1.307   3.151   1.745
 9971SOL    HW130812   1.322   3.054   1.724
 9971SOL    HW230813   1.307   3.163   1.844
 9972SOL     OW30814   3.811   3.820   0.688
 9972SOL    HW130815   3.820   3.774   0.599
 9972SOL    HW230816   3.845   3.914   0.680
 9973SOL     OW30817   3.834   1.549   3.999
 9973SOL    HW130818   3.841   1.548   3.900
 9973SOL    HW230819   3.887   1.626   4.035
 9974SOL     OW30820   6.975   2.262   3.487
 9974SOL    HW130821   6.983   2.361   3.496
 9974SOL    HW230822   7.006   2.234   3.396
 9975SOL     OW30823   1.038   5.266   6.467
 9975SOL    HW130824   1.092   5.218   6.398
 9975SOL    HW230825   0.975   5.329   6.422
 9976SOL     OW30826   2.229   4.940   5.982
 9976SOL    HW130827   2.234   4.842   5.966
 9976SOL    HW230828   2.321   4.978   5.988
 9977SOL     OW30829   5.452   5.503   4.498
 9977SOL    HW130830   5.353   5.504   4.512
 9977SOL    HW230831   5.496   5.561   4.567
 9978SOL     OW30832   0.403   1.881   6.091
 9978SOL    HW130833   0.488   1.934   6.084
 9978SOL    HW230834   0.422   1.792   6.131
 9979SOL     OW30835   5.187   3.215   5.418
 9979SOL    HW130836   5.199   3.236   5.515
 9979SOL    HW230837   5.263   3.159   5.386
 9980SOL     OW30838   1.466   0.831   0.133
 9980SOL    HW130839   1.401   0.766   0.092
 9980SOL    HW230840   1.415   0.907   0.172
 9981SOL     OW30841   0.914   2.251   0.975
 9981SOL    HW130842   0.827   2.206   0.952
 9981SOL    HW230843   0.904   2.350   0.963
 9982SOL     OW30844   2.528   1.373   5.236
 9982SOL    HW130845   2.619   1.335   5.257
 9982SOL    HW230846   2.513   1.454   5.293
 9983SOL     OW30847   6.503   2.792   2.416
 9983SOL    HW130848   6.481   2.694   2.409
 9983SOL    HW230849   6.587   2.811   2.366
 9984SOL     OW30850   0.422   6.103   1.156
 9984SOL    HW130851   0.366   6.025   1.127
 9984SOL    HW230852   0.364   6.172   1.199
 9985SOL     OW30853   3.331   4.858   0.754
 9985SOL    HW130854   3.427   4.884   0.768
 9985SOL    HW230855   3.278   4.879   0.837
 9986SOL     OW30856   4.925   4.430   0.493
 9986SOL    HW130857   4.873   4.450   0.410
 9986SOL    HW230858   5.014   4.477   0.489
 9987SOL     OW30859   5.541   3.186   1.510
 9987SOL    HW130860   5.558   3.261   1.574
 9987SOL    HW230861   5.601   3.109   1.532
 9988SOL     OW30862   6.227   5.902   4.082
 9988SOL    HW130863   6.323   5.875   4.073
 9988SOL    HW230864   6.222   5.999   4.106
 9989SOL     OW30865   6.357   3.856   1.294
 9989SOL    HW130866   6.454   3.874   1.279
 9989SOL    HW230867   6.308   3.943   1.298
 9990SOL     OW30868   0.477   6.581   3.433
 9990SOL    HW130869   0.393   6.612   3.478
 9990SOL    HW230870   0.514   6.503   3.483
 9991SOL     OW30871   1.731   4.112   3.670
 9991SOL    HW130872   1.765   4.165   3.748
 9991SOL    HW230873   1.777   4.023   3.668
 9992SOL     OW30874   3.263   4.161   0.964
 9992SOL    HW130875   3.179   4.180   0.914
 9992SOL    HW230876   3.341   4.160   0.901
 9993SOL     OW30877   3.547   5.922   4.262
 9993SOL    HW130878   3.480   5.955   4.195
 9993SOL    HW230879   3.549   5.983   4.340
 9994SOL     OW30880   0.281   3.946   4.426
 9994SOL    HW130881   0.361   3.903   4.384
 9994SOL    HW230882   0.238   4.008   4.361
 9995SOL     OW30883   2.888   0.619   4.748
 9995SOL    HW130884   2.962   0.676   4.714
 9995SOL    HW230885   2.813   0.677   4.780
 9996SOL     OW30886   2.509   4.094   0.561
 9996SOL    HW130887   2.567   4.071   0.640
 9996SOL    HW230888   2.472   4.010   0.522
 9997SOL     OW30889   5.562   1.690   3.890
 9997SOL    HW130890   5.547   1.714   3.986
 9997SOL    HW230891   5.474   1.687   3.842
 9998SOL     OW30892   4.732   4.041   2.539
 9998SOL    HW130893   4.705   3.961   2.594
 9998SOL    HW230894   4.806   4.014   2.477
 9999SOL     OW30895   0.788   0.018   3.760
 9999SOL    HW130896   0.850   0.096   3.769
 9999SOL    HW230897   0.797   7.001   3.668
10000SOL     OW30898   5.334   1.899   1.566
10000SOL    HW130899   5.400   1.858   1.503
10000SOL    HW230900   5.242   1.887   1.531
10001SOL     OW30901   3.089   6.557   2.302
10001SOL    HW130902   2.994   6.557   2.271
10001SOL    HW230903   3.148   6.525   2.228
10002SOL     OW30904   2.267   1.097   0.767
10002SOL    HW130905   2.225   1.041   0.695
10002SOL    HW230906   2.359   1.124   0.740
10003SOL     OW30907   2.571   1.342   2.398
10003SOL    HW130908   2.576   1.386   2.308
10003SOL    HW230909   2.505   1.267   2.394
10004SOL     OW30910   5.452   4.775   4.792
10004SOL    HW130911   5.410   4.839   4.727
10004SOL    HW230912   5.404   4.688   4.787
10005SOL     OW30913   2.505   5.718   3.770
10005SOL    HW130914   2.577   5.787   3.777
10005SOL    HW230915   2.500   5.665   3.855
10006SOL     OW30916   5.805   0.141   5.332
10006SOL    HW130917   5.867   0.215   5.358
10006SOL    HW230918   5.857   0.066   5.291
10007SOL     OW30919   0.675   3.864   4.765
10007SOL    HW130920   0.748   3.795   4.764
10007SOL    HW230921   0.678   3.916   4.680
10008SOL     OW30922   3.797   1.798   4.235
10008SOL    HW130923   3.843   1.816   4.148
10008SOL    HW230924   3.702   1.771   4.218
10009SOL     OW30925   1.814   3.750   1.771
10009SOL    HW130926   1.858   3.681   1.714
10009SOL    HW230927   1.793   3.711   1.861
10010SOL     OW30928   2.962   5.104   6.512
10010SOL    HW130929   2.904   5.149   6.578
10010SOL    HW230930   2.953   5.004   6.521
10011SOL     OW30931   0.019   4.608   0.482
10011SOL    HW130932   7.010   4.584   0.575
10011SOL    HW230933   0.118   4.618   0.481
10012SOL     OW30934   4.988   0.578   1.864
10012SOL    HW130935   5.069   0.610   1.914
10012SOL    HW230936   4.906   0.616   1.907
10013SOL     OW30937   1.487   4.504   5.179
10013SOL    HW130938   1.497   4.598   5.148
10013SOL    HW230939   1.515   4.442   5.106
10014SOL     OW30940   1.054   6.480   2.274
10014SOL    HW130941   1.019   6.565   2.313
10014SOL    HW230942   1.126   6.443   2.332
10015SOL     OW30943   3.953   5.342   6.935
10015SOL    HW130944   3.943   5.361   6.837
10015SOL    HW230945   3.878   5.285   6.966
10016SOL     OW30946   1.796   1.712   4.821
10016SOL    HW130947   1.754   1.775   4.756
10016SOL    HW230948   1.863   1.654   4.773
10017SOL     OW30949   2.356   1.703   2.585
10017SOL    HW130950   2.259   1.686   2.565
10017SOL    HW230951   2.408   1.698   2.499
10018SOL     OW30952   6.607   4.184   5.487
10018SOL    HW130953   6.612   4.148   5.580
10018SOL    HW230954   6.526   4.148   5.442
10019SOL     OW30955   0.169   1.554   3.362
10019SOL    HW130956   0.180   1.512   3.452
10019SOL    HW230957   0.131   1.488   3.298
10020SOL     OW30958   0.029   0.999   1.805
10020SOL    HW130959   0.024   1.099   1.806
10020SOL    HW230960   0.094   0.968   1.874
10021SOL     OW30961   1.063   3.121   1.619
10021SOL    HW130962   1.028   3.204   1.577
10021SOL    HW230963   1.149   3.141   1.667
10022SOL     OW30964   1.889   6.174   6.970
10022SOL    HW130965   1.966   6.166   6.906
10022SOL    HW230966   1.838   6.088   6.972
10023SOL     OW30967   2.732   6.275   5.693
10023SOL    HW130968   2.716   6.190   5.643
10023SOL    HW230969   2.826   6.305   5.681
10024SOL     OW30970   1.406   5.177   3.080
10024SOL    HW130971   1.478   5.222   3.027
10024SOL    HW230972   1.317   5.196   3.037
10025SOL     OW30973   1.849   3.205   1.939
10025SOL    HW130974   1.893   3.290   1.909
10025SOL    HW230975   1.751   3.223   1.953
10026SOL     OW30976   5.112   1.158   2.854
10026SOL    HW130977   5.130   1.251   2.886
10026SOL    HW230978   5.100   1.097   2.933
10027SOL     OW30979   0.888   2.774   5.337
10027SOL    HW130980   0.911   2.809   5.246
10027SOL    HW230981   0.971   2.748   5.386
10028SOL     OW30982   3.136   0.788   0.867
10028SOL    HW130983   3.201   0.800   0.941
10028SOL    HW230984   3.048   0.758   0.904
10029SOL     OW30985   0.427   3.125   4.696
10029SOL    HW130986   0.341   3.126   4.645
10029SOL    HW230987   0.495   3.177   4.645
10030SOL     OW30988   2.954   6.774   5.144
10030SOL    HW130989   2.991   6.695   5.096
10030SOL    HW230990   2.881   6.815   5.089
10031SOL     OW30991   4.504   4.895   4.593
10031SOL    HW130992   4.554   4.919   4.677
10031SOL    HW230993   4.477   4.978   4.545
10032SOL     OW30994   3.682   0.299   6.404
10032SOL    HW130995   3.754   0.310   6.473
10032SOL    HW230996   3.617   0.230   6.435
10033SOL     OW30997   4.182   1.244   4.549
10033SOL    HW130998   4.100   1.196   4.517
10033SOL    HW230999   4.180   1.339   4.515
10034SOL     OW31000   2.507   0.967   3.795
10034SOL    HW131001   2.469   0.900   3.859
10034SOL    HW231002   2.434   1.026   3.760
10035SOL     OW31003   5.547   3.896   0.697
10035SOL    HW131004   5.496   3.961   0.641
10035SOL    HW231005   5.643   3.924   0.702
10036SOL     OW31006   6.486   1.116   0.498
10036SOL    HW131007   6.465   1.028   0.541
10036SOL    HW231008   6.557   1.102   0.429
10037SOL     OW31009   6.520   6.995   6.378
10037SOL    HW131010   6.483   0.053   6.330
10037SOL    HW231011   6.546   6.925   6.312
10038SOL     OW31012   4.596   6.547   6.290
10038SOL    HW131013   4.694   6.564   6.298
10038SOL    HW231014   4.546   6.629   6.317
10039SOL     OW31015   4.630   6.088   4.583
10039SOL    HW131016   4.671   6.115   4.670
10039SOL    HW231017   4.621   5.989   4.579
10040SOL     OW31018   4.384   6.191   0.097
10040SOL    HW131019   4.310   6.250   0.128
10040SOL    HW231020   4.472   6.227   0.129
10041SOL     OW31021   5.969   5.660   5.339
10041SOL    HW131022   5.974   5.621   5.247
10041SOL    HW231023   5.889   5.720   5.345
10042SOL     OW31024   0.632   1.044   5.142
10042SOL    HW131025   0.616   0.963   5.199
10042SOL    HW231026   0.600   1.026   5.049
10043SOL     OW31027   0.651   0.236   2.925
10043SOL    HW131028   0.557   0.242   2.959
10043SOL    HW231029   0.653   0.261   2.828
10044SOL     OW31030   2.656   1.608   4.332
10044SOL    HW131031   2.611   1.572   4.250
10044SOL    HW231032   2.588   1.622   4.404
10045SOL     OW31033   5.138   0.099   4.005
10045SOL    HW131034   5.221   0.079   4.058
10045SOL    HW231035   5.066   0.034   4.031
10046SOL     OW31036   0.575   1.502   1.752
10046SOL    HW131037   0.572   1.415   1.802
10046SOL    HW231038   0.516   1.568   1.799
10047SOL     OW31039   6.222   3.342   4.990
10047SOL    HW131040   6.312   3.341   4.947
10047SOL    HW231041   6.166   3.268   4.954
10048SOL     OW31042   3.690   1.828   1.949
10048SOL    HW131043   3.767   1.771   1.977
10048SOL    HW231044   3.687   1.833   1.849
10049SOL     OW31045   0.859   0.830   6.381
10049SOL    HW131046   0.954   0.835   6.351
10049SOL    HW231047   0.846   0.891   6.460
10050SOL     OW31048   6.267   2.588   5.024
10050SOL    HW131049   6.350   2.535   5.039
10050SOL    HW231050   6.198   2.562   5.092
10051SOL     OW31051   6.525   2.671   4.842
10051SOL    HW131052   6.501   2.750   4.900
10051SOL    HW231053   6.621   2.649   4.854
10052SOL     OW31054   2.262   2.574   2.034
10052SOL    HW131055   2.284   2.670   2.047
10052SOL    HW231056   2.277   2.548   1.939
10053SOL     OW31057   3.856   5.232   2.014
10053SOL    HW131058   3.773   5.226   2.069
10053SOL    HW231059   3.838   5.285   1.931
10054SOL     OW31060   3.808   6.220   5.794
10054SOL    HW131061   3.823   6.161   5.874
10054SOL    HW231062   3.895   6.235   5.747
10055SOL     OW31063   6.356   2.491   5.479
10055SOL    HW131064   6.399   2.410   5.438
10055SOL    HW231065   6.421   2.567   5.481
10056SOL     OW31066   5.993   5.145   1.021
10056SOL    HW131067   6.015   5.236   0.984
10056SOL    HW231068   5.941   5.093   0.953
10057SOL     OW31069   3.480   0.823   4.414
10057SOL    HW131070   3.391   0.842   4.373
10057SOL    HW231071   3.480   0.850   4.510
10058SOL     OW31072   0.185   3.692   4.472
10058SOL    HW131073   0.208   3.785   4.446
10058SOL    HW231074   0.269   3.638   4.481
10059SOL     OW31075   4.760   6.817   0.712
10059SOL    HW131076   4.669   6.825   0.751
10059SOL    HW231077   4.826   6.863   0.772
10060SOL     OW31078   2.617   1.406   2.122
10060SOL    HW131079   2.677   1.479   2.089
10060SOL    HW231080   2.628   1.325   2.065
10061SOL     OW31081   4.779   1.315   4.110
10061SOL    HW131082   4.799   1.220   4.089
10061SOL    HW231083   4.686   1.337   4.081
10062SOL     OW31084   6.345   6.699   4.843
10062SOL    HW131085   6.395   6.634   4.900
10062SOL    HW231086   6.344   6.667   4.748
10063SOL     OW31087   1.793   1.682   3.124
10063SOL    HW131088   1.728   1.757   3.136
10063SOL    HW231089   1.816   1.673   3.027
10064SOL     OW31090   5.709   5.520   5.933
10064SOL    HW131091   5.622   5.477   5.909
10064SOL    HW231092   5.782   5.451   5.930
10065SOL     OW31093   2.201   0.566   1.983
10065SOL    HW131094   2.144   0.648   1.986
10065SOL    HW231095   2.172   0.508   1.906
10066SOL     OW31096   1.773   1.563   4.170
10066SOL    HW131097   1.715   1.600   4.097
10066SOL    HW231098   1.840   1.501   4.130
10067SOL     OW31099   5.410   4.087   5.931
10067SOL    HW131100   5.391   3.990   5.942
10067SOL    HW231101   5.341   4.130   5.873
10068SOL     OW31102   5.348   3.176   3.753
10068SOL    HW131103   5.367   3.204   3.848
10068SOL    HW231104   5.253   3.196   3.731
10069SOL     OW31105   1.595   5.753   4.017
10069SOL    HW131106   1.654   5.678   3.988
10069SOL    HW231107   1.511   5.752   3.961
10070SOL     OW31108   0.026   0.466   4.726
10070SOL    HW131109   0.002   0.502   4.636
10070SOL    HW231110   6.985   0.503   4.794
10071SOL     OW31111   4.786   5.243   4.005
10071SOL    HW131112   4.766   5.217   4.099
10071SOL    HW231113   4.716   5.306   3.972
10072SOL     OW31114   0.995   6.321   4.436
10072SOL    HW131115   0.950   6.331   4.524
10072SOL    HW231116   0.928   6.289   4.368
10073SOL     OW31117   6.421   4.198   4.405
10073SOL    HW131118   6.384   4.262   4.337
10073SOL    HW231119   6.430   4.107   4.364
10074SOL     OW31120   0.346   0.452   5.364
10074SOL    HW131121   0.353   0.442   5.463
10074SOL    HW231122   0.435   0.477   5.327
10075SOL     OW31123   1.426   1.883   2.495
10075SOL    HW131124   1.498   1.850   2.556
10075SOL    HW231125   1.463   1.891   2.402
10076SOL     OW31126   5.839   0.599   3.277
10076SOL    HW131127   5.918   0.595   3.338
10076SOL    HW231128   5.862   0.555   3.190
10077SOL     OW31129   3.241   2.403   6.819
10077SOL    HW131130   3.238   2.421   6.918
10077SOL    HW231131   3.310   2.334   6.800
10078SOL     OW31132   6.898   6.258   4.504
10078SOL    HW131133   6.983   6.266   4.555
10078SOL    HW231134   6.833   6.201   4.554
10079SOL     OW31135   1.071   3.297   2.113
10079SOL    HW131136   1.128   3.361   2.164
10079SOL    HW231137   1.100   3.295   2.018
10080SOL     OW31138   3.509   1.961   6.537
10080SOL    HW131139   3.499   1.876   6.588
10080SOL    HW231140   3.455   1.956   6.452
10081SOL     OW31141   0.045   0.221   6.790
10081SOL    HW131142   0.031   0.306   6.739
10081SOL    HW231143   0.084   0.243   6.880
10082SOL     OW31144   6.637   3.382   2.341
10082SOL    HW131145   6.710   3.451   2.343
10082SOL    HW231146   6.564   3.409   2.403
10083SOL     OW31147   5.143   1.173   3.165
10083SOL    HW131148   5.238   1.141   3.160
10083SOL    HW231149   5.131   1.252   3.106
10084SOL     OW31150   3.609   0.982   6.273
10084SOL    HW131151   3.659   0.959   6.357
10084SOL    HW231152   3.674   1.014   6.204
10085SOL     OW31153   0.287   5.548   2.234
10085SOL    HW131154   0.243   5.544   2.144
10085SOL    HW231155   0.292   5.643   2.264
10086SOL     OW31156   6.154   5.364   1.852
10086SOL    HW131157   6.204   5.405   1.928
10086SOL    HW231158   6.175   5.412   1.768
10087SOL     OW31159   0.825   0.087   4.036
10087SOL    HW131160   0.828   0.029   3.955
10087SOL    HW231161   0.755   0.158   4.023
10088SOL     OW31162   6.683   6.757   6.920
10088SOL    HW131163   6.635   6.803   6.845
10088SOL    HW231164   6.625   6.686   6.958
10089SOL     OW31165   2.426   2.459   3.125
10089SOL    HW131166   2.481   2.538   3.100
10089SOL    HW231167   2.430   2.391   3.051
10090SOL     OW31168   0.745   4.881   1.015
10090SOL    HW131169   0.748   4.861   1.113
10090SOL    HW231170   0.743   4.795   0.964
10091SOL     OW31171   1.065   3.143   4.737
10091SOL    HW131172   1.087   3.230   4.694
10091SOL    HW231173   0.987   3.101   4.690
10092SOL     OW31174   1.988   3.254   5.379
10092SOL    HW131175   2.036   3.186   5.324
10092SOL    HW231176   2.046   3.282   5.455
10093SOL     OW31177   1.101   3.986   4.556
10093SOL    HW131178   1.059   4.008   4.644
10093SOL    HW231179   1.138   4.070   4.515
10094SOL     OW31180   2.560   6.163   1.645
10094SOL    HW131181   2.502   6.090   1.679
10094SOL    HW231182   2.510   6.250   1.646
10095SOL     OW31183   6.286   2.281   5.710
10095SOL    HW131184   6.350   2.228   5.767
10095SOL    HW231185   6.311   2.378   5.713
10096SOL     OW31186   6.139   5.260   2.302
10096SOL    HW131187   6.172   5.237   2.211
10096SOL    HW231188   6.202   5.222   2.371
10097SOL     OW31189   0.994   0.792   6.950
10097SOL    HW131190   1.010   0.853   6.872
10097SOL    HW231191   1.080   0.772   6.996
10098SOL     OW31192   2.079   0.253   5.546
10098SOL    HW131193   2.179   0.257   5.539
10098SOL    HW231194   2.045   0.333   5.595
10099SOL     OW31195   0.075   5.359   6.380
10099SOL    HW131196   7.006   5.378   6.417
10099SOL    HW231197   0.130   5.311   6.448
10100SOL     OW31198   5.570   0.224   4.093
10100SOL    HW131199   5.624   0.222   4.008
10100SOL    HW231200   5.496   0.291   4.084
10101SOL     OW31201   5.897   4.111   1.694
10101SOL    HW131202   5.843   4.063   1.625
10101SOL    HW231203   5.863   4.204   1.704
10102SOL     OW31204   1.764   0.854   2.826
10102SOL    HW131205   1.731   0.805   2.906
10102SOL    HW231206   1.744   0.952   2.836
10103SOL     OW31207   2.803   1.297   5.325
10103SOL    HW131208   2.811   1.260   5.233
10103SOL    HW231209   2.825   1.226   5.392
10104SOL     OW31210   1.525   3.138   4.642
10104SOL    HW131211   1.476   3.122   4.557
10104SOL    HW231212   1.575   3.225   4.636
10105SOL     OW31213   1.198   1.255   0.244
10105SOL    HW131214   1.136   1.310   0.300
10105SOL    HW231215   1.211   1.298   0.155
10106SOL     OW31216   4.709   5.307   1.000
10106SOL    HW131217   4.807   5.286   0.993
10106SOL    HW231218   4.691   5.394   0.955
10107SOL     OW31219   0.284   1.746   6.834
10107SOL    HW131220   0.346   1.819   6.805
10107SOL    HW231221   0.329   1.689   6.903
10108SOL     OW31222   6.195   5.888   0.021
10108SOL    HW131223   6.136   5.967   0.008
10108SOL    HW231224   6.141   5.804   0.012
10109SOL     OW31225   3.289   6.195   2.145
10109SOL    HW131226   3.358   6.156   2.084
10109SOL    HW231227   3.254   6.125   2.206
10110SOL     OW31228   4.236   6.507   4.501
10110SOL    HW131229   4.251   6.604   4.522
10110SOL    HW231230   4.211   6.498   4.404
10111SOL     OW31231   6.236   2.659   4.423
10111SOL    HW131232   6.276   2.720   4.491
10111SOL    HW231233   6.211   2.712   4.342
10112SOL     OW31234   5.620   4.343   4.806
10112SOL    HW131235   5.677   4.401   4.864
10112SOL    HW231236   5.634   4.247   4.831
10113SOL     OW31237   4.002   1.408   6.077
10113SOL    HW131238   4.045   1.498   6.068
10113SOL    HW231239   4.068   1.336   6.058
10114SOL     OW31240   5.287   0.219   0.935
10114SOL    HW131241   5.197   0.193   0.902
10114SOL    HW231242   5.340   0.136   0.954
10115SOL     OW31243   3.123   2.194   3.638
10115SOL    HW131244   3.205   2.174   3.692
10115SOL    HW231245   3.120   2.134   3.559
10116SOL     OW31246   0.833   6.749   6.979
10116SOL    HW131247   0.889   6.738   0.040
10116SOL    HW231248   0.859   6.681   6.911
10117SOL     OW31249   6.929   0.205   4.803
10117SOL    HW131250   6.958   0.263   4.879
10117SOL    HW231251   6.898   0.262   4.727
10118SOL     OW31252   0.872   5.256   3.396
10118SOL    HW131253   0.773   5.241   3.401
10118SOL    HW231254   0.892   5.321   3.323
10119SOL     OW31255   1.207   6.263   4.725
10119SOL    HW131256   1.251   6.291   4.639
10119SOL    HW231257   1.227   6.332   4.795
10120SOL     OW31258   0.925   3.680   4.102
10120SOL    HW131259   0.932   3.760   4.042
10120SOL    HW231260   0.952   3.706   4.195
10121SOL     OW31261   6.559   4.793   5.883
10121SOL    HW131262   6.566   4.702   5.925
10121SOL    HW231263   6.468   4.831   5.899
10122SOL     OW31264   5.500   2.633   0.649
10122SOL    HW131265   5.423   2.670   0.598
10122SOL    HW231266   5.505   2.677   0.739
10123SOL     OW31267   6.313   6.401   0.376
10123SOL    HW131268   6.256   6.321   0.390
10123SOL    HW231269   6.267   6.482   0.415
10124SOL     OW31270   1.722   3.355   6.761
10124SOL    HW131271   1.798   3.415   6.737
10124SOL    HW231272   1.758   3.268   6.796
10125SOL     OW31273   1.427   0.897   2.596
10125SOL    HW131274   1.379   0.966   2.651
10125SOL    HW231275   1.503   0.940   2.548
10126SOL     OW31276   0.557   0.229   6.709
10126SOL    HW131277   0.506   0.180   6.779
10126SOL    HW231278   0.498   0.298   6.667
10127SOL     OW31279   2.882   4.707   5.765
10127SOL    HW131280   2.830   4.760   5.831
10127SOL    HW231281   2.819   4.660   5.703
10128SOL     OW31282   0.960   1.557   1.361
10128SOL    HW131283   0.959   1.628   1.431
10128SOL    HW231284   1.047   1.509   1.363
10129SOL     OW31285   5.061   2.925   4.144
10129SOL    HW131286   5.144   2.906   4.091
10129SOL    HW231287   5.075   3.005   4.202
10130SOL     OW31288   2.198   4.329   2.467
10130SOL    HW131289   2.297   4.339   2.462
10130SOL    HW231290   2.163   4.309   2.375
10131SOL     OW31291   0.528   0.689   2.875
10131SOL    HW131292   0.596   0.755   2.905
10131SOL    HW231293   0.557   0.648   2.788
10132SOL     OW31294   2.680   6.829   4.054
10132SOL    HW131295   2.683   6.859   3.959
10132SOL    HW231296   2.709   6.733   4.060
10133SOL     OW31297   4.785   5.951   1.637
10133SOL    HW131298   4.710   5.924   1.697
10133SOL    HW231299   4.869   5.959   1.691
10134SOL     OW31300   6.812   0.067   4.008
10134SOL    HW131301   6.909   0.063   3.984
10134SOL    HW231302   6.803   0.093   4.104
10135SOL     OW31303   5.088   3.129   3.194
10135SOL    HW131304   5.024   3.055   3.216
10135SOL    HW231305   5.180   3.092   3.185
10136SOL     OW31306   5.754   0.405   2.741
10136SOL    HW131307   5.844   0.438   2.714
10136SOL    HW231308   5.684   0.449   2.685
10137SOL     OW31309   6.054   4.469   4.030
10137SOL    HW131310   6.145   4.512   4.027
10137SOL    HW231311   6.041   4.414   3.947
10138SOL     OW31312   5.227   2.230   0.940
10138SOL    HW131313   5.305   2.231   0.877
10138SOL    HW231314   5.159   2.297   0.911
10139SOL     OW31315   3.655   3.672   3.346
10139SOL    HW131316   3.594   3.595   3.365
10139SOL    HW231317   3.655   3.735   3.423
10140SOL     OW31318   6.582   6.255   5.823
10140SOL    HW131319   6.622   6.318   5.758
10140SOL    HW231320   6.575   6.164   5.782
10141SOL     OW31321   3.177   1.272   4.289
10141SOL    HW131322   3.129   1.285   4.202
10141SOL    HW231323   3.151   1.346   4.352
10142SOL     OW31324   6.478   6.517   4.999
10142SOL    HW131325   6.418   6.445   5.035
10142SOL    HW231326   6.551   6.476   4.944
10143SOL     OW31327   4.604   0.820   0.485
10143SOL    HW131328   4.520   0.832   0.538
10143SOL    HW231329   4.582   0.816   0.388
10144SOL     OW31330   4.403   0.143   6.025
10144SOL    HW131331   4.318   0.102   5.992
10144SOL    HW231332   4.426   0.221   5.967
10145SOL     OW31333   3.424   5.798   5.835
10145SOL    HW131334   3.328   5.809   5.861
10145SOL    HW231335   3.435   5.712   5.785
10146SOL     OW31336   3.932   4.911   4.832
10146SOL    HW131337   3.983   4.827   4.817
10146SOL    HW231338   3.993   4.983   4.864
10147SOL     OW31339   5.309   4.501   5.059
10147SOL    HW131340   5.310   4.493   4.959
10147SOL    HW231341   5.326   4.596   5.085
10148SOL     OW31342   5.842   5.470   6.741
10148SOL    HW131343   5.826   5.427   6.653
10148SOL    HW231344   5.881   5.561   6.728
10149SOL     OW31345   5.814   1.935   1.055
10149SOL    HW131346   5.749   1.860   1.065
10149SOL    HW231347   5.794   2.006   1.122
10150SOL     OW31348   4.371   3.670   0.206
10150SOL    HW131349   4.357   3.660   0.107
10150SOL    HW231350   4.324   3.595   0.254
10151SOL     OW31351   1.287   6.461   0.207
10151SOL    HW131352   1.309   6.384   0.148
10151SOL    HW231353   1.321   6.546   0.165
10152SOL     OW31354   0.947   6.594   4.971
10152SOL    HW131355   0.891   6.645   5.036
10152SOL    HW231356   0.907   6.504   4.956
10153SOL     OW31357   5.236   5.905   3.793
10153SOL    HW131358   5.265   6.000   3.799
10153SOL    HW231359   5.205   5.886   3.699
10154SOL     OW31360   5.726   0.196   4.841
10154SOL    HW131361   5.810   0.172   4.891
10154SOL    HW231362   5.646   0.173   4.897
10155SOL     OW31363   3.560   2.112   5.691
10155SOL    HW131364   3.500   2.054   5.637
10155SOL    HW231365   3.609   2.175   5.631
10156SOL     OW31366   6.187   1.017   2.201
10156SOL    HW131367   6.150   0.924   2.191
10156SOL    HW231368   6.120   1.075   2.247
10157SOL     OW31369   6.181   3.064   6.370
10157SOL    HW131370   6.163   3.110   6.284
10157SOL    HW231371   6.127   2.979   6.375
10158SOL     OW31372   5.594   3.485   0.763
10158SOL    HW131373   5.580   3.412   0.830
10158SOL    HW231374   5.576   3.573   0.806
10159SOL     OW31375   3.082   3.261   6.155
10159SOL    HW131376   3.157   3.266   6.221
10159SOL    HW231377   3.102   3.192   6.086
10160SOL     OW31378   2.064   3.351   2.243
10160SOL    HW131379   2.052   3.417   2.169
10160SOL    HW231380   2.092   3.263   2.204
10161SOL     OW31381   3.700   3.374   6.311
10161SOL    HW131382   3.628   3.311   6.339
10161SOL    HW231383   3.763   3.390   6.387
10162SOL     OW31384   3.404   4.539   0.294
10162SOL    HW131385   3.393   4.589   0.380
10162SOL    HW231386   3.501   4.526   0.275
10163SOL     OW31387   5.502   5.284   5.881
10163SOL    HW131388   5.470   5.360   5.825
10163SOL    HW231389   5.469   5.198   5.843
10164SOL     OW31390   5.835   3.078   4.714
10164SOL    HW131391   5.789   3.166   4.725
10164SOL    HW231392   5.925   3.081   4.756
10165SOL     OW31393   0.455   1.793   3.143
10165SOL    HW131394   0.425   1.780   3.049
10165SOL    HW231395   0.503   1.880   3.151
10166SOL     OW31396   3.763   1.126   1.716
10166SOL    HW131397   3.698   1.198   1.696
10166SOL    HW231398   3.734   1.041   1.672
10167SOL     OW31399   2.848   2.579   6.411
10167SOL    HW131400   2.906   2.611   6.336
10167SOL    HW231401   2.795   2.500   6.381
10168SOL     OW31402   6.059   4.064   5.465
10168SOL    HW131403   5.996   4.004   5.417
10168SOL    HW231404   6.007   4.131   5.519
10169SOL     OW31405   6.129   4.028   3.326
10169SOL    HW131406   6.108   4.087   3.404
10169SOL    HW231407   6.044   4.009   3.276
10170SOL     OW31408   1.049   5.032   5.735
10170SOL    HW131409   0.967   5.049   5.680
10170SOL    HW231410   1.084   5.119   5.770
10171SOL     OW31411   6.685   3.355   5.533
10171SOL    HW131412   6.767   3.314   5.573
10171SOL    HW231413   6.625   3.282   5.499
10172SOL     OW31414   6.701   6.460   4.845
10172SOL    HW131415   6.690   6.466   4.746
10172SOL    HW231416   6.776   6.520   4.874
10173SOL     OW31417   0.902   2.541   0.982
10173SOL    HW131418   0.976   2.597   1.019
10173SOL    HW231419   0.825   2.599   0.957
10174SOL     OW31420   5.601   5.205   2.133
10174SOL    HW131421   5.565   5.297   2.150
10174SOL    HW231422   5.701   5.205   2.143
10175SOL     OW31423   5.863   2.349   4.013
10175SOL    HW131424   5.873   2.446   4.033
10175SOL    HW231425   5.912   2.295   4.081
10176SOL     OW31426   1.290   3.144   5.557
10176SOL    HW131427   1.347   3.167   5.478
10176SOL    HW231428   1.329   3.186   5.639
10177SOL     OW31429   2.185   0.700   0.476
10177SOL    HW131430   2.260   0.646   0.514
10177SOL    HW231431   2.099   0.651   0.490
10178SOL     OW31432   6.742   1.645   5.069
10178SOL    HW131433   6.656   1.656   5.019
10178SOL    HW231434   6.723   1.611   5.161
10179SOL     OW31435   0.777   2.166   6.054
10179SOL    HW131436   0.721   2.149   6.135
10179SOL    HW231437   0.873   2.159   6.078
10180SOL     OW31438   4.071   0.403   6.948
10180SOL    HW131439   4.154   0.366   6.906
10180SOL    HW231440   4.093   0.440   0.017
10181SOL     OW31441   5.371   2.743   2.317
10181SOL    HW131442   5.354   2.649   2.288
10181SOL    HW231443   5.422   2.792   2.246
10182SOL     OW31444   4.810   0.892   1.763
10182SOL    HW131445   4.728   0.843   1.733
10182SOL    HW231446   4.830   0.868   1.859
10183SOL     OW31447   0.152   2.291   6.231
10183SOL    HW131448   0.247   2.261   6.235
10183SOL    HW231449   0.147   2.388   6.257
10184SOL     OW31450   3.643   1.132   6.884
10184SOL    HW131451   3.639   1.177   6.795
10184SOL    HW231452   3.596   1.044   6.880
10185SOL     OW31453   5.492   5.832   1.911
10185SOL    HW131454   5.432   5.892   1.860
10185SOL    HW231455   5.565   5.798   1.851
10186SOL     OW31456   6.082   4.083   3.598
10186SOL    HW131457   5.987   4.057   3.618
10186SOL    HW231458   6.144   4.015   3.636
10187SOL     OW31459   0.758   3.093   0.917
10187SOL    HW131460   0.661   3.089   0.893
10187SOL    HW231461   0.812   3.112   0.835
10188SOL     OW31462   3.477   5.718   0.850
10188SOL    HW131463   3.517   5.764   0.771
10188SOL    HW231464   3.452   5.786   0.919
10189SOL     OW31465   1.103   0.727   6.228
10189SOL    HW131466   1.171   0.741   6.301
10189SOL    HW231467   1.075   0.631   6.227
10190SOL     OW31468   4.775   3.453   1.775
10190SOL    HW131469   4.750   3.364   1.735
10190SOL    HW231470   4.784   3.443   1.874
10191SOL     OW31471   5.367   5.218   5.515
10191SOL    HW131472   5.276   5.257   5.502
10191SOL    HW231473   5.371   5.126   5.476
10192SOL     OW31474   4.550   1.763   6.027
10192SOL    HW131475   4.558   1.734   6.123
10192SOL    HW231476   4.508   1.690   5.974
10193SOL     OW31477   4.163   3.618   2.249
10193SOL    HW131478   4.143   3.666   2.335
10193SOL    HW231479   4.250   3.650   2.213
10194SOL     OW31480   5.800   5.414   4.625
10194SOL    HW131481   5.729   5.356   4.666
10194SOL    HW231482   5.798   5.504   4.669
10195SOL     OW31483   5.996   5.394   0.898
10195SOL    HW131484   6.076   5.454   0.908
10195SOL    HW231485   5.913   5.444   0.923
10196SOL     OW31486   4.148   1.489   4.217
10196SOL    HW131487   4.224   1.465   4.277
10196SOL    HW231488   4.135   1.417   4.149
10197SOL     OW31489   6.488   2.273   5.366
10197SOL    HW131490   6.466   2.239   5.275
10197SOL    HW231491   6.552   2.350   5.359
10198SOL     OW31492   3.087   0.711   1.900
10198SOL    HW131493   3.186   0.696   1.904
10198SOL    HW231494   3.069   0.808   1.882
10199SOL     OW31495   2.575   2.403   6.716
10199SOL    HW131496   2.636   2.342   6.666
10199SOL    HW231497   2.577   2.379   6.814
10200SOL     OW31498   5.333   1.564   0.612
10200SOL    HW131499   5.430   1.584   0.600
10200SOL    HW231500   5.322   1.483   0.670
10201SOL     OW31501   1.364   4.373   0.500
10201SOL    HW131502   1.313   4.428   0.566
10201SOL    HW231503   1.371   4.422   0.413
10202SOL     OW31504   3.929   3.142   0.733
10202SOL    HW131505   4.014   3.170   0.776
10202SOL    HW231506   3.879   3.224   0.702
10203SOL     OW31507   6.403   3.013   3.840
10203SOL    HW131508   6.421   2.987   3.745
10203SOL    HW231509   6.452   3.098   3.861
10204SOL     OW31510   4.956   6.528   6.860
10204SOL    HW131511   4.882   6.595   6.857
10204SOL    HW231512   5.044   6.575   6.864
10205SOL     OW31513   2.095   1.038   1.525
10205SOL    HW131514   2.080   0.958   1.583
10205SOL    HW231515   2.050   1.024   1.436
10206SOL     OW31516   0.608   0.904   0.240
10206SOL    HW131517   0.633   0.814   0.202
10206SOL    HW231518   0.685   0.940   0.292
10207SOL     OW31519   1.336   1.733   6.569
10207SOL    HW131520   1.323   1.667   6.643
10207SOL    HW231521   1.377   1.688   6.490
10208SOL     OW31522   5.649   4.548   3.962
10208SOL    HW131523   5.626   4.524   3.868
10208SOL    HW231524   5.733   4.602   3.963
10209SOL     OW31525   7.012   0.426   6.641
10209SOL    HW131526   0.055   0.485   6.592
10209SOL    HW231527   6.929   0.415   6.587
10210SOL     OW31528   4.906   6.481   2.103
10210SOL    HW131529   4.903   6.482   2.203
10210SOL    HW231530   4.813   6.471   2.067
10211SOL     OW31531   4.202   6.445   4.250
10211SOL    HW131532   4.301   6.462   4.246
10211SOL    HW231533   4.173   6.400   4.166
10212SOL     OW31534   1.056   0.274   5.319
10212SOL    HW131535   1.126   0.269   5.247
10212SOL    HW231536   1.079   0.348   5.382
10213SOL     OW31537   4.983   3.070   1.029
10213SOL    HW131538   5.035   3.130   0.969
10213SOL    HW231539   5.011   2.975   1.013
10214SOL     OW31540   0.900   1.436   2.192
10214SOL    HW131541   0.866   1.483   2.112
10214SOL    HW231542   0.958   1.359   2.164
10215SOL     OW31543   4.085   3.209   3.376
10215SOL    HW131544   4.079   3.300   3.416
10215SOL    HW231545   4.181   3.185   3.360
10216SOL     OW31546   6.960   0.569   0.822
10216SOL    HW131547   6.885   0.547   0.760
10216SOL    HW231548   6.940   0.654   0.870
10217SOL     OW31549   2.910   1.614   3.219
10217SOL    HW131550   2.938   1.523   3.189
10217SOL    HW231551   2.980   1.654   3.278
10218SOL     OW31552   1.419   1.535   1.702
10218SOL    HW131553   1.442   1.594   1.780
10218SOL    HW231554   1.477   1.453   1.704
10219SOL     OW31555   6.994   2.416   2.895
10219SOL    HW131556   6.934   2.424   2.976
10219SOL    HW231557   6.980   2.327   2.853
10220SOL     OW31558   4.297   2.438   1.369
10220SOL    HW131559   4.257   2.352   1.402
10220SOL    HW231560   4.371   2.465   1.430
10221SOL     OW31561   0.578   5.332   3.156
10221SOL    HW131562   0.565   5.307   3.060
10221SOL    HW231563   0.572   5.250   3.213
10222SOL     OW31564   3.216   3.205   5.782
10222SOL    HW131565   3.121   3.230   5.764
10222SOL    HW231566   3.267   3.287   5.808
10223SOL     OW31567   0.444   4.675   1.297
10223SOL    HW131568   0.531   4.651   1.255
10223SOL    HW231569   0.456   4.683   1.396
10224SOL     OW31570   6.901   2.899   4.010
10224SOL    HW131571   6.914   2.994   3.982
10224SOL    HW231572   6.985   2.866   4.054
10225SOL     OW31573   1.887   4.830   6.048
10225SOL    HW131574   1.791   4.803   6.033
10225SOL    HW231575   1.937   4.822   5.962
10226SOL     OW31576   2.838   0.631   0.021
10226SOL    HW131577   2.858   0.695   6.969
10226SOL    HW231578   2.923   0.607   0.068
10227SOL     OW31579   4.986   4.484   0.058
10227SOL    HW131580   5.031   4.568   0.028
10227SOL    HW231581   4.991   4.416   7.007
10228SOL     OW31582   6.587   0.070   1.018
10228SOL    HW131583   6.563   0.099   1.110
10228SOL    HW231584   6.506   0.031   0.973
10229SOL     OW31585   1.252   2.810   5.105
10229SOL    HW131586   1.290   2.868   5.177
10229SOL    HW231587   1.281   2.843   5.016
10230SOL     OW31588   6.187   5.658   2.964
10230SOL    HW131589   6.195   5.729   3.033
10230SOL    HW231590   6.193   5.568   3.007
10231SOL     OW31591   0.775   5.835   4.884
10231SOL    HW131592   0.754   5.777   4.805
10231SOL    HW231593   0.773   5.781   4.968
10232SOL     OW31594   2.712   1.261   3.655
10232SOL    HW131595   2.746   1.343   3.609
10232SOL    HW231596   2.756   1.180   3.618
10233SOL     OW31597   3.986   4.068   4.944
10233SOL    HW131598   4.024   4.160   4.949
10233SOL    HW231599   3.955   4.049   4.851
10234SOL     OW31600   6.405   0.840   1.051
10234SOL    HW131601   6.337   0.883   1.110
10234SOL    HW231602   6.428   0.902   0.976
10235SOL     OW31603   1.902   2.325   2.013
10235SOL    HW131604   1.807   2.304   1.991
10235SOL    HW231605   1.962   2.276   1.949
10236SOL     OW31606   2.647   6.620   0.313
10236SOL    HW131607   2.570   6.652   0.369
10236SOL    HW231608   2.666   6.525   0.334
10237SOL     OW31609   6.796   3.076   0.428
10237SOL    HW131610   6.841   2.992   0.395
10237SOL    HW231611   6.862   3.151   0.426
10238SOL     OW31612   4.281   4.140   1.428
10238SOL    HW131613   4.271   4.098   1.519
10238SOL    HW231614   4.276   4.239   1.437
10239SOL     OW31615   1.288   2.538   5.124
10239SOL    HW131616   1.329   2.627   5.145
10239SOL    HW231617   1.190   2.550   5.107
10240SOL     OW31618   2.546   5.977   2.367
10240SOL    HW131619   2.475   6.020   2.312
10240SOL    HW231620   2.519   5.977   2.463
10241SOL     OW31621   5.222   0.833   2.207
10241SOL    HW131622   5.155   0.904   2.232
10241SOL    HW231623   5.294   0.830   2.276
10242SOL     OW31624   6.515   1.755   1.030
10242SOL    HW131625   6.576   1.834   1.024
10242SOL    HW231626   6.563   1.673   0.998
10243SOL     OW31627   2.507   4.318   1.743
10243SOL    HW131628   2.477   4.303   1.648
10243SOL    HW231629   2.558   4.403   1.749
10244SOL     OW31630   2.711   4.029   0.729
10244SOL    HW131631   2.767   4.019   0.647
10244SOL    HW231632   2.755   3.983   0.806
10245SOL     OW31633   3.734   4.075   1.189
10245SOL    HW131634   3.765   3.997   1.134
10245SOL    HW231635   3.726   4.047   1.284
10246SOL     OW31636   3.225   4.051   4.352
10246SOL    HW131637   3.247   4.041   4.449
10246SOL    HW231638   3.288   4.118   4.311
10247SOL     OW31639   0.106   3.840   6.194
10247SOL    HW131640   0.153   3.817   6.108
10247SOL    HW231641   0.173   3.849   6.267
10248SOL     OW31642   0.926   0.149   3.105
10248SOL    HW131643   0.941   0.242   3.140
10248SOL    HW231644   0.867   0.153   3.024
10249SOL     OW31645   2.790   5.439   6.494
10249SOL    HW131646   2.730   5.378   6.443
10249SOL    HW231647   2.881   5.439   6.452
10250SOL     OW31648   6.835   3.995   0.913
10250SOL    HW131649   6.925   3.953   0.907
10250SOL    HW231650   6.845   4.094   0.929
10251SOL     OW31651   2.077   1.467   4.128
10251SOL    HW131652   2.087   1.542   4.062
10251SOL    HW231653   2.095   1.502   4.220
10252SOL     OW31654   4.432   3.474   5.900
10252SOL    HW131655   4.367   3.545   5.926
10252SOL    HW231656   4.392   3.384   5.917
10253SOL     OW31657   2.883   6.279   0.833
10253SOL    HW131658   2.836   6.198   0.867
10253SOL    HW231659   2.950   6.253   0.764
10254SOL     OW31660   4.556   1.701   5.570
10254SOL    HW131661   4.510   1.747   5.494
10254SOL    HW231662   4.534   1.747   5.655
10255SOL     OW31663   2.762   6.881   0.819
10255SOL    HW131664   2.857   6.868   0.788
10255SOL    HW231665   2.701   6.824   0.764
10256SOL     OW31666   3.999   0.829   2.490
10256SOL    HW131667   4.067   0.795   2.425
10256SOL    HW231668   4.022   0.922   2.517
10257SOL     OW31669   1.265   5.465   4.345
10257SOL    HW131670   1.280   5.558   4.312
10257SOL    HW231671   1.183   5.462   4.402
10258SOL     OW31672   3.759   1.900   3.219
10258SOL    HW131673   3.683   1.914   3.281
10258SOL    HW231674   3.741   1.945   3.132
10259SOL     OW31675   0.790   4.214   3.736
10259SOL    HW131676   0.825   4.142   3.676
10259SOL    HW231677   0.815   4.194   3.831
10260SOL     OW31678   0.566   1.596   3.584
10260SOL    HW131679   0.519   1.573   3.499
10260SOL    HW231680   0.501   1.599   3.659
10261SOL     OW31681   6.597   4.780   0.661
10261SOL    HW131682   6.506   4.803   0.625
10261SOL    HW231683   6.658   4.758   0.585
10262SOL     OW31684   3.252   6.758   6.622
10262SOL    HW131685   3.299   6.766   6.535
10262SOL    HW231686   3.240   6.661   6.644
10263SOL     OW31687   5.756   0.185   0.533
10263SOL    HW131688   5.659   0.170   0.552
10263SOL    HW231689   5.790   0.114   0.472
10264SOL     OW31690   6.532   5.571   6.495
10264SOL    HW131691   6.565   5.519   6.574
10264SOL    HW231692   6.433   5.559   6.486
10265SOL     OW31693   3.691   2.458   6.690
10265SOL    HW131694   3.749   2.437   6.769
10265SOL    HW231695   3.617   2.518   6.719
10266SOL     OW31696   3.752   3.401   3.165
10266SOL    HW131697   3.674   3.344   3.139
10266SOL    HW231698   3.777   3.382   3.260
10267SOL     OW31699   5.238   0.893   0.872
10267SOL    HW131700   5.293   0.835   0.932
10267SOL    HW231701   5.299   0.946   0.813
10268SOL     OW31702   5.761   6.679   2.199
10268SOL    HW131703   5.742   6.593   2.153
10268SOL    HW231704   5.723   6.754   2.144
10269SOL     OW31705   1.374   2.260   6.173
10269SOL    HW131706   1.299   2.321   6.197
10269SOL    HW231707   1.397   2.203   6.252
10270SOL     OW31708   3.443   5.343   3.067
10270SOL    HW131709   3.468   5.253   3.103
10270SOL    HW231710   3.344   5.349   3.058
10271SOL     OW31711   2.957   2.684   6.796
10271SOL    HW131712   2.936   2.643   6.885
10271SOL    HW231713   2.876   2.678   6.738
10272SOL     OW31714   1.411   1.091   4.335
10272SOL    HW131715   1.324   1.046   4.359
10272SOL    HW231716   1.399   1.190   4.340
10273SOL     OW31717   3.095   5.165   3.888
10273SOL    HW131718   3.039   5.194   3.966
10273SOL    HW231719   3.110   5.242   3.826
10274SOL     OW31720   1.498   4.726   5.822
10274SOL    HW131721   1.428   4.655   5.817
10274SOL    HW231722   1.467   4.808   5.773
10275SOL     OW31723   0.203   0.652   1.989
10275SOL    HW131724   0.238   0.591   2.060
10275SOL    HW231725   0.114   0.688   2.016
10276SOL     OW31726   4.614   5.853   5.780
10276SOL    HW131727   4.522   5.889   5.763
10276SOL    HW231728   4.608   5.780   5.848
10277SOL     OW31729   1.553   6.236   4.808
10277SOL    HW131730   1.512   6.221   4.718
10277SOL    HW231731   1.533   6.158   4.868
10278SOL     OW31732   0.950   1.349   3.672
10278SOL    HW131733   0.985   1.267   3.718
10278SOL    HW231734   0.869   1.382   3.721
10279SOL     OW31735   2.028   5.067   4.447
10279SOL    HW131736   1.977   5.011   4.382
10279SOL    HW231737   1.969   5.092   4.523
10280SOL     OW31738   6.133   3.042   6.891
10280SOL    HW131739   6.156   3.128   6.847
10280SOL    HW231740   6.215   2.986   6.900
10281SOL     OW31741   6.223   2.009   3.930
10281SOL    HW131742   6.251   1.914   3.918
10281SOL    HW231743   6.261   2.045   4.016
10282SOL     OW31744   5.607   3.011   3.628
10282SOL    HW131745   5.578   3.071   3.704
10282SOL    HW231746   5.668   3.062   3.568
10283SOL     OW31747   1.550   3.199   0.883
10283SOL    HW131748   1.489   3.255   0.937
10283SOL    HW231749   1.539   3.103   0.908
10284SOL     OW31750   6.128   1.843   4.782
10284SOL    HW131751   6.198   1.820   4.850
10284SOL    HW231752   6.149   1.796   4.696
10285SOL     OW31753   4.444   6.340   2.743
10285SOL    HW131754   4.529   6.392   2.737
10285SOL    HW231755   4.460   6.245   2.718
10286SOL     OW31756   3.723   0.375   3.999
10286SOL    HW131757   3.714   0.370   4.099
10286SOL    HW231758   3.660   0.444   3.963
10287SOL     OW31759   2.432   5.466   2.131
10287SOL    HW131760   2.344   5.420   2.121
10287SOL    HW231761   2.486   5.454   2.048
10288SOL     OW31762   4.244   7.013   3.934
10288SOL    HW131763   4.170   0.047   3.972
10288SOL    HW231764   4.206   6.928   3.898
10289SOL     OW31765   2.898   6.101   0.552
10289SOL    HW131766   2.968   6.173   0.552
10289SOL    HW231767   2.940   6.013   0.571
10290SOL     OW31768   3.062   3.089   2.736
10290SOL    HW131769   2.996   3.153   2.775
10290SOL    HW231770   3.119   3.136   2.670
10291SOL     OW31771   3.749   1.961   2.946
10291SOL    HW131772   3.839   1.987   2.909
10291SOL    HW231773   3.688   2.040   2.939
10292SOL     OW31774   0.926   2.215   5.496
10292SOL    HW131775   0.963   2.232   5.587
10292SOL    HW231776   1.002   2.203   5.432
10293SOL     OW31777   1.284   3.403   3.534
10293SOL    HW131778   1.305   3.336   3.463
10293SOL    HW231779   1.217   3.365   3.597
10294SOL     OW31780   4.570   1.540   2.770
10294SOL    HW131781   4.636   1.610   2.743
10294SOL    HW231782   4.479   1.565   2.739
10295SOL     OW31783   1.095   3.057   5.373
10295SOL    HW131784   1.179   3.088   5.418
10295SOL    HW231785   1.017   3.070   5.435
10296SOL     OW31786   4.975   1.826   6.117
10296SOL    HW131787   4.961   1.919   6.083
10296SOL    HW231788   5.022   1.771   6.048
10297SOL     OW31789   2.041   1.197   6.796
10297SOL    HW131790   2.131   1.161   6.819
10297SOL    HW231791   1.983   1.124   6.761
10298SOL     OW31792   1.954   4.511   1.005
10298SOL    HW131793   1.983   4.419   1.031
10298SOL    HW231794   1.986   4.577   1.073
10299SOL     OW31795   3.880   5.476   2.888
10299SOL    HW131796   3.879   5.516   2.980
10299SOL    HW231797   3.949   5.524   2.832
10300SOL     OW31798   1.559   4.342   1.788
10300SOL    HW131799   1.621   4.274   1.827
10300SOL    HW231800   1.466   4.306   1.788
10301SOL     OW31801   4.416   1.871   5.386
10301SOL    HW131802   4.346   1.850   5.318
10301SOL    HW231803   4.372   1.893   5.474
10302SOL     OW31804   2.388   5.989   4.647
10302SOL    HW131805   2.401   5.932   4.566
10302SOL    HW231806   2.337   6.071   4.623
10303SOL     OW31807   1.259   5.724   4.002
10303SOL    HW131808   1.197   5.646   3.998
10303SOL    HW231809   1.295   5.743   3.911
10304SOL     OW31810   5.823   0.338   1.225
10304SOL    HW131811   5.885   0.267   1.194
10304SOL    HW231812   5.870   0.427   1.222
10305SOL     OW31813   1.750   3.931   5.462
10305SOL    HW131814   1.658   3.936   5.424
10305SOL    HW231815   1.812   3.895   5.392
10306SOL     OW31816   5.370   5.769   0.119
10306SOL    HW131817   5.396   5.695   0.056
10306SOL    HW231818   5.372   5.856   0.071
10307SOL     OW31819   3.094   1.338   5.110
10307SOL    HW131820   3.054   1.416   5.062
10307SOL    HW231821   3.194   1.344   5.107
10308SOL     OW31822   1.753   4.205   1.890
10308SOL    HW131823   1.825   4.261   1.850
10308SOL    HW231824   1.789   4.114   1.910
10309SOL     OW31825   0.288   1.428   0.096
10309SOL    HW131826   0.241   1.350   0.056
10309SOL    HW231827   0.221   1.493   0.132
10310SOL     OW31828   3.131   3.670   0.197
10310SOL    HW131829   3.145   3.601   0.268
10310SOL    HW231830   3.177   3.754   0.223
10311SOL     OW31831   6.450   5.425   0.295
10311SOL    HW131832   6.538   5.453   0.335
10311SOL    HW231833   6.441   5.464   0.204
10312SOL     OW31834   4.507   6.353   2.368
10312SOL    HW131835   4.486   6.433   2.312
10312SOL    HW231836   4.539   6.383   2.458
10313SOL     OW31837   3.631   5.894   1.925
10313SOL    HW131838   3.693   5.863   1.853
10313SOL    HW231839   3.659   5.855   2.013
10314SOL     OW31840   6.761   0.332   0.199
10314SOL    HW131841   6.792   0.247   0.241
10314SOL    HW231842   6.669   0.354   0.233
10315SOL     OW31843   5.679   6.233   4.500
10315SOL    HW131844   5.669   6.151   4.556
10315SOL    HW231845   5.771   6.270   4.510
10316SOL     OW31846   6.640   2.842   6.009
10316SOL    HW131847   6.608   2.880   5.922
10316SOL    HW231848   6.712   2.775   5.991
10317SOL     OW31849   4.096   6.259   6.489
10317SOL    HW131850   4.012   6.256   6.435
10317SOL    HW231851   4.094   6.339   6.549
10318SOL     OW31852   4.700   0.703   6.424
10318SOL    HW131853   4.664   0.613   6.401
10318SOL    HW231854   4.624   0.768   6.431
10319SOL     OW31855   0.684   3.622   5.660
10319SOL    HW131856   0.592   3.657   5.676
10319SOL    HW231857   0.739   3.693   5.616
10320SOL     OW31858   0.698   6.526   2.327
10320SOL    HW131859   0.624   6.593   2.324
10320SOL    HW231860   0.785   6.573   2.340
10321SOL     OW31861   5.752   1.982   1.657
10321SOL    HW131862   5.702   1.997   1.571
10321SOL    HW231863   5.803   2.065   1.680
10322SOL     OW31864   4.536   4.953   5.100
10322SOL    HW131865   4.569   4.862   5.078
10322SOL    HW231866   4.443   4.964   5.067
10323SOL     OW31867   5.923   4.759   5.401
10323SOL    HW131868   5.910   4.768   5.302
10323SOL    HW231869   6.017   4.732   5.420
10324SOL     OW31870   3.833   2.979   1.983
10324SOL    HW131871   3.823   2.943   2.076
10324SOL    HW231872   3.901   3.053   1.983
10325SOL     OW31873   6.268   4.293   2.072
10325SOL    HW131874   6.170   4.306   2.054
10325SOL    HW231875   6.290   4.326   2.163
10326SOL     OW31876   5.160   4.681   6.432
10326SOL    HW131877   5.086   4.745   6.411
10326SOL    HW231878   5.243   4.733   6.452
10327SOL     OW31879   2.367   2.776   0.977
10327SOL    HW131880   2.314   2.817   0.904
10327SOL    HW231881   2.422   2.701   0.941
10328SOL     OW31882   6.317   2.730   0.372
10328SOL    HW131883   6.317   2.663   0.446
10328SOL    HW231884   6.392   2.795   0.384
10329SOL     OW31885   2.216   0.626   3.474
10329SOL    HW131886   2.224   0.702   3.539
10329SOL    HW231887   2.283   0.638   3.401
10330SOL     OW31888   4.058   1.030   2.122
10330SOL    HW131889   4.140   0.997   2.076
10330SOL    HW231890   3.978   1.017   2.063
10331SOL     OW31891   6.658   6.454   6.174
10331SOL    HW131892   6.741   6.405   6.148
10331SOL    HW231893   6.681   6.524   6.242
10332SOL     OW31894   6.993   0.408   0.390
10332SOL    HW131895   0.058   0.410   0.339
10332SOL    HW231896   6.985   0.321   0.438
10333SOL     OW31897   1.038   4.488   5.191
10333SOL    HW131898   1.062   4.430   5.269
10333SOL    HW231899   1.117   4.495   5.130
10334SOL     OW31900   3.511   0.925   4.658
10334SOL    HW131901   3.438   0.895   4.719
10334SOL    HW231902   3.541   1.016   4.684
10335SOL     OW31903   2.457   3.972   0.148
10335SOL    HW131904   2.474   3.948   0.053
10335SOL    HW231905   2.396   3.904   0.189
10336SOL     OW31906   6.214   6.986   1.308
10336SOL    HW131907   6.205   6.887   1.308
10336SOL    HW231908   6.295   7.012   1.362
10337SOL     OW31909   0.542   6.226   6.484
10337SOL    HW131910   0.445   6.229   6.508
10337SOL    HW231911   0.555   6.262   6.392
10338SOL     OW31912   1.948   6.379   2.464
10338SOL    HW131913   1.874   6.410   2.405
10338SOL    HW231914   1.981   6.456   2.519
10339SOL     OW31915   5.250   3.256   5.688
10339SOL    HW131916   5.296   3.189   5.745
10339SOL    HW231917   5.156   3.268   5.719
10340SOL     OW31918   1.499   3.469   0.257
10340SOL    HW131919   1.448   3.383   0.260
10340SOL    HW231920   1.587   3.457   0.302
10341SOL     OW31921   2.013   3.679   2.081
10341SOL    HW131922   2.097   3.637   2.046
10341SOL    HW231923   2.019   3.687   2.180
10342SOL     OW31924   2.086   6.998   4.432
10342SOL    HW131925   2.018   0.017   4.371
10342SOL    HW231926   2.133   0.049   4.482
10343SOL     OW31927   3.386   4.945   6.302
10343SOL    HW131928   3.444   4.896   6.237
10343SOL    HW231929   3.341   4.879   6.363
10344SOL     OW31930   4.533   3.071   0.334
10344SOL    HW131931   4.494   3.134   0.402
10344SOL    HW231932   4.632   3.074   0.339
10345SOL     OW31933   1.882   1.493   6.708
10345SOL    HW131934   1.825   1.570   6.678
10345SOL    HW231935   1.844   1.408   6.672
10346SOL     OW31936   0.487   5.102   1.673
10346SOL    HW131937   0.436   5.021   1.700
10346SOL    HW231938   0.452   5.136   1.586
10347SOL     OW31939   3.841   1.101   3.080
10347SOL    HW131940   3.933   1.078   3.111
10347SOL    HW231941   3.843   1.188   3.030
10348SOL     OW31942   6.669   2.726   0.123
10348SOL    HW131943   6.572   2.713   0.144
10348SOL    HW231944   6.721   2.648   0.160
10349SOL     OW31945   1.742   0.505   0.369
10349SOL    HW131946   1.665   0.525   0.428
10349SOL    HW231947   1.729   0.550   0.280
10350SOL     OW31948   2.480   5.713   5.352
10350SOL    HW131949   2.456   5.795   5.301
10350SOL    HW231950   2.493   5.736   5.448
10351SOL     OW31951   4.208   4.899   6.590
10351SOL    HW131952   4.217   4.897   6.491
10351SOL    HW231953   4.121   4.858   6.616
10352SOL     OW31954   3.533   1.230   6.361
10352SOL    HW131955   3.564   1.138   6.338
10352SOL    HW231956   3.522   1.283   6.277
10353SOL     OW31957   6.866   3.690   5.038
10353SOL    HW131958   6.825   3.733   5.119
10353SOL    HW231959   6.796   3.640   4.988
10354SOL     OW31960   5.680   1.906   2.267
10354SOL    HW131961   5.706   1.998   2.238
10354SOL    HW231962   5.582   1.902   2.283
10355SOL     OW31963   2.482   6.661   1.514
10355SOL    HW131964   2.394   6.672   1.561
10355SOL    HW231965   2.493   6.734   1.446
10356SOL     OW31966   0.443   4.863   4.659
10356SOL    HW131967   0.529   4.890   4.617
10356SOL    HW231968   0.426   4.766   4.641
10357SOL     OW31969   1.559   2.855   6.240
10357SOL    HW131970   1.537   2.767   6.282
10357SOL    HW231971   1.494   2.874   6.167
10358SOL     OW31972   6.940   2.854   3.535
10358SOL    HW131973   6.889   2.817   3.612
10358SOL    HW231974   6.981   2.779   3.482
10359SOL     OW31975   0.780   1.902   1.225
10359SOL    HW131976   0.724   1.979   1.256
10359SOL    HW231977   0.733   1.816   1.243
10360SOL     OW31978   4.544   4.771   2.999
10360SOL    HW131979   4.626   4.793   3.052
10360SOL    HW231980   4.475   4.841   3.014
10361SOL     OW31981   2.337   6.182   3.228
10361SOL    HW131982   2.432   6.203   3.206
10361SOL    HW231983   2.321   6.084   3.220
10362SOL     OW31984   1.592   4.732   4.873
10362SOL    HW131985   1.520   4.732   4.943
10362SOL    HW231986   1.677   4.696   4.912
10363SOL     OW31987   4.599   0.954   2.474
10363SOL    HW131988   4.684   0.945   2.526
10363SOL    HW231989   4.526   0.986   2.535
10364SOL     OW31990   3.254   3.117   1.711
10364SOL    HW131991   3.320   3.160   1.772
10364SOL    HW231992   3.172   3.174   1.705
10365SOL     OW31993   4.036   5.161   6.264
10365SOL    HW131994   4.031   5.147   6.165
10365SOL    HW231995   3.997   5.251   6.287
10366SOL     OW31996   2.765   0.223   4.287
10366SOL    HW131997   2.813   0.182   4.210
10366SOL    HW231998   2.668   0.231   4.265
10367SOL     OW31999   5.895   2.400   2.394
10367SOL    HW132000   5.835   2.412   2.473
10367SOL    HW232001   5.981   2.448   2.411
10368SOL     OW32002   2.149   1.890   1.438
10368SOL    HW132003   2.059   1.857   1.408
10368SOL    HW232004   2.218   1.862   1.373
10369SOL     OW32005   4.201   1.249   6.090
10369SOL    HW132006   4.240   1.260   5.999
10369SOL    HW232007   4.274   1.240   6.158
10370SOL     OW32008   5.038   1.588   5.028
10370SOL    HW132009   4.995   1.613   5.115
10370SOL    HW232010   5.005   1.650   4.956
10371SOL     OW32011   3.670   5.686   4.967
10371SOL    HW132012   3.759   5.654   5.001
10371SOL    HW232013   3.641   5.628   4.891
10372SOL     OW32014   1.820   1.166   5.853
10372SOL    HW132015   1.751   1.234   5.828
10372SOL    HW232016   1.846   1.179   5.948
10373SOL     OW32017   2.413   6.425   4.928
10373SOL    HW132018   2.401   6.437   4.829
10373SOL    HW232019   2.484   6.357   4.945
10374SOL     OW32020   3.573   1.240   2.902
10374SOL    HW132021   3.628   1.179   2.845
10374SOL    HW232022   3.480   1.246   2.864
10375SOL     OW32023   4.275   1.812   6.974
10375SOL    HW132024   4.276   1.901   6.930
10375SOL    HW232025   4.188   1.799   0.000
10376SOL     OW32026   1.238   6.505   3.685
10376SOL    HW132027   1.246   6.411   3.654
10376SOL    HW232028   1.188   6.508   3.771
10377SOL     OW32029   6.558   1.090   3.999
10377SOL    HW132030   6.565   1.077   3.900
10377SOL    HW232031   6.486   1.157   4.019
10378SOL     OW32032   6.263   0.781   5.828
10378SOL    HW132033   6.190   0.733   5.879
10378SOL    HW232034   6.292   0.724   5.751
10379SOL     OW32035   4.525   0.426   4.985
10379SOL    HW132036   4.496   0.484   4.909
10379SOL    HW232037   4.614   0.455   5.018
10380SOL     OW32038   6.246   1.093   3.328
10380SOL    HW132039   6.189   1.017   3.297
10380SOL    HW232040   6.266   1.081   3.425
10381SOL     OW32041   4.959   5.720   5.707
10381SOL    HW132042   4.934   5.776   5.786
10381SOL    HW232043   4.883   5.659   5.684
10382SOL     OW32044   2.469   4.794   6.196
10382SOL    HW132045   2.412   4.860   6.245
10382SOL    HW232046   2.562   4.798   6.231
10383SOL     OW32047   0.789   3.436   0.496
10383SOL    HW132048   0.738   3.521   0.482
10383SOL    HW232049   0.791   3.384   0.410
10384SOL     OW32050   0.396   6.801   0.608
10384SOL    HW132051   0.404   6.727   0.541
10384SOL    HW232052   0.306   6.797   0.651
10385SOL     OW32053   4.874   0.113   5.988
10385SOL    HW132054   4.928   0.046   5.937
10385SOL    HW232055   4.878   0.202   5.941
10386SOL     OW32056   0.002   3.850   5.280
10386SOL    HW132057   0.004   3.933   5.335
10386SOL    HW232058   6.930   3.813   5.279
10387SOL     OW32059   3.055   1.774   2.608
10387SOL    HW132060   2.992   1.818   2.671
10387SOL    HW232061   3.141   1.825   2.606
10388SOL     OW32062   0.834   5.663   4.118
10388SOL    HW132063   0.815   5.629   4.210
10388SOL    HW232064   0.864   5.758   4.123
10389SOL     OW32065   0.514   5.650   2.538
10389SOL    HW132066   0.426   5.669   2.494
10389SOL    HW232067   0.557   5.736   2.565
10390SOL     OW32068   1.784   3.985   2.208
10390SOL    HW132069   1.829   4.064   2.251
10390SOL    HW232070   1.685   3.993   2.217
10391SOL     OW32071   1.250   5.955   6.258
10391SOL    HW132072   1.239   6.045   6.300
10391SOL    HW232073   1.312   5.899   6.313
10392SOL     OW32074   6.660   3.689   0.355
10392SOL    HW132075   6.642   3.597   0.389
10392SOL    HW232076   6.720   3.684   0.275
10393SOL     OW32077   0.436   1.596   3.328
10393SOL    HW132078   0.477   1.669   3.274
10393SOL    HW232079   0.340   1.585   3.302
10394SOL     OW32080   2.664   6.701   6.403
10394SOL    HW132081   2.618   6.761   6.468
10394SOL    HW232082   2.724   6.754   6.344
10395SOL     OW32083   6.819   0.881   4.298
10395SOL    HW132084   6.804   0.976   4.271
10395SOL    HW232085   6.823   0.823   4.216
10396SOL     OW32086   0.993   0.642   3.453
10396SOL    HW132087   0.909   0.696   3.446
10396SOL    HW232088   0.988   0.566   3.388
10397SOL     OW32089   3.782   0.868   3.221
10397SOL    HW132090   3.715   0.871   3.295
10397SOL    HW232091   3.791   0.958   3.180
10398SOL     OW32092   6.315   2.531   0.549
10398SOL    HW132093   6.374   2.508   0.627
10398SOL    HW232094   6.244   2.462   0.540
10399SOL     OW32095   4.308   1.890   5.676
10399SOL    HW132096   4.402   1.896   5.708
10399SOL    HW232097   4.266   1.805   5.709
10400SOL     OW32098   3.151   5.942   2.988
10400SOL    HW132099   3.124   6.038   2.998
10400SOL    HW232100   3.219   5.919   3.058
10401SOL     OW32101   6.179   6.267   2.411
10401SOL    HW132102   6.088   6.225   2.412
10401SOL    HW232103   6.237   6.223   2.479
10402SOL     OW32104   0.148   2.924   5.766
10402SOL    HW132105   0.179   3.017   5.744
10402SOL    HW232106   0.126   2.920   5.863
10403SOL     OW32107   5.085   1.551   2.376
10403SOL    HW132108   5.058   1.595   2.291
10403SOL    HW232109   5.100   1.454   2.361
10404SOL     OW32110   1.318   6.761   4.320
10404SOL    HW132111   1.313   6.860   4.336
10404SOL    HW232112   1.228   6.720   4.334
10405SOL     OW32113   1.705   5.331   5.069
10405SOL    HW132114   1.670   5.289   5.152
10405SOL    HW232115   1.677   5.427   5.066
10406SOL     OW32116   2.020   4.893   5.284
10406SOL    HW132117   1.980   4.801   5.283
10406SOL    HW232118   1.970   4.950   5.350
10407SOL     OW32119   1.275   0.935   6.368
10407SOL    HW132120   1.225   1.018   6.393
10407SOL    HW232121   1.312   0.944   6.276
10408SOL     OW32122   4.642   5.280   2.913
10408SOL    HW132123   4.544   5.296   2.922
10408SOL    HW232124   4.686   5.361   2.875
10409SOL     OW32125   0.200   4.062   1.830
10409SOL    HW132126   0.219   4.043   1.926
10409SOL    HW232127   0.125   4.003   1.799
10410SOL     OW32128   4.781   1.239   1.502
10410SOL    HW132129   4.729   1.278   1.426
10410SOL    HW232130   4.861   1.192   1.466
10411SOL     OW32131   1.709   4.812   3.716
10411SOL    HW132132   1.757   4.896   3.690
10411SOL    HW232133   1.687   4.760   3.633
10412SOL     OW32134   0.768   2.110   6.724
10412SOL    HW132135   0.761   2.185   6.790
10412SOL    HW232136   0.860   2.071   6.727
10413SOL     OW32137   1.092   1.842   0.881
10413SOL    HW132138   1.125   1.916   0.822
10413SOL    HW232139   1.013   1.874   0.933
10414SOL     OW32140   5.378   6.240   6.324
10414SOL    HW132141   5.283   6.241   6.295
10414SOL    HW232142   5.427   6.165   6.279
10415SOL     OW32143   1.107   5.487   3.952
10415SOL    HW132144   1.073   5.421   4.019
10415SOL    HW232145   1.036   5.555   3.933
10416SOL     OW32146   6.497   2.174   5.854
10416SOL    HW132147   6.504   2.097   5.917
10416SOL    HW232148   6.486   2.259   5.905
10417SOL     OW32149   4.177   5.243   2.831
10417SOL    HW132150   4.144   5.173   2.893
10417SOL    HW232151   4.100   5.281   2.779
10418SOL     OW32152   6.531   3.728   5.840
10418SOL    HW132153   6.625   3.703   5.862
10418SOL    HW232154   6.530   3.801   5.772
10419SOL     OW32155   3.088   0.814   5.668
10419SOL    HW132156   3.068   0.884   5.737
10419SOL    HW232157   3.050   0.726   5.698
10420SOL     OW32158   6.296   2.986   3.052
10420SOL    HW132159   6.333   3.033   3.132
10420SOL    HW232160   6.371   2.962   2.990
10421SOL     OW32161   1.183   4.656   3.911
10421SOL    HW132162   1.164   4.588   3.840
10421SOL    HW232163   1.262   4.628   3.964
10422SOL     OW32164   6.583   4.089   5.101
10422SOL    HW132165   6.625   4.071   5.012
10422SOL    HW232166   6.499   4.141   5.088
10423SOL     OW32167   3.560   5.012   4.460
10423SOL    HW132168   3.556   5.010   4.560
10423SOL    HW232169   3.627   4.944   4.429
10424SOL     OW32170   4.008   1.350   6.802
10424SOL    HW132171   4.036   1.279   6.867
10424SOL    HW232172   3.979   1.307   6.716
10425SOL     OW32173   1.594   0.243   1.083
10425SOL    HW132174   1.648   0.159   1.094
10425SOL    HW232175   1.652   0.322   1.103
10426SOL     OW32176   5.206   2.705   5.387
10426SOL    HW132177   5.263   2.625   5.407
10426SOL    HW232178   5.265   2.779   5.353
10427SOL     OW32179   4.677   5.781   4.984
10427SOL    HW132180   4.752   5.845   4.965
10427SOL    HW232181   4.603   5.796   4.919
10428SOL     OW32182   1.650   1.503   3.257
10428SOL    HW132183   1.702   1.570   3.205
10428SOL    HW232184   1.554   1.532   3.260
10429SOL     OW32185   1.013   3.472   2.747
10429SOL    HW132186   0.953   3.456   2.825
10429SOL    HW232187   1.057   3.386   2.721
10430SOL     OW32188   3.732   6.195   4.032
10430SOL    HW132189   3.698   6.171   3.941
10430SOL    HW232190   3.760   6.112   4.080
10431SOL     OW32191   2.543   1.920   4.285
10431SOL    HW132192   2.474   1.982   4.321
10431SOL    HW232193   2.561   1.847   4.351
10432SOL     OW32194   6.992   6.897   5.834
10432SOL    HW132195   6.938   6.970   5.877
10432SOL    HW232196   0.062   6.897   5.872
10433SOL     OW32197   2.062   0.026   1.564
10433SOL    HW132198   1.976   7.008   1.594
10433SOL    HW232199   2.073   0.116   1.605
10434SOL     OW32200   4.707   0.724   6.033
10434SOL    HW132201   4.783   0.781   6.062
10434SOL    HW232202   4.731   0.628   6.045
10435SOL     OW32203   0.945   2.267   6.567
10435SOL    HW132204   0.925   2.311   6.480
10435SOL    HW232205   0.900   2.178   6.570
10436SOL     OW32206   0.315   4.128   5.342
10436SOL    HW132207   0.233   4.158   5.390
10436SOL    HW232208   0.293   4.052   5.281
10437SOL     OW32209   4.866   5.076   5.015
10437SOL    HW132210   4.850   5.159   5.068
10437SOL    HW232211   4.926   5.014   5.066
10438SOL     OW32212   6.712   6.407   6.596
10438SOL    HW132213   6.788   6.472   6.587
10438SOL    HW232214   6.709   6.371   6.689
10439SOL     OW32215   6.946   0.535   4.471
10439SOL    HW132216   6.972   0.460   4.410
10439SOL    HW232217   6.954   0.622   4.423
10440SOL     OW32218   0.492   1.517   6.941
10440SOL    HW132219   0.546   1.473   6.868
10440SOL    HW232220   0.440   1.447   6.990
10441SOL     OW32221   3.272   1.356   0.975
10441SOL    HW132222   3.325   1.438   1.000
10441SOL    HW232223   3.200   1.341   1.042
10442SOL     OW32224   2.872   1.049   5.496
10442SOL    HW132225   2.956   1.008   5.461
10442SOL    HW232226   2.825   0.983   5.554
10443SOL     OW32227   0.196   1.754   3.789
10443SOL    HW132228   0.219   1.851   3.775
10443SOL    HW232229   0.097   1.744   3.796
10444SOL     OW32230   3.680   5.303   3.536
10444SOL    HW132231   3.763   5.294   3.591
10444SOL    HW232232   3.608   5.245   3.575
10445SOL     OW32233   1.602   3.827   2.418
10445SOL    HW132234   1.532   3.871   2.361
10445SOL    HW232235   1.643   3.896   2.478
10446SOL     OW32236   1.912   3.912   5.232
10446SOL    HW132237   1.983   3.849   5.264
10446SOL    HW232238   1.881   3.884   5.142
10447SOL     OW32239   6.506   2.326   3.071
10447SOL    HW132240   6.558   2.294   3.149
10447SOL    HW232241   6.415   2.284   3.071
10448SOL     OW32242   2.370   0.199   3.074
10448SOL    HW132243   2.402   0.227   3.164
10448SOL    HW232244   2.296   0.259   3.044
10449SOL     OW32245   3.428   5.812   6.871
10449SOL    HW132246   3.445   5.801   6.773
10449SOL    HW232247   3.338   5.852   6.886
10450SOL     OW32248   6.276   0.464   5.848
10450SOL    HW132249   6.249   0.478   5.752
10450SOL    HW232250   6.344   0.391   5.853
10451SOL     OW32251   1.825   0.779   4.247
10451SOL    HW132252   1.806   0.752   4.153
10451SOL    HW232253   1.765   0.855   4.273
10452SOL     OW32254   6.878   3.593   3.699
10452SOL    HW132255   6.944   3.667   3.687
10452SOL    HW232256   6.843   3.564   3.610
10453SOL     OW32257   4.243   5.987   3.443
10453SOL    HW132258   4.280   6.079   3.433
10453SOL    HW232259   4.214   5.972   3.538
10454SOL     OW32260   6.523   1.663   6.890
10454SOL    HW132261   6.472   1.745   6.862
10454SOL    HW232262   6.544   1.609   6.809
10455SOL     OW32263   6.216   6.430   4.322
10455SOL    HW132264   6.228   6.516   4.273
10455SOL    HW232265   6.236   6.443   4.419
10456SOL     OW32266   6.641   5.479   6.985
10456SOL    HW132267   6.557   5.525   7.014
10456SOL    HW232268   6.700   5.464   0.043
10457SOL     OW32269   3.800   2.880   0.079
10457SOL    HW132270   3.859   2.863   0.158
10457SOL    HW232271   3.734   2.806   0.070
10458SOL     OW32272   6.906   0.099   6.354
10458SOL    HW132273   6.875   0.026   6.294
10458SOL    HW232274   6.920   0.063   6.446
10459SOL     OW32275   6.781   5.360   0.168
10459SOL    HW132276   6.748   5.268   0.187
10459SOL    HW232277   6.777   5.415   0.252
10460SOL     OW32278   0.022   3.853   1.326
10460SOL    HW132279   6.998   3.770   1.358
10460SOL    HW232280   6.983   3.902   1.264
10461SOL     OW32281   6.615   4.732   5.226
10461SOL    HW132282   6.713   4.715   5.237
10461SOL    HW232283   6.563   4.667   5.281
10462SOL     OW32284   5.084   1.828   1.479
10462SOL    HW132285   5.043   1.772   1.551
10462SOL    HW232286   5.035   1.914   1.472
10463SOL     OW32287   4.689   2.737   6.440
10463SOL    HW132288   4.705   2.666   6.371
10463SOL    HW232289   4.609   2.713   6.494
10464SOL     OW32290   5.400   5.335   3.050
10464SOL    HW132291   5.368   5.429   3.060
10464SOL    HW232292   5.332   5.272   3.089
10465SOL     OW32293   4.971   3.788   2.468
10465SOL    HW132294   4.941   3.694   2.481
10465SOL    HW232295   4.991   3.804   2.371
10466SOL     OW32296   5.761   4.560   6.012
10466SOL    HW132297   5.780   4.521   6.102
10466SOL    HW232298   5.693   4.633   6.021
10467SOL     OW32299   2.044   2.726   6.878
10467SOL    HW132300   1.991   2.681   6.950
10467SOL    HW232301   2.087   2.656   6.820
10468SOL     OW32302   2.513   4.642   3.716
10468SOL    HW132303   2.592   4.702   3.705
10468SOL    HW232304   2.498   4.624   3.813
10469SOL     OW32305   5.864   2.192   5.631
10469SOL    HW132306   5.892   2.272   5.685
10469SOL    HW232307   5.841   2.117   5.693
10470SOL     OW32308   2.349   2.138   4.313
10470SOL    HW132309   2.272   2.082   4.284
10470SOL    HW232310   2.336   2.232   4.282
10471SOL     OW32311   2.608   0.706   0.128
10471SOL    HW132312   2.695   0.671   0.092
10471SOL    HW232313   2.627   0.778   0.196
10472SOL     OW32314   3.415   4.520   0.729
10472SOL    HW132315   3.378   4.599   0.682
10472SOL    HW232316   3.512   4.534   0.746
10473SOL     OW32317   5.268   5.763   5.991
10473SOL    HW132318   5.216   5.830   6.043
10473SOL    HW232319   5.306   5.695   6.054
10474SOL     OW32320   5.413   1.018   3.851
10474SOL    HW132321   5.387   1.103   3.806
10474SOL    HW232322   5.427   1.034   3.949
10475SOL     OW32323   2.255   6.204   1.984
10475SOL    HW132324   2.351   6.224   2.006
10475SOL    HW232325   2.240   6.105   1.989
10476SOL     OW32326   4.042   5.891   6.268
10476SOL    HW132327   3.995   5.956   6.327
10476SOL    HW232328   4.087   5.822   6.324
10477SOL     OW32329   0.038   6.112   4.122
10477SOL    HW132330   7.003   6.181   4.076
10477SOL    HW232331   0.101   6.072   4.056
10478SOL     OW32332   6.065   6.902   7.018
10478SOL    HW132333   6.078   7.001   0.001
10478SOL    HW232334   6.112   6.858   0.073
10479SOL     OW32335   6.767   2.945   2.469
10479SOL    HW132336   6.697   2.991   2.414
10479SOL    HW232337   6.852   2.938   2.417
10480SOL     OW32338   1.576   0.235   2.411
10480SOL    HW132339   1.595   0.256   2.315
10480SOL    HW232340   1.643   0.283   2.469
10481SOL     OW32341   0.680   6.837   2.956
10481SOL    HW132342   0.592   6.852   2.910
10481SOL    HW232343   0.744   6.908   2.929
10482SOL     OW32344   6.124   4.553   4.535
10482SOL    HW132345   6.203   4.614   4.534
10482SOL    HW232346   6.105   4.525   4.629
10483SOL     OW32347   5.709   5.285   6.961
10483SOL    HW132348   5.766   5.275   0.021
10483SOL    HW232349   5.763   5.325   6.887
10484SOL     OW32350   5.326   1.187   0.973
10484SOL    HW132351   5.389   1.204   1.049
10484SOL    HW232352   5.257   1.120   1.002
10485SOL     OW32353   3.998   4.426   6.140
10485SOL    HW132354   4.022   4.462   6.231
10485SOL    HW232355   3.985   4.327   6.146
10486SOL     OW32356   6.544   2.546   0.712
10486SOL    HW132357   6.540   2.637   0.754
10486SOL    HW232358   6.591   2.483   0.774
10487SOL     OW32359   5.710   6.762   1.785
10487SOL    HW132360   5.806   6.764   1.758
10487SOL    HW232361   5.652   6.776   1.705
10488SOL     OW32362   2.636   3.159   6.383
10488SOL    HW132363   2.631   3.090   6.455
10488SOL    HW232364   2.720   3.212   6.394
10489SOL     OW32365   0.530   6.535   6.090
10489SOL    HW132366   0.444   6.569   6.126
10489SOL    HW232367   0.553   6.585   6.006
10490SOL     OW32368   6.170   1.572   2.739
10490SOL    HW132369   6.138   1.481   2.763
10490SOL    HW232370   6.242   1.599   2.803
10491SOL     OW32371   1.498   3.621   6.380
10491SOL    HW132372   1.419   3.604   6.439
10491SOL    HW232373   1.581   3.590   6.425
10492SOL     OW32374   4.915   3.749   5.457
10492SOL    HW132375   4.827   3.706   5.475
10492SOL    HW232376   4.911   3.799   5.371
10493SOL     OW32377   3.447   0.556   1.401
10493SOL    HW132378   3.350   0.551   1.424
10493SOL    HW232379   3.500   0.564   1.486
10494SOL     OW32380   5.569   2.067   4.777
10494SOL    HW132381   5.568   2.146   4.715
10494SOL    HW232382   5.648   2.010   4.756
10495SOL     OW32383   1.403   6.922   0.783
10495SOL    HW132384   1.408   6.947   0.879
10495SOL    HW232385   1.495   6.906   0.747
10496SOL     OW32386   0.370   6.652   0.314
10496SOL    HW132387   0.454   6.605   0.286
10496SOL    HW232388   0.308   6.587   0.358
10497SOL     OW32389   1.783   0.413   1.009
10497SOL    HW132390   1.775   0.510   1.032
10497SOL    HW232391   1.819   0.402   0.917
10498SOL     OW32392   2.635   6.709   0.053
10498SOL    HW132393   2.659   6.696   0.150
10498SOL    HW232394   2.636   6.620   0.007
10499SOL     OW32395   2.447   6.432   2.959
10499SOL    HW132396   2.514   6.506   2.971
10499SOL    HW232397   2.459   6.365   3.034
10500SOL     OW32398   0.530   1.005   5.523
10500SOL    HW132399   0.480   1.047   5.599
10500SOL    HW232400   0.626   0.994   5.549
10501SOL     OW32401   1.774   5.184   3.396
10501SOL    HW132402   1.813   5.092   3.402
10501SOL    HW232403   1.839   5.245   3.351
10502SOL     OW32404   3.301   6.608   1.209
10502SOL    HW132405   3.250   6.613   1.123
10502SOL    HW232406   3.392   6.571   1.192
10503SOL     OW32407   4.317   2.859   0.336
10503SOL    HW132408   4.324   2.812   0.424
10503SOL    HW232409   4.400   2.912   0.320
10504SOL     OW32410   1.800   2.553   0.478
10504SOL    HW132411   1.870   2.486   0.505
10504SOL    HW232412   1.794   2.625   0.547
10505SOL     OW32413   5.893   6.158   0.656
10505SOL    HW132414   5.796   6.154   0.680
10505SOL    HW232415   5.903   6.170   0.557
10506SOL     OW32416   0.506   4.938   6.286
10506SOL    HW132417   0.431   4.883   6.320
10506SOL    HW232418   0.550   4.986   6.363
10507SOL     OW32419   2.106   6.927   0.559
10507SOL    HW132420   2.051   6.845   0.545
10507SOL    HW232421   2.049   6.999   0.599
10508SOL     OW32422   5.964   5.794   4.049
10508SOL    HW132423   5.954   5.715   3.989
10508SOL    HW232424   6.061   5.813   4.063
10509SOL     OW32425   1.015   6.795   6.373
10509SOL    HW132426   1.002   6.859   6.449
10509SOL    HW232427   0.926   6.766   6.338
10510SOL     OW32428   5.896   4.932   5.925
10510SOL    HW132429   5.816   4.887   5.885
10510SOL    HW232430   5.977   4.912   5.870
10511SOL     OW32431   4.601   3.075   0.750
10511SOL    HW132432   4.647   3.044   0.834
10511SOL    HW232433   4.586   2.996   0.690
10512SOL     OW32434   3.904   1.225   6.563
10512SOL    HW132435   3.901   1.285   6.484
10512SOL    HW232436   3.930   1.133   6.534
10513SOL     OW32437   6.722   2.493   6.112
10513SOL    HW132438   6.722   2.552   6.192
10513SOL    HW232439   6.760   2.542   6.034
10514SOL     OW32440   6.604   3.970   0.333
10514SOL    HW132441   6.630   3.883   0.291
10514SOL    HW232442   6.605   4.042   0.263
10515SOL     OW32443   6.045   2.519   3.026
10515SOL    HW132444   6.013   2.516   3.120
10515SOL    HW232445   6.066   2.427   2.994
10516SOL     OW32446   4.830   1.056   6.528
10516SOL    HW132447   4.911   1.020   6.572
10516SOL    HW232448   4.818   1.152   6.553
10517SOL     OW32449   1.005   2.220   2.162
10517SOL    HW132450   1.083   2.260   2.115
10517SOL    HW232451   1.023   2.217   2.261
10518SOL     OW32452   0.741   5.162   6.991
10518SOL    HW132453   0.751   5.203   0.060
10518SOL    HW232454   0.646   5.131   6.979
10519SOL     OW32455   3.321   2.616   5.654
10519SOL    HW132456   3.314   2.543   5.722
10519SOL    HW232457   3.267   2.592   5.573
10520SOL     OW32458   2.526   2.812   6.753
10520SOL    HW132459   2.563   2.875   6.822
10520SOL    HW232460   2.601   2.759   6.713
10521SOL     OW32461   6.382   5.730   1.287
10521SOL    HW132462   6.350   5.805   1.346
10521SOL    HW232463   6.429   5.769   1.208
10522SOL     OW32464   6.306   0.275   0.344
10522SOL    HW132465   6.376   0.342   0.367
10522SOL    HW232466   6.242   0.314   0.277
10523SOL     OW32467   0.292   6.100   4.618
10523SOL    HW132468   0.375   6.139   4.577
10523SOL    HW232469   0.317   6.021   4.674
10524SOL     OW32470   1.870   0.751   5.331
10524SOL    HW132471   1.887   0.657   5.303
10524SOL    HW232472   1.803   0.793   5.270
10525SOL     OW32473   2.912   6.598   5.562
10525SOL    HW132474   2.872   6.605   5.653
10525SOL    HW232475   2.860   6.533   5.507
10526SOL     OW32476   0.608   0.293   2.667
10526SOL    HW132477   0.628   0.243   2.583
10526SOL    HW232478   0.516   0.331   2.662
10527SOL     OW32479   1.237   3.057   4.013
10527SOL    HW132480   1.306   3.129   4.026
10527SOL    HW232481   1.268   2.994   3.942
10528SOL     OW32482   1.102   3.719   5.082
10528SOL    HW132483   1.199   3.742   5.089
10528SOL    HW232484   1.066   3.700   5.174
10529SOL     OW32485   1.106   5.969   2.699
10529SOL    HW132486   1.009   5.956   2.722
10529SOL    HW232487   1.114   6.006   2.607
10530SOL     OW32488   2.009   1.139   6.465
10530SOL    HW132489   2.072   1.217   6.453
10530SOL    HW232490   1.992   1.096   6.376
10531SOL     OW32491   2.184   3.417   4.432
10531SOL    HW132492   2.191   3.336   4.490
10531SOL    HW232493   2.167   3.389   4.338
10532SOL     OW32494   2.256   3.201   0.515
10532SOL    HW132495   2.352   3.177   0.527
10532SOL    HW232496   2.212   3.209   0.605
10533SOL     OW32497   3.112   1.501   4.455
10533SOL    HW132498   3.106   1.504   4.555
10533SOL    HW232499   3.026   1.531   4.415
10534SOL     OW32500   7.000   5.856   0.577
10534SOL    HW132501   6.929   5.787   0.566
10534SOL    HW232502   0.063   5.812   0.607
10535SOL     OW32503   0.492   2.350   2.264
10535SOL    HW132504   0.398   2.381   2.276
10535SOL    HW232505   0.547   2.375   2.344
10536SOL     OW32506   3.739   0.094   2.783
10536SOL    HW132507   3.704   0.185   2.805
10536SOL    HW232508   3.676   0.024   2.815
10537SOL     OW32509   3.514   5.439   3.378
10537SOL    HW132510   3.572   5.417   3.457
10537SOL    HW232511   3.456   5.360   3.357
10538SOL     OW32512   4.684   2.933   6.642
10538SOL    HW132513   4.748   2.866   6.680
10538SOL    HW232514   4.679   2.921   6.543
10539SOL     OW32515   0.540   4.275   6.222
10539SOL    HW132516   0.603   4.202   6.200
10539SOL    HW232517   0.586   4.344   6.277
10540SOL     OW32518   1.389   0.951   6.130
10540SOL    HW132519   1.356   1.040   6.101
10540SOL    HW232520   1.483   0.938   6.097
10541SOL     OW32521   3.436   3.784   1.553
10541SOL    HW132522   3.406   3.856   1.490
10541SOL    HW232523   3.393   3.798   1.642
10542SOL     OW32524   0.018   1.233   0.709
10542SOL    HW132525   0.075   1.251   0.629
10542SOL    HW232526   6.944   1.253   0.688
10543SOL     OW32527   0.050   1.229   5.070
10543SOL    HW132528   6.984   1.183   5.059
10543SOL    HW232529   0.094   1.240   4.981
10544SOL     OW32530   2.028   1.139   2.915
10544SOL    HW132531   1.998   1.084   2.993
10544SOL    HW232532   2.108   1.097   2.872
10545SOL     OW32533   6.762   6.609   2.762
10545SOL    HW132534   6.707   6.532   2.793
10545SOL    HW232535   6.731   6.692   2.809
10546SOL     OW32536   1.175   0.780   5.278
10546SOL    HW132537   1.263   0.825   5.261
10546SOL    HW232538   1.128   0.766   5.191
10547SOL     OW32539   4.774   1.463   2.226
10547SOL    HW132540   4.764   1.499   2.319
10547SOL    HW232541   4.803   1.368   2.230
10548SOL     OW32542   5.149   3.840   4.845
10548SOL    HW132543   5.052   3.815   4.848
10548SOL    HW232544   5.165   3.919   4.904
10549SOL     OW32545   6.809   0.550   2.191
10549SOL    HW132546   6.803   0.553   2.291
10549SOL    HW232547   6.717   0.547   2.152
10550SOL     OW32548   4.457   6.534   4.022
10550SOL    HW132549   4.431   6.613   4.078
10550SOL    HW232550   4.484   6.566   3.931
10551SOL     OW32551   1.757   2.274   5.066
10551SOL    HW132552   1.659   2.254   5.074
10551SOL    HW232553   1.789   2.316   5.151
10552SOL     OW32554   3.663   2.047   5.342
10552SOL    HW132555   3.591   2.085   5.285
10552SOL    HW232556   3.660   1.947   5.338
10553SOL     OW32557   1.008   4.997   1.340
10553SOL    HW132558   0.918   4.964   1.310
10553SOL    HW232559   1.061   5.025   1.260
10554SOL     OW32560   5.406   4.618   6.890
10554SOL    HW132561   5.363   4.606   6.800
10554SOL    HW232562   5.372   4.548   6.953
10555SOL     OW32563   3.033   2.112   1.625
10555SOL    HW132564   3.048   2.067   1.537
10555SOL    HW232565   3.122   2.134   1.666
10556SOL     OW32566   1.974   2.999   4.859
10556SOL    HW132567   1.913   3.011   4.937
10556SOL    HW232568   2.023   3.084   4.841
10557SOL     OW32569   1.209   2.526   3.377
10557SOL    HW132570   1.244   2.453   3.437
10557SOL    HW232571   1.151   2.587   3.430
10558SOL     OW32572   4.163   0.035   4.908
10558SOL    HW132573   4.200   0.050   4.816
10558SOL    HW232574   4.067   0.061   4.910
10559SOL     OW32575   4.037   1.101   1.235
10559SOL    HW132576   3.978   1.097   1.315
10559SOL    HW232577   4.014   1.183   1.181
10560SOL     OW32578   2.251   5.601   4.710
10560SOL    HW132579   2.204   5.515   4.694
10560SOL    HW232580   2.219   5.669   4.643
10561SOL     OW32581   2.232   4.979   0.208
10561SOL    HW132582   2.331   4.971   0.206
10561SOL    HW232583   2.194   4.943   0.123
10562SOL     OW32584   4.892   0.025   0.544
10562SOL    HW132585   4.965   6.985   0.513
10562SOL    HW232586   4.924   0.119   0.536
10563SOL     OW32587   1.890   1.169   4.624
10563SOL    HW132588   1.960   1.241   4.626
10563SOL    HW232589   1.927   1.088   4.578
10564SOL     OW32590   5.986   0.535   1.761
10564SOL    HW132591   5.931   0.597   1.704
10564SOL    HW232592   5.966   0.440   1.736
10565SOL     OW32593   0.768   0.794   5.439
10565SOL    HW132594   0.758   0.840   5.527
10565SOL    HW232595   0.855   0.819   5.398
10566SOL     OW32596   4.143   3.497   6.632
10566SOL    HW132597   4.222   3.437   6.617
10566SOL    HW232598   4.101   3.476   6.720
10567SOL     OW32599   2.042   3.552   3.945
10567SOL    HW132600   2.023   3.480   3.878
10567SOL    HW232601   2.092   3.626   3.901
10568SOL     OW32602   5.537   1.294   1.815
10568SOL    HW132603   5.467   1.362   1.836
10568SOL    HW232604   5.543   1.228   1.890
10569SOL     OW32605   6.629   3.089   2.297
10569SOL    HW132606   6.600   3.181   2.327
10569SOL    HW232607   6.571   3.060   2.221
10570SOL     OW32608   1.392   4.920   2.780
10570SOL    HW132609   1.441   4.844   2.823
10570SOL    HW232610   1.323   4.883   2.718
10571SOL     OW32611   6.783   5.637   3.964
10571SOL    HW132612   6.846   5.693   4.018
10571SOL    HW232613   6.739   5.570   4.024
10572SOL     OW32614   6.070   3.671   3.379
10572SOL    HW132615   6.020   3.753   3.410
10572SOL    HW232616   6.096   3.682   3.283
10573SOL     OW32617   5.798   6.518   3.025
10573SOL    HW132618   5.822   6.579   2.949
10573SOL    HW232619   5.814   6.423   2.997
10574SOL     OW32620   1.541   1.775   3.710
10574SOL    HW132621   1.445   1.752   3.698
10574SOL    HW232622   1.596   1.728   3.640
10575SOL     OW32623   0.325   0.660   4.155
10575SOL    HW132624   0.409   0.665   4.101
10575SOL    HW232625   0.323   0.572   4.204
10576SOL     OW32626   0.968   6.809   4.820
10576SOL    HW132627   0.938   6.733   4.877
10576SOL    HW232628   1.065   6.798   4.797
10577SOL     OW32629   1.009   3.293   6.602
10577SOL    HW132630   1.071   3.329   6.672
10577SOL    HW232631   1.062   3.257   6.525
10578SOL     OW32632   6.226   0.659   4.492
10578SOL    HW132633   6.171   0.710   4.427
10578SOL    HW232634   6.315   0.637   4.451
10579SOL     OW32635   4.155   1.414   0.548
10579SOL    HW132636   4.098   1.343   0.588
10579SOL    HW232637   4.250   1.383   0.545
10580SOL     OW32638   6.547   6.519   7.020
10580SOL    HW132639   6.476   6.449   7.011
10580SOL    HW232640   6.637   6.475   7.020
10581SOL     OW32641   6.002   0.128   2.601
10581SOL    HW132642   5.937   0.091   2.668
10581SOL    HW232643   6.086   0.155   2.648
10582SOL     OW32644   3.647   4.544   6.296
10582SOL    HW132645   3.605   4.454   6.295
10582SOL    HW232646   3.690   4.559   6.385
10583SOL     OW32647   4.197   0.950   6.563
10583SOL    HW132648   4.135   0.882   6.603
10583SOL    HW232649   4.151   0.999   6.490
10584SOL     OW32650   5.660   6.512   1.367
10584SOL    HW132651   5.646   6.428   1.315
10584SOL    HW232652   5.651   6.492   1.465
10585SOL     OW32653   1.597   3.018   5.752
10585SOL    HW132654   1.648   2.948   5.702
10585SOL    HW232655   1.542   2.975   5.823
10586SOL     OW32656   1.569   6.014   5.853
10586SOL    HW132657   1.490   6.073   5.836
10586SOL    HW232658   1.578   5.948   5.779
10587SOL     OW32659   5.838   3.142   0.225
10587SOL    HW132660   5.760   3.093   0.265
10587SOL    HW232661   5.805   3.221   0.174
10588SOL     OW32662   1.479   3.982   2.171
10588SOL    HW132663   1.488   4.060   2.109
10588SOL    HW232664   1.393   3.990   2.222
10589SOL     OW32665   5.392   1.547   4.283
10589SOL    HW132666   5.425   1.466   4.235
10589SOL    HW232667   5.331   1.520   4.357
10590SOL     OW32668   1.310   0.047   2.163
10590SOL    HW132669   1.257   6.984   2.164
10590SOL    HW232670   1.390   0.037   2.104
10591SOL     OW32671   1.333   1.647   5.408
10591SOL    HW132672   1.374   1.736   5.430
10591SOL    HW232673   1.235   1.649   5.429
10592SOL     OW32674   4.923   2.262   0.451
10592SOL    HW132675   4.863   2.328   0.406
10592SOL    HW232676   4.933   2.286   0.547
10593SOL     OW32677   2.733   5.370   0.878
10593SOL    HW132678   2.720   5.446   0.814
10593SOL    HW232679   2.830   5.354   0.892
10594SOL     OW32680   5.801   2.198   3.773
10594SOL    HW132681   5.820   2.256   3.853
10594SOL    HW232682   5.860   2.117   3.776
10595SOL     OW32683   3.153   6.692   5.868
10595SOL    HW132684   3.178   6.671   5.773
10595SOL    HW232685   3.152   6.607   5.921
10596SOL     OW32686   4.075   6.718   1.795
10596SOL    HW132687   4.042   6.722   1.890
10596SOL    HW232688   4.029   6.789   1.741
10597SOL     OW32689   2.803   1.313   4.361
10597SOL    HW132690   2.816   1.372   4.441
10597SOL    HW232691   2.722   1.343   4.311
10598SOL     OW32692   2.415   2.046   6.864
10598SOL    HW132693   2.514   2.031   6.867
10598SOL    HW232694   2.384   2.050   6.768
10599SOL     OW32695   5.426   1.014   0.309
10599SOL    HW132696   5.326   1.015   0.298
10599SOL    HW232697   5.467   1.081   0.247
10600SOL     OW32698   2.112   2.971   6.861
10600SOL    HW132699   2.094   2.874   6.851
10600SOL    HW232700   2.109   2.996   6.958
10601SOL     OW32701   2.519   5.104   6.361
10601SOL    HW132702   2.565   5.016   6.373
10601SOL    HW232703   2.421   5.089   6.351
10602SOL     OW32704   5.473   1.679   2.043
10602SOL    HW132705   5.427   1.765   2.064
10602SOL    HW232706   5.526   1.689   1.959
10603SOL     OW32707   1.914   6.271   3.436
10603SOL    HW132708   1.907   6.178   3.470
10603SOL    HW232709   1.993   6.316   3.476
10604SOL     OW32710   5.741   4.601   4.439
10604SOL    HW132711   5.680   4.542   4.386
10604SOL    HW232712   5.833   4.597   4.400
10605SOL     OW32713   0.525   5.361   6.758
10605SOL    HW132714   0.622   5.348   6.780
10605SOL    HW232715   0.478   5.273   6.767
10606SOL     OW32716   6.317   0.541   1.799
10606SOL    HW132717   6.391   0.576   1.742
10606SOL    HW232718   6.276   0.615   1.852
10607SOL     OW32719   3.942   4.147   6.152
10607SOL    HW132720   3.867   4.081   6.162
10607SOL    HW232721   4.007   4.114   6.083
10608SOL     OW32722   6.001   2.010   5.013
10608SOL    HW132723   6.039   1.954   5.087
10608SOL    HW232724   6.019   1.965   4.925
10609SOL     OW32725   3.534   5.572   1.261
10609SOL    HW132726   3.624   5.591   1.222
10609SOL    HW232727   3.488   5.501   1.207
10610SOL     OW32728   1.003   4.228   6.954
10610SOL    HW132729   1.042   4.314   6.986
10610SOL    HW232730   0.990   4.231   6.855
10611SOL     OW32731   5.602   3.200   0.054
10611SOL    HW132732   5.668   3.199   7.001
10611SOL    HW232733   5.537   3.125   0.043
10612SOL     OW32734   2.304   6.709   6.114
10612SOL    HW132735   2.247   6.774   6.164
10612SOL    HW232736   2.254   6.673   6.035
10613SOL     OW32737   6.894   6.877   6.209
10613SOL    HW132738   6.854   6.819   6.138
10613SOL    HW232739   6.942   6.820   6.275
10614SOL     OW32740   0.085   1.432   3.974
10614SOL    HW132741   0.006   1.458   3.919
10614SOL    HW232742   0.127   1.515   4.012
10615SOL     OW32743   3.884   5.542   5.060
10615SOL    HW132744   3.817   5.490   5.114
10615SOL    HW232745   3.907   5.626   5.108
10616SOL     OW32746   3.158   6.329   0.323
10616SOL    HW132747   3.119   6.380   0.246
10616SOL    HW232748   3.192   6.241   0.290
10617SOL     OW32749   2.162   2.226   0.976
10617SOL    HW132750   2.156   2.142   0.922
10617SOL    HW232751   2.120   2.211   1.066
10618SOL     OW32752   6.695   2.518   0.472
10618SOL    HW132753   6.642   2.541   0.553
10618SOL    HW232754   6.633   2.501   0.395
10619SOL     OW32755   0.738   3.757   2.679
10619SOL    HW132756   0.781   3.809   2.753
10619SOL    HW232757   0.649   3.723   2.709
10620SOL     OW32758   1.064   5.616   5.514
10620SOL    HW132759   0.997   5.645   5.582
10620SOL    HW232760   1.156   5.632   5.549
10621SOL     OW32761   1.633   5.709   0.202
10621SOL    HW132762   1.620   5.617   0.238
10621SOL    HW232763   1.718   5.748   0.237
10622SOL     OW32764   4.317   0.914   2.041
10622SOL    HW132765   4.326   0.815   2.051
10622SOL    HW232766   4.377   0.946   1.968
10623SOL     OW32767   5.600   2.806   3.903
10623SOL    HW132768   5.606   2.775   3.998
10623SOL    HW232769   5.518   2.768   3.861
10624SOL     OW32770   0.939   1.377   5.341
10624SOL    HW132771   0.958   1.360   5.245
10624SOL    HW232772   0.860   1.323   5.369
10625SOL     OW32773   0.503   4.504   6.972
10625SOL    HW132774   0.508   4.585   6.915
10625SOL    HW232775   0.590   4.454   6.968
10626SOL     OW32776   1.234   2.500   1.693
10626SOL    HW132777   1.226   2.491   1.792
10626SOL    HW232778   1.189   2.422   1.649
10627SOL     OW32779   6.527   6.326   2.426
10627SOL    HW132780   6.475   6.241   2.430
10627SOL    HW232781   6.623   6.308   2.448
10628SOL     OW32782   5.895   5.397   5.451
10628SOL    HW132783   5.948   5.465   5.400
10628SOL    HW232784   5.840   5.443   5.521
10629SOL     OW32785   2.405   4.281   6.108
10629SOL    HW132786   2.329   4.297   6.045
10629SOL    HW232787   2.412   4.357   6.172
10630SOL     OW32788   6.179   0.594   3.778
10630SOL    HW132789   6.080   0.583   3.765
10630SOL    HW232790   6.226   0.509   3.754
10631SOL     OW32791   1.199   6.304   4.169
10631SOL    HW132792   1.260   6.381   4.153
10631SOL    HW232793   1.253   6.219   4.171
10632SOL     OW32794   6.008   2.104   4.437
10632SOL    HW132795   5.915   2.074   4.458
10632SOL    HW232796   6.059   2.118   4.522
10633SOL     OW32797   2.693   4.402   1.243
10633SOL    HW132798   2.707   4.353   1.328
10633SOL    HW232799   2.709   4.340   1.166
10634SOL     OW32800   2.866   5.651   0.150
10634SOL    HW132801   2.800   5.720   0.178
10634SOL    HW232802   2.910   5.611   0.231
10635SOL     OW32803   3.304   0.855   1.083
10635SOL    HW132804   3.386   0.882   1.034
10635SOL    HW232805   3.327   0.789   1.154
10636SOL     OW32806   0.710   1.773   1.703
10636SOL    HW132807   0.807   1.750   1.710
10636SOL    HW232808   0.655   1.692   1.726
10637SOL     OW32809   3.445   3.954   5.464
10637SOL    HW132810   3.390   4.037   5.463
10637SOL    HW232811   3.538   3.975   5.494
10638SOL     OW32812   0.618   6.734   3.647
10638SOL    HW132813   0.577   6.665   3.587
10638SOL    HW232814   0.563   6.817   3.643
10639SOL     OW32815   0.853   1.653   3.933
10639SOL    HW132816   0.905   1.725   3.888
10639SOL    HW232817   0.804   1.691   4.011
10640SOL     OW32818   4.348   0.239   6.546
10640SOL    HW132819   4.294   0.155   6.545
10640SOL    HW232820   4.388   0.254   6.455
10641SOL     OW32821   4.542   1.556   0.219
10641SOL    HW132822   4.562   1.627   0.286
10641SOL    HW232823   4.506   1.598   0.135
10642SOL     OW32824   0.433   2.252   1.319
10642SOL    HW132825   0.347   2.256   1.370
10642SOL    HW232826   0.478   2.341   1.321
10643SOL     OW32827   2.396   3.989   5.734
10643SOL    HW132828   2.347   4.029   5.656
10643SOL    HW232829   2.341   3.998   5.817
10644SOL     OW32830   4.545   1.775   4.261
10644SOL    HW132831   4.522   1.690   4.213
10644SOL    HW232832   4.578   1.842   4.195
10645SOL     OW32833   0.919   1.078   4.429
10645SOL    HW132834   0.880   0.997   4.471
10645SOL    HW232835   1.012   1.058   4.398
10646SOL     OW32836   0.669   2.375   5.918
10646SOL    HW132837   0.711   2.464   5.939
10646SOL    HW232838   0.712   2.305   5.975
10647SOL     OW32839   5.801   5.343   6.469
10647SOL    HW132840   5.894   5.344   6.432
10647SOL    HW232841   5.761   5.252   6.455
10648SOL     OW32842   5.279   3.537   6.710
10648SOL    HW132843   5.309   3.631   6.725
10648SOL    HW232844   5.181   3.535   6.693
10649SOL     OW32845   0.032   4.710   4.785
10649SOL    HW132846   6.965   4.712   4.831
10649SOL    HW232847   0.046   4.796   4.736
10650SOL     OW32848   1.634   6.491   3.962
10650SOL    HW132849   1.672   6.411   3.917
10650SOL    HW232850   1.689   6.572   3.940
10651SOL     OW32851   4.580   6.707   5.333
10651SOL    HW132852   4.483   6.707   5.357
10651SOL    HW232853   4.632   6.755   5.404
10652SOL     OW32854   3.434   0.117   6.425
10652SOL    HW132855   3.486   0.033   6.411
10652SOL    HW232856   3.362   0.100   6.492
10653SOL     OW32857   5.308   4.548   4.780
10653SOL    HW132858   5.325   4.476   4.712
10653SOL    HW232859   5.210   4.569   4.782
10654SOL     OW32860   3.103   0.311   1.700
10654SOL    HW132861   3.016   0.269   1.675
10654SOL    HW232862   3.172   0.239   1.711
10655SOL     OW32863   3.193   5.471   2.239
10655SOL    HW132864   3.110   5.474   2.296
10655SOL    HW232865   3.167   5.458   2.143
10656SOL     OW32866   6.547   2.395   6.717
10656SOL    HW132867   6.588   2.481   6.687
10656SOL    HW232868   6.545   2.392   6.817
10657SOL     OW32869   6.061   6.861   1.016
10657SOL    HW132870   6.072   6.924   0.940
10657SOL    HW232871   6.150   6.842   1.057
10658SOL     OW32872   1.097   4.152   5.088
10658SOL    HW132873   1.023   4.219   5.080
10658SOL    HW232874   1.107   4.103   5.001
10659SOL     OW32875   5.785   0.062   0.946
10659SOL    HW132876   5.836   0.112   0.876
10659SOL    HW232877   5.782   6.987   0.923
10660SOL     OW32878   4.817   3.724   5.857
10660SOL    HW132879   4.865   3.797   5.809
10660SOL    HW232880   4.790   3.653   5.792
10661SOL     OW32881   0.068   6.735   2.165
10661SOL    HW132882   0.066   6.640   2.133
10661SOL    HW232883   0.162   6.761   2.189
10662SOL     OW32884   6.676   0.786   0.754
10662SOL    HW132885   6.633   0.802   0.842
10662SOL    HW232886   6.752   0.850   0.742
10663SOL     OW32887   0.863   0.150   1.482
10663SOL    HW132888   0.866   0.058   1.521
10663SOL    HW232889   0.797   0.205   1.532
10664SOL     OW32890   1.968   4.134   6.837
10664SOL    HW132891   2.006   4.169   6.752
10664SOL    HW232892   1.877   4.097   6.821
10665SOL     OW32893   0.948   1.544   0.214
10665SOL    HW132894   0.959   1.498   0.302
10665SOL    HW232895   0.917   1.478   0.146
10666SOL     OW32896   3.737   5.299   0.124
10666SOL    HW132897   3.821   5.276   0.174
10666SOL    HW232898   3.677   5.219   0.124
10667SOL     OW32899   3.686   2.266   5.517
10667SOL    HW132900   3.688   2.190   5.453
10667SOL    HW232901   3.618   2.333   5.487
10668SOL     OW32902   1.511   1.731   6.359
10668SOL    HW132903   1.569   1.681   6.294
10668SOL    HW232904   1.482   1.817   6.318
10669SOL     OW32905   0.681   6.858   0.844
10669SOL    HW132906   0.658   6.761   0.830
10669SOL    HW232907   0.624   6.914   0.784
10670SOL     OW32908   5.533   4.754   6.057
10670SOL    HW132909   5.585   4.769   6.142
10670SOL    HW232910   5.457   4.692   6.076
10671SOL     OW32911   2.234   2.855   2.772
10671SOL    HW132912   2.315   2.798   2.756
10671SOL    HW232913   2.255   2.923   2.843
10672SOL     OW32914   0.396   2.566   0.572
10672SOL    HW132915   0.306   2.534   0.544
10672SOL    HW232916   0.452   2.584   0.492
10673SOL     OW32917   2.601   2.696   5.698
10673SOL    HW132918   2.669   2.701   5.624
10673SOL    HW232919   2.536   2.771   5.688
10674SOL     OW32920   3.955   3.608   0.815
10674SOL    HW132921   4.052   3.625   0.797
10674SOL    HW232922   3.901   3.685   0.780
10675SOL     OW32923   0.729   0.770   5.925
10675SOL    HW132924   0.725   0.673   5.951
10675SOL    HW232925   0.640   0.798   5.889
10676SOL     OW32926   5.820   0.407   6.487
10676SOL    HW132927   5.890   0.371   6.425
10676SOL    HW232928   5.757   0.334   6.512
10677SOL     OW32929   0.490   0.997   2.571
10677SOL    HW132930   0.412   1.056   2.552
10677SOL    HW232931   0.550   0.992   2.491
10678SOL     OW32932   2.857   5.513   2.651
10678SOL    HW132933   2.827   5.429   2.697
10678SOL    HW232934   2.924   5.560   2.709
10679SOL     OW32935   5.811   5.334   4.375
10679SOL    HW132936   5.742   5.391   4.331
10679SOL    HW232937   5.823   5.364   4.470
10680SOL     OW32938   1.658   2.969   2.385
10680SOL    HW132939   1.722   3.038   2.354
10680SOL    HW232940   1.577   3.014   2.423
10681SOL     OW32941   6.365   4.140   6.574
10681SOL    HW132942   6.399   4.182   6.658
10681SOL    HW232943   6.443   4.116   6.515
10682SOL     OW32944   1.433   1.632   3.041
10682SOL    HW132945   1.499   1.618   2.968
10682SOL    HW232946   1.394   1.544   3.069
10683SOL     OW32947   2.016   2.287   4.290
10683SOL    HW132948   2.071   2.362   4.251
10683SOL    HW232949   2.008   2.301   4.389
10684SOL     OW32950   5.428   4.124   0.567
10684SOL    HW132951   5.416   4.145   0.470
10684SOL    HW232952   5.492   4.190   0.607
10685SOL     OW32953   1.316   3.998   3.351
10685SOL    HW132954   1.262   4.080   3.374
10685SOL    HW232955   1.393   3.990   3.414
10686SOL     OW32956   3.545   6.124   6.485
10686SOL    HW132957   3.574   6.116   6.390
10686SOL    HW232958   3.462   6.179   6.490
10687SOL     OW32959   6.989   5.360   2.585
10687SOL    HW132960   0.029   5.338   2.660
10687SOL    HW232961   6.895   5.337   2.610
10688SOL     OW32962   6.648   4.332   2.496
10688SOL    HW132963   6.614   4.261   2.435
10688SOL    HW232964   6.746   4.319   2.511
10689SOL     OW32965   0.020   0.219   2.811
10689SOL    HW132966   6.966   0.278   2.785
10689SOL    HW232967   0.020   0.137   2.753
10690SOL     OW32968   3.905   5.205   2.572
10690SOL    HW132969   3.873   5.290   2.529
10690SOL    HW232970   3.996   5.182   2.539
10691SOL     OW32971   6.933   1.259   1.692
10691SOL    HW132972   6.939   1.188   1.621
10691SOL    HW232973   6.983   1.340   1.662
10692SOL     OW32974   3.334   5.893   3.748
10692SOL    HW132975   3.417   5.901   3.802
10692SOL    HW232976   3.319   5.797   3.724
10693SOL     OW32977   0.619   1.689   0.816
10693SOL    HW132978   0.616   1.620   0.888
10693SOL    HW232979   0.702   1.744   0.826
10694SOL     OW32980   3.493   6.172   0.982
10694SOL    HW132981   3.439   6.226   1.046
10694SOL    HW232982   3.579   6.220   0.963
10695SOL     OW32983   0.534   2.957   4.158
10695SOL    HW132984   0.596   3.024   4.198
10695SOL    HW232985   0.520   2.882   4.223
10696SOL     OW32986   6.947   6.112   1.465
10696SOL    HW132987   6.894   6.111   1.549
10696SOL    HW232988   6.902   6.056   1.396
10697SOL     OW32989   0.399   6.365   3.915
10697SOL    HW132990   0.478   6.363   3.977
10697SOL    HW232991   0.331   6.429   3.951
10698SOL     OW32992   2.868   0.209   3.089
10698SOL    HW132993   2.947   0.238   3.035
10698SOL    HW232994   2.790   0.193   3.028
10699SOL     OW32995   4.184   1.767   2.929
10699SOL    HW132996   4.230   1.851   2.901
10699SOL    HW232997   4.130   1.731   2.853
10700SOL     OW32998   0.045   6.460   0.889
10700SOL    HW132999   0.005   6.527   0.952
10700SOL    HW233000   7.014   6.458   0.805
10701SOL     OW33001   3.866   5.878   0.016
10701SOL    HW133002   3.777   5.892   0.060
10701SOL    HW233003   3.937   5.878   0.086
10702SOL     OW33004   6.037   2.471   0.160
10702SOL    HW133005   5.985   2.397   0.204
10702SOL    HW233006   5.982   2.554   0.157
10703SOL     OW33007   3.905   3.808   3.436
10703SOL    HW133008   3.903   3.865   3.353
10703SOL    HW233009   3.811   3.782   3.460
10704SOL     OW33010   4.905   0.146   2.529
10704SOL    HW133011   4.915   0.116   2.434
10704SOL    HW233012   4.827   0.208   2.536
10705SOL     OW33013   1.097   4.061   6.346
10705SOL    HW133014   1.187   4.087   6.382
10705SOL    HW233015   1.044   4.018   6.419
10706SOL     OW33016   4.009   0.542   1.693
10706SOL    HW133017   3.953   0.468   1.656
10706SOL    HW233018   4.105   0.513   1.695
10707SOL     OW33019   6.454   0.248   5.870
10707SOL    HW133020   6.513   0.278   5.795
10707SOL    HW233021   6.439   0.149   5.863
10708SOL     OW33022   4.951   0.940   1.222
10708SOL    HW133023   5.007   1.014   1.186
10708SOL    HW233024   4.857   0.949   1.189
10709SOL     OW33025   6.178   0.042   5.200
10709SOL    HW133026   6.196   0.138   5.219
10709SOL    HW233027   6.256   0.003   5.150
10710SOL     OW33028   6.480   5.560   3.970
10710SOL    HW133029   6.471   5.536   3.873
10710SOL    HW233030   6.389   5.569   4.011
10711SOL     OW33031   1.843   0.073   4.295
10711SOL    HW133032   1.804   0.024   4.372
10711SOL    HW233033   1.780   0.071   4.217
10712SOL     OW33034   3.945   1.502   4.891
10712SOL    HW133035   4.003   1.421   4.902
10712SOL    HW233036   3.990   1.568   4.832
10713SOL     OW33037   2.415   5.960   1.780
10713SOL    HW133038   2.376   5.929   1.694
10713SOL    HW233039   2.345   5.959   1.851
10714SOL     OW33040   0.822   4.698   5.027
10714SOL    HW133041   0.909   4.712   5.075
10714SOL    HW233042   0.836   4.635   4.951
10715SOL     OW33043   4.625   1.979   4.094
10715SOL    HW133044   4.623   1.954   3.997
10715SOL    HW233045   4.720   1.991   4.123
10716SOL     OW33046   6.668   1.087   4.520
10716SOL    HW133047   6.714   1.140   4.449
10716SOL    HW233048   6.589   1.040   4.480
10717SOL     OW33049   6.463   1.270   1.804
10717SOL    HW133050   6.553   1.227   1.818
10717SOL    HW233051   6.459   1.355   1.856
10718SOL     OW33052   6.322   5.137   6.660
10718SOL    HW133053   6.291   5.069   6.726
10718SOL    HW233054   6.282   5.226   6.682
10719SOL     OW33055   5.286   1.111   1.616
10719SOL    HW133056   5.381   1.090   1.593
10719SOL    HW233057   5.250   1.041   1.677
10720SOL     OW33058   0.044   3.667   6.521
10720SOL    HW133059   0.022   3.643   6.616
10720SOL    HW233060   6.980   3.680   6.470
10721SOL     OW33061   5.985   2.389   4.438
10721SOL    HW133062   5.895   2.426   4.461
10721SOL    HW233063   5.984   2.290   4.450
10722SOL     OW33064   6.654   3.455   0.471
10722SOL    HW133065   6.650   3.362   0.433
10722SOL    HW233066   6.748   3.475   0.500
10723SOL     OW33067   5.789   4.351   6.557
10723SOL    HW133068   5.702   4.359   6.508
10723SOL    HW233069   5.847   4.285   6.510
10724SOL     OW33070   4.204   6.260   6.204
10724SOL    HW133071   4.299   6.274   6.177
10724SOL    HW233072   4.189   6.301   6.294
10725SOL     OW33073   0.518   6.525   4.446
10725SOL    HW133074   0.585   6.550   4.516
10725SOL    HW233075   0.562   6.526   4.356
10726SOL     OW33076   5.803   0.593   4.627
10726SOL    HW133077   5.775   0.652   4.552
10726SOL    HW233078   5.791   0.497   4.601
10727SOL     OW33079   2.065   5.594   5.588
10727SOL    HW133080   2.085   5.505   5.548
10727SOL    HW233081   1.971   5.595   5.622
10728SOL     OW33082   4.455   6.885   3.109
10728SOL    HW133083   4.391   6.902   3.034
10728SOL    HW233084   4.407   6.890   3.196
10729SOL     OW33085   6.235   2.710   3.083
10729SOL    HW133086   6.152   2.660   3.058
10729SOL    HW233087   6.234   2.800   3.039
10730SOL     OW33088   2.349   6.534   2.489
10730SOL    HW133089   2.255   6.534   2.456
10730SOL    HW233090   2.349   6.522   2.589
10731SOL     OW33091   3.477   6.098   0.184
10731SOL    HW133092   3.399   6.110   0.124
10731SOL    HW233093   3.544   6.037   0.140
10732SOL     OW33094   5.700   5.895   2.632
10732SOL    HW133095   5.768   5.967   2.644
10732SOL    HW233096   5.745   5.805   2.633
10733SOL     OW33097   6.517   1.668   6.322
10733SOL    HW133098   6.493   1.578   6.286
10733SOL    HW233099   6.573   1.717   6.255
10734SOL     OW33100   1.525   0.582   6.384
10734SOL    HW133101   1.467   0.641   6.441
10734SOL    HW233102   1.556   0.504   6.437
10735SOL     OW33103   1.111   4.712   2.280
10735SOL    HW133104   1.105   4.755   2.371
10735SOL    HW233105   1.032   4.654   2.265
10736SOL     OW33106   0.042   0.768   3.560
10736SOL    HW133107   0.071   0.803   3.471
10736SOL    HW233108   7.020   0.842   3.612
10737SOL     OW33109   0.033   1.657   0.915
10737SOL    HW133110   0.042   1.591   0.989
10737SOL    HW233111   0.123   1.694   0.892
10738SOL     OW33112   2.805   0.648   2.767
10738SOL    HW133113   2.800   0.743   2.797
10738SOL    HW233114   2.896   0.612   2.788
10739SOL     OW33115   5.831   1.459   2.064
10739SOL    HW133116   5.804   1.466   1.968
10739SOL    HW233117   5.785   1.531   2.117
10740SOL     OW33118   1.507   6.995   5.753
10740SOL    HW133119   1.569   6.999   5.675
10740SOL    HW233120   1.526   6.912   5.807
10741SOL     OW33121   1.650   2.570   2.884
10741SOL    HW133122   1.576   2.552   2.820
10741SOL    HW233123   1.655   2.496   2.951
10742SOL     OW33124   6.162   5.507   2.403
10742SOL    HW133125   6.140   5.414   2.375
10742SOL    HW233126   6.085   5.567   2.381
10743SOL     OW33127   3.271   1.422   5.846
10743SOL    HW133128   3.217   1.424   5.762
10743SOL    HW233129   3.368   1.422   5.823
10744SOL     OW33130   2.722   0.388   1.159
10744SOL    HW133131   2.651   0.360   1.095
10744SOL    HW233132   2.740   0.314   1.224
10745SOL     OW33133   2.037   4.228   1.042
10745SOL    HW133134   2.012   4.230   0.945
10745SOL    HW233135   2.131   4.194   1.051
10746SOL     OW33136   2.224   6.333   0.027
10746SOL    HW133137   2.132   6.354   7.014
10746SOL    HW233138   2.289   6.401   7.014
10747SOL     OW33139   6.316   1.955   4.376
10747SOL    HW133140   6.366   1.965   4.462
10747SOL    HW233141   6.309   1.858   4.353
10748SOL     OW33142   3.993   5.017   1.115
10748SOL    HW133143   3.997   4.924   1.080
10748SOL    HW233144   4.005   5.016   1.215
10749SOL     OW33145   6.581   5.036   2.700
10749SOL    HW133146   6.511   4.975   2.664
10749SOL    HW233147   6.590   5.023   2.798
10750SOL     OW33148   4.975   3.193   3.985
10750SOL    HW133149   4.883   3.158   4.001
10750SOL    HW233150   5.040   3.117   3.988
10751SOL     OW33151   1.335   3.309   4.900
10751SOL    HW133152   1.330   3.218   4.859
10751SOL    HW233153   1.246   3.353   4.895
10752SOL     OW33154   5.554   5.575   0.338
10752SOL    HW133155   5.577   5.545   0.246
10752SOL    HW233156   5.481   5.643   0.333
10753SOL     OW33157   5.333   6.178   3.817
10753SOL    HW133158   5.262   6.229   3.768
10753SOL    HW233159   5.316   6.184   3.916
10754SOL     OW33160   1.280   2.851   1.360
10754SOL    HW133161   1.325   2.782   1.417
10754SOL    HW233162   1.195   2.814   1.324
10755SOL     OW33163   6.708   2.892   1.322
10755SOL    HW133164   6.628   2.874   1.265
10755SOL    HW233165   6.754   2.806   1.344
10756SOL     OW33166   6.860   2.835   0.761
10756SOL    HW133167   6.762   2.818   0.774
10756SOL    HW233168   6.874   2.932   0.740
10757SOL     OW33169   6.507   4.187   0.487
10757SOL    HW133170   6.573   4.255   0.520
10757SOL    HW233171   6.552   4.097   0.481
10758SOL     OW33172   0.547   6.818   6.696
10758SOL    HW133173   0.538   6.782   6.789
10758SOL    HW233174   0.517   6.749   6.630
10759SOL     OW33175   1.693   1.717   6.634
10759SOL    HW133176   1.638   1.678   6.560
10759SOL    HW233177   1.659   1.808   6.657
10760SOL     OW33178   0.480   6.069   0.113
10760SOL    HW133179   0.561   6.021   0.148
10760SOL    HW233180   0.417   6.003   0.073
10761SOL     OW33181   0.936   1.723   6.208
10761SOL    HW133182   0.872   1.691   6.138
10761SOL    HW233183   1.009   1.776   6.165
10762SOL     OW33184   4.193   0.758   5.700
10762SOL    HW133185   4.256   0.817   5.649
10762SOL    HW233186   4.201   0.778   5.798
10763SOL     OW33187   5.955   0.274   3.339
10763SOL    HW133188   5.855   0.277   3.333
10763SOL    HW233189   5.994   0.292   3.248
10764SOL     OW33190   4.468   1.350   5.285
10764SOL    HW133191   4.489   1.252   5.284
10764SOL    HW233192   4.514   1.393   5.362
10765SOL     OW33193   6.163   2.482   2.232
10765SOL    HW133194   6.074   2.527   2.221
10765SOL    HW233195   6.152   2.383   2.222
10766SOL     OW33196   1.357   4.664   0.208
10766SOL    HW133197   1.377   4.586   0.148
10766SOL    HW233198   1.267   4.700   0.187
10767SOL     OW33199   1.605   5.828   0.577
10767SOL    HW133200   1.530   5.880   0.538
10767SOL    HW233201   1.606   5.840   0.677
10768SOL     OW33202   5.670   5.838   0.026
10768SOL    HW133203   5.652   5.743   0.000
10768SOL    HW233204   5.594   5.896   7.018
10769SOL     OW33205   3.149   3.695   5.071
10769SOL    HW133206   3.190   3.604   5.065
10769SOL    HW233207   3.181   3.751   4.995
10770SOL     OW33208   5.201   6.978   4.465
10770SOL    HW133209   5.203   6.912   4.390
10770SOL    HW233210   5.294   7.011   4.483
10771SOL     OW33211   5.534   0.010   5.321
10771SOL    HW133212   5.606   6.963   5.315
10771SOL    HW233213   5.549   0.068   5.401
10772SOL     OW33214   5.484   5.966   3.417
10772SOL    HW133215   5.460   5.957   3.514
10772SOL    HW233216   5.400   5.969   3.363
10773SOL     OW33217   6.988   4.565   0.749
10773SOL    HW133218   6.923   4.603   0.814
10773SOL    HW233219   6.995   4.466   0.763
10774SOL     OW33220   1.193   2.456   0.632
10774SOL    HW133221   1.139   2.416   0.557
10774SOL    HW233222   1.233   2.383   0.687
10775SOL     OW33223   1.683   4.544   0.919
10775SOL    HW133224   1.628   4.483   0.976
10775SOL    HW233225   1.780   4.523   0.932
10776SOL     OW33226   0.052   0.818   2.927
10776SOL    HW133227   7.005   0.890   2.921
10776SOL    HW233228   0.108   0.818   2.845
10777SOL     OW33229   2.962   0.879   3.365
10777SOL    HW133230   3.049   0.924   3.344
10777SOL    HW233231   2.980   0.793   3.413
10778SOL     OW33232   6.502   6.555   4.109
10778SOL    HW133233   6.434   6.615   4.150
10778SOL    HW233234   6.585   6.555   4.165
10779SOL     OW33235   5.610   4.439   3.712
10779SOL    HW133236   5.564   4.501   3.649
10779SOL    HW233237   5.577   4.346   3.698
10780SOL     OW33238   0.659   5.940   4.551
10780SOL    HW133239   0.596   5.864   4.566
10780SOL    HW233240   0.639   5.983   4.463
10781SOL     OW33241   5.737   2.684   4.886
10781SOL    HW133242   5.827   2.684   4.842
10781SOL    HW233243   5.749   2.684   4.985
10782SOL     OW33244   0.890   3.076   5.539
10782SOL    HW133245   0.885   2.976   5.536
10782SOL    HW233246   0.798   3.114   5.526
10783SOL     OW33247   1.197   2.565   2.522
10783SOL    HW133248   1.201   2.655   2.567
10783SOL    HW233249   1.254   2.565   2.440
10784SOL     OW33250   2.829   6.210   2.594
10784SOL    HW133251   2.867   6.134   2.542
10784SOL    HW233252   2.863   6.207   2.688
10785SOL     OW33253   1.750   5.555   1.946
10785SOL    HW133254   1.844   5.587   1.954
10785SOL    HW233255   1.688   5.633   1.943
10786SOL     OW33256   4.623   1.978   1.896
10786SOL    HW133257   4.556   2.004   1.826
10786SOL    HW233258   4.684   1.908   1.858
10787SOL     OW33259   3.592   0.955   3.636
10787SOL    HW133260   3.656   1.028   3.615
10787SOL    HW233261   3.640   0.868   3.638
10788SOL     OW33262   0.744   4.267   0.355
10788SOL    HW133263   0.657   4.269   0.305
10788SOL    HW233264   0.818   4.245   0.291
10789SOL     OW33265   6.133   1.405   0.188
10789SOL    HW133266   6.178   1.379   0.103
10789SOL    HW233267   6.177   1.486   0.226
10790SOL     OW33268   0.542   2.345   4.899
10790SOL    HW133269   0.601   2.274   4.861
10790SOL    HW233270   0.577   2.435   4.875
10791SOL     OW33271   2.089   1.439   2.825
10791SOL    HW133272   2.047   1.349   2.818
10791SOL    HW233273   2.184   1.430   2.855
10792SOL     OW33274   3.957   2.222   1.479
10792SOL    HW133275   3.944   2.219   1.380
10792SOL    HW233276   3.965   2.317   1.509
10793SOL     OW33277   4.693   1.845   4.733
10793SOL    HW133278   4.678   1.797   4.646
10793SOL    HW233279   4.654   1.792   4.808
10794SOL     OW33280   4.370   3.139   1.795
10794SOL    HW133281   4.458   3.117   1.835
10794SOL    HW233282   4.370   3.235   1.766
10795SOL     OW33283   7.009   3.780   3.106
10795SOL    HW133284   6.914   3.782   3.073
10795SOL    HW233285   0.011   3.687   3.133
10796SOL     OW33286   6.222   6.306   6.766
10796SOL    HW133287   6.226   6.398   6.728
10796SOL    HW233288   6.268   6.242   6.705
10797SOL     OW33289   4.433   3.194   0.556
10797SOL    HW133290   4.478   3.173   0.642
10797SOL    HW233291   4.376   3.275   0.567
10798SOL     OW33292   3.054   0.031   6.318
10798SOL    HW133293   3.030   0.125   6.339
10798SOL    HW233294   2.977   7.008   6.273
10799SOL     OW33295   3.022   1.222   2.823
10799SOL    HW133296   2.943   1.227   2.884
10799SOL    HW233297   3.007   1.283   2.745
10800SOL     OW33298   1.407   0.223   6.609
10800SOL    HW133299   1.473   0.290   6.576
10800SOL    HW233300   1.381   0.162   6.534
10801SOL     OW33301   1.922   5.704   6.459
10801SOL    HW133302   1.932   5.791   6.411
10801SOL    HW233303   2.011   5.676   6.495
10802SOL     OW33304   1.029   3.434   4.130
10802SOL    HW133305   0.969   3.513   4.145
10802SOL    HW233306   1.006   3.363   4.197
10803SOL     OW33307   6.057   4.957   5.575
10803SOL    HW133308   6.135   4.914   5.530
10803SOL    HW233309   5.973   4.907   5.551
10804SOL     OW33310   6.048   4.433   1.980
10804SOL    HW133311   6.064   4.420   1.882
10804SOL    HW233312   5.993   4.515   1.994
10805SOL     OW33313   4.089   6.675   0.631
10805SOL    HW133314   4.082   6.622   0.715
10805SOL    HW233315   4.007   6.662   0.575
10806SOL     OW33316   5.579   3.706   0.486
10806SOL    HW133317   5.524   3.746   0.559
10806SOL    HW233318   5.660   3.762   0.470
10807SOL     OW33319   3.445   6.079   3.172
10807SOL    HW133320   3.378   6.005   3.166
10807SOL    HW233321   3.534   6.046   3.141
10808SOL     OW33322   0.609   2.795   6.029
10808SOL    HW133323   0.534   2.776   5.965
10808SOL    HW233324   0.643   2.888   6.014
10809SOL     OW33325   2.815   0.449   3.632
10809SOL    HW133326   2.841   0.430   3.537
10809SOL    HW233327   2.717   0.433   3.643
10810SOL     OW33328   0.276   1.504   4.997
10810SOL    HW133329   0.191   1.547   4.968
10810SOL    HW233330   0.256   1.414   5.036
10811SOL     OW33331   4.825   5.017   5.454
10811SOL    HW133332   4.747   5.080   5.459
10811SOL    HW233333   4.795   4.925   5.479
10812SOL     OW33334   6.387   2.956   2.598
10812SOL    HW133335   6.355   2.890   2.666
10812SOL    HW233336   6.425   2.907   2.520
10813SOL     OW33337   2.851   5.981   2.092
10813SOL    HW133338   2.842   5.905   2.157
10813SOL    HW233339   2.784   5.970   2.019
10814SOL     OW33340   1.870   0.004   5.306
10814SOL    HW133341   1.876   0.103   5.296
10814SOL    HW233342   1.787   7.002   5.356
10815SOL     OW33343   5.607   4.183   2.582
10815SOL    HW133344   5.664   4.147   2.655
10815SOL    HW233345   5.636   4.145   2.494
10816SOL     OW33346   1.499   0.856   2.134
10816SOL    HW133347   1.439   0.781   2.161
10816SOL    HW233348   1.463   0.902   2.053
10817SOL     OW33349   5.040   0.256   2.766
10817SOL    HW133350   4.988   0.255   2.680
10817SOL    HW233351   5.008   0.182   2.825
10818SOL     OW33352   5.133   2.815   6.654
10818SOL    HW133353   5.203   2.748   6.678
10818SOL    HW233354   5.159   2.863   6.571
10819SOL     OW33355   0.254   4.518   6.535
10819SOL    HW133356   0.293   4.426   6.524
10819SOL    HW233357   0.255   4.543   6.632
10820SOL     OW33358   6.973   6.582   4.038
10820SOL    HW133359   6.929   6.492   4.028
10820SOL    HW233360   6.950   6.639   3.959
10821SOL     OW33361   6.694   0.453   1.439
10821SOL    HW133362   6.762   0.518   1.472
10821SOL    HW233363   6.667   0.477   1.346
10822SOL     OW33364   1.082   3.911   2.496
10822SOL    HW133365   1.118   3.873   2.581
10822SOL    HW233366   1.009   3.852   2.461
10823SOL     OW33367   2.312   6.242   1.210
10823SOL    HW133368   2.267   6.325   1.176
10823SOL    HW233369   2.263   6.208   1.290
10824SOL     OW33370   5.049   0.857   2.526
10824SOL    HW133371   5.035   0.955   2.541
10824SOL    HW233372   5.039   0.837   2.428
10825SOL     OW33373   3.323   0.827   0.653
10825SOL    HW133374   3.261   0.777   0.714
10825SOL    HW233375   3.352   0.912   0.698
10826SOL     OW33376   0.249   3.446   2.368
10826SOL    HW133377   0.183   3.374   2.387
10826SOL    HW233378   0.329   3.434   2.427
10827SOL     OW33379   0.109   3.276   4.392
10827SOL    HW133380   0.090   3.354   4.332
10827SOL    HW233381   0.114   3.307   4.487
10828SOL     OW33382   1.372   5.791   0.297
10828SOL    HW133383   1.374   5.880   0.344
10828SOL    HW233384   1.466   5.761   0.281
10829SOL     OW33385   3.155   3.995   2.111
10829SOL    HW133386   3.088   3.986   2.037
10829SOL    HW233387   3.157   4.090   2.143
10830SOL     OW33388   5.242   2.995   4.791
10830SOL    HW133389   5.188   2.985   4.707
10830SOL    HW233390   5.224   3.085   4.832
10831SOL     OW33391   5.342   1.238   2.477
10831SOL    HW133392   5.430   1.233   2.525
10831SOL    HW233393   5.357   1.270   2.384
10832SOL     OW33394   0.862   2.069   0.539
10832SOL    HW133395   0.840   2.154   0.493
10832SOL    HW233396   0.780   2.011   0.543
10833SOL     OW33397   2.629   0.782   4.557
10833SOL    HW133398   2.696   0.719   4.516
10833SOL    HW233399   2.649   0.793   4.654
10834SOL     OW33400   0.433   1.788   5.664
10834SOL    HW133401   0.437   1.701   5.713
10834SOL    HW233402   0.405   1.772   5.570
10835SOL     OW33403   5.760   1.645   2.233
10835SOL    HW133404   5.718   1.734   2.254
10835SOL    HW233405   5.748   1.584   2.312
10836SOL     OW33406   1.528   1.983   6.641
10836SOL    HW133407   1.519   2.060   6.578
10836SOL    HW233408   1.468   1.909   6.611
10837SOL     OW33409   6.801   4.867   0.843
10837SOL    HW133410   6.834   4.794   0.902
10837SOL    HW233411   6.752   4.827   0.765
10838SOL     OW33412   5.409   6.983   6.636
10838SOL    HW133413   5.496   6.992   6.588
10838SOL    HW233414   5.364   6.897   6.610
10839SOL     OW33415   1.628   2.056   0.063
10839SOL    HW133416   1.600   1.982   0.125
10839SOL    HW233417   1.701   2.024   0.003
10840SOL     OW33418   3.508   5.261   1.950
10840SOL    HW133419   3.461   5.271   1.861
10840SOL    HW233420   3.495   5.168   1.984
10841SOL     OW33421   4.004   5.454   5.934
10841SOL    HW133422   4.002   5.504   5.847
10841SOL    HW233423   3.920   5.399   5.942
10842SOL     OW33424   6.246   3.541   1.089
10842SOL    HW133425   6.220   3.638   1.084
10842SOL    HW233426   6.180   3.492   1.145
10843SOL     OW33427   0.593   1.743   1.962
10843SOL    HW133428   0.576   1.725   2.059
10843SOL    HW233429   0.692   1.746   1.946
10844SOL     OW33430   5.274   0.366   3.107
10844SOL    HW133431   5.194   0.401   3.155
10844SOL    HW233432   5.338   0.441   3.090
10845SOL     OW33433   1.198   0.910   1.620
10845SOL    HW133434   1.146   0.878   1.541
10845SOL    HW233435   1.212   1.008   1.614
10846SOL     OW33436   4.131   1.887   1.412
10846SOL    HW133437   4.170   1.897   1.321
10846SOL    HW233438   4.032   1.900   1.408
10847SOL     OW33439   3.833   2.612   6.066
10847SOL    HW133440   3.853   2.703   6.029
10847SOL    HW233441   3.793   2.556   5.993
10848SOL     OW33442   1.528   0.510   0.536
10848SOL    HW133443   1.434   0.481   0.552
10848SOL    HW233444   1.560   0.565   0.613
10849SOL     OW33445   3.093   4.929   4.510
10849SOL    HW133446   3.095   4.992   4.588
10849SOL    HW233447   3.075   4.836   4.543
10850SOL     OW33448   5.306   6.662   0.160
10850SOL    HW133449   5.250   6.716   0.097
10850SOL    HW233450   5.293   6.695   0.253
10851SOL     OW33451   2.974   2.249   6.855
10851SOL    HW133452   3.055   2.306   6.847
10851SOL    HW233453   2.899   2.303   6.895
10852SOL     OW33454   0.172   0.942   6.604
10852SOL    HW133455   0.173   0.851   6.646
10852SOL    HW233456   0.081   0.983   6.616
10853SOL     OW33457   2.867   1.303   4.830
10853SOL    HW133458   2.879   1.228   4.765
10853SOL    HW233459   2.852   1.388   4.780
10854SOL     OW33460   6.256   6.562   6.666
10854SOL    HW133461   6.299   6.596   6.583
10854SOL    HW233462   6.269   6.628   6.740
10855SOL     OW33463   1.640   6.164   1.764
10855SOL    HW133464   1.551   6.143   1.723
10855SOL    HW233465   1.697   6.082   1.764
10856SOL     OW33466   6.071   6.876   6.757
10856SOL    HW133467   6.073   6.885   6.857
10856SOL    HW233468   6.154   6.830   6.726
10857SOL     OW33469   6.151   1.382   3.868
10857SOL    HW133470   6.156   1.482   3.868
10857SOL    HW233471   6.095   1.352   3.945
10858SOL     OW33472   1.257   3.309   6.748
10858SOL    HW133473   1.220   3.221   6.717
10858SOL    HW233474   1.344   3.326   6.703
10859SOL     OW33475   0.666   4.522   3.270
10859SOL    HW133476   0.610   4.438   3.273
10859SOL    HW233477   0.618   4.595   3.318
10860SOL     OW33478   6.083   1.901   0.140
10860SOL    HW133479   6.116   1.818   0.095
10860SOL    HW233480   6.107   1.897   0.237
10861SOL     OW33481   3.097   2.790   1.797
10861SOL    HW133482   3.171   2.736   1.837
10861SOL    HW233483   3.082   2.873   1.852
10862SOL     OW33484   3.296   2.408   5.842
10862SOL    HW133485   3.335   2.320   5.869
10862SOL    HW233486   3.275   2.462   5.924
10863SOL     OW33487   2.496   0.961   3.411
10863SOL    HW133488   2.524   0.938   3.318
10863SOL    HW233489   2.432   1.038   3.409
10864SOL     OW33490   2.458   4.547   1.971
10864SOL    HW133491   2.527   4.546   1.898
10864SOL    HW233492   2.494   4.598   2.049
10865SOL     OW33493   4.714   2.320   3.235
10865SOL    HW133494   4.706   2.221   3.219
10865SOL    HW233495   4.805   2.341   3.269
10866SOL     OW33496   6.931   3.949   2.528
10866SOL    HW133497   6.874   3.871   2.554
10866SOL    HW233498   6.915   4.024   2.591
10867SOL     OW33499   3.525   2.584   0.404
10867SOL    HW133500   3.541   2.486   0.413
10867SOL    HW233501   3.499   2.622   0.493
10868SOL     OW33502   1.445   2.034   3.812
10868SOL    HW133503   1.363   2.010   3.863
10868SOL    HW233504   1.501   1.953   3.797
10869NA      NA33505   0.214   1.954   5.989
10870NA      NA33506   4.342   4.679   5.185
10871NA      NA33507   1.279   5.443   2.480
10872NA      NA33508   5.190   4.020   3.284
10873NA      NA33509   4.347   2.419   5.232
10874NA      NA33510   2.404   5.054   0.784
10875NA      NA33511   1.018   5.316   6.717
10876NA      NA33512   3.361   4.095   1.176
10877NA      NA33513   4.442   4.959   0.881
10878NA      NA33514   3.443   1.343   6.561
10879NA      NA33515   5.475   5.735   2.135
10880NA      NA33516   1.380   6.715   5.338
10881NA      NA33517   4.402   4.927   1.833
10882NA      NA33518   3.100   3.098   6.784
   7.02177   7.02177   7.02177
