Generated by trjconv : CNT in water t= 554.00000
33518
    1C        C    1   2.845   2.770   4.750
    1C        C    2   2.902   2.724   4.871
    1C        C    3   2.844   2.774   4.988
    1C        C    4   2.849   2.772   4.264
    1C        C    5   2.902   2.724   4.386
    1C        C    6   2.850   2.774   4.507
    1C        C    7   3.014   2.639   4.628
    1C        C    8   2.900   2.722   4.629
    1C        C    9   3.078   2.602   4.748
    1C        C   10   3.014   2.638   4.869
    1C        C   11   3.184   2.492   4.981
    1C        C   12   3.062   2.560   4.975
    1C        C   13   2.852   2.772   3.775
    1C        C   14   2.903   2.722   3.897
    1C        C   15   2.852   2.773   4.019
    1C        C   16   3.019   2.645   4.140
    1C        C   17   2.902   2.725   4.141
    1C        C   18   3.083   2.615   4.262
    1C        C   19   3.021   2.647   4.385
    1C        C   20   3.209   2.553   4.505
    1C        C   21   3.079   2.607   4.507
    1C        C   22   3.279   2.532   4.627
    1C        C   23   3.211   2.552   4.749
    1C        C   24   3.414   2.488   4.869
    1C        C   25   3.272   2.505   4.869
    1C        C   26   3.495   2.473   4.982
    1C        C   27   2.850   2.767   3.285
    1C        C   28   2.904   2.723   3.408
    1C        C   29   2.857   2.775   3.531
    1C        C   30   3.021   2.643   3.652
    1C        C   31   2.905   2.724   3.653
    1C        C   32   3.079   2.601   3.774
    1C        C   33   3.014   2.635   3.895
    1C        C   34   3.209   2.553   4.020
    1C        C   35   3.078   2.607   4.018
    1C        C   36   3.278   2.531   4.141
    1C        C   37   3.212   2.556   4.263
    1C        C   38   3.418   2.505   4.383
    1C        C   39   3.279   2.532   4.384
    1C        C   40   3.488   2.503   4.506
    1C        C   41   3.417   2.502   4.628
    1C        C   42   3.632   2.491   4.749
    1C        C   43   3.490   2.489   4.748
    1C        C   44   3.710   2.490   4.866
    1C        C   45   3.633   2.480   4.984
    1C        C   46   2.840   2.753   2.795
    1C        C   47   2.894   2.711   2.918
    1C        C   48   2.851   2.768   3.040
    1C        C   49   3.017   2.637   3.161
    1C        C   50   2.906   2.725   3.162
    1C        C   51   3.075   2.600   3.285
    1C        C   52   3.013   2.633   3.407
    1C        C   53   3.206   2.545   3.529
    1C        C   54   3.078   2.604   3.529
    1C        C   55   3.272   2.523   3.652
    1C        C   56   3.210   2.546   3.776
    1C        C   57   3.417   2.508   3.894
    1C        C   58   3.278   2.530   3.899
    1C        C   59   3.488   2.501   4.016
    1C        C   60   3.417   2.504   4.138
    1C        C   61   3.629   2.501   4.260
    1C        C   62   3.488   2.499   4.260
    1C        C   63   3.700   2.509   4.382
    1C        C   64   3.629   2.506   4.504
    1C        C   65   3.835   2.552   4.626
    1C        C   66   3.700   2.509   4.626
    1C        C   67   3.911   2.564   4.744
    1C        C   68   3.846   2.528   4.864
    1C        C   69   4.060   2.587   4.981
    1C        C   70   3.927   2.543   4.977
    1C        C   71   2.827   2.738   2.309
    1C        C   72   2.885   2.694   2.431
    1C        C   73   2.837   2.748   2.552
    1C        C   74   3.011   2.625   2.673
    1C        C   75   2.895   2.705   2.674
    1C        C   76   3.074   2.592   2.796
    1C        C   77   3.010   2.629   2.916
    1C        C   78   3.204   2.544   3.041
    1C        C   79   3.075   2.601   3.038
    1C        C   80   3.273   2.526   3.163
    1C        C   81   3.207   2.550   3.286
    1C        C   82   3.414   2.503   3.405
    1C        C   83   3.275   2.525   3.407
    1C        C   84   3.485   2.499   3.528
    1C        C   85   3.412   2.505   3.649
    1C        C   86   3.626   2.510   3.771
    1C        C   87   3.485   2.499   3.770
    1C        C   88   3.698   2.514   3.893
    1C        C   89   3.629   2.510   4.016
    1C        C   90   3.836   2.549   4.139
    1C        C   91   3.699   2.514   4.138
    1C        C   92   3.904   2.573   4.261
    1C        C   93   3.836   2.547   4.382
    1C        C   94   4.028   2.638   4.499
    1C        C   95   3.901   2.576   4.504
    1C        C   96   4.095   2.673   4.619
    1C        C   97   4.040   2.624   4.739
    1C        C   98   4.196   2.764   4.863
    1C        C   99   4.104   2.653   4.863
    1C        C  100   4.213   2.842   4.978
    1C        C  101   2.826   2.732   2.069
    1C        C  102   2.991   2.594   2.192
    1C        C  103   2.876   2.681   2.189
    1C        C  104   3.066   2.578   2.311
    1C        C  105   3.005   2.621   2.431
    1C        C  106   3.201   2.532   2.552
    1C        C  107   3.071   2.587   2.551
    1C        C  108   3.273   2.523   2.673
    1C        C  109   3.204   2.538   2.796
    1C        C  110   3.411   2.500   2.919
    1C        C  111   3.270   2.515   2.919
    1C        C  112   3.483   2.498   3.040
    1C        C  113   3.413   2.503   3.162
    1C        C  114   3.627   2.503   3.283
    1C        C  115   3.485   2.498   3.283
    1C        C  116   3.698   2.511   3.405
    1C        C  117   3.626   2.501   3.526
    1C        C  118   3.833   2.550   3.648
    1C        C  119   3.696   2.516   3.648
    1C        C  120   3.899   2.573   3.770
    1C        C  121   3.835   2.547   3.894
    1C        C  122   4.026   2.639   4.013
    1C        C  123   3.901   2.572   4.016
    1C        C  124   4.086   2.678   4.134
    1C        C  125   4.028   2.641   4.258
    1C        C  126   4.200   2.768   4.377
    1C        C  127   4.091   2.678   4.379
    1C        C  128   4.251   2.819   4.499
    1C        C  129   4.201   2.766   4.620
    1C        C  130   4.328   2.936   4.742
    1C        C  131   4.250   2.817   4.742
    1C        C  132   4.352   3.007   4.862
    1C        C  133   4.284   2.961   4.975
    1C        C  134   3.175   2.472   2.082
    1C        C  135   3.042   2.517   2.083
    1C        C  136   3.264   2.489   2.189
    1C        C  137   3.198   2.524   2.309
    1C        C  138   3.406   2.478   2.429
    1C        C  139   3.266   2.501   2.430
    1C        C  140   3.480   2.486   2.549
    1C        C  141   3.412   2.504   2.672
    1C        C  142   3.621   2.506   2.793
    1C        C  143   3.480   2.499   2.796
    1C        C  144   3.692   2.517   2.915
    1C        C  145   3.624   2.508   3.039
    1C        C  146   3.834   2.543   3.160
    1C        C  147   3.696   2.512   3.160
    1C        C  148   3.901   2.570   3.281
    1C        C  149   3.835   2.546   3.403
    1C        C  150   4.029   2.630   3.524
    1C        C  151   3.901   2.570   3.525
    1C        C  152   4.087   2.672   3.646
    1C        C  153   4.024   2.638   3.768
    1C        C  154   4.193   2.767   3.889
    1C        C  155   4.084   2.677   3.890
    1C        C  156   4.247   2.813   4.011
    1C        C  157   4.200   2.761   4.134
    1C        C  158   4.343   2.922   4.253
    1C        C  159   4.254   2.812   4.255
    1C        C  160   4.383   2.984   4.374
    1C        C  161   4.334   2.933   4.497
    1C        C  162   4.434   3.118   4.616
    1C        C  163   4.370   2.992   4.620
    1C        C  164   4.468   3.183   4.737
    1C        C  165   4.432   3.124   4.859
    1C        C  166   4.508   3.325   4.973
    1C        C  167   4.479   3.189   4.974
    1C        C  168   3.475   2.437   2.070
    1C        C  169   3.402   2.462   2.187
    1C        C  170   3.618   2.465   2.309
    1C        C  171   3.476   2.462   2.308
    1C        C  172   3.693   2.491   2.426
    1C        C  173   3.621   2.489   2.548
    1C        C  174   3.826   2.540   2.670
    1C        C  175   3.690   2.502   2.670
    1C        C  176   3.894   2.568   2.791
    1C        C  177   3.831   2.542   2.914
    1C        C  178   4.026   2.626   3.035
    1C        C  179   3.899   2.565   3.036
    1C        C  180   4.089   2.664   3.155
    1C        C  181   4.028   2.633   3.279
    1C        C  182   4.199   2.755   3.400
    1C        C  183   4.089   2.667   3.402
    1C        C  184   4.248   2.806   3.522
    1C        C  185   4.198   2.760   3.646
    1C        C  186   4.346   2.913   3.766
    1C        C  187   4.249   2.811   3.767
    1C        C  188   4.388   2.973   3.887
    1C        C  189   4.342   2.918   4.009
    1C        C  190   4.442   3.107   4.131
    1C        C  191   4.380   2.981   4.130
    1C        C  192   4.470   3.174   4.252
    1C        C  193   4.445   3.110   4.376
    1C        C  194   4.507   3.318   4.492
    1C        C  195   4.464   3.183   4.495
    1C        C  196   4.521   3.389   4.613
    1C        C  197   4.509   3.319   4.736
    1C        C  198   4.554   3.536   4.851
    1C        C  199   4.534   3.394   4.854
    1C        C  200   4.584   3.620   4.963
    1C        C  201   3.615   2.430   2.074
    1C        C  202   3.826   2.520   2.186
    1C        C  203   3.693   2.465   2.188
    1C        C  204   3.900   2.540   2.305
    1C        C  205   3.829   2.526   2.426
    1C        C  206   4.022   2.618   2.546
    1C        C  207   3.895   2.556   2.548
    1C        C  208   4.083   2.657   2.667
    1C        C  209   4.020   2.633   2.792
    1C        C  210   4.198   2.750   2.909
    1C        C  211   4.085   2.665   2.913
    1C        C  212   4.250   2.801   3.030
    1C        C  213   4.204   2.746   3.152
    1C        C  214   4.338   2.907   3.273
    1C        C  215   4.253   2.795   3.275
    1C        C  216   4.376   2.970   3.394
    1C        C  217   4.337   2.916   3.518
    1C        C  218   4.438   3.099   3.642
    1C        C  219   4.379   2.971   3.641
    1C        C  220   4.465   3.167   3.763
    1C        C  221   4.444   3.103   3.887
    1C        C  222   4.502   3.309   4.004
    1C        C  223   4.468   3.172   4.008
    1C        C  224   4.512   3.380   4.126
    1C        C  225   4.509   3.310   4.248
    1C        C  226   4.522   3.525   4.366
    1C        C  227   4.522   3.384   4.368
    1C        C  228   4.524   3.600   4.486
    1C        C  229   4.532   3.529   4.608
    1C        C  230   4.503   3.743   4.727
    1C        C  231   4.534   3.604   4.728
    1C        C  232   4.497   3.818   4.847
    1C        C  233   4.549   3.755   4.960
    1C        C  234   4.024   2.605   2.068
    1C        C  235   3.898   2.546   2.068
    1C        C  236   4.089   2.645   2.185
    1C        C  237   4.025   2.608   2.305
    1C        C  238   4.202   2.734   2.426
    1C        C  239   4.088   2.649   2.425
    1C        C  240   4.252   2.788   2.547
    1C        C  241   4.195   2.742   2.668
    1C        C  242   4.340   2.904   2.784
    1C        C  243   4.251   2.795   2.786
    1C        C  244   4.381   2.964   2.906
    1C        C  245   4.338   2.912   3.030
    1C        C  246   4.446   3.093   3.150
    1C        C  247   4.379   2.969   3.152
    1C        C  248   4.463   3.161   3.273
    1C        C  249   4.434   3.099   3.397
    1C        C  250   4.497   3.301   3.517
    1C        C  251   4.460   3.165   3.519
    1C        C  252   4.513   3.372   3.638
    1C        C  253   4.500   3.304   3.761
    1C        C  254   4.515   3.519   3.879
    1C        C  255   4.509   3.378   3.881
    1C        C  256   4.510   3.591   4.000
    1C        C  257   4.513   3.521   4.122
    1C        C  258   4.494   3.735   4.241
    1C        C  259   4.514   3.595   4.243
    1C        C  260   4.473   3.804   4.362
    1C        C  261   4.494   3.738   4.485
    1C        C  262   4.428   3.942   4.606
    1C        C  263   4.478   3.810   4.605
    1C        C  264   4.402   4.012   4.726
    1C        C  265   4.438   3.947   4.846
    1C        C  266   4.328   4.137   4.961
    1C        C  267   4.400   4.018   4.960
    1C        C  268   4.267   2.772   2.066
    1C        C  269   4.201   2.731   2.183
    1C        C  270   4.342   2.893   2.299
    1C        C  271   4.255   2.781   2.304
    1C        C  272   4.380   2.956   2.420
    1C        C  273   4.345   2.894   2.542
    1C        C  274   4.449   3.084   2.661
    1C        C  275   4.384   2.959   2.661
    1C        C  276   4.478   3.151   2.783
    1C        C  277   4.451   3.087   2.906
    1C        C  278   4.505   3.293   3.026
    1C        C  279   4.475   3.155   3.027
    1C        C  280   4.509   3.365   3.148
    1C        C  281   4.494   3.299   3.272
    1C        C  282   4.510   3.511   3.392
    1C        C  283   4.506   3.370   3.394
    1C        C  284   4.509   3.582   3.514
    1C        C  285   4.516   3.513   3.637
    1C        C  286   4.490   3.729   3.754
    1C        C  287   4.514   3.589   3.756
    1C        C  288   4.471   3.798   3.876
    1C        C  289   4.487   3.731   3.999
    1C        C  290   4.433   3.939   4.118
    1C        C  291   4.474   3.804   4.119
    1C        C  292   4.409   4.006   4.240
    1C        C  293   4.427   3.938   4.362
    1C        C  294   4.330   4.128   4.481
    1C        C  295   4.392   4.001   4.483
    1C        C  296   4.289   4.190   4.601
    1C        C  297   4.330   4.134   4.724
    1C        C  298   4.203   4.316   4.836
    1C        C  299   4.286   4.200   4.842
    1C        C  300   4.170   4.399   4.948
    1C        C  301   4.349   2.884   2.061
    1C        C  302   4.467   3.071   2.177
    1C        C  303   4.392   2.948   2.178
    1C        C  304   4.479   3.145   2.298
    1C        C  305   4.445   3.081   2.419
    1C        C  306   4.508   3.287   2.538
    1C        C  307   4.477   3.149   2.539
    1C        C  308   4.516   3.358   2.660
    1C        C  309   4.504   3.289   2.782
    1C        C  310   4.521   3.503   2.902
    1C        C  311   4.512   3.363   2.903
    1C        C  312   4.517   3.574   3.024
    1C        C  313   4.513   3.506   3.148
    1C        C  314   4.485   3.719   3.264
    1C        C  315   4.507   3.579   3.268
    1C        C  316   4.472   3.788   3.386
    1C        C  317   4.485   3.721   3.510
    1C        C  318   4.428   3.929   3.629
    1C        C  319   4.475   3.795   3.630
    1C        C  320   4.399   3.996   3.750
    1C        C  321   4.429   3.933   3.873
    1C        C  322   4.324   4.118   3.994
    1C        C  323   4.402   4.000   3.995
    1C        C  324   4.282   4.176   4.116
    1C        C  325   4.331   4.124   4.238
    1C        C  326   4.190   4.287   4.354
    1C        C  327   4.287   4.184   4.358
    1C        C  328   4.139   4.339   4.475
    1C        C  329   4.194   4.294   4.597
    1C        C  330   4.028   4.439   4.715
    1C        C  331   4.141   4.353   4.714
    1C        C  332   3.975   4.495   4.834
    1C        C  333   4.054   4.478   4.948
    1C        C  334   4.553   3.270   2.064
    1C        C  335   4.536   3.131   2.068
    1C        C  336   4.538   3.353   2.176
    1C        C  337   4.517   3.282   2.296
    1C        C  338   4.524   3.498   2.415
    1C        C  339   4.518   3.357   2.416
    1C        C  340   4.521   3.570   2.536
    1C        C  341   4.525   3.499   2.658
    1C        C  342   4.494   3.712   2.775
    1C        C  343   4.519   3.573   2.779
    1C        C  344   4.476   3.781   2.897
    1C        C  345   4.495   3.714   3.020
    1C        C  346   4.425   3.918   3.140
    1C        C  347   4.474   3.785   3.140
    1C        C  348   4.394   3.981   3.262
    1C        C  349   4.428   3.922   3.386
    1C        C  350   4.320   4.108   3.504
    1C        C  351   4.398   3.990   3.506
    1C        C  352   4.276   4.168   3.625
    1C        C  353   4.321   4.114   3.747
    1C        C  354   4.186   4.275   3.869
    1C        C  355   4.278   4.168   3.870
    1C        C  356   4.129   4.325   3.989
    1C        C  357   4.182   4.275   4.110
    1C        C  358   4.016   4.408   4.231
    1C        C  359   4.130   4.325   4.232
    1C        C  360   3.959   4.452   4.352
    1C        C  361   4.023   4.418   4.473
    1C        C  362   3.831   4.514   4.596
    1C        C  363   3.963   4.464   4.593
    1C        C  364   3.765   4.539   4.718
    1C        C  365   3.844   4.547   4.835
    1C        C  366   3.631   4.597   4.949
    1C        C  367   3.769   4.582   4.948
    1C        C  368   4.510   3.565   2.053
    1C        C  369   4.524   3.493   2.173
    1C        C  370   4.506   3.709   2.288
    1C        C  371   4.520   3.569   2.293
    1C        C  372   4.489   3.778   2.410
    1C        C  373   4.503   3.711   2.533
    1C        C  374   4.426   3.912   2.649
    1C        C  375   4.481   3.782   2.653
    1C        C  376   4.402   3.977   2.772
    1C        C  377   4.429   3.914   2.896
    1C        C  378   4.327   4.102   3.014
    1C        C  379   4.400   3.981   3.017
    1C        C  380   4.282   4.160   3.134
    1C        C  381   4.319   4.101   3.257
    1C        C  382   4.186   4.266   3.378
    1C        C  383   4.281   4.161   3.379
    1C        C  384   4.132   4.315   3.499
    1C        C  385   4.184   4.275   3.624
    1C        C  386   4.012   4.396   3.744
    1C        C  387   4.132   4.321   3.747
    1C        C  388   3.950   4.436   3.865
    1C        C  389   4.015   4.408   3.987
    1C        C  390   3.820   4.492   4.110
    1C        C  391   3.951   4.438   4.109
    1C        C  392   3.755   4.521   4.232
    1C        C  393   3.827   4.505   4.352
    1C        C  394   3.622   4.554   4.478
    1C        C  395   3.762   4.532   4.474
    1C        C  396   3.550   4.561   4.599
    1C        C  397   3.625   4.560   4.718
    1C        C  398   3.410   4.551   4.841
    1C        C  399   3.550   4.574   4.837
    1C        C  400   3.342   4.517   4.958
    1C        C  401   4.511   3.704   2.051
    1C        C  402   4.457   3.916   2.167
    1C        C  403   4.499   3.781   2.167
    1C        C  404   4.415   3.979   2.286
    1C        C  405   4.444   3.912   2.407
    1C        C  406   4.331   4.098   2.526
    1C        C  407   4.406   3.979   2.526
    1C        C  408   4.283   4.153   2.648
    1C        C  409   4.326   4.096   2.770
    1C        C  410   4.183   4.254   2.889
    1C        C  411   4.285   4.156   2.891
    1C        C  412   4.130   4.304   3.011
    1C        C  413   4.186   4.264   3.135
    1C        C  414   4.008   4.381   3.254
    1C        C  415   4.130   4.309   3.256
    1C        C  416   3.947   4.415   3.376
    1C        C  417   4.010   4.386   3.500
    1C        C  418   3.820   4.482   3.621
    1C        C  419   3.949   4.424   3.621
    1C        C  420   3.750   4.504   3.742
    1C        C  421   3.818   4.485   3.865
    1C        C  422   3.614   4.536   3.988
    1C        C  423   3.754   4.514   3.987
    1C        C  424   3.546   4.535   4.112
    1C        C  425   3.615   4.539   4.235
    1C        C  426   3.406   4.545   4.359
    1C        C  427   3.547   4.550   4.358
    1C        C  428   3.336   4.539   4.481
    1C        C  429   3.409   4.553   4.601
    1C        C  430   3.196   4.519   4.723
    1C        C  431   3.335   4.547   4.722
    1C        C  432   3.125   4.495   4.844
    1C        C  433   3.204   4.495   4.960
    1C        C  434   4.390   4.125   2.051
    1C        C  435   4.449   3.999   2.054
    1C        C  436   4.307   4.165   2.161
    1C        C  437   4.338   4.099   2.283
    1C        C  438   4.187   4.252   2.404
    1C        C  439   4.288   4.153   2.403
    1C        C  440   4.132   4.297   2.525
    1C        C  441   4.182   4.252   2.649
    1C        C  442   4.009   4.380   2.765
    1C        C  443   4.127   4.302   2.769
    1C        C  444   3.948   4.415   2.888
    1C        C  445   4.011   4.380   3.009
    1C        C  446   3.817   4.468   3.134
    1C        C  447   3.946   4.411   3.130
    1C        C  448   3.752   4.499   3.255
    1C        C  449   3.820   4.478   3.377
    1C        C  450   3.614   4.527   3.499
    1C        C  451   3.754   4.505   3.498
    1C        C  452   3.543   4.538   3.620
    1C        C  453   3.612   4.533   3.744
    1C        C  454   3.402   4.543   3.868
    1C        C  455   3.543   4.545   3.866
    1C        C  456   3.335   4.531   3.992
    1C        C  457   3.405   4.533   4.115
    1C        C  458   3.198   4.496   4.238
    1C        C  459   3.335   4.529   4.238
    1C        C  460   3.130   4.480   4.360
    1C        C  461   3.197   4.513   4.481
    1C        C  462   2.999   4.433   4.602
    1C        C  463   3.129   4.488   4.602
    1C        C  464   2.935   4.400   4.724
    1C        C  465   2.992   4.442   4.847
    1C        C  466   2.801   4.345   4.958
    1C        C  467   2.911   4.432   4.964
    1C        C  468   4.129   4.292   2.043
    1C        C  469   4.191   4.248   2.162
    1C        C  470   4.016   4.378   2.279
    1C        C  471   4.136   4.301   2.281
    1C        C  472   3.948   4.406   2.399
    1C        C  473   4.011   4.371   2.521
    1C        C  474   3.820   4.467   2.646
    1C        C  475   3.949   4.411   2.641
    1C        C  476   3.750   4.493   2.767
    1C        C  477   3.818   4.471   2.889
    1C        C  478   3.612   4.521   3.013
    1C        C  479   3.750   4.488   3.011
    1C        C  480   3.540   4.524   3.134
    1C        C  481   3.612   4.520   3.256
    1C        C  482   3.400   4.531   3.378
    1C        C  483   3.541   4.529   3.378
    1C        C  484   3.331   4.518   3.501
    1C        C  485   3.402   4.530   3.622
    1C        C  486   3.195   4.498   3.748
    1C        C  487   3.333   4.532   3.745
    1C        C  488   3.129   4.474   3.871
    1C        C  489   3.198   4.496   3.992
    1C        C  490   3.005   4.411   4.116
    1C        C  491   3.131   4.475   4.115
    1C        C  492   2.943   4.384   4.240
    1C        C  493   3.003   4.419   4.363
    1C        C  494   2.822   4.306   4.487
    1C        C  495   2.935   4.390   4.484
    1C        C  496   2.766   4.262   4.609
    1C        C  497   2.817   4.320   4.727
    1C        C  498   2.666   4.167   4.849
    1C        C  499   2.752   4.279   4.845
    1C        C  500   2.602   4.115   4.963
    1C        C  501   4.005   4.355   2.041
    1C        C  502   3.821   4.467   2.158
    1C        C  503   3.949   4.408   2.158
    1C        C  504   3.748   4.476   2.279
    1C        C  505   3.816   4.454   2.400
    1C        C  506   3.613   4.508   2.523
    1C        C  507   3.752   4.482   2.523
    1C        C  508   3.541   4.515   2.644
    1C        C  509   3.610   4.514   2.767
    1C        C  510   3.402   4.520   2.887
    1C        C  511   3.543   4.528   2.890
    1C        C  512   3.329   4.514   3.009
    1C        C  513   3.399   4.523   3.132
    1C        C  514   3.194   4.485   3.256
    1C        C  515   3.330   4.522   3.255
    1C        C  516   3.128   4.459   3.378
    1C        C  517   3.194   4.484   3.500
    1C        C  518   3.004   4.409   3.626
    1C        C  519   3.130   4.472   3.626
    1C        C  520   2.943   4.371   3.748
    1C        C  521   3.005   4.406   3.870
    1C        C  522   2.834   4.287   3.998
    1C        C  523   2.947   4.371   3.994
    1C        C  524   2.784   4.241   4.122
    1C        C  525   2.832   4.296   4.243
    1C        C  526   2.694   4.136   4.363
    1C        C  527   2.779   4.249   4.365
    1C        C  528   2.652   4.083   4.487
    1C        C  529   2.689   4.143   4.609
    1C        C  530   2.581   3.964   4.732
    1C        C  531   2.639   4.094   4.731
    1C        C  532   2.541   3.902   4.853
    1C        C  533   2.532   3.994   4.963
    1C        C  534   3.621   4.557   2.040
    1C        C  535   3.756   4.516   2.045
    1C        C  536   3.542   4.532   2.156
    1C        C  537   3.609   4.510   2.279
    1C        C  538   3.399   4.513   2.404
    1C        C  539   3.540   4.516   2.402
    1C        C  540   3.327   4.504   2.525
    1C        C  541   3.399   4.512   2.646
    1C        C  542   3.191   4.473   2.766
    1C        C  543   3.328   4.508   2.768
    1C        C  544   3.125   4.451   2.890
    1C        C  545   3.193   4.478   3.011
    1C        C  546   3.000   4.397   3.135
    1C        C  547   3.127   4.458   3.134
    1C        C  548   2.940   4.362   3.259
    1C        C  549   3.000   4.400   3.381
    1C        C  550   2.831   4.279   3.509
    1C        C  551   2.941   4.367   3.506
    1C        C  552   2.777   4.234   3.631
    1C        C  553   2.829   4.289   3.751
    1C        C  554   2.701   4.124   3.875
    1C        C  555   2.783   4.240   3.875
    1C        C  556   2.661   4.067   3.998
    1C        C  557   2.693   4.132   4.119
    1C        C  558   2.594   3.948   4.248
    1C        C  559   2.652   4.076   4.242
    1C        C  560   2.563   3.885   4.371
    1C        C  561   2.587   3.957   4.491
    1C        C  562   2.532   3.753   4.616
    1C        C  563   2.561   3.891   4.613
    1C        C  564   2.521   3.682   4.738
    1C        C  565   2.526   3.760   4.857
    1C        C  566   2.539   3.552   4.979
    1C        C  567   2.521   3.690   4.978
    1C        C  568   3.328   4.479   2.045
    1C        C  569   3.403   4.504   2.161
    1C        C  570   3.191   4.470   2.283
    1C        C  571   3.328   4.506   2.282
    1C        C  572   3.121   4.452   2.404
    1C        C  573   3.188   4.478   2.526
    1C        C  574   2.988   4.405   2.648
    1C        C  575   3.117   4.461   2.646
    1C        C  576   2.933   4.360   2.771
    1C        C  577   2.996   4.393   2.892
    1C        C  578   2.821   4.278   3.018
    1C        C  579   2.933   4.364   3.015
    1C        C  580   2.773   4.227   3.140
    1C        C  581   2.831   4.273   3.261
    1C        C  582   2.692   4.119   3.388
    1C        C  583   2.783   4.227   3.386
    1C        C  584   2.652   4.061   3.510
    1C        C  585   2.689   4.123   3.631
    1C        C  586   2.593   3.939   3.758
    1C        C  587   2.654   4.066   3.755
    1C        C  588   2.569   3.876   3.882
    1C        C  589   2.597   3.941   4.005
    1C        C  590   2.531   3.742   4.129
    1C        C  591   2.569   3.878   4.128
    1C        C  592   2.520   3.676   4.253
    1C        C  593   2.531   3.748   4.374
    1C        C  594   2.514   3.537   4.497
    1C        C  595   2.522   3.678   4.497
    1C        C  596   2.521   3.467   4.619
    1C        C  597   2.524   3.540   4.740
    1C        C  598   2.542   3.331   4.864
    1C        C  599   2.532   3.472   4.864
    1C        C  600   2.541   3.254   4.981
    1C        C  601   3.196   4.439   2.045
    1C        C  602   2.984   4.396   2.161
    1C        C  603   3.120   4.439   2.163
    1C        C  604   2.925   4.362   2.287
    1C        C  605   2.992   4.395   2.407
    1C        C  606   2.817   4.276   2.531
    1C        C  607   2.924   4.368   2.528
    1C        C  608   2.768   4.224   2.653
    1C        C  609   2.821   4.274   2.775
    1C        C  610   2.683   4.114   2.900
    1C        C  611   2.768   4.227   2.897
    1C        C  612   2.643   4.056   3.022
    1C        C  613   2.685   4.117   3.142
    1C        C  614   2.589   3.932   3.267
    1C        C  615   2.652   4.058   3.267
    1C        C  616   2.562   3.869   3.391
    1C        C  617   2.592   3.933   3.513
    1C        C  618   2.535   3.732   3.641
    1C        C  619   2.569   3.869   3.637
    1C        C  620   2.522   3.666   3.766
    1C        C  621   2.531   3.740   3.885
    1C        C  622   2.513   3.530   4.010
    1C        C  623   2.515   3.671   4.007
    1C        C  624   2.519   3.460   4.133
    1C        C  625   2.517   3.535   4.252
    1C        C  626   2.542   3.327   4.380
    1C        C  627   2.516   3.465   4.375
    1C        C  628   2.557   3.256   4.502
    1C        C  629   2.546   3.328   4.623
    1C        C  630   2.602   3.123   4.747
    1C        C  631   2.555   3.257   4.745
    1C        C  632   2.616   3.052   4.870
    1C        C  633   2.565   3.116   4.987
    1C        C  634   2.777   4.310   2.057
    1C        C  635   2.893   4.389   2.051
    1C        C  636   2.752   4.232   2.170
    1C        C  637   2.814   4.274   2.290
    1C        C  638   2.677   4.112   2.412
    1C        C  639   2.761   4.226   2.412
    1C        C  640   2.637   4.055   2.535
    1C        C  641   2.685   4.110   2.655
    1C        C  642   2.577   3.929   2.780
    1C        C  643   2.644   4.054   2.778
    1C        C  644   2.551   3.861   2.901
    1C        C  645   2.590   3.925   3.022
    1C        C  646   2.525   3.728   3.152
    1C        C  647   2.567   3.862   3.146
    1C        C  648   2.510   3.659   3.275
    1C        C  649   2.525   3.733   3.394
    1C        C  650   2.509   3.524   3.522
    1C        C  651   2.516   3.665   3.518
    1C        C  652   2.510   3.453   3.644
    1C        C  653   2.506   3.525   3.765
    1C        C  654   2.541   3.319   3.893
    1C        C  655   2.512   3.458   3.889
    1C        C  656   2.561   3.252   4.015
    1C        C  657   2.545   3.321   4.137
    1C        C  658   2.616   3.123   4.262
    1C        C  659   2.564   3.255   4.261
    1C        C  660   2.640   3.060   4.386
    1C        C  661   2.602   3.122   4.507
    1C        C  662   2.718   2.941   4.628
    1C        C  663   2.636   3.056   4.627
    1C        C  664   2.755   2.880   4.750
    1C        C  665   2.701   2.937   4.869
    1C        C  666   2.746   2.874   4.986
    1C        C  667   2.686   4.026   2.058
    1C        C  668   2.687   4.107   2.172
    1C        C  669   2.590   3.913   2.294
    1C        C  670   2.647   4.044   2.292
    1C        C  671   2.559   3.852   2.417
    1C        C  672   2.583   3.924   2.536
    1C        C  673   2.522   3.723   2.660
    1C        C  674   2.555   3.860   2.659
    1C        C  675   2.517   3.652   2.783
    1C        C  676   2.526   3.722   2.905
    1C        C  677   2.506   3.517   3.032
    1C        C  678   2.516   3.658   3.030
    1C        C  679   2.512   3.447   3.155
    1C        C  680   2.509   3.518   3.277
    1C        C  681   2.542   3.312   3.401
    1C        C  682   2.513   3.450   3.401
    1C        C  683   2.558   3.247   3.525
    1C        C  684   2.540   3.315   3.648
    1C        C  685   2.612   3.119   3.774
    1C        C  686   2.560   3.250   3.772
    1C        C  687   2.648   3.056   3.896
    1C        C  688   2.617   3.122   4.017
    1C        C  689   2.718   2.937   4.142
    1C        C  690   2.647   3.059   4.140
    1C        C  691   2.762   2.883   4.265
    1C        C  692   2.717   2.942   4.386
    1C        C  693   2.762   2.885   4.506
    1C        C  694   2.632   3.897   2.058
    1C        C  695   2.534   3.705   2.179
    1C        C  696   2.583   3.837   2.175
    1C        C  697   2.502   3.641   2.301
    1C        C  698   2.524   3.715   2.419
    1C        C  699   2.497   3.507   2.547
    1C        C  700   2.504   3.648   2.542
    1C        C  701   2.504   3.437   2.669
    1C        C  702   2.504   3.512   2.789
    1C        C  703   2.529   3.303   2.913
    1C        C  704   2.507   3.442   2.912
    1C        C  705   2.547   3.234   3.035
    1C        C  706   2.537   3.308   3.156
    1C        C  707   2.606   3.109   3.282
    1C        C  708   2.560   3.243   3.279
    1C        C  709   2.645   3.052   3.405
    1C        C  710   2.612   3.116   3.526
    1C        C  711   2.718   2.937   3.650
    1C        C  712   2.642   3.057   3.651
    1C        C  713   2.763   2.882   3.772
    1C        C  714   2.722   2.936   3.895
    1C        C  715   2.763   2.883   4.020
    1C        C  716   2.461   3.499   2.062
    1C        C  717   2.490   3.636   2.065
    1C        C  718   2.473   3.425   2.183
    1C        C  719   2.483   3.500   2.304
    1C        C  720   2.514   3.292   2.427
    1C        C  721   2.492   3.432   2.427
    1C        C  722   2.530   3.223   2.549
    1C        C  723   2.526   3.297   2.669
    1C        C  724   2.596   3.099   2.791
    1C        C  725   2.545   3.231   2.792
    1C        C  726   2.627   3.036   2.913
    1C        C  727   2.602   3.104   3.034
    1C        C  728   2.710   2.927   3.160
    1C        C  729   2.630   3.043   3.159
    1C        C  730   2.756   2.873   3.282
    1C        C  731   2.720   2.933   3.405
    1C        C  732   2.762   2.879   3.529
    1C        C  733   2.488   3.198   2.076
    1C        C  734   2.490   3.283   2.188
    1C        C  735   2.585   3.086   2.306
    1C        C  736   2.530   3.218   2.308
    1C        C  737   2.615   3.021   2.428
    1C        C  738   2.587   3.094   2.546
    1C        C  739   2.705   2.918   2.672
    1C        C  740   2.626   3.035   2.669
    1C        C  741   2.746   2.859   2.793
    1C        C  742   2.704   2.917   2.915
    1C        C  743   2.756   2.872   3.038
    1C        C  744   2.546   3.072   2.074
    1C        C  745   2.689   2.900   2.187
    1C        C  746   2.611   3.017   2.186
    1C        C  747   2.729   2.841   2.309
    1C        C  748   2.689   2.901   2.430
    1C        C  749   2.741   2.852   2.552
    1C        C  750   2.743   2.844   2.070
    1C        C  751   3.660   2.317   1.989
    1C        O  752   3.664   2.195   2.021
    1C        O  753   3.704   2.328   1.857
    1C        C  754   4.626   3.065   1.971
    1C        O  755   4.577   3.011   1.868
    1C        O  756   4.743   2.997   2.008
    1C        C  757   4.457   4.228   1.968
    1C        O  758   4.506   4.335   2.015
    1C        O  759   4.460   4.220   1.828
    1C        C  760   3.596   4.669   1.947
    1C        O  761   3.687   4.756   1.937
    1C        O  762   3.541   4.643   1.820
    1C        C  763   2.877   4.503   1.957
    1C        O  764   2.892   4.483   1.834
    1C        O  765   2.885   4.639   1.988
    1C        C  766   2.359   3.475   1.957
    1C        O  767   2.395   3.500   1.839
    1C        O  768   2.224   3.512   1.964
    1C        C  769   4.678   3.585   5.072
    1C        O  770   4.650   3.601   5.194
    1C        O  771   4.812   3.615   5.046
    1C        C  772   4.276   4.460   5.032
    1C        O  773   4.286   4.427   5.153
    1C        O  774   4.329   4.586   5.000
    1C        C  775   4.152   2.500   5.058
    1C        O  776   4.197   2.392   5.013
    1C        O  777   4.195   2.542   5.185
    1C        C  778   2.890   4.546   5.055
    1C        O  779   2.776   4.598   5.074
    1C        O  780   2.945   4.534   5.183
    1C        C  781   2.486   3.048   5.091
    1C        O  782   2.380   2.986   5.061
    1C        O  783   2.529   3.036   5.223
    1C        C  784   2.419   3.990   5.057
    1C        O  785   2.298   3.992   5.022
    1C        O  786   2.440   3.930   5.182
    1C        C  787   2.957   2.424   2.006
    1C        O  788   2.910   2.448   1.891
    1C        O  789   2.895   2.315   2.067
    1C        C  790   3.169   2.369   5.063
    1C        O  791   3.101   2.273   5.017
    1C        O  792   3.165   2.368   5.202
    1C        H  793   4.249   3.037   5.043
    1C        H  794   4.151   2.824   5.064
    1C        H  795   4.548   3.127   5.027
    1C        H  796   4.464   3.382   5.052
    1C        H  797   4.586   3.818   5.039
    1C        H  798   4.401   3.960   5.050
    1C        H  799   4.270   4.161   5.047
    1C        H  800   4.014   4.499   5.046
    1C        H  801   3.823   4.599   5.039
    1C        H  802   3.587   4.663   5.021
    1C        H  803   3.397   4.506   5.049
    1C        H  804   3.158   4.445   5.043
    1C        H  805   3.885   2.509   5.070
    1C        H  806   3.672   2.512   5.078
    1C        H  807   2.984   2.536   5.044
    1C        H  808   3.448   2.491   5.077
    1C        H  809   2.902   2.781   5.077
    1C        H  810   2.690   2.888   5.075
    1C        H  811   2.525   3.306   5.074
    1C        H  812   2.583   3.514   5.069
    1C        H  813   2.451   3.726   5.050
    1C        H  814   2.618   4.162   5.058
    1C        H  815   2.752   4.327   5.052
    1C        H  816   2.720   2.886   1.975
    1C        H  817   2.880   2.720   1.977
    1C        H  818   3.212   2.457   1.983
    1C        H  819   3.433   2.476   1.980
    1C        H  820   3.862   2.512   1.973
    1C        H  821   4.077   2.598   1.975
    1C        H  822   4.274   2.703   1.985
    1C        H  823   4.410   2.896   1.974
    1C        H  824   4.597   3.316   1.978
    1C        H  825   4.487   3.512   1.963
    1C        H  826   4.496   3.750   1.956
    1C        H  827   3.815   4.531   1.957
    1C        H  828   3.947   4.336   1.954
    1C        H  829   4.193   4.313   1.960
    1C        H  830   4.457   3.955   1.956
    1C        H  831   2.614   3.846   1.965
    1C        H  832   2.731   4.059   1.967
    1C        H  833   2.743   4.274   1.962
    1C        H  834   3.381   4.472   1.952
    1C        H  835   3.150   4.434   1.949
    1C        H  836   2.494   2.996   2.020
    1C        H  837   2.404   3.212   2.011
    1C        H  838   2.462   3.700   1.984
    2V3OU   H29  839   2.811   3.553   6.061
    2V3OU   C27  840   2.782   3.508   6.159
    2V3OU   H27  841   2.729   3.580   6.227
    2V3OU   H28  842   2.724   3.413   6.144
    2V3OU   O11  843   2.906   3.481   6.225
    2V3OU   C15  844   2.924   3.396   6.332
    2V3OU   C13  845   3.053   3.376   6.383
    2V3OU   C14  846   3.077   3.271   6.473
    2V3OU   C16  847   2.971   3.193   6.517
    2V3OU    H6  848   2.990   3.112   6.590
    2V3OU   C12  849   3.217   3.233   6.503
    2V3OU    O2  850   3.245   3.127   6.564
    2V3OU   C10  851   3.329   3.312   6.450
    2V3OU    C8  852   3.462   3.273   6.469
    2V3OU   O10  853   3.486   3.161   6.542
    2V3OU   H26  854   3.401   3.117   6.558
    2V3OU    C6  855   3.567   3.350   6.411
    2V3OU    C5  856   3.542   3.472   6.349
    2V3OU    C4  857   3.705   3.295   6.417
    2V3OU    H4  858   3.723   3.228   6.507
    2V3OU    H5  859   3.716   3.231   6.324
    2V3OU    C2  860   3.816   3.400   6.420
    2V3OU    O6  861   3.809   3.472   6.544
    2V3OU   H21  862   3.763   3.552   6.515
    2V3OU    C3  863   3.784   3.495   6.304
    2V3OU    H2  864   3.864   3.573   6.305
    2V3OU    H3  865   3.787   3.440   6.206
    2V3OU   C25  866   3.950   3.329   6.401
    2V3OU    O7  867   4.005   3.301   6.295
    2V3OU   C26  868   4.036   3.294   6.521
    2V3OU   H22  869   4.066   3.392   6.567
    2V3OU   H23  870   4.125   3.234   6.489
    2V3OU    O8  871   3.960   3.217   6.611
    2V3OU   H24  872   3.926   3.267   6.687
    2V3OU    C1  873   3.651   3.568   6.312
    2V3OU    H1  874   3.632   3.617   6.212
    2V3OU    O3  875   3.661   3.656   6.424
    2V3OU   C19  876   3.623   3.794   6.423
    2V3OU    H9  877   3.526   3.802   6.366
    2V3OU    O4  878   3.723   3.852   6.342
    2V3OU   C20  879   3.851   3.873   6.402
    2V3OU   H10  880   3.903   3.773   6.408
    2V3OU   C24  881   3.612   3.859   6.561
    2V3OU   H16  882   3.545   3.796   6.624
    2V3OU   H17  883   3.566   3.961   6.550
    2V3OU   C23  884   3.750   3.876   6.625
    2V3OU   H15  885   3.790   3.772   6.648
    2V3OU    N1  886   3.736   3.956   6.745
    2V3OU   H19  887   3.806   3.935   6.813
    2V3OU   H20  888   3.653   3.920   6.789
    2V3OU   C21  889   3.853   3.949   6.534
    2V3OU   H11  890   3.954   3.920   6.575
    2V3OU    O5  891   3.830   4.089   6.540
    2V3OU   H18  892   3.780   4.102   6.622
    2V3OU   C22  893   3.917   3.950   6.289
    2V3OU   H12  894   3.861   4.044   6.266
    2V3OU   H13  895   3.909   3.894   6.192
    2V3OU   H14  896   4.025   3.965   6.313
    2V3OU   C11  897   3.161   3.474   6.363
    2V3OU    O1  898   3.149   3.595   6.335
    2V3OU    C9  899   3.301   3.425   6.369
    2V3OU    C7  900   3.405   3.508   6.328
    2V3OU    O9  901   3.390   3.620   6.249
    2V3OU   H25  902   3.295   3.638   6.252
    2V3OU   C17  903   2.819   3.313   6.377
    2V3OU    H7  904   2.718   3.346   6.350
    2V3OU   C18  905   2.841   3.215   6.473
    2V3OU    H8  906   2.755   3.152   6.498
    3SOL     OW  907   3.160   3.035   4.185
    3SOL    HW1  908   3.192   3.009   4.276
    3SOL    HW2  909   3.094   3.110   4.193
    4SOL     OW  910   0.966   6.465   0.731
    4SOL    HW1  911   0.946   6.452   0.828
    4SOL    HW2  912   0.916   6.545   0.696
    5SOL     OW  913   3.736   2.406   0.677
    5SOL    HW1  914   3.741   2.344   0.754
    5SOL    HW2  915   3.692   2.491   0.705
    6SOL     OW  916   3.914   1.837   2.557
    6SOL    HW1  917   3.941   1.919   2.507
    6SOL    HW2  918   3.886   1.766   2.492
    7SOL     OW  919   2.311   2.913   4.674
    7SOL    HW1  920   2.359   2.877   4.754
    7SOL    HW2  921   2.301   2.840   4.606
    8SOL     OW  922   0.814   2.357   5.897
    8SOL    HW1  923   0.768   2.271   5.876
    8SOL    HW2  924   0.883   2.377   5.828
    9SOL     OW  925   1.435   2.513   6.100
    9SOL    HW1  926   1.483   2.515   6.012
    9SOL    HW2  927   1.457   2.428   6.147
   10SOL     OW  928   5.764   5.087   1.410
   10SOL    HW1  929   5.747   5.115   1.504
   10SOL    HW2  930   5.738   4.991   1.399
   11SOL     OW  931   3.300   1.564   0.652
   11SOL    HW1  932   3.244   1.539   0.731
   11SOL    HW2  933   3.273   1.509   0.573
   12SOL     OW  934   5.319   5.132   1.632
   12SOL    HW1  935   5.254   5.202   1.603
   12SOL    HW2  936   5.305   5.113   1.730
   13SOL     OW  937   5.453   5.759   1.936
   13SOL    HW1  938   5.361   5.778   1.969
   13SOL    HW2  939   5.481   5.830   1.872
   14SOL     OW  940   3.548   6.170   0.744
   14SOL    HW1  941   3.560   6.234   0.668
   14SOL    HW2  942   3.533   6.221   0.828
   15SOL     OW  943   0.627   6.790   6.664
   15SOL    HW1  944   0.665   6.698   6.673
   15SOL    HW2  945   0.550   6.800   6.728
   16SOL     OW  946   1.852   5.681   4.884
   16SOL    HW1  947   1.841   5.778   4.865
   16SOL    HW2  948   1.893   5.668   4.974
   17SOL     OW  949   0.379   2.059   3.641
   17SOL    HW1  950   0.467   2.102   3.662
   17SOL    HW2  951   0.395   1.978   3.584
   18SOL     OW  952   2.836   1.763   5.609
   18SOL    HW1  953   2.831   1.838   5.543
   18SOL    HW2  954   2.931   1.738   5.625
   19SOL     OW  955   2.728   5.325   2.665
   19SOL    HW1  956   2.807   5.309   2.605
   19SOL    HW2  957   2.651   5.357   2.611
   20SOL     OW  958   6.869   1.656   5.538
   20SOL    HW1  959   6.862   1.563   5.500
   20SOL    HW2  960   6.932   1.655   5.615
   21SOL     OW  961   1.321   4.018   1.724
   21SOL    HW1  962   1.313   3.921   1.704
   21SOL    HW2  963   1.381   4.061   1.656
   22SOL     OW  964   0.978   1.343   0.318
   22SOL    HW1  965   0.878   1.342   0.315
   22SOL    HW2  966   1.013   1.419   0.262
   23SOL     OW  967   6.816   5.199   6.893
   23SOL    HW1  968   6.740   5.250   6.933
   23SOL    HW2  969   6.780   5.127   6.833
   24SOL     OW  970   5.238   1.231   0.067
   24SOL    HW1  971   5.155   1.286   0.064
   24SOL    HW2  972   5.295   1.253   7.015
   25SOL     OW  973   1.326   0.889   4.943
   25SOL    HW1  974   1.389   0.967   4.936
   25SOL    HW2  975   1.293   0.865   4.852
   26SOL     OW  976   2.283   0.246   5.743
   26SOL    HW1  977   2.271   0.240   5.842
   26SOL    HW2  978   2.211   0.194   5.697
   27SOL     OW  979   6.887   0.323   2.546
   27SOL    HW1  980   6.848   0.232   2.532
   27SOL    HW2  981   6.986   0.314   2.561
   28SOL     OW  982   1.766   0.794   5.949
   28SOL    HW1  983   1.749   0.887   5.915
   28SOL    HW2  984   1.685   0.737   5.932
   29SOL     OW  985   5.433   0.957   0.969
   29SOL    HW1  986   5.344   1.003   0.970
   29SOL    HW2  987   5.427   0.872   1.022
   30SOL     OW  988   4.681   0.238   4.698
   30SOL    HW1  989   4.699   0.336   4.712
   30SOL    HW2  990   4.643   0.199   4.782
   31SOL     OW  991   6.438   5.025   4.632
   31SOL    HW1  992   6.392   5.084   4.698
   31SOL    HW2  993   6.372   4.964   4.589
   32SOL     OW  994   3.550   1.182   1.104
   32SOL    HW1  995   3.470   1.218   1.153
   32SOL    HW2  996   3.529   1.090   1.069
   33SOL     OW  997   1.958   4.884   5.503
   33SOL    HW1  998   1.967   4.952   5.576
   33SOL    HW2  999   2.031   4.816   5.511
   34SOL     OW 1000   2.128   6.617   5.320
   34SOL    HW1 1001   2.119   6.540   5.257
   34SOL    HW2 1002   2.174   6.586   5.403
   35SOL     OW 1003   1.342   2.715   4.277
   35SOL    HW1 1004   1.354   2.657   4.358
   35SOL    HW2 1005   1.423   2.772   4.265
   36SOL     OW 1006   5.482   1.246   4.417
   36SOL    HW1 1007   5.395   1.293   4.409
   36SOL    HW2 1008   5.549   1.289   4.357
   37SOL     OW 1009   1.704   6.637   4.545
   37SOL    HW1 1010   1.631   6.688   4.591
   37SOL    HW2 1011   1.759   6.701   4.490
   38SOL     OW 1012   0.879   3.370   1.108
   38SOL    HW1 1013   0.860   3.368   1.010
   38SOL    HW2 1014   0.881   3.465   1.140
   39SOL     OW 1015   6.620   5.107   0.781
   39SOL    HW1 1016   6.694   5.060   0.830
   39SOL    HW2 1017   6.532   5.070   0.812
   40SOL     OW 1018   4.144   1.077   0.162
   40SOL    HW1 1019   4.214   1.023   0.208
   40SOL    HW2 1020   4.163   1.079   0.064
   41SOL     OW 1021   5.726   4.014   1.901
   41SOL    HW1 1022   5.674   4.074   1.841
   41SOL    HW2 1023   5.780   3.950   1.847
   42SOL     OW 1024   2.270   3.450   0.066
   42SOL    HW1 1025   2.305   3.467   7.001
   42SOL    HW2 1026   2.177   3.413   0.059
   43SOL     OW 1027   4.884   6.910   4.503
   43SOL    HW1 1028   4.875   7.006   4.480
   43SOL    HW2 1029   4.972   6.875   4.471
   44SOL     OW 1030   6.765   0.734   6.971
   44SOL    HW1 1031   6.782   0.832   6.987
   44SOL    HW2 1032   6.837   0.697   6.912
   45SOL     OW 1033   3.035   3.966   5.545
   45SOL    HW1 1034   3.011   4.032   5.616
   45SOL    HW2 1035   2.974   3.887   5.551
   46SOL     OW 1036   1.089   4.742   4.602
   46SOL    HW1 1037   1.045   4.818   4.650
   46SOL    HW2 1038   1.033   4.715   4.524
   47SOL     OW 1039   6.142   4.065   6.872
   47SOL    HW1 1040   6.069   3.996   6.870
   47SOL    HW2 1041   6.227   4.021   6.902
   48SOL     OW 1042   0.191   4.217   0.131
   48SOL    HW1 1043   0.194   4.234   0.033
   48SOL    HW2 1044   0.253   4.141   0.153
   49SOL     OW 1045   3.187   1.823   6.659
   49SOL    HW1 1046   3.090   1.842   6.669
   49SOL    HW2 1047   3.203   1.724   6.660
   50SOL     OW 1048   5.154   2.255   6.600
   50SOL    HW1 1049   5.128   2.237   6.695
   50SOL    HW2 1050   5.247   2.292   6.598
   51SOL     OW 1051   1.279   6.478   2.224
   51SOL    HW1 1052   1.321   6.468   2.133
   51SOL    HW2 1053   1.336   6.538   2.280
   52SOL     OW 1054   5.951   2.113   2.540
   52SOL    HW1 1055   5.979   2.167   2.461
   52SOL    HW2 1056   5.908   2.173   2.608
   53SOL     OW 1057   4.606   0.678   0.655
   53SOL    HW1 1058   4.537   0.682   0.728
   53SOL    HW2 1059   4.629   0.583   0.636
   54SOL     OW 1060   7.013   0.998   6.374
   54SOL    HW1 1061   7.003   1.054   6.291
   54SOL    HW2 1062   0.006   1.058   6.451
   55SOL     OW 1063   2.331   3.281   5.803
   55SOL    HW1 1064   2.374   3.212   5.861
   55SOL    HW2 1065   2.377   3.369   5.818
   56SOL     OW 1066   0.628   2.777   6.713
   56SOL    HW1 1067   0.640   2.856   6.653
   56SOL    HW2 1068   0.616   2.695   6.658
   57SOL     OW 1069   4.002   5.355   1.556
   57SOL    HW1 1070   3.945   5.437   1.544
   57SOL    HW2 1071   4.072   5.373   1.624
   58SOL     OW 1072   0.703   1.103   6.971
   58SOL    HW1 1073   0.702   1.203   6.974
   58SOL    HW2 1074   0.762   1.068   0.017
   59SOL     OW 1075   3.632   2.811   0.096
   59SOL    HW1 1076   3.718   2.763   0.075
   59SOL    HW2 1077   3.557   2.767   0.046
   60SOL     OW 1078   6.682   2.802   2.826
   60SOL    HW1 1079   6.774   2.762   2.826
   60SOL    HW2 1080   6.675   2.867   2.902
   61SOL     OW 1081   1.451   5.745   2.680
   61SOL    HW1 1082   1.478   5.836   2.711
   61SOL    HW2 1083   1.532   5.691   2.658
   62SOL     OW 1084   5.197   3.060   3.199
   62SOL    HW1 1085   5.198   3.101   3.290
   62SOL    HW2 1086   5.232   2.967   3.204
   63SOL     OW 1087   4.101   6.902   6.786
   63SOL    HW1 1088   4.075   6.890   6.882
   63SOL    HW2 1089   4.052   6.835   6.730
   64SOL     OW 1090   1.907   2.297   6.723
   64SOL    HW1 1091   1.820   2.333   6.690
   64SOL    HW2 1092   1.945   2.234   6.655
   65SOL     OW 1093   0.856   5.011   5.267
   65SOL    HW1 1094   0.920   4.964   5.207
   65SOL    HW2 1095   0.904   5.039   5.351
   66SOL     OW 1096   4.613   1.050   1.242
   66SOL    HW1 1097   4.640   1.042   1.146
   66SOL    HW2 1098   4.688   1.018   1.301
   67SOL     OW 1099   0.063   3.351   1.215
   67SOL    HW1 1100   0.121   3.324   1.292
   67SOL    HW2 1101   0.119   3.359   1.133
   68SOL     OW 1102   0.513   1.293   6.473
   68SOL    HW1 1103   0.488   1.388   6.492
   68SOL    HW2 1104   0.526   1.282   6.374
   69SOL     OW 1105   1.699   0.121   6.224
   69SOL    HW1 1106   1.625   0.178   6.191
   69SOL    HW2 1107   1.770   0.178   6.265
   70SOL     OW 1108   4.598   5.079   3.519
   70SOL    HW1 1109   4.513   5.040   3.554
   70SOL    HW2 1110   4.581   5.126   3.432
   71SOL     OW 1111   5.089   1.493   5.027
   71SOL    HW1 1112   5.029   1.543   5.090
   71SOL    HW2 1113   5.111   1.550   4.948
   72SOL     OW 1114   6.452   1.099   2.335
   72SOL    HW1 1115   6.455   1.008   2.378
   72SOL    HW2 1116   6.420   1.089   2.241
   73SOL     OW 1117   3.104   0.953   0.949
   73SOL    HW1 1118   3.131   0.974   0.855
   73SOL    HW2 1119   3.117   1.033   1.007
   74SOL     OW 1120   2.363   1.149   7.014
   74SOL    HW1 1121   2.453   1.164   6.971
   74SOL    HW2 1122   2.359   1.198   0.074
   75SOL     OW 1123   3.049   2.939   1.523
   75SOL    HW1 1124   3.118   2.901   1.585
   75SOL    HW2 1125   2.976   2.872   1.511
   76SOL     OW 1126   4.011   5.209   6.363
   76SOL    HW1 1127   3.988   5.306   6.351
   76SOL    HW2 1128   4.094   5.201   6.418
   77SOL     OW 1129   6.768   5.289   4.458
   77SOL    HW1 1130   6.863   5.290   4.489
   77SOL    HW2 1131   6.709   5.259   4.532
   78SOL     OW 1132   5.327   1.454   1.472
   78SOL    HW1 1133   5.298   1.360   1.453
   78SOL    HW2 1134   5.301   1.514   1.396
   79SOL     OW 1135   1.768   4.526   4.544
   79SOL    HW1 1136   1.706   4.512   4.621
   79SOL    HW2 1137   1.719   4.571   4.470
   80SOL     OW 1138   4.000   2.376   5.316
   80SOL    HW1 1139   3.936   2.389   5.391
   80SOL    HW2 1140   4.055   2.459   5.303
   81SOL     OW 1141   2.588   5.110   3.501
   81SOL    HW1 1142   2.604   5.081   3.596
   81SOL    HW2 1143   2.521   5.048   3.459
   82SOL     OW 1144   3.371   0.366   1.717
   82SOL    HW1 1145   3.318   0.335   1.639
   82SOL    HW2 1146   3.347   0.461   1.738
   83SOL     OW 1147   5.956   1.683   3.475
   83SOL    HW1 1148   5.928   1.775   3.501
   83SOL    HW2 1149   6.054   1.681   3.459
   84SOL     OW 1150   5.367   2.226   2.774
   84SOL    HW1 1151   5.303   2.150   2.780
   84SOL    HW2 1152   5.443   2.202   2.713
   85SOL     OW 1153   2.080   5.356   3.534
   85SOL    HW1 1154   2.038   5.365   3.624
   85SOL    HW2 1155   2.179   5.372   3.541
   86SOL     OW 1156   5.045   0.837   0.787
   86SOL    HW1 1157   4.974   0.774   0.754
   86SOL    HW2 1158   5.128   0.786   0.808
   87SOL     OW 1159   2.936   3.255   6.857
   87SOL    HW1 1160   2.884   3.314   6.795
   87SOL    HW2 1161   3.032   3.256   6.830
   88SOL     OW 1162   1.692   1.848   1.117
   88SOL    HW1 1163   1.605   1.884   1.151
   88SOL    HW2 1164   1.694   1.748   1.130
   89SOL     OW 1165   3.921   4.054   4.690
   89SOL    HW1 1166   3.936   4.143   4.731
   89SOL    HW2 1167   3.840   4.012   4.731
   90SOL     OW 1168   6.441   3.456   2.176
   90SOL    HW1 1169   6.448   3.503   2.264
   90SOL    HW2 1170   6.468   3.518   2.103
   91SOL     OW 1171   4.852   5.167   0.698
   91SOL    HW1 1172   4.899   5.231   0.759
   91SOL    HW2 1173   4.882   5.183   0.604
   92SOL     OW 1174   5.807   5.762   6.811
   92SOL    HW1 1175   5.764   5.694   6.751
   92SOL    HW2 1176   5.899   5.731   6.836
   93SOL     OW 1177   3.054   3.570   1.944
   93SOL    HW1 1178   3.148   3.597   1.967
   93SOL    HW2 1179   3.050   3.541   1.848
   94SOL     OW 1180   2.972   1.431   4.273
   94SOL    HW1 1181   2.945   1.372   4.349
   94SOL    HW2 1182   2.893   1.483   4.241
   95SOL     OW 1183   0.986   5.888   4.427
   95SOL    HW1 1184   1.056   5.825   4.462
   95SOL    HW2 1185   0.902   5.837   4.408
   96SOL     OW 1186   6.970   6.441   6.965
   96SOL    HW1 1187   6.984   6.465   6.869
   96SOL    HW2 1188   6.936   6.521   7.014
   97SOL     OW 1189   3.791   4.936   5.017
   97SOL    HW1 1190   3.835   4.847   5.024
   97SOL    HW2 1191   3.776   4.959   4.920
   98SOL     OW 1192   0.740   2.995   4.896
   98SOL    HW1 1193   0.816   3.056   4.918
   98SOL    HW2 1194   0.744   2.914   4.955
   99SOL     OW 1195   4.815   4.892   4.819
   99SOL    HW1 1196   4.829   4.989   4.796
   99SOL    HW2 1197   4.820   4.837   4.736
  100SOL     OW 1198   1.753   1.408   5.354
  100SOL    HW1 1199   1.756   1.311   5.331
  100SOL    HW2 1200   1.683   1.453   5.299
  101SOL     OW 1201   5.483   2.834   2.371
  101SOL    HW1 1202   5.458   2.928   2.390
  101SOL    HW2 1203   5.582   2.828   2.357
  102SOL     OW 1204   3.939   6.800   0.424
  102SOL    HW1 1205   3.980   6.719   0.383
  102SOL    HW2 1206   3.881   6.772   0.501
  103SOL     OW 1207   1.867   2.064   1.660
  103SOL    HW1 1208   1.873   2.055   1.560
  103SOL    HW2 1209   1.917   2.145   1.689
  104SOL     OW 1210   0.544   4.458   1.403
  104SOL    HW1 1211   0.571   4.469   1.499
  104SOL    HW2 1212   0.623   4.431   1.349
  105SOL     OW 1213   6.680   1.484   5.037
  105SOL    HW1 1214   6.596   1.439   5.069
  105SOL    HW2 1215   6.744   1.492   5.113
  106SOL     OW 1216   4.947   3.075   1.603
  106SOL    HW1 1217   4.968   3.038   1.694
  106SOL    HW2 1218   4.879   3.016   1.559
  107SOL     OW 1219   4.481   6.181   2.474
  107SOL    HW1 1220   4.424   6.206   2.396
  107SOL    HW2 1221   4.520   6.263   2.515
  108SOL     OW 1222   3.290   1.381   4.477
  108SOL    HW1 1223   3.249   1.295   4.506
  108SOL    HW2 1224   3.380   1.363   4.437
  109SOL     OW 1225   1.829   1.851   5.126
  109SOL    HW1 1226   1.770   1.781   5.086
  109SOL    HW2 1227   1.787   1.886   5.210
  110SOL     OW 1228   4.439   4.756   5.362
  110SOL    HW1 1229   4.348   4.792   5.380
  110SOL    HW2 1230   4.493   4.759   5.446
  111SOL     OW 1231   6.266   3.118   1.395
  111SOL    HW1 1232   6.177   3.148   1.361
  111SOL    HW2 1233   6.335   3.132   1.324
  112SOL     OW 1234   4.568   6.208   5.182
  112SOL    HW1 1235   4.606   6.299   5.196
  112SOL    HW2 1236   4.627   6.140   5.228
  113SOL     OW 1237   0.872   5.269   1.846
  113SOL    HW1 1238   0.965   5.302   1.837
  113SOL    HW2 1239   0.873   5.172   1.870
  114SOL     OW 1240   6.828   1.873   1.783
  114SOL    HW1 1241   6.835   1.777   1.811
  114SOL    HW2 1242   6.919   1.909   1.765
  115SOL     OW 1243   4.768   1.252   3.137
  115SOL    HW1 1244   4.841   1.183   3.135
  115SOL    HW2 1245   4.802   1.335   3.181
  116SOL     OW 1246   6.236   5.677   0.394
  116SOL    HW1 1247   6.226   5.678   0.294
  116SOL    HW2 1248   6.146   5.664   0.436
  117SOL     OW 1249   2.570   1.389   0.534
  117SOL    HW1 1250   2.527   1.439   0.458
  117SOL    HW2 1251   2.652   1.439   0.564
  118SOL     OW 1252   0.344   2.307   2.064
  118SOL    HW1 1253   0.246   2.304   2.048
  118SOL    HW2 1254   0.381   2.394   2.029
  119SOL     OW 1255   5.970   5.533   4.965
  119SOL    HW1 1256   5.893   5.577   5.012
  119SOL    HW2 1257   5.936   5.478   4.889
  120SOL     OW 1258   4.382   1.884   4.861
  120SOL    HW1 1259   4.443   1.870   4.939
  120SOL    HW2 1260   4.396   1.975   4.823
  121SOL     OW 1261   0.168   5.476   6.045
  121SOL    HW1 1262   0.121   5.393   6.013
  121SOL    HW2 1263   0.247   5.494   5.987
  122SOL     OW 1264   0.677   4.558   5.413
  122SOL    HW1 1265   0.707   4.629   5.476
  122SOL    HW2 1266   0.615   4.598   5.345
  123SOL     OW 1267   0.864   2.759   1.152
  123SOL    HW1 1268   0.832   2.665   1.142
  123SOL    HW2 1269   0.819   2.802   1.230
  124SOL     OW 1270   2.042   3.722   6.266
  124SOL    HW1 1271   2.113   3.652   6.267
  124SOL    HW2 1272   1.974   3.701   6.336
  125SOL     OW 1273   4.191   2.313   0.434
  125SOL    HW1 1274   4.097   2.286   0.415
  125SOL    HW2 1275   4.229   2.256   0.507
  126SOL     OW 1276   3.919   3.344   4.785
  126SOL    HW1 1277   3.949   3.270   4.725
  126SOL    HW2 1278   3.998   3.395   4.817
  127SOL     OW 1279   0.140   4.846   5.693
  127SOL    HW1 1280   0.102   4.785   5.762
  127SOL    HW2 1281   0.225   4.886   5.727
  128SOL     OW 1282   4.905   4.228   5.985
  128SOL    HW1 1283   4.891   4.231   6.084
  128SOL    HW2 1284   4.976   4.161   5.963
  129SOL     OW 1285   0.354   5.147   1.328
  129SOL    HW1 1286   0.448   5.113   1.323
  129SOL    HW2 1287   0.334   5.202   1.247
  130SOL     OW 1288   6.224   3.601   4.804
  130SOL    HW1 1289   6.216   3.505   4.828
  130SOL    HW2 1290   6.225   3.610   4.704
  131SOL     OW 1291   0.630   3.670   2.517
  131SOL    HW1 1292   0.676   3.759   2.530
  131SOL    HW2 1293   0.557   3.680   2.450
  132SOL     OW 1294   4.030   2.662   1.557
  132SOL    HW1 1295   3.942   2.679   1.513
  132SOL    HW2 1296   4.042   2.564   1.573
  133SOL     OW 1297   4.315   4.479   5.751
  133SOL    HW1 1298   4.367   4.540   5.810
  133SOL    HW2 1299   4.377   4.424   5.696
  134SOL     OW 1300   6.608   1.854   6.590
  134SOL    HW1 1301   6.647   1.781   6.534
  134SOL    HW2 1302   6.519   1.825   6.624
  135SOL     OW 1303   4.462   4.643   3.768
  135SOL    HW1 1304   4.363   4.656   3.776
  135SOL    HW2 1305   4.499   4.710   3.704
  136SOL     OW 1306   3.886   6.649   6.187
  136SOL    HW1 1307   3.795   6.653   6.228
  136SOL    HW2 1308   3.914   6.553   6.178
  137SOL     OW 1309   1.887   4.048   0.433
  137SOL    HW1 1310   1.941   4.128   0.405
  137SOL    HW2 1311   1.939   3.996   0.500
  138SOL     OW 1312   0.868   5.208   0.792
  138SOL    HW1 1313   0.952   5.176   0.837
  138SOL    HW2 1314   0.892   5.261   0.711
  139SOL     OW 1315   0.596   0.832   1.085
  139SOL    HW1 1316   0.577   0.894   1.009
  139SOL    HW2 1317   0.515   0.825   1.143
  140SOL     OW 1318   3.363   6.839   2.014
  140SOL    HW1 1319   3.370   6.777   2.092
  140SOL    HW2 1320   3.314   6.922   2.042
  141SOL     OW 1321   1.196   2.292   0.177
  141SOL    HW1 1322   1.173   2.314   0.082
  141SOL    HW2 1323   1.295   2.282   0.185
  142SOL     OW 1324   2.002   3.942   6.884
  142SOL    HW1 1325   1.984   3.920   6.980
  142SOL    HW2 1326   1.936   3.894   6.826
  143SOL     OW 1327   5.835   5.675   1.694
  143SOL    HW1 1328   5.807   5.610   1.624
  143SOL    HW2 1329   5.788   5.762   1.679
  144SOL     OW 1330   2.538   5.467   3.142
  144SOL    HW1 1331   2.626   5.434   3.107
  144SOL    HW2 1332   2.550   5.559   3.180
  145SOL     OW 1333   0.114   5.965   3.407
  145SOL    HW1 1334   0.148   5.882   3.453
  145SOL    HW2 1335   0.104   5.947   3.309
  146SOL     OW 1336   0.433   0.538   5.522
  146SOL    HW1 1337   0.351   0.524   5.578
  146SOL    HW2 1338   0.489   0.456   5.524
  147SOL     OW 1339   5.992   0.492   4.551
  147SOL    HW1 1340   6.019   0.495   4.455
  147SOL    HW2 1341   5.892   0.489   4.558
  148SOL     OW 1342   1.595   6.932   2.426
  148SOL    HW1 1343   1.501   6.932   2.393
  148SOL    HW2 1344   1.603   6.872   2.506
  149SOL     OW 1345   1.740   2.732   4.955
  149SOL    HW1 1346   1.735   2.820   5.003
  149SOL    HW2 1347   1.788   2.744   4.868
  150SOL     OW 1348   5.196   3.341   5.694
  150SOL    HW1 1349   5.137   3.302   5.623
  150SOL    HW2 1350   5.194   3.281   5.774
  151SOL     OW 1351   6.280   2.884   2.081
  151SOL    HW1 1352   6.253   2.927   2.167
  151SOL    HW2 1353   6.328   2.951   2.024
  152SOL     OW 1354   6.898   2.849   0.412
  152SOL    HW1 1355   6.867   2.754   0.405
  152SOL    HW2 1356   6.903   2.889   0.320
  153SOL     OW 1357   1.872   1.861   3.844
  153SOL    HW1 1358   1.830   1.924   3.909
  153SOL    HW2 1359   1.969   1.884   3.833
  154SOL     OW 1360   0.288   1.177   3.997
  154SOL    HW1 1361   0.321   1.107   4.061
  154SOL    HW2 1362   0.190   1.167   3.984
  155SOL     OW 1363   5.762   4.696   3.017
  155SOL    HW1 1364   5.685   4.637   3.043
  155SOL    HW2 1365   5.765   4.706   2.918
  156SOL     OW 1366   4.426   6.883   1.660
  156SOL    HW1 1367   4.338   6.838   1.648
  156SOL    HW2 1368   4.437   6.954   1.591
  157SOL     OW 1369   5.552   6.979   1.114
  157SOL    HW1 1370   5.556   6.927   1.029
  157SOL    HW2 1371   5.540   0.049   1.094
  158SOL     OW 1372   0.886   3.332   4.628
  158SOL    HW1 1373   0.885   3.259   4.560
  158SOL    HW2 1374   0.829   3.408   4.596
  159SOL     OW 1375   6.479   5.023   6.601
  159SOL    HW1 1376   6.381   5.037   6.589
  159SOL    HW2 1377   6.497   4.980   6.689
  160SOL     OW 1378   3.783   0.301   1.227
  160SOL    HW1 1379   3.773   0.388   1.276
  160SOL    HW2 1380   3.743   0.228   1.282
  161SOL     OW 1381   6.892   0.364   0.477
  161SOL    HW1 1382   6.802   0.405   0.494
  161SOL    HW2 1383   6.962   0.436   0.479
  162SOL     OW 1384   4.369   6.993   5.228
  162SOL    HW1 1385   4.412   6.904   5.211
  162SOL    HW2 1386   4.277   6.980   5.265
  163SOL     OW 1387   0.958   3.985   2.373
  163SOL    HW1 1388   1.025   3.911   2.372
  163SOL    HW2 1389   0.910   3.987   2.285
  164SOL     OW 1390   2.242   2.334   2.772
  164SOL    HW1 1391   2.200   2.347   2.682
  164SOL    HW2 1392   2.267   2.422   2.811
  165SOL     OW 1393   0.252   6.389   4.076
  165SOL    HW1 1394   0.315   6.467   4.072
  165SOL    HW2 1395   0.207   6.379   3.988
  166SOL     OW 1396   0.629   5.015   3.962
  166SOL    HW1 1397   0.726   5.035   3.951
  166SOL    HW2 1398   0.613   4.917   3.951
  167SOL     OW 1399   0.666   1.110   3.022
  167SOL    HW1 1400   0.630   1.186   2.968
  167SOL    HW2 1401   0.741   1.066   2.972
  168SOL     OW 1402   3.382   3.820   3.215
  168SOL    HW1 1403   3.349   3.890   3.278
  168SOL    HW2 1404   3.421   3.864   3.134
  169SOL     OW 1405   5.044   2.801   6.371
  169SOL    HW1 1406   4.956   2.843   6.351
  169SOL    HW2 1407   5.031   2.723   6.433
  170SOL     OW 1408   0.196   5.206   2.133
  170SOL    HW1 1409   0.202   5.190   2.232
  170SOL    HW2 1410   0.145   5.130   2.091
  171SOL     OW 1411   2.839   2.730   0.605
  171SOL    HW1 1412   2.792   2.755   0.521
  171SOL    HW2 1413   2.841   2.809   0.667
  172SOL     OW 1414   1.799   0.972   0.312
  172SOL    HW1 1415   1.726   1.039   0.299
  172SOL    HW2 1416   1.885   1.010   0.278
  173SOL     OW 1417   5.931   0.611   5.040
  173SOL    HW1 1418   5.916   0.706   5.014
  173SOL    HW2 1419   5.962   0.607   5.135
  174SOL     OW 1420   6.554   4.083   5.358
  174SOL    HW1 1421   6.538   4.082   5.260
  174SOL    HW2 1422   6.630   4.144   5.380
  175SOL     OW 1423   0.927   5.803   2.964
  175SOL    HW1 1424   0.858   5.824   2.895
  175SOL    HW2 1425   1.012   5.851   2.941
  176SOL     OW 1426   6.363   4.162   0.877
  176SOL    HW1 1427   6.439   4.169   0.813
  176SOL    HW2 1428   6.282   4.206   0.837
  177SOL     OW 1429   6.442   2.676   3.874
  177SOL    HW1 1430   6.350   2.689   3.838
  177SOL    HW2 1431   6.483   2.594   3.834
  178SOL     OW 1432   1.235   5.817   4.961
  178SOL    HW1 1433   1.189   5.810   5.050
  178SOL    HW2 1434   1.239   5.727   4.918
  179SOL     OW 1435   3.615   4.188   1.812
  179SOL    HW1 1436   3.536   4.176   1.751
  179SOL    HW2 1437   3.584   4.184   1.907
  180SOL     OW 1438   4.734   0.978   6.190
  180SOL    HW1 1439   4.727   1.048   6.261
  180SOL    HW2 1440   4.794   1.011   6.117
  181SOL     OW 1441   3.754   0.768   5.212
  181SOL    HW1 1442   3.719   0.748   5.121
  181SOL    HW2 1443   3.845   0.727   5.223
  182SOL     OW 1444   3.338   2.936   5.572
  182SOL    HW1 1445   3.283   2.919   5.653
  182SOL    HW2 1446   3.340   2.854   5.514
  183SOL     OW 1447   3.185   1.203   3.665
  183SOL    HW1 1448   3.146   1.262   3.594
  183SOL    HW2 1449   3.224   1.121   3.623
  184SOL     OW 1450   4.625   6.269   3.675
  184SOL    HW1 1451   4.569   6.351   3.688
  184SOL    HW2 1452   4.704   6.290   3.618
  185SOL     OW 1453   0.420   6.874   4.987
  185SOL    HW1 1454   0.402   6.798   4.924
  185SOL    HW2 1455   0.507   6.917   4.962
  186SOL     OW 1456   2.917   5.739   6.184
  186SOL    HW1 1457   2.940   5.649   6.221
  186SOL    HW2 1458   2.939   5.742   6.087
  187SOL     OW 1459   3.641   5.330   0.716
  187SOL    HW1 1460   3.543   5.350   0.709
  187SOL    HW2 1461   3.684   5.396   0.778
  188SOL     OW 1462   1.559   4.142   3.945
  188SOL    HW1 1463   1.543   4.085   3.865
  188SOL    HW2 1464   1.657   4.147   3.963
  189SOL     OW 1465   5.796   4.485   6.086
  189SOL    HW1 1466   5.870   4.552   6.084
  189SOL    HW2 1467   5.808   4.419   6.012
  190SOL     OW 1468   5.811   6.460   0.516
  190SOL    HW1 1469   5.822   6.367   0.481
  190SOL    HW2 1470   5.900   6.498   0.539
  191SOL     OW 1471   2.152   3.610   5.681
  191SOL    HW1 1472   2.119   3.564   5.763
  191SOL    HW2 1473   2.219   3.552   5.635
  192SOL     OW 1474   0.038   0.358   1.151
  192SOL    HW1 1475   6.970   0.381   1.173
  192SOL    HW2 1476   0.068   0.413   1.073
  193SOL     OW 1477   3.027   0.137   1.503
  193SOL    HW1 1478   2.934   0.103   1.486
  193SOL    HW2 1479   3.045   0.137   1.601
  194SOL     OW 1480   4.207   5.649   3.194
  194SOL    HW1 1481   4.272   5.614   3.127
  194SOL    HW2 1482   4.179   5.741   3.169
  195SOL     OW 1483   2.892   0.560   1.106
  195SOL    HW1 1484   2.896   0.631   1.036
  195SOL    HW2 1485   2.914   0.600   1.195
  196SOL     OW 1486   3.859   3.075   1.066
  196SOL    HW1 1487   3.783   3.025   1.024
  196SOL    HW2 1488   3.886   3.029   1.151
  197SOL     OW 1489   1.573   6.113   0.424
  197SOL    HW1 1490   1.573   6.135   0.521
  197SOL    HW2 1491   1.623   6.028   0.409
  198SOL     OW 1492   5.769   6.929   6.142
  198SOL    HW1 1493   5.728   6.838   6.150
  198SOL    HW2 1494   5.868   6.923   6.160
  199SOL     OW 1495   2.114   1.224   3.610
  199SOL    HW1 1496   2.111   1.124   3.611
  199SOL    HW2 1497   2.121   1.256   3.516
  200SOL     OW 1498   1.251   4.060   4.332
  200SOL    HW1 1499   1.282   4.035   4.240
  200SOL    HW2 1500   1.288   3.995   4.398
  201SOL     OW 1501   4.794   1.121   0.387
  201SOL    HW1 1502   4.868   1.111   0.453
  201SOL    HW2 1503   4.805   1.208   0.338
  202SOL     OW 1504   4.267   0.171   3.189
  202SOL    HW1 1505   4.203   0.194   3.116
  202SOL    HW2 1506   4.359   0.165   3.152
  203SOL     OW 1507   5.818   2.722   0.469
  203SOL    HW1 1508   5.743   2.658   0.450
  203SOL    HW2 1509   5.868   2.740   0.385
  204SOL     OW 1510   1.798   6.110   1.075
  204SOL    HW1 1511   1.782   6.132   0.979
  204SOL    HW2 1512   1.769   6.187   1.132
  205SOL     OW 1513   5.344   0.635   1.577
  205SOL    HW1 1514   5.361   0.607   1.482
  205SOL    HW2 1515   5.377   0.728   1.590
  206SOL     OW 1516   0.074   6.343   1.040
  206SOL    HW1 1517   0.006   6.276   1.071
  206SOL    HW2 1518   0.120   6.383   1.119
  207SOL     OW 1519   6.672   2.279   5.241
  207SOL    HW1 1520   6.660   2.207   5.309
  207SOL    HW2 1521   6.769   2.286   5.217
  208SOL     OW 1522   3.949   3.851   6.940
  208SOL    HW1 1523   4.030   3.832   6.884
  208SOL    HW2 1524   3.968   3.928   7.001
  209SOL     OW 1525   0.028   6.882   4.066
  209SOL    HW1 1526   6.993   6.935   4.125
  209SOL    HW2 1527   0.014   6.784   4.081
  210SOL     OW 1528   4.267   1.697   1.089
  210SOL    HW1 1529   4.271   1.718   1.187
  210SOL    HW2 1530   4.248   1.780   1.038
  211SOL     OW 1531   0.599   3.254   2.257
  211SOL    HW1 1532   0.523   3.191   2.274
  211SOL    HW2 1533   0.629   3.295   2.343
  212SOL     OW 1534   0.893   5.215   5.716
  212SOL    HW1 1535   0.798   5.236   5.739
  212SOL    HW2 1536   0.901   5.118   5.692
  213SOL     OW 1537   3.736   2.685   1.039
  213SOL    HW1 1538   3.680   2.748   0.984
  213SOL    HW2 1539   3.714   2.697   1.135
  214SOL     OW 1540   1.206   6.049   3.757
  214SOL    HW1 1541   1.200   6.131   3.814
  214SOL    HW2 1542   1.155   6.062   3.672
  215SOL     OW 1543   3.868   4.032   2.938
  215SOL    HW1 1544   3.922   3.954   2.968
  215SOL    HW2 1545   3.821   4.072   3.017
  216SOL     OW 1546   3.161   0.612   5.502
  216SOL    HW1 1547   3.089   0.651   5.444
  216SOL    HW2 1548   3.203   0.685   5.557
  217SOL     OW 1549   0.058   1.741   5.209
  217SOL    HW1 1550   0.152   1.740   5.175
  217SOL    HW2 1551   0.058   1.769   5.306
  218SOL     OW 1552   3.136   4.370   5.836
  218SOL    HW1 1553   3.148   4.387   5.738
  218SOL    HW2 1554   3.184   4.440   5.888
  219SOL     OW 1555   2.687   5.830   6.337
  219SOL    HW1 1556   2.765   5.774   6.309
  219SOL    HW2 1557   2.714   5.891   6.411
  220SOL     OW 1558   1.402   5.405   0.056
  220SOL    HW1 1559   1.349   5.321   0.062
  220SOL    HW2 1560   1.442   5.413   6.991
  221SOL     OW 1561   5.705   2.854   4.899
  221SOL    HW1 1562   5.648   2.772   4.888
  221SOL    HW2 1563   5.667   2.911   4.971
  222SOL     OW 1564   1.843   6.999   4.670
  222SOL    HW1 1565   1.863   6.903   4.689
  222SOL    HW2 1566   1.927   0.020   4.648
  223SOL     OW 1567   5.756   4.739   2.758
  223SOL    HW1 1568   5.840   4.776   2.718
  223SOL    HW2 1569   5.686   4.731   2.687
  224SOL     OW 1570   5.028   2.792   2.751
  224SOL    HW1 1571   4.981   2.878   2.772
  224SOL    HW2 1572   5.121   2.795   2.789
  225SOL     OW 1573   5.184   6.447   1.428
  225SOL    HW1 1574   5.236   6.457   1.342
  225SOL    HW2 1575   5.186   6.351   1.456
  226SOL     OW 1576   0.764   5.805   2.458
  226SOL    HW1 1577   0.691   5.769   2.515
  226SOL    HW2 1578   0.755   5.905   2.451
  227SOL     OW 1579   1.134   3.413   3.062
  227SOL    HW1 1580   1.116   3.509   3.041
  227SOL    HW2 1581   1.057   3.375   3.114
  228SOL     OW 1582   4.020   5.748   2.899
  228SOL    HW1 1583   4.088   5.676   2.885
  228SOL    HW2 1584   4.030   5.787   2.990
  229SOL     OW 1585   6.526   5.956   2.961
  229SOL    HW1 1586   6.445   5.912   2.922
  229SOL    HW2 1587   6.607   5.930   2.908
  230SOL     OW 1588   0.976   4.760   5.878
  230SOL    HW1 1589   0.946   4.678   5.928
  230SOL    HW2 1590   0.992   4.835   5.942
  231SOL     OW 1591   0.357   2.055   6.621
  231SOL    HW1 1592   0.411   2.122   6.672
  231SOL    HW2 1593   0.332   1.980   6.683
  232SOL     OW 1594   1.356   4.033   5.732
  232SOL    HW1 1595   1.424   4.070   5.795
  232SOL    HW2 1596   1.278   3.999   5.784
  233SOL     OW 1597   3.544   0.357   0.048
  233SOL    HW1 1598   3.479   0.294   0.089
  233SOL    HW2 1599   3.620   0.304   0.008
  234SOL     OW 1600   2.335   4.864   6.489
  234SOL    HW1 1601   2.244   4.850   6.529
  234SOL    HW2 1602   2.386   4.930   6.544
  235SOL     OW 1603   3.818   3.601   5.816
  235SOL    HW1 1604   3.731   3.562   5.786
  235SOL    HW2 1605   3.800   3.675   5.881
  236SOL     OW 1606   6.872   1.219   6.209
  236SOL    HW1 1607   6.815   1.258   6.282
  236SOL    HW2 1608   6.883   1.286   6.136
  237SOL     OW 1609   7.022   6.562   2.198
  237SOL    HW1 1610   6.964   6.620   2.140
  237SOL    HW2 1611   6.966   6.492   2.242
  238SOL     OW 1612   0.213   2.309   2.490
  238SOL    HW1 1613   0.154   2.244   2.441
  238SOL    HW2 1614   0.205   2.292   2.589
  239SOL     OW 1615   5.947   5.020   0.445
  239SOL    HW1 1616   5.951   4.924   0.471
  239SOL    HW2 1617   5.853   5.044   0.420
  240SOL     OW 1618   0.085   2.017   4.823
  240SOL    HW1 1619   0.029   2.075   4.764
  240SOL    HW2 1620   0.027   1.969   4.888
  241SOL     OW 1621   5.983   1.911   5.050
  241SOL    HW1 1622   6.075   1.914   5.011
  241SOL    HW2 1623   5.975   1.832   5.111
  242SOL     OW 1624   2.860   2.233   4.247
  242SOL    HW1 1625   2.799   2.178   4.189
  242SOL    HW2 1626   2.945   2.252   4.197
  243SOL     OW 1627   5.135   0.972   0.031
  243SOL    HW1 1628   5.179   0.899   0.083
  243SOL    HW2 1629   5.189   1.057   0.040
  244SOL     OW 1630   0.543   1.964   6.322
  244SOL    HW1 1631   0.476   1.969   6.397
  244SOL    HW2 1632   0.495   1.960   6.235
  245SOL     OW 1633   5.323   2.417   4.144
  245SOL    HW1 1634   5.335   2.447   4.238
  245SOL    HW2 1635   5.226   2.395   4.128
  246SOL     OW 1636   5.115   3.072   4.683
  246SOL    HW1 1637   5.162   3.084   4.596
  246SOL    HW2 1638   5.089   2.976   4.694
  247SOL     OW 1639   3.092   0.519   2.781
  247SOL    HW1 1640   3.094   0.539   2.879
  247SOL    HW2 1641   3.185   0.506   2.747
  248SOL     OW 1642   0.393   2.401   2.835
  248SOL    HW1 1643   0.425   2.409   2.930
  248SOL    HW2 1644   0.451   2.456   2.775
  249SOL     OW 1645   2.455   5.768   5.380
  249SOL    HW1 1646   2.446   5.827   5.300
  249SOL    HW2 1647   2.421   5.815   5.461
  250SOL     OW 1648   5.297   2.444   0.199
  250SOL    HW1 1649   5.205   2.452   0.160
  250SOL    HW2 1650   5.291   2.438   0.298
  251SOL     OW 1651   2.142   0.914   1.126
  251SOL    HW1 1652   2.071   0.860   1.170
  251SOL    HW2 1653   2.106   1.004   1.103
  252SOL     OW 1654   0.228   2.184   0.344
  252SOL    HW1 1655   0.282   2.168   0.261
  252SOL    HW2 1656   0.132   2.196   0.319
  253SOL     OW 1657   2.321   4.328   6.395
  253SOL    HW1 1658   2.319   4.234   6.429
  253SOL    HW2 1659   2.280   4.332   6.304
  254SOL     OW 1660   4.939   3.631   6.174
  254SOL    HW1 1661   5.033   3.597   6.180
  254SOL    HW2 1662   4.909   3.661   6.265
  255SOL     OW 1663   4.549   1.865   2.019
  255SOL    HW1 1664   4.581   1.960   2.025
  255SOL    HW2 1665   4.596   1.819   1.944
  256SOL     OW 1666   0.229   6.090   1.588
  256SOL    HW1 1667   0.185   6.178   1.572
  256SOL    HW2 1668   0.323   6.093   1.553
  257SOL     OW 1669   2.871   6.011   6.035
  257SOL    HW1 1670   2.938   6.050   6.099
  257SOL    HW2 1671   2.917   5.944   5.976
  258SOL     OW 1672   4.033   5.334   4.567
  258SOL    HW1 1673   4.037   5.363   4.472
  258SOL    HW2 1674   3.982   5.401   4.621
  259SOL     OW 1675   0.604   1.844   2.550
  259SOL    HW1 1676   0.558   1.886   2.472
  259SOL    HW2 1677   0.594   1.903   2.630
  260SOL     OW 1678   6.469   6.707   5.499
  260SOL    HW1 1679   6.467   6.669   5.406
  260SOL    HW2 1680   6.564   6.728   5.524
  261SOL     OW 1681   0.432   0.639   4.333
  261SOL    HW1 1682   0.370   0.566   4.363
  261SOL    HW2 1683   0.526   0.607   4.339
  262SOL     OW 1684   1.631   5.797   1.484
  262SOL    HW1 1685   1.660   5.848   1.403
  262SOL    HW2 1686   1.548   5.744   1.463
  263SOL     OW 1687   0.359   4.108   4.516
  263SOL    HW1 1688   0.343   4.086   4.420
  263SOL    HW2 1689   0.444   4.161   4.524
  264SOL     OW 1690   3.002   4.338   0.437
  264SOL    HW1 1691   2.984   4.423   0.388
  264SOL    HW2 1692   3.038   4.270   0.373
  265SOL     OW 1693   4.154   5.043   3.781
  265SOL    HW1 1694   4.131   4.993   3.864
  265SOL    HW2 1695   4.077   5.101   3.754
  266SOL     OW 1696   4.082   3.454   6.970
  266SOL    HW1 1697   4.172   3.477   6.934
  266SOL    HW2 1698   4.086   3.365   7.016
  267SOL     OW 1699   2.766   2.715   5.957
  267SOL    HW1 1700   2.837   2.677   6.016
  267SOL    HW2 1701   2.680   2.721   6.009
  268SOL     OW 1702   1.832   4.124   3.974
  268SOL    HW1 1703   1.864   4.192   4.039
  268SOL    HW2 1704   1.867   4.145   3.883
  269SOL     OW 1705   3.330   1.908   5.626
  269SOL    HW1 1706   3.372   1.830   5.579
  269SOL    HW2 1707   3.350   1.902   5.724
  270SOL     OW 1708   5.297   6.140   4.957
  270SOL    HW1 1709   5.326   6.133   5.053
  270SOL    HW2 1710   5.363   6.194   4.906
  271SOL     OW 1711   2.301   1.852   0.375
  271SOL    HW1 1712   2.363   1.847   0.453
  271SOL    HW2 1713   2.221   1.794   0.393
  272SOL     OW 1714   4.717   4.758   0.230
  272SOL    HW1 1715   4.790   4.761   0.299
  272SOL    HW2 1716   4.665   4.674   0.240
  273SOL     OW 1717   1.352   5.912   4.206
  273SOL    HW1 1718   1.259   5.947   4.211
  273SOL    HW2 1719   1.351   5.812   4.215
  274SOL     OW 1720   5.542   2.324   2.401
  274SOL    HW1 1721   5.550   2.288   2.494
  274SOL    HW2 1722   5.476   2.399   2.401
  275SOL     OW 1723   6.216   5.520   5.926
  275SOL    HW1 1724   6.155   5.487   5.854
  275SOL    HW2 1725   6.310   5.494   5.906
  276SOL     OW 1726   0.894   0.378   4.515
  276SOL    HW1 1727   0.931   0.313   4.581
  276SOL    HW2 1728   0.795   0.369   4.511
  277SOL     OW 1729   3.595   2.938   5.517
  277SOL    HW1 1730   3.496   2.949   5.527
  277SOL    HW2 1731   3.627   2.865   5.577
  278SOL     OW 1732   5.529   4.675   2.587
  278SOL    HW1 1733   5.450   4.621   2.558
  278SOL    HW2 1734   5.586   4.696   2.508
  279SOL     OW 1735   0.838   4.375   3.766
  279SOL    HW1 1736   0.844   4.275   3.769
  279SOL    HW2 1737   0.788   4.407   3.846
  280SOL     OW 1738   4.630   1.404   3.830
  280SOL    HW1 1739   4.582   1.391   3.743
  280SOL    HW2 1740   4.568   1.446   3.896
  281SOL     OW 1741   5.271   5.532   5.303
  281SOL    HW1 1742   5.229   5.575   5.224
  281SOL    HW2 1743   5.350   5.586   5.333
  282SOL     OW 1744   0.475   2.599   0.098
  282SOL    HW1 1745   0.476   2.679   0.158
  282SOL    HW2 1746   0.412   2.616   0.022
  283SOL     OW 1747   6.028   4.060   2.728
  283SOL    HW1 1748   6.026   3.979   2.787
  283SOL    HW2 1749   5.960   4.051   2.656
  284SOL     OW 1750   5.982   6.604   2.793
  284SOL    HW1 1751   5.908   6.614   2.726
  284SOL    HW2 1752   5.972   6.674   2.864
  285SOL     OW 1753   4.035   6.100   6.009
  285SOL    HW1 1754   4.134   6.111   6.017
  285SOL    HW2 1755   4.006   6.123   5.916
  286SOL     OW 1756   3.559   4.844   5.433
  286SOL    HW1 1757   3.580   4.938   5.407
  286SOL    HW2 1758   3.477   4.814   5.385
  287SOL     OW 1759   3.440   6.253   0.419
  287SOL    HW1 1760   3.399   6.162   0.433
  287SOL    HW2 1761   3.448   6.271   0.321
  288SOL     OW 1762   4.619   0.913   0.295
  288SOL    HW1 1763   4.620   0.886   0.392
  288SOL    HW2 1764   4.658   1.005   0.286
  289SOL     OW 1765   4.978   5.066   4.475
  289SOL    HW1 1766   4.928   5.114   4.547
  289SOL    HW2 1767   5.043   5.002   4.517
  290SOL     OW 1768   3.771   0.697   4.824
  290SOL    HW1 1769   3.869   0.718   4.827
  290SOL    HW2 1770   3.748   0.634   4.898
  291SOL     OW 1771   5.960   0.923   4.753
  291SOL    HW1 1772   6.022   0.888   4.824
  291SOL    HW2 1773   5.872   0.945   4.794
  292SOL     OW 1774   3.372   0.557   3.429
  292SOL    HW1 1775   3.305   0.561   3.503
  292SOL    HW2 1776   3.364   0.470   3.381
  293SOL     OW 1777   5.342   0.661   2.895
  293SOL    HW1 1778   5.277   0.652   2.820
  293SOL    HW2 1779   5.320   0.744   2.948
  294SOL     OW 1780   6.685   1.363   6.994
  294SOL    HW1 1781   6.646   1.450   6.966
  294SOL    HW2 1782   6.734   1.322   6.917
  295SOL     OW 1783   0.339   0.346   5.257
  295SOL    HW1 1784   0.419   0.341   5.198
  295SOL    HW2 1785   0.346   0.427   5.315
  296SOL     OW 1786   0.781   1.987   1.466
  296SOL    HW1 1787   0.815   2.079   1.449
  296SOL    HW2 1788   0.857   1.923   1.472
  297SOL     OW 1789   5.448   3.252   3.536
  297SOL    HW1 1790   5.439   3.263   3.437
  297SOL    HW2 1791   5.541   3.274   3.564
  298SOL     OW 1792   4.599   0.150   5.306
  298SOL    HW1 1793   4.565   0.217   5.372
  298SOL    HW2 1794   4.524   0.090   5.278
  299SOL     OW 1795   0.544   1.416   6.152
  299SOL    HW1 1796   0.593   1.333   6.126
  299SOL    HW2 1797   0.547   1.482   6.078
  300SOL     OW 1798   4.330   6.221   4.125
  300SOL    HW1 1799   4.233   6.229   4.100
  300SOL    HW2 1800   4.352   6.291   4.193
  301SOL     OW 1801   6.902   6.272   5.336
  301SOL    HW1 1802   6.870   6.194   5.281
  301SOL    HW2 1803   6.864   6.356   5.298
  302SOL     OW 1804   0.367   6.649   2.045
  302SOL    HW1 1805   0.460   6.614   2.045
  302SOL    HW2 1806   0.358   6.721   2.115
  303SOL     OW 1807   5.322   5.515   2.637
  303SOL    HW1 1808   5.365   5.593   2.593
  303SOL    HW2 1809   5.230   5.502   2.599
  304SOL     OW 1810   1.063   0.429   3.743
  304SOL    HW1 1811   1.119   0.425   3.660
  304SOL    HW2 1812   1.109   0.485   3.812
  305SOL     OW 1813   2.370   1.829   1.444
  305SOL    HW1 1814   2.339   1.797   1.533
  305SOL    HW2 1815   2.293   1.869   1.394
  306SOL     OW 1816   0.328   0.094   2.299
  306SOL    HW1 1817   0.338   0.031   2.222
  306SOL    HW2 1818   0.234   0.093   2.332
  307SOL     OW 1819   3.602   3.924   3.849
  307SOL    HW1 1820   3.529   3.960   3.907
  307SOL    HW2 1821   3.681   3.984   3.852
  308SOL     OW 1822   6.218   1.667   2.358
  308SOL    HW1 1823   6.208   1.599   2.285
  308SOL    HW2 1824   6.314   1.676   2.382
  309SOL     OW 1825   1.774   4.888   0.115
  309SOL    HW1 1826   1.739   4.932   0.198
  309SOL    HW2 1827   1.743   4.939   0.035
  310SOL     OW 1828   4.844   6.607   5.497
  310SOL    HW1 1829   4.806   6.515   5.504
  310SOL    HW2 1830   4.944   6.602   5.503
  311SOL     OW 1831   1.803   6.287   2.331
  311SOL    HW1 1832   1.711   6.318   2.351
  311SOL    HW2 1833   1.846   6.347   2.264
  312SOL     OW 1834   3.353   0.583   4.216
  312SOL    HW1 1835   3.417   0.586   4.139
  312SOL    HW2 1836   3.294   0.503   4.207
  313SOL     OW 1837   3.237   3.018   2.911
  313SOL    HW1 1838   3.247   3.117   2.899
  313SOL    HW2 1839   3.278   2.991   2.998
  314SOL     OW 1840   2.941   5.155   6.149
  314SOL    HW1 1841   2.977   5.142   6.241
  314SOL    HW2 1842   2.841   5.164   6.152
  315SOL     OW 1843   6.196   0.523   4.753
  315SOL    HW1 1844   6.142   0.499   4.673
  315SOL    HW2 1845   6.190   0.450   4.821
  316SOL     OW 1846   4.185   1.045   5.500
  316SOL    HW1 1847   4.210   1.012   5.591
  316SOL    HW2 1848   4.110   0.990   5.464
  317SOL     OW 1849   0.878   2.230   1.442
  317SOL    HW1 1850   0.820   2.268   1.514
  317SOL    HW2 1851   0.945   2.299   1.413
  318SOL     OW 1852   1.045   0.591   2.922
  318SOL    HW1 1853   0.996   0.551   3.000
  318SOL    HW2 1854   0.981   0.642   2.865
  319SOL     OW 1855   1.204   0.876   2.248
  319SOL    HW1 1856   1.128   0.880   2.313
  319SOL    HW2 1857   1.290   0.894   2.295
  320SOL     OW 1858   5.178   1.405   0.327
  320SOL    HW1 1859   5.084   1.379   0.349
  320SOL    HW2 1860   5.236   1.323   0.325
  321SOL     OW 1861   4.096   3.221   1.122
  321SOL    HW1 1862   4.007   3.199   1.081
  321SOL    HW2 1863   4.156   3.142   1.116
  322SOL     OW 1864   2.970   1.634   6.899
  322SOL    HW1 1865   2.947   1.572   6.824
  322SOL    HW2 1866   3.069   1.632   6.915
  323SOL     OW 1867   1.251   4.128   1.953
  323SOL    HW1 1868   1.267   4.089   1.862
  323SOL    HW2 1869   1.319   4.091   2.017
  324SOL     OW 1870   6.436   0.604   3.973
  324SOL    HW1 1871   6.529   0.571   3.959
  324SOL    HW2 1872   6.376   0.565   3.903
  325SOL     OW 1873   5.999   3.593   1.164
  325SOL    HW1 1874   6.076   3.606   1.226
  325SOL    HW2 1875   5.951   3.508   1.188
  326SOL     OW 1876   6.912   5.473   6.759
  326SOL    HW1 1877   6.946   5.535   6.830
  326SOL    HW2 1878   6.926   5.378   6.790
  327SOL     OW 1879   4.508   6.100   6.583
  327SOL    HW1 1880   4.477   6.036   6.654
  327SOL    HW2 1881   4.445   6.177   6.577
  328SOL     OW 1882   1.706   4.608   3.287
  328SOL    HW1 1883   1.684   4.678   3.220
  328SOL    HW2 1884   1.789   4.560   3.258
  329SOL     OW 1885   3.481   2.900   2.165
  329SOL    HW1 1886   3.562   2.842   2.174
  329SOL    HW2 1887   3.465   2.920   2.069
  330SOL     OW 1888   2.394   3.437   6.405
  330SOL    HW1 1889   2.335   3.479   6.336
  330SOL    HW2 1890   2.390   3.491   6.489
  331SOL     OW 1891   5.050   5.417   4.002
  331SOL    HW1 1892   4.971   5.404   3.942
  331SOL    HW2 1893   5.068   5.332   4.051
  332SOL     OW 1894   5.699   1.505   2.633
  332SOL    HW1 1895   5.675   1.432   2.569
  332SOL    HW2 1896   5.770   1.472   2.696
  333SOL     OW 1897   3.882   6.351   3.623
  333SOL    HW1 1898   3.800   6.319   3.670
  333SOL    HW2 1899   3.900   6.293   3.543
  334SOL     OW 1900   3.555   3.308   4.143
  334SOL    HW1 1901   3.567   3.300   4.242
  334SOL    HW2 1902   3.644   3.324   4.100
  335SOL     OW 1903   4.267   1.127   0.674
  335SOL    HW1 1904   4.210   1.066   0.619
  335SOL    HW2 1905   4.214   1.210   0.697
  336SOL     OW 1906   3.885   1.859   4.955
  336SOL    HW1 1907   3.832   1.876   5.038
  336SOL    HW2 1908   3.841   1.786   4.902
  337SOL     OW 1909   0.147   1.297   5.314
  337SOL    HW1 1910   0.080   1.269   5.245
  337SOL    HW2 1911   0.230   1.242   5.304
  338SOL     OW 1912   4.934   1.044   1.875
  338SOL    HW1 1913   4.995   1.073   1.948
  338SOL    HW2 1914   4.946   1.104   1.796
  339SOL     OW 1915   4.159   5.049   6.158
  339SOL    HW1 1916   4.094   5.101   6.211
  339SOL    HW2 1917   4.158   4.953   6.187
  340SOL     OW 1918   4.814   3.109   4.907
  340SOL    HW1 1919   4.840   3.179   4.973
  340SOL    HW2 1920   4.714   3.105   4.900
  341SOL     OW 1921   0.102   0.400   1.784
  341SOL    HW1 1922   0.011   0.382   1.745
  341SOL    HW2 1923   0.172   0.360   1.726
  342SOL     OW 1924   4.556   1.185   2.008
  342SOL    HW1 1925   4.505   1.100   2.019
  342SOL    HW2 1926   4.510   1.258   2.059
  343SOL     OW 1927   5.992   6.923   1.526
  343SOL    HW1 1928   5.983   6.943   1.623
  343SOL    HW2 1929   5.933   6.985   1.474
  344SOL     OW 1930   6.895   2.766   1.541
  344SOL    HW1 1931   6.892   2.682   1.487
  344SOL    HW2 1932   6.919   2.843   1.482
  345SOL     OW 1933   0.097   2.328   4.469
  345SOL    HW1 1934   0.107   2.299   4.374
  345SOL    HW2 1935   0.187   2.351   4.507
  346SOL     OW 1936   1.724   5.635   2.686
  346SOL    HW1 1937   1.756   5.556   2.634
  346SOL    HW2 1938   1.740   5.619   2.784
  347SOL     OW 1939   2.435   4.704   1.366
  347SOL    HW1 1940   2.502   4.669   1.300
  347SOL    HW2 1941   2.462   4.676   1.458
  348SOL     OW 1942   5.216   4.734   1.588
  348SOL    HW1 1943   5.139   4.679   1.555
  348SOL    HW2 1944   5.247   4.796   1.516
  349SOL     OW 1945   6.019   4.893   0.813
  349SOL    HW1 1946   5.993   4.965   0.877
  349SOL    HW2 1947   5.971   4.907   0.726
  350SOL     OW 1948   2.575   1.428   0.892
  350SOL    HW1 1949   2.662   1.446   0.845
  350SOL    HW2 1950   2.500   1.462   0.836
  351SOL     OW 1951   3.699   4.301   1.451
  351SOL    HW1 1952   3.736   4.342   1.368
  351SOL    HW2 1953   3.773   4.287   1.517
  352SOL     OW 1954   4.067   6.348   2.233
  352SOL    HW1 1955   4.125   6.295   2.295
  352SOL    HW2 1956   3.991   6.291   2.202
  353SOL     OW 1957   1.812   6.651   0.084
  353SOL    HW1 1958   1.840   6.744   0.061
  353SOL    HW2 1959   1.717   6.637   0.055
  354SOL     OW 1960   1.398   2.133   0.858
  354SOL    HW1 1961   1.475   2.166   0.803
  354SOL    HW2 1962   1.325   2.202   0.857
  355SOL     OW 1963   0.244   2.963   3.208
  355SOL    HW1 1964   0.263   2.949   3.111
  355SOL    HW2 1965   0.242   2.875   3.255
  356SOL     OW 1966   2.738   0.773   5.718
  356SOL    HW1 1967   2.765   0.693   5.665
  356SOL    HW2 1968   2.763   0.760   5.814
  357SOL     OW 1969   5.509   5.921   4.102
  357SOL    HW1 1970   5.535   5.886   4.192
  357SOL    HW2 1971   5.532   6.018   4.096
  358SOL     OW 1972   3.191   6.262   0.088
  358SOL    HW1 1973   3.156   6.173   0.059
  358SOL    HW2 1974   3.281   6.251   0.130
  359SOL     OW 1975   2.006   2.299   1.725
  359SOL    HW1 1976   1.991   2.311   1.626
  359SOL    HW2 1977   2.100   2.268   1.741
  360SOL     OW 1978   2.097   3.958   3.302
  360SOL    HW1 1979   2.171   3.982   3.365
  360SOL    HW2 1980   2.010   3.988   3.341
  361SOL     OW 1981   0.235   2.178   2.803
  361SOL    HW1 1982   0.293   2.260   2.811
  361SOL    HW2 1983   0.287   2.098   2.834
  362SOL     OW 1984   4.059   3.616   2.271
  362SOL    HW1 1985   4.072   3.640   2.175
  362SOL    HW2 1986   4.078   3.695   2.329
  363SOL     OW 1987   4.606   5.014   0.697
  363SOL    HW1 1988   4.681   5.078   0.684
  363SOL    HW2 1989   4.625   4.928   0.649
  364SOL     OW 1990   1.165   0.427   0.517
  364SOL    HW1 1991   1.117   0.483   0.583
  364SOL    HW2 1992   1.262   0.453   0.515
  365SOL     OW 1993   5.753   0.661   3.829
  365SOL    HW1 1994   5.807   0.646   3.745
  365SOL    HW2 1995   5.715   0.754   3.827
  366SOL     OW 1996   5.047   1.382   6.949
  366SOL    HW1 1997   4.952   1.367   6.976
  366SOL    HW2 1998   5.060   1.357   6.853
  367SOL     OW 1999   5.424   0.918   7.001
  367SOL    HW1 2000   5.451   0.926   0.070
  367SOL    HW2 2001   5.468   0.991   6.948
  368SOL     OW 2002   2.761   1.840   6.064
  368SOL    HW1 2003   2.741   1.782   6.143
  368SOL    HW2 2004   2.676   1.885   6.034
  369SOL     OW 2005   4.922   4.712   0.444
  369SOL    HW1 2006   4.965   4.665   0.367
  369SOL    HW2 2007   4.989   4.773   0.487
  370SOL     OW 2008   1.798   2.322   3.033
  370SOL    HW1 2009   1.828   2.229   3.055
  370SOL    HW2 2010   1.872   2.371   2.987
  371SOL     OW 2011   2.368   5.809   0.018
  371SOL    HW1 2012   2.454   5.840   0.059
  371SOL    HW2 2013   2.375   5.812   6.945
  372SOL     OW 2014   2.216   6.097   6.331
  372SOL    HW1 2015   2.292   6.112   6.269
  372SOL    HW2 2016   2.200   6.180   6.385
  373SOL     OW 2017   6.357   4.683   3.065
  373SOL    HW1 2018   6.329   4.683   3.161
  373SOL    HW2 2019   6.299   4.621   3.013
  374SOL     OW 2020   2.771   2.229   2.298
  374SOL    HW1 2021   2.705   2.297   2.330
  374SOL    HW2 2022   2.809   2.257   2.210
  375SOL     OW 2023   0.418   6.124   3.999
  375SOL    HW1 2024   0.349   6.185   4.039
  375SOL    HW2 2025   0.464   6.171   3.923
  376SOL     OW 2026   4.372   0.129   3.631
  376SOL    HW1 2027   4.424   0.070   3.569
  376SOL    HW2 2028   4.404   0.223   3.620
  377SOL     OW 2029   2.864   2.858   6.403
  377SOL    HW1 2030   2.955   2.857   6.443
  377SOL    HW2 2031   2.870   2.864   6.303
  378SOL     OW 2032   4.176   1.355   2.123
  378SOL    HW1 2033   4.276   1.355   2.123
  378SOL    HW2 2034   4.143   1.418   2.052
  379SOL     OW 2035   3.840   2.979   6.545
  379SOL    HW1 2036   3.872   3.073   6.560
  379SOL    HW2 2037   3.893   2.937   6.472
  380SOL     OW 2038   4.923   1.974   0.717
  380SOL    HW1 2039   4.858   1.898   0.726
  380SOL    HW2 2040   5.011   1.939   0.685
  381SOL     OW 2041   1.644   4.020   2.560
  381SOL    HW1 2042   1.738   4.003   2.532
  381SOL    HW2 2043   1.643   4.063   2.651
  382SOL     OW 2044   5.847   6.856   0.600
  382SOL    HW1 2045   5.807   6.939   0.560
  382SOL    HW2 2046   5.774   6.804   0.645
  383SOL     OW 2047   4.816   3.221   0.598
  383SOL    HW1 2048   4.777   3.172   0.520
  383SOL    HW2 2049   4.819   3.160   0.677
  384SOL     OW 2050   0.769   2.861   5.342
  384SOL    HW1 2051   0.691   2.923   5.336
  384SOL    HW2 2052   0.847   2.908   5.381
  385SOL     OW 2053   4.434   1.980   6.778
  385SOL    HW1 2054   4.513   2.027   6.818
  385SOL    HW2 2055   4.350   2.016   6.817
  386SOL     OW 2056   4.426   6.518   5.188
  386SOL    HW1 2057   4.514   6.487   5.223
  386SOL    HW2 2058   4.381   6.444   5.137
  387SOL     OW 2059   2.491   6.031   4.169
  387SOL    HW1 2060   2.395   6.033   4.142
  387SOL    HW2 2061   2.512   6.114   4.221
  388SOL     OW 2062   1.671   5.009   6.000
  388SOL    HW1 2063   1.693   4.968   6.088
  388SOL    HW2 2064   1.637   4.938   5.938
  389SOL     OW 2065   2.763   3.275   0.845
  389SOL    HW1 2066   2.794   3.300   0.753
  389SOL    HW2 2067   2.710   3.191   0.840
  390SOL     OW 2068   2.554   1.146   4.421
  390SOL    HW1 2069   2.529   1.201   4.500
  390SOL    HW2 2070   2.485   1.157   4.349
  391SOL     OW 2071   0.882   2.491   0.004
  391SOL    HW1 2072   0.977   2.522   7.022
  391SOL    HW2 2073   0.830   2.517   6.950
  392SOL     OW 2074   3.192   5.511   5.019
  392SOL    HW1 2075   3.205   5.610   5.024
  392SOL    HW2 2076   3.275   5.468   4.984
  393SOL     OW 2077   6.134   3.945   5.779
  393SOL    HW1 2078   6.039   3.941   5.747
  393SOL    HW2 2079   6.144   4.022   5.842
  394SOL     OW 2080   2.003   1.532   6.014
  394SOL    HW1 2081   1.947   1.500   6.091
  394SOL    HW2 2082   2.053   1.614   6.041
  395SOL     OW 2083   6.919   2.905   1.040
  395SOL    HW1 2084   7.016   2.926   1.051
  395SOL    HW2 2085   6.908   2.840   0.965
  396SOL     OW 2086   3.247   2.596   5.813
  396SOL    HW1 2087   3.310   2.542   5.758
  396SOL    HW2 2088   3.226   2.681   5.766
  397SOL     OW 2089   4.581   1.177   6.826
  397SOL    HW1 2090   4.492   1.175   6.871
  397SOL    HW2 2091   4.641   1.241   6.874
  398SOL     OW 2092   0.526   4.452   2.328
  398SOL    HW1 2093   0.566   4.535   2.368
  398SOL    HW2 2094   0.529   4.377   2.394
  399SOL     OW 2095   4.905   5.201   1.916
  399SOL    HW1 2096   4.882   5.285   1.966
  399SOL    HW2 2097   4.822   5.147   1.902
  400SOL     OW 2098   2.209   4.691   4.909
  400SOL    HW1 2099   2.237   4.595   4.917
  400SOL    HW2 2100   2.148   4.714   4.986
  401SOL     OW 2101   5.986   1.567   1.091
  401SOL    HW1 2102   5.893   1.535   1.110
  401SOL    HW2 2103   6.048   1.531   1.161
  402SOL     OW 2104   0.075   4.716   0.835
  402SOL    HW1 2105   0.015   4.763   0.770
  402SOL    HW2 2106   0.076   4.618   0.815
  403SOL     OW 2107   4.601   4.955   0.958
  403SOL    HW1 2108   4.557   4.866   0.974
  403SOL    HW2 2109   4.622   4.965   0.861
  404SOL     OW 2110   0.044   5.861   4.956
  404SOL    HW1 2111   0.068   5.944   5.006
  404SOL    HW2 2112   0.079   5.782   5.006
  405SOL     OW 2113   1.257   2.393   1.405
  405SOL    HW1 2114   1.342   2.427   1.365
  405SOL    HW2 2115   1.180   2.447   1.369
  406SOL     OW 2116   1.122   2.829   3.581
  406SOL    HW1 2117   1.218   2.819   3.606
  406SOL    HW2 2118   1.109   2.798   3.487
  407SOL     OW 2119   3.646   2.103   4.339
  407SOL    HW1 2120   3.555   2.127   4.372
  407SOL    HW2 2121   3.701   2.067   4.415
  408SOL     OW 2122   2.568   0.510   3.774
  408SOL    HW1 2123   2.612   0.548   3.855
  408SOL    HW2 2124   2.617   0.428   3.744
  409SOL     OW 2125   6.785   3.866   4.045
  409SOL    HW1 2126   6.862   3.832   4.099
  409SOL    HW2 2127   6.705   3.878   4.103
  410SOL     OW 2128   2.999   6.747   6.180
  410SOL    HW1 2129   3.014   6.840   6.146
  410SOL    HW2 2130   2.941   6.751   6.262
  411SOL     OW 2131   0.571   3.977   5.213
  411SOL    HW1 2132   0.577   3.987   5.114
  411SOL    HW2 2133   0.476   3.988   5.243
  412SOL     OW 2134   4.141   6.719   2.620
  412SOL    HW1 2135   4.097   6.765   2.543
  412SOL    HW2 2136   4.072   6.675   2.677
  413SOL     OW 2137   2.263   1.212   2.627
  413SOL    HW1 2138   2.264   1.115   2.651
  413SOL    HW2 2139   2.236   1.221   2.531
  414SOL     OW 2140   4.993   4.945   0.824
  414SOL    HW1 2141   4.971   4.985   0.735
  414SOL    HW2 2142   4.934   4.985   0.894
  415SOL     OW 2143   3.766   6.690   2.223
  415SOL    HW1 2144   3.834   6.654   2.287
  415SOL    HW2 2145   3.809   6.755   2.161
  416SOL     OW 2146   3.694   5.775   0.177
  416SOL    HW1 2147   3.665   5.680   0.194
  416SOL    HW2 2148   3.779   5.775   0.125
  417SOL     OW 2149   5.237   4.920   1.396
  417SOL    HW1 2150   5.326   4.952   1.362
  417SOL    HW2 2151   5.207   4.979   1.471
  418SOL     OW 2152   6.207   4.915   6.557
  418SOL    HW1 2153   6.207   4.909   6.457
  418SOL    HW2 2154   6.154   4.995   6.585
  419SOL     OW 2155   5.317   5.845   0.300
  419SOL    HW1 2156   5.252   5.810   0.232
  419SOL    HW2 2157   5.316   5.786   0.381
  420SOL     OW 2158   4.893   3.973   6.798
  420SOL    HW1 2159   4.793   3.969   6.799
  420SOL    HW2 2160   4.922   4.067   6.818
  421SOL     OW 2161   1.720   6.601   6.586
  421SOL    HW1 2162   1.796   6.602   6.522
  421SOL    HW2 2163   1.751   6.565   6.674
  422SOL     OW 2164   5.925   3.782   7.016
  422SOL    HW1 2165   5.878   3.702   6.978
  422SOL    HW2 2166   6.020   3.757   0.009
  423SOL     OW 2167   1.126   3.555   6.365
  423SOL    HW1 2168   1.205   3.526   6.313
  423SOL    HW2 2169   1.141   3.536   6.462
  424SOL     OW 2170   1.753   4.388   0.137
  424SOL    HW1 2171   1.827   4.322   0.125
  424SOL    HW2 2172   1.790   4.481   0.134
  425SOL     OW 2173   3.433   0.109   0.144
  425SOL    HW1 2174   3.487   0.066   0.217
  425SOL    HW2 2175   3.336   0.111   0.172
  426SOL     OW 2176   6.970   4.063   6.080
  426SOL    HW1 2177   6.877   4.030   6.095
  426SOL    HW2 2178   7.013   4.009   6.007
  427SOL     OW 2179   4.359   3.481   0.564
  427SOL    HW1 2180   4.286   3.476   0.632
  427SOL    HW2 2181   4.448   3.474   0.609
  428SOL     OW 2182   3.929   1.624   5.557
  428SOL    HW1 2183   4.006   1.577   5.600
  428SOL    HW2 2184   3.941   1.723   5.564
  429SOL     OW 2185   2.737   6.781   0.429
  429SOL    HW1 2186   2.790   6.825   0.356
  429SOL    HW2 2187   2.643   6.768   0.398
  430SOL     OW 2188   3.031   0.248   4.143
  430SOL    HW1 2189   2.981   0.200   4.071
  430SOL    HW2 2190   3.129   0.226   4.136
  431SOL     OW 2191   3.525   1.020   0.024
  431SOL    HW1 2192   3.564   1.096   0.076
  431SOL    HW2 2193   3.559   1.024   6.956
  432SOL     OW 2194   6.938   0.943   1.082
  432SOL    HW1 2195   7.004   0.870   1.102
  432SOL    HW2 2196   6.932   1.004   1.161
  433SOL     OW 2197   2.838   6.166   4.975
  433SOL    HW1 2198   2.934   6.136   4.972
  433SOL    HW2 2199   2.833   6.265   4.961
  434SOL     OW 2200   6.211   3.640   1.321
  434SOL    HW1 2201   6.272   3.575   1.366
  434SOL    HW2 2202   6.176   3.705   1.388
  435SOL     OW 2203   3.821   3.602   0.864
  435SOL    HW1 2204   3.819   3.503   0.872
  435SOL    HW2 2205   3.730   3.639   0.883
  436SOL     OW 2206   3.090   0.872   0.499
  436SOL    HW1 2207   3.142   0.836   0.422
  436SOL    HW2 2208   2.995   0.885   0.472
  437SOL     OW 2209   6.613   0.076   5.951
  437SOL    HW1 2210   6.530   0.097   6.003
  437SOL    HW2 2211   6.655   7.019   5.988
  438SOL     OW 2212   1.705   3.458   1.246
  438SOL    HW1 2213   1.714   3.376   1.303
  438SOL    HW2 2214   1.751   3.443   1.158
  439SOL     OW 2215   6.165   4.563   2.231
  439SOL    HW1 2216   6.110   4.620   2.293
  439SOL    HW2 2217   6.255   4.546   2.272
  440SOL     OW 2218   1.735   2.990   3.332
  440SOL    HW1 2219   1.736   3.086   3.361
  440SOL    HW2 2220   1.640   2.960   3.321
  441SOL     OW 2221   0.385   0.873   3.308
  441SOL    HW1 2222   0.404   0.921   3.394
  441SOL    HW2 2223   0.390   0.937   3.232
  442SOL     OW 2224   0.216   4.867   6.360
  442SOL    HW1 2225   0.312   4.889   6.348
  442SOL    HW2 2226   0.175   4.930   6.426
  443SOL     OW 2227   0.495   4.161   5.446
  443SOL    HW1 2228   0.526   4.145   5.353
  443SOL    HW2 2229   0.443   4.082   5.478
  444SOL     OW 2230   4.751   2.855   6.372
  444SOL    HW1 2231   4.752   2.802   6.457
  444SOL    HW2 2232   4.730   2.950   6.392
  445SOL     OW 2233   1.864   4.018   3.380
  445SOL    HW1 2234   1.880   3.959   3.459
  445SOL    HW2 2235   1.816   4.101   3.410
  446SOL     OW 2236   2.956   5.298   4.351
  446SOL    HW1 2237   2.928   5.211   4.311
  446SOL    HW2 2238   2.984   5.360   4.278
  447SOL     OW 2239   6.896   6.427   0.728
  447SOL    HW1 2240   6.919   6.340   0.685
  447SOL    HW2 2241   6.980   6.468   0.766
  448SOL     OW 2242   4.044   0.223   6.176
  448SOL    HW1 2243   4.079   0.190   6.089
  448SOL    HW2 2244   4.110   0.287   6.216
  449SOL     OW 2245   5.056   0.199   4.168
  449SOL    HW1 2246   5.008   0.161   4.089
  449SOL    HW2 2247   4.990   0.237   4.232
  450SOL     OW 2248   6.235   6.472   3.015
  450SOL    HW1 2249   6.206   6.487   3.109
  450SOL    HW2 2250   6.268   6.558   2.976
  451SOL     OW 2251   6.558   3.098   3.877
  451SOL    HW1 2252   6.631   3.163   3.899
  451SOL    HW2 2253   6.470   3.135   3.905
  452SOL     OW 2254   6.712   5.277   5.796
  452SOL    HW1 2255   6.638   5.215   5.821
  452SOL    HW2 2256   6.743   5.327   5.877
  453SOL     OW 2257   3.105   1.710   5.693
  453SOL    HW1 2258   3.156   1.704   5.778
  453SOL    HW2 2259   3.168   1.730   5.618
  454SOL     OW 2260   1.118   6.335   0.525
  454SOL    HW1 2261   1.201   6.309   0.575
  454SOL    HW2 2262   1.054   6.381   0.587
  455SOL     OW 2263   5.197   0.633   4.542
  455SOL    HW1 2264   5.176   0.600   4.633
  455SOL    HW2 2265   5.293   0.660   4.537
  456SOL     OW 2266   4.082   5.295   6.961
  456SOL    HW1 2267   4.081   5.334   6.869
  456SOL    HW2 2268   4.081   5.196   6.955
  457SOL     OW 2269   0.914   4.579   1.631
  457SOL    HW1 2270   0.986   4.566   1.563
  457SOL    HW2 2271   0.947   4.635   1.706
  458SOL     OW 2272   0.362   6.458   5.075
  458SOL    HW1 2273   0.316   6.416   5.153
  458SOL    HW2 2274   0.300   6.458   4.996
  459SOL     OW 2275   1.937   0.831   3.290
  459SOL    HW1 2276   1.887   0.774   3.225
  459SOL    HW2 2277   1.942   0.924   3.255
  460SOL     OW 2278   6.687   2.181   3.965
  460SOL    HW1 2279   6.708   2.221   4.054
  460SOL    HW2 2280   6.627   2.101   3.977
  461SOL     OW 2281   5.486   5.715   5.405
  461SOL    HW1 2282   5.446   5.803   5.382
  461SOL    HW2 2283   5.586   5.721   5.399
  462SOL     OW 2284   2.745   1.817   6.984
  462SOL    HW1 2285   2.822   1.755   6.971
  462SOL    HW2 2286   2.765   1.880   0.032
  463SOL     OW 2287   6.955   5.949   1.927
  463SOL    HW1 2288   6.927   5.972   2.020
  463SOL    HW2 2289   6.897   5.875   1.893
  464SOL     OW 2290   1.762   1.549   5.828
  464SOL    HW1 2291   1.787   1.617   5.759
  464SOL    HW2 2292   1.841   1.533   5.888
  465SOL     OW 2293   0.212   3.118   5.876
  465SOL    HW1 2294   0.140   3.121   5.807
  465SOL    HW2 2295   0.301   3.113   5.831
  466SOL     OW 2296   2.738   0.888   3.222
  466SOL    HW1 2297   2.801   0.948   3.272
  466SOL    HW2 2298   2.743   0.910   3.124
  467SOL     OW 2299   1.695   1.941   5.365
  467SOL    HW1 2300   1.670   1.858   5.414
  467SOL    HW2 2301   1.753   1.999   5.424
  468SOL     OW 2302   3.282   3.792   2.364
  468SOL    HW1 2303   3.336   3.793   2.280
  468SOL    HW2 2304   3.185   3.789   2.340
  469SOL     OW 2305   3.376   5.698   0.424
  469SOL    HW1 2306   3.432   5.641   0.364
  469SOL    HW2 2307   3.393   5.672   0.519
  470SOL     OW 2308   4.194   6.931   2.769
  470SOL    HW1 2309   4.193   6.853   2.707
  470SOL    HW2 2310   4.287   6.945   2.804
  471SOL     OW 2311   2.905   1.974   4.639
  471SOL    HW1 2312   2.910   2.071   4.662
  471SOL    HW2 2313   2.917   1.962   4.541
  472SOL     OW 2314   4.106   4.456   5.351
  472SOL    HW1 2315   4.021   4.403   5.343
  472SOL    HW2 2316   4.165   4.435   5.273
  473SOL     OW 2317   1.138   4.049   3.784
  473SOL    HW1 2318   1.056   4.099   3.757
  473SOL    HW2 2319   1.113   3.957   3.814
  474SOL     OW 2320   5.079   4.535   5.040
  474SOL    HW1 2321   4.988   4.510   5.075
  474SOL    HW2 2322   5.074   4.624   4.995
  475SOL     OW 2323   1.639   6.786   6.261
  475SOL    HW1 2324   1.696   6.707   6.284
  475SOL    HW2 2325   1.656   6.812   6.166
  476SOL     OW 2326   0.621   5.618   1.768
  476SOL    HW1 2327   0.621   5.540   1.832
  476SOL    HW2 2328   0.577   5.591   1.683
  477SOL     OW 2329   1.566   5.116   3.682
  477SOL    HW1 2330   1.655   5.162   3.686
  477SOL    HW2 2331   1.533   5.117   3.588
  478SOL     OW 2332   1.579   5.643   3.144
  478SOL    HW1 2333   1.591   5.621   3.241
  478SOL    HW2 2334   1.559   5.741   3.134
  479SOL     OW 2335   3.471   1.666   1.512
  479SOL    HW1 2336   3.478   1.695   1.607
  479SOL    HW2 2337   3.486   1.567   1.505
  480SOL     OW 2338   1.803   6.415   2.768
  480SOL    HW1 2339   1.728   6.426   2.832
  480SOL    HW2 2340   1.885   6.459   2.804
  481SOL     OW 2341   2.947   6.577   1.424
  481SOL    HW1 2342   2.895   6.498   1.392
  481SOL    HW2 2343   3.007   6.610   1.351
  482SOL     OW 2344   5.665   5.371   1.083
  482SOL    HW1 2345   5.590   5.342   1.142
  482SOL    HW2 2346   5.696   5.294   1.028
  483SOL     OW 2347   6.060   1.760   1.683
  483SOL    HW1 2348   5.977   1.705   1.696
  483SOL    HW2 2349   6.074   1.776   1.585
  484SOL     OW 2350   6.972   2.591   5.040
  484SOL    HW1 2351   6.988   2.574   4.942
  484SOL    HW2 2352   0.007   2.534   5.094
  485SOL     OW 2353   3.496   6.018   1.904
  485SOL    HW1 2354   3.464   5.939   1.956
  485SOL    HW2 2355   3.444   6.024   1.818
  486SOL     OW 2356   0.384   0.558   6.115
  486SOL    HW1 2357   0.375   0.657   6.126
  486SOL    HW2 2358   0.416   0.517   6.200
  487SOL     OW 2359   6.388   2.583   6.594
  487SOL    HW1 2360   6.391   2.631   6.682
  487SOL    HW2 2361   6.406   2.485   6.609
  488SOL     OW 2362   0.885   3.476   2.462
  488SOL    HW1 2363   0.797   3.430   2.448
  488SOL    HW2 2364   0.869   3.571   2.487
  489SOL     OW 2365   3.132   6.140   6.157
  489SOL    HW1 2366   3.222   6.101   6.140
  489SOL    HW2 2367   3.100   6.112   6.248
  490SOL     OW 2368   5.289   6.560   4.196
  490SOL    HW1 2369   5.192   6.570   4.220
  490SOL    HW2 2370   5.343   6.626   4.248
  491SOL     OW 2371   0.105   2.147   3.509
  491SOL    HW1 2372   0.125   2.234   3.463
  491SOL    HW2 2373   0.180   2.124   3.571
  492SOL     OW 2374   1.940   1.011   4.720
  492SOL    HW1 2375   2.028   1.037   4.681
  492SOL    HW2 2376   1.942   1.025   4.819
  493SOL     OW 2377   6.065   4.066   4.554
  493SOL    HW1 2378   6.114   4.024   4.478
  493SOL    HW2 2379   6.009   3.997   4.601
  494SOL     OW 2380   6.389   1.541   6.620
  494SOL    HW1 2381   6.330   1.619   6.641
  494SOL    HW2 2382   6.342   1.456   6.645
  495SOL     OW 2383   4.400   4.145   0.504
  495SOL    HW1 2384   4.381   4.065   0.562
  495SOL    HW2 2385   4.416   4.225   0.562
  496SOL     OW 2386   6.065   2.772   2.725
  496SOL    HW1 2387   6.030   2.682   2.698
  496SOL    HW2 2388   6.124   2.808   2.653
  497SOL     OW 2389   3.346   6.938   4.530
  497SOL    HW1 2390   3.410   7.012   4.548
  497SOL    HW2 2391   3.254   6.975   4.514
  498SOL     OW 2392   1.217   2.957   2.540
  498SOL    HW1 2393   1.226   2.986   2.445
  498SOL    HW2 2394   1.305   2.923   2.572
  499SOL     OW 2395   3.028   1.044   5.068
  499SOL    HW1 2396   3.067   1.132   5.042
  499SOL    HW2 2397   2.930   1.046   5.054
  500SOL     OW 2398   1.619   4.558   2.231
  500SOL    HW1 2399   1.534   4.526   2.189
  500SOL    HW2 2400   1.630   4.656   2.216
  501SOL     OW 2401   1.503   4.992   7.010
  501SOL    HW1 2402   1.419   4.938   7.012
  501SOL    HW2 2403   1.509   5.048   0.065
  502SOL     OW 2404   3.790   5.053   6.277
  502SOL    HW1 2405   3.798   5.002   6.191
  502SOL    HW2 2406   3.881   5.080   6.308
  503SOL     OW 2407   6.107   5.832   4.868
  503SOL    HW1 2408   6.206   5.842   4.876
  503SOL    HW2 2409   6.080   5.741   4.898
  504SOL     OW 2410   1.710   5.802   4.414
  504SOL    HW1 2411   1.802   5.788   4.450
  504SOL    HW2 2412   1.645   5.743   4.463
  505SOL     OW 2413   4.043   6.543   5.122
  505SOL    HW1 2414   4.118   6.591   5.075
  505SOL    HW2 2415   4.078   6.459   5.164
  506SOL     OW 2416   1.899   3.567   0.192
  506SOL    HW1 2417   1.939   3.560   0.101
  506SOL    HW2 2418   1.808   3.526   0.192
  507SOL     OW 2419   3.834   2.134   4.146
  507SOL    HW1 2420   3.739   2.153   4.171
  507SOL    HW2 2421   3.890   2.126   4.228
  508SOL     OW 2422   6.081   4.294   3.764
  508SOL    HW1 2423   6.072   4.198   3.791
  508SOL    HW2 2424   6.044   4.353   3.835
  509SOL     OW 2425   4.526   2.609   1.179
  509SOL    HW1 2426   4.618   2.571   1.191
  509SOL    HW2 2427   4.493   2.643   1.267
  510SOL     OW 2428   0.906   3.666   4.675
  510SOL    HW1 2429   0.952   3.753   4.692
  510SOL    HW2 2430   0.926   3.602   4.749
  511SOL     OW 2431   0.382   6.730   1.155
  511SOL    HW1 2432   0.300   6.732   1.213
  511SOL    HW2 2433   0.433   6.645   1.173
  512SOL     OW 2434   0.782   3.974   6.613
  512SOL    HW1 2435   0.718   3.902   6.587
  512SOL    HW2 2436   0.864   3.967   6.556
  513SOL     OW 2437   0.973   5.333   4.696
  513SOL    HW1 2438   0.983   5.268   4.621
  513SOL    HW2 2439   1.017   5.298   4.778
  514SOL     OW 2440   6.115   1.745   3.039
  514SOL    HW1 2441   6.181   1.720   3.111
  514SOL    HW2 2442   6.022   1.724   3.071
  515SOL     OW 2443   1.857   5.638   0.084
  515SOL    HW1 2444   1.954   5.621   0.104
  515SOL    HW2 2445   1.808   5.653   0.170
  516SOL     OW 2446   1.476   5.204   2.565
  516SOL    HW1 2447   1.509   5.288   2.522
  516SOL    HW2 2448   1.379   5.190   2.543
  517SOL     OW 2449   4.917   0.666   6.376
  517SOL    HW1 2450   4.914   0.707   6.467
  517SOL    HW2 2451   5.012   0.653   6.349
  518SOL     OW 2452   2.596   1.881   0.902
  518SOL    HW1 2453   2.636   1.936   0.828
  518SOL    HW2 2454   2.518   1.830   0.866
  519SOL     OW 2455   0.721   0.336   0.259
  519SOL    HW1 2456   0.752   0.325   0.164
  519SOL    HW2 2457   0.764   0.267   0.317
  520SOL     OW 2458   6.457   4.350   4.457
  520SOL    HW1 2459   6.520   4.310   4.523
  520SOL    HW2 2460   6.439   4.284   4.384
  521SOL     OW 2461   6.040   0.635   0.821
  521SOL    HW1 2462   6.014   0.676   0.908
  521SOL    HW2 2463   5.978   0.667   0.749
  522SOL     OW 2464   3.619   3.614   5.464
  522SOL    HW1 2465   3.692   3.550   5.439
  522SOL    HW2 2466   3.556   3.568   5.527
  523SOL     OW 2467   6.700   0.035   4.466
  523SOL    HW1 2468   6.726   0.121   4.422
  523SOL    HW2 2469   6.701   0.047   4.566
  524SOL     OW 2470   4.180   1.308   5.966
  524SOL    HW1 2471   4.118   1.229   5.968
  524SOL    HW2 2472   4.258   1.290   6.026
  525SOL     OW 2473   2.628   2.633   6.731
  525SOL    HW1 2474   2.595   2.567   6.798
  525SOL    HW2 2475   2.633   2.724   6.773
  526SOL     OW 2476   4.350   5.496   4.695
  526SOL    HW1 2477   4.388   5.502   4.602
  526SOL    HW2 2478   4.299   5.411   4.704
  527SOL     OW 2479   0.766   2.238   0.013
  527SOL    HW1 2480   0.796   2.315   0.070
  527SOL    HW2 2481   0.675   2.258   7.003
  528SOL     OW 2482   2.312   1.233   5.538
  528SOL    HW1 2483   2.264   1.147   5.522
  528SOL    HW2 2484   2.405   1.215   5.569
  529SOL     OW 2485   6.678   4.775   3.907
  529SOL    HW1 2486   6.578   4.784   3.911
  529SOL    HW2 2487   6.714   4.840   3.839
  530SOL     OW 2488   1.075   2.126   5.085
  530SOL    HW1 2489   0.987   2.171   5.075
  530SOL    HW2 2490   1.148   2.194   5.083
  531SOL     OW 2491   0.145   0.612   0.134
  531SOL    HW1 2492   0.242   0.592   0.120
  531SOL    HW2 2493   0.128   0.708   0.116
  532SOL     OW 2494   1.882   0.452   5.896
  532SOL    HW1 2495   1.933   0.517   5.839
  532SOL    HW2 2496   1.918   0.454   5.989
  533SOL     OW 2497   5.376   0.323   4.592
  533SOL    HW1 2498   5.304   0.355   4.530
  533SOL    HW2 2499   5.405   0.399   4.650
  534SOL     OW 2500   3.019   5.146   3.058
  534SOL    HW1 2501   3.051   5.075   3.121
  534SOL    HW2 2502   2.996   5.104   2.970
  535SOL     OW 2503   6.290   4.062   2.686
  535SOL    HW1 2504   6.199   4.063   2.726
  535SOL    HW2 2505   6.282   4.066   2.586
  536SOL     OW 2506   0.742   6.304   0.705
  536SOL    HW1 2507   0.686   6.303   0.787
  536SOL    HW2 2508   0.825   6.357   0.722
  537SOL     OW 2509   2.149   0.081   3.569
  537SOL    HW1 2510   2.090   0.001   3.577
  537SOL    HW2 2511   2.148   0.114   3.474
  538SOL     OW 2512   1.564   4.625   4.051
  538SOL    HW1 2513   1.485   4.685   4.040
  538SOL    HW2 2514   1.546   4.538   4.006
  539SOL     OW 2515   1.468   6.081   1.321
  539SOL    HW1 2516   1.542   6.015   1.305
  539SOL    HW2 2517   1.436   6.117   1.234
  540SOL     OW 2518   1.629   3.295   1.484
  540SOL    HW1 2519   1.710   3.291   1.542
  540SOL    HW2 2520   1.552   3.329   1.537
  541SOL     OW 2521   3.637   5.073   5.334
  541SOL    HW1 2522   3.733   5.045   5.333
  541SOL    HW2 2523   3.622   5.138   5.408
  542SOL     OW 2524   5.893   6.546   6.250
  542SOL    HW1 2525   5.806   6.500   6.267
  542SOL    HW2 2526   5.923   6.592   6.334
  543SOL     OW 2527   6.466   6.068   0.679
  543SOL    HW1 2528   6.454   6.166   0.696
  543SOL    HW2 2529   6.509   6.025   0.759
  544SOL     OW 2530   0.953   5.710   0.520
  544SOL    HW1 2531   1.034   5.760   0.489
  544SOL    HW2 2532   0.876   5.772   0.525
  545SOL     OW 2533   3.688   1.528   4.250
  545SOL    HW1 2534   3.753   1.599   4.279
  545SOL    HW2 2535   3.679   1.460   4.322
  546SOL     OW 2536   1.648   2.796   0.531
  546SOL    HW1 2537   1.659   2.715   0.473
  546SOL    HW2 2538   1.552   2.806   0.556
  547SOL     OW 2539   3.076   1.737   0.239
  547SOL    HW1 2540   3.103   1.645   0.269
  547SOL    HW2 2541   3.095   1.746   0.141
  548SOL     OW 2542   3.059   3.032   5.201
  548SOL    HW1 2543   3.103   3.117   5.231
  548SOL    HW2 2544   2.965   3.029   5.235
  549SOL     OW 2545   0.894   3.944   1.102
  549SOL    HW1 2546   0.976   4.000   1.091
  549SOL    HW2 2547   0.876   3.931   1.199
  550SOL     OW 2548   6.568   3.484   0.580
  550SOL    HW1 2549   6.480   3.477   0.534
  550SOL    HW2 2550   6.598   3.579   0.579
  551SOL     OW 2551   0.334   1.339   0.355
  551SOL    HW1 2552   0.432   1.357   0.353
  551SOL    HW2 2553   0.293   1.365   0.267
  552SOL     OW 2554   4.686   4.759   0.576
  552SOL    HW1 2555   4.758   4.745   0.507
  552SOL    HW2 2556   4.694   4.689   0.647
  553SOL     OW 2557   1.076   2.553   1.269
  553SOL    HW1 2558   0.982   2.525   1.248
  553SOL    HW2 2559   1.095   2.641   1.226
  554SOL     OW 2560   4.962   5.060   5.080
  554SOL    HW1 2561   4.997   4.988   5.020
  554SOL    HW2 2562   4.866   5.044   5.100
  555SOL     OW 2563   1.331   4.393   5.015
  555SOL    HW1 2564   1.248   4.362   5.063
  555SOL    HW2 2565   1.305   4.456   4.941
  556SOL     OW 2566   5.993   3.356   2.898
  556SOL    HW1 2567   6.067   3.412   2.861
  556SOL    HW2 2568   5.906   3.384   2.858
  557SOL     OW 2569   0.046   5.721   6.123
  557SOL    HW1 2570   6.982   5.702   6.160
  557SOL    HW2 2571   0.096   5.635   6.110
  558SOL     OW 2572   4.510   3.759   5.631
  558SOL    HW1 2573   4.491   3.826   5.703
  558SOL    HW2 2574   4.449   3.774   5.554
  559SOL     OW 2575   6.083   5.473   6.338
  559SOL    HW1 2576   5.992   5.435   6.321
  559SOL    HW2 2577   6.152   5.416   6.293
  560SOL     OW 2578   4.271   6.566   7.022
  560SOL    HW1 2579   4.283   6.594   6.927
  560SOL    HW2 2580   4.174   6.554   0.015
  561SOL     OW 2581   5.616   6.518   1.955
  561SOL    HW1 2582   5.578   6.433   1.920
  561SOL    HW2 2583   5.710   6.503   1.985
  562SOL     OW 2584   6.423   0.976   0.173
  562SOL    HW1 2585   6.451   0.885   0.203
  562SOL    HW2 2586   6.372   1.022   0.246
  563SOL     OW 2587   3.125   0.562   4.768
  563SOL    HW1 2588   3.150   0.656   4.744
  563SOL    HW2 2589   3.092   0.514   4.687
  564SOL     OW 2590   0.690   2.169   6.225
  564SOL    HW1 2591   0.696   2.199   6.130
  564SOL    HW2 2592   0.624   2.094   6.233
  565SOL     OW 2593   4.413   4.202   5.776
  565SOL    HW1 2594   4.481   4.132   5.799
  565SOL    HW2 2595   4.385   4.250   5.859
  566SOL     OW 2596   6.243   4.926   2.310
  566SOL    HW1 2597   6.208   4.903   2.220
  566SOL    HW2 2598   6.340   4.899   2.316
  567SOL     OW 2599   3.684   3.901   5.070
  567SOL    HW1 2600   3.748   3.874   5.141
  567SOL    HW2 2601   3.614   3.961   5.109
  568SOL     OW 2602   1.791   1.195   6.212
  568SOL    HW1 2603   1.876   1.174   6.164
  568SOL    HW2 2604   1.793   1.153   6.303
  569SOL     OW 2605   2.029   4.181   6.637
  569SOL    HW1 2606   2.054   4.152   6.729
  569SOL    HW2 2607   1.950   4.243   6.642
  570SOL     OW 2608   0.083   6.565   0.871
  570SOL    HW1 2609   0.180   6.576   0.849
  570SOL    HW2 2610   0.072   6.498   0.944
  571SOL     OW 2611   4.220   5.524   2.845
  571SOL    HW1 2612   4.268   5.570   2.771
  571SOL    HW2 2613   4.286   5.501   2.917
  572SOL     OW 2614   1.598   4.495   5.029
  572SOL    HW1 2615   1.596   4.587   5.068
  572SOL    HW2 2616   1.508   4.453   5.037
  573SOL     OW 2617   3.030   2.171   0.117
  573SOL    HW1 2618   3.061   2.084   0.155
  573SOL    HW2 2619   3.093   2.244   0.146
  574SOL     OW 2620   2.744   2.032   4.083
  574SOL    HW1 2621   2.650   2.036   4.050
  574SOL    HW2 2622   2.806   2.021   4.005
  575SOL     OW 2623   5.226   2.343   6.311
  575SOL    HW1 2624   5.236   2.292   6.396
  575SOL    HW2 2625   5.239   2.441   6.330
  576SOL     OW 2626   0.995   2.946   2.726
  576SOL    HW1 2627   1.088   2.968   2.696
  576SOL    HW2 2628   0.989   2.960   2.825
  577SOL     OW 2629   3.819   1.985   4.566
  577SOL    HW1 2630   3.755   1.927   4.616
  577SOL    HW2 2631   3.829   2.073   4.613
  578SOL     OW 2632   0.014   3.527   4.039
  578SOL    HW1 2633   7.021   3.609   4.094
  578SOL    HW2 2634   0.112   3.507   4.043
  579SOL     OW 2635   4.047   3.797   0.849
  579SOL    HW1 2636   3.999   3.880   0.875
  579SOL    HW2 2637   3.981   3.721   0.844
  580SOL     OW 2638   0.696   6.656   0.208
  580SOL    HW1 2639   0.633   6.623   0.278
  580SOL    HW2 2640   0.755   6.580   0.178
  581SOL     OW 2641   4.057   3.153   2.565
  581SOL    HW1 2642   3.978   3.118   2.515
  581SOL    HW2 2643   4.117   3.205   2.503
  582SOL     OW 2644   6.437   4.141   1.146
  582SOL    HW1 2645   6.486   4.055   1.159
  582SOL    HW2 2646   6.400   4.145   1.053
  583SOL     OW 2647   2.983   6.339   6.731
  583SOL    HW1 2648   3.061   6.370   6.786
  583SOL    HW2 2649   2.910   6.407   6.738
  584SOL     OW 2650   0.839   5.101   4.854
  584SOL    HW1 2651   0.759   5.075   4.799
  584SOL    HW2 2652   0.834   5.057   4.943
  585SOL     OW 2653   5.834   0.601   5.703
  585SOL    HW1 2654   5.856   0.695   5.676
  585SOL    HW2 2655   5.738   0.582   5.685
  586SOL     OW 2656   2.725   5.981   1.552
  586SOL    HW1 2657   2.816   5.958   1.588
  586SOL    HW2 2658   2.735   6.030   1.465
  587SOL     OW 2659   1.835   3.862   5.943
  587SOL    HW1 2660   1.784   3.911   5.871
  587SOL    HW2 2661   1.792   3.879   6.031
  588SOL     OW 2662   2.194   0.325   1.422
  588SOL    HW1 2663   2.095   0.342   1.424
  588SOL    HW2 2664   2.237   0.387   1.357
  589SOL     OW 2665   4.367   5.245   2.048
  589SOL    HW1 2666   4.276   5.285   2.058
  589SOL    HW2 2667   4.363   5.170   1.982
  590SOL     OW 2668   6.492   2.784   1.811
  590SOL    HW1 2669   6.586   2.750   1.814
  590SOL    HW2 2670   6.468   2.823   1.900
  591SOL     OW 2671   2.620   6.849   2.813
  591SOL    HW1 2672   2.630   6.750   2.819
  591SOL    HW2 2673   2.563   6.872   2.734
  592SOL     OW 2674   4.909   0.135   5.638
  592SOL    HW1 2675   4.961   0.054   5.665
  592SOL    HW2 2676   4.935   0.212   5.696
  593SOL     OW 2677   6.604   1.399   4.782
  593SOL    HW1 2678   6.610   1.441   4.872
  593SOL    HW2 2679   6.648   1.457   4.714
  594SOL     OW 2680   5.528   2.467   1.403
  594SOL    HW1 2681   5.483   2.424   1.324
  594SOL    HW2 2682   5.499   2.421   1.487
  595SOL     OW 2683   4.314   6.766   4.005
  595SOL    HW1 2684   4.242   6.722   3.952
  595SOL    HW2 2685   4.334   6.856   3.964
  596SOL     OW 2686   0.663   4.086   1.439
  596SOL    HW1 2687   0.723   4.149   1.389
  596SOL    HW2 2688   0.641   4.125   1.528
  597SOL     OW 2689   4.303   2.437   5.942
  597SOL    HW1 2690   4.223   2.425   5.882
  597SOL    HW2 2691   4.273   2.470   6.031
  598SOL     OW 2692   3.063   4.038   1.319
  598SOL    HW1 2693   2.975   4.080   1.298
  598SOL    HW2 2694   3.064   3.944   1.286
  599SOL     OW 2695   6.367   5.942   3.437
  599SOL    HW1 2696   6.337   6.037   3.434
  599SOL    HW2 2697   6.357   5.906   3.529
  600SOL     OW 2698   2.734   1.420   1.639
  600SOL    HW1 2699   2.760   1.516   1.644
  600SOL    HW2 2700   2.779   1.370   1.714
  601SOL     OW 2701   1.847   4.904   3.202
  601SOL    HW1 2702   1.946   4.891   3.201
  601SOL    HW2 2703   1.810   4.888   3.111
  602SOL     OW 2704   6.792   0.376   2.034
  602SOL    HW1 2705   6.770   0.340   2.124
  602SOL    HW2 2706   6.864   0.445   2.042
  603SOL     OW 2707   4.138   1.757   3.211
  603SOL    HW1 2708   4.133   1.762   3.310
  603SOL    HW2 2709   4.177   1.843   3.175
  604SOL     OW 2710   0.727   3.865   6.022
  604SOL    HW1 2711   0.705   3.918   6.104
  604SOL    HW2 2712   0.648   3.809   5.997
  605SOL     OW 2713   5.705   0.457   4.514
  605SOL    HW1 2714   5.728   0.501   4.600
  605SOL    HW2 2715   5.693   0.359   4.529
  606SOL     OW 2716   3.164   0.102   2.717
  606SOL    HW1 2717   3.246   0.065   2.674
  606SOL    HW2 2718   3.119   0.030   2.770
  607SOL     OW 2719   3.778   0.813   4.097
  607SOL    HW1 2720   3.803   0.865   4.015
  607SOL    HW2 2721   3.835   0.731   4.104
  608SOL     OW 2722   5.370   2.808   1.581
  608SOL    HW1 2723   5.461   2.778   1.554
  608SOL    HW2 2724   5.306   2.795   1.505
  609SOL     OW 2725   3.080   3.994   4.755
  609SOL    HW1 2726   3.028   4.003   4.840
  609SOL    HW2 2727   3.110   3.899   4.744
  610SOL     OW 2728   6.216   1.535   4.463
  610SOL    HW1 2729   6.117   1.538   4.476
  610SOL    HW2 2730   6.239   1.563   4.370
  611SOL     OW 2731   5.563   6.676   6.912
  611SOL    HW1 2732   5.543   6.708   7.005
  611SOL    HW2 2733   5.542   6.748   6.846
  612SOL     OW 2734   2.258   5.623   5.973
  612SOL    HW1 2735   2.266   5.551   5.903
  612SOL    HW2 2736   2.345   5.672   5.980
  613SOL     OW 2737   3.975   1.204   6.688
  613SOL    HW1 2738   3.916   1.201   6.607
  613SOL    HW2 2739   4.024   1.291   6.690
  614SOL     OW 2740   4.819   3.090   0.862
  614SOL    HW1 2741   4.898   3.103   0.922
  614SOL    HW2 2742   4.806   2.993   0.843
  615SOL     OW 2743   5.317   6.593   0.784
  615SOL    HW1 2744   5.325   6.493   0.785
  615SOL    HW2 2745   5.248   6.621   0.718
  616SOL     OW 2746   4.986   0.608   4.337
  616SOL    HW1 2747   4.921   0.682   4.322
  616SOL    HW2 2748   5.052   0.635   4.407
  617SOL     OW 2749   6.451   6.468   4.957
  617SOL    HW1 2750   6.369   6.476   4.901
  617SOL    HW2 2751   6.518   6.536   4.928
  618SOL     OW 2752   5.613   4.673   0.915
  618SOL    HW1 2753   5.526   4.625   0.924
  618SOL    HW2 2754   5.627   4.699   0.819
  619SOL     OW 2755   2.496   6.968   6.517
  619SOL    HW1 2756   2.536   6.881   6.547
  619SOL    HW2 2757   2.414   6.987   6.571
  620SOL     OW 2758   4.372   1.831   2.337
  620SOL    HW1 2759   4.335   1.923   2.349
  620SOL    HW2 2760   4.391   1.815   2.240
  621SOL     OW 2761   3.428   0.681   6.729
  621SOL    HW1 2762   3.334   0.706   6.706
  621SOL    HW2 2763   3.428   0.625   6.812
  622SOL     OW 2764   0.566   3.631   6.008
  622SOL    HW1 2765   0.472   3.619   5.977
  622SOL    HW2 2766   0.626   3.570   5.956
  623SOL     OW 2767   6.667   1.035   3.076
  623SOL    HW1 2768   6.574   1.030   3.041
  623SOL    HW2 2769   6.672   0.990   3.165
  624SOL     OW 2770   6.653   1.272   6.373
  624SOL    HW1 2771   6.571   1.218   6.356
  624SOL    HW2 2772   6.639   1.330   6.454
  625SOL     OW 2773   3.259   1.253   1.533
  625SOL    HW1 2774   3.244   1.338   1.584
  625SOL    HW2 2775   3.350   1.218   1.552
  626SOL     OW 2776   0.880   6.120   3.714
  626SOL    HW1 2777   0.924   6.121   3.804
  626SOL    HW2 2778   0.798   6.064   3.719
  627SOL     OW 2779   6.484   5.296   6.490
  627SOL    HW1 2780   6.494   5.309   6.391
  627SOL    HW2 2781   6.518   5.205   6.515
  628SOL     OW 2782   3.765   4.611   6.396
  628SOL    HW1 2783   3.736   4.516   6.407
  628SOL    HW2 2784   3.747   4.640   6.302
  629SOL     OW 2785   1.400   6.970   0.256
  629SOL    HW1 2786   1.305   6.972   0.285
  629SOL    HW2 2787   1.423   0.030   0.212
  630SOL     OW 2788   6.955   2.228   1.546
  630SOL    HW1 2789   6.916   2.270   1.464
  630SOL    HW2 2790   0.010   2.176   1.521
  631SOL     OW 2791   1.947   3.103   3.122
  631SOL    HW1 2792   1.911   3.112   3.030
  631SOL    HW2 2793   1.979   3.192   3.155
  632SOL     OW 2794   2.931   4.463   1.112
  632SOL    HW1 2795   2.927   4.455   1.013
  632SOL    HW2 2796   2.969   4.552   1.137
  633SOL     OW 2797   1.165   5.853   0.427
  633SOL    HW1 2798   1.254   5.829   0.466
  633SOL    HW2 2799   1.136   5.942   0.463
  634SOL     OW 2800   3.105   3.458   5.501
  634SOL    HW1 2801   3.151   3.530   5.450
  634SOL    HW2 2802   3.163   3.377   5.504
  635SOL     OW 2803   5.984   6.797   6.854
  635SOL    HW1 2804   6.083   6.799   6.842
  635SOL    HW2 2805   5.962   6.771   6.948
  636SOL     OW 2806   2.269   1.314   4.673
  636SOL    HW1 2807   2.367   1.331   4.657
  636SOL    HW2 2808   2.217   1.397   4.655
  637SOL     OW 2809   0.190   1.494   2.279
  637SOL    HW1 2810   0.225   1.586   2.262
  637SOL    HW2 2811   0.110   1.500   2.339
  638SOL     OW 2812   6.884   3.744   4.972
  638SOL    HW1 2813   6.834   3.785   5.048
  638SOL    HW2 2814   6.904   3.648   4.993
  639SOL     OW 2815   5.820   3.210   1.899
  639SOL    HW1 2816   5.798   3.113   1.894
  639SOL    HW2 2817   5.774   3.251   1.978
  640SOL     OW 2818   6.916   3.583   2.632
  640SOL    HW1 2819   6.869   3.608   2.547
  640SOL    HW2 2820   6.848   3.568   2.704
  641SOL     OW 2821   2.293   5.365   4.383
  641SOL    HW1 2822   2.347   5.442   4.415
  641SOL    HW2 2823   2.205   5.363   4.430
  642SOL     OW 2824   0.526   5.223   5.040
  642SOL    HW1 2825   0.562   5.137   5.075
  642SOL    HW2 2826   0.595   5.269   4.984
  643SOL     OW 2827   4.248   5.324   0.443
  643SOL    HW1 2828   4.281   5.334   0.537
  643SOL    HW2 2829   4.253   5.228   0.417
  644SOL     OW 2830   6.386   7.005   4.241
  644SOL    HW1 2831   6.364   6.912   4.271
  644SOL    HW2 2832   6.389   0.039   4.321
  645SOL     OW 2833   4.115   6.091   1.802
  645SOL    HW1 2834   4.138   6.187   1.788
  645SOL    HW2 2835   4.116   6.043   1.714
  646SOL     OW 2836   3.683   1.924   5.482
  646SOL    HW1 2837   3.649   1.989   5.549
  646SOL    HW2 2838   3.644   1.833   5.500
  647SOL     OW 2839   2.903   2.133   0.424
  647SOL    HW1 2840   2.991   2.095   0.395
  647SOL    HW2 2841   2.917   2.196   0.500
  648SOL     OW 2842   5.854   1.385   4.076
  648SOL    HW1 2843   5.947   1.423   4.067
  648SOL    HW2 2844   5.796   1.422   4.004
  649SOL     OW 2845   2.623   5.933   0.402
  649SOL    HW1 2846   2.684   5.907   0.327
  649SOL    HW2 2847   2.671   5.996   0.463
  650SOL     OW 2848   1.611   3.220   0.989
  650SOL    HW1 2849   1.700   3.209   0.945
  650SOL    HW2 2850   1.620   3.206   1.088
  651SOL     OW 2851   0.440   1.061   3.514
  651SOL    HW1 2852   0.454   1.117   3.595
  651SOL    HW2 2853   0.348   1.078   3.478
  652SOL     OW 2854   3.637   5.645   0.581
  652SOL    HW1 2855   3.631   5.743   0.602
  652SOL    HW2 2856   3.709   5.604   0.637
  653SOL     OW 2857   1.377   0.259   2.540
  653SOL    HW1 2858   1.321   0.244   2.459
  653SOL    HW2 2859   1.471   0.232   2.521
  654SOL     OW 2860   0.889   6.883   6.096
  654SOL    HW1 2861   0.952   6.944   6.145
  654SOL    HW2 2862   0.938   6.839   6.021
  655SOL     OW 2863   0.909   3.624   0.885
  655SOL    HW1 2864   0.984   3.690   0.876
  655SOL    HW2 2865   0.860   3.641   0.970
  656SOL     OW 2866   2.418   0.298   6.658
  656SOL    HW1 2867   2.344   0.232   6.670
  656SOL    HW2 2868   2.465   0.280   6.572
  657SOL     OW 2869   3.712   3.637   4.170
  657SOL    HW1 2870   3.761   3.550   4.166
  657SOL    HW2 2871   3.652   3.645   4.090
  658SOL     OW 2872   1.799   0.548   3.827
  658SOL    HW1 2873   1.832   0.553   3.922
  658SOL    HW2 2874   1.771   0.639   3.797
  659SOL     OW 2875   1.810   5.565   6.519
  659SOL    HW1 2876   1.768   5.644   6.565
  659SOL    HW2 2877   1.882   5.597   6.458
  660SOL     OW 2878   5.279   3.731   2.417
  660SOL    HW1 2879   5.295   3.712   2.320
  660SOL    HW2 2880   5.283   3.645   2.469
  661SOL     OW 2881   4.464   5.459   3.995
  661SOL    HW1 2882   4.551   5.428   4.033
  661SOL    HW2 2883   4.415   5.382   3.956
  662SOL     OW 2884   5.566   3.715   0.189
  662SOL    HW1 2885   5.632   3.646   0.218
  662SOL    HW2 2886   5.550   3.707   0.091
  663SOL     OW 2887   1.007   4.815   6.608
  663SOL    HW1 2888   1.069   4.886   6.573
  663SOL    HW2 2889   0.919   4.821   6.561
  664SOL     OW 2890   1.609   6.998   6.022
  664SOL    HW1 2891   1.675   6.926   6.002
  664SOL    HW2 2892   1.640   0.023   6.102
  665SOL     OW 2893   2.294   4.437   3.326
  665SOL    HW1 2894   2.229   4.512   3.336
  665SOL    HW2 2895   2.375   4.469   3.276
  666SOL     OW 2896   3.652   1.039   6.829
  666SOL    HW1 2897   3.650   0.977   6.750
  666SOL    HW2 2898   3.738   1.091   6.827
  667SOL     OW 2899   1.346   3.133   2.350
  667SOL    HW1 2900   1.257   3.175   2.333
  667SOL    HW2 2901   1.404   3.199   2.399
  668SOL     OW 2902   5.248   0.089   1.091
  668SOL    HW1 2903   5.308   0.086   1.011
  668SOL    HW2 2904   5.264   0.009   1.148
  669SOL     OW 2905   0.137   5.498   2.873
  669SOL    HW1 2906   0.050   5.451   2.858
  669SOL    HW2 2907   0.120   5.594   2.894
  670SOL     OW 2908   4.033   3.824   2.437
  670SOL    HW1 2909   3.993   3.849   2.525
  670SOL    HW2 2910   4.016   3.896   2.370
  671SOL     OW 2911   2.225   0.308   6.216
  671SOL    HW1 2912   2.266   0.219   6.236
  671SOL    HW2 2913   2.193   0.349   6.301
  672SOL     OW 2914   1.421   2.517   2.904
  672SOL    HW1 2915   1.495   2.563   2.952
  672SOL    HW2 2916   1.407   2.426   2.944
  673SOL     OW 2917   4.896   0.116   6.944
  673SOL    HW1 2918   4.826   0.143   6.877
  673SOL    HW2 2919   4.984   0.104   6.898
  674SOL     OW 2920   0.313   2.311   4.699
  674SOL    HW1 2921   0.311   2.213   4.715
  674SOL    HW2 2922   0.345   2.358   4.781
  675SOL     OW 2923   6.298   6.108   3.786
  675SOL    HW1 2924   6.202   6.111   3.812
  675SOL    HW2 2925   6.318   6.183   3.723
  676SOL     OW 2926   2.584   5.283   4.430
  676SOL    HW1 2927   2.593   5.189   4.396
  676SOL    HW2 2928   2.492   5.295   4.468
  677SOL     OW 2929   4.284   6.235   0.507
  677SOL    HW1 2930   4.369   6.260   0.552
  677SOL    HW2 2931   4.255   6.144   0.537
  678SOL     OW 2932   2.166   1.142   5.867
  678SOL    HW1 2933   2.259   1.147   5.829
  678SOL    HW2 2934   2.110   1.082   5.809
  679SOL     OW 2935   6.478   0.462   1.893
  679SOL    HW1 2936   6.474   0.363   1.911
  679SOL    HW2 2937   6.391   0.492   1.856
  680SOL     OW 2938   5.732   4.500   4.986
  680SOL    HW1 2939   5.773   4.441   5.055
  680SOL    HW2 2940   5.647   4.459   4.953
  681SOL     OW 2941   1.398   6.776   2.026
  681SOL    HW1 2942   1.471   6.725   2.070
  681SOL    HW2 2943   1.435   6.828   1.949
  682SOL     OW 2944   0.039   0.253   6.060
  682SOL    HW1 2945   0.001   0.166   6.092
  682SOL    HW2 2946   0.027   0.322   6.131
  683SOL     OW 2947   4.912   1.211   1.671
  683SOL    HW1 2948   4.864   1.279   1.616
  683SOL    HW2 2949   4.998   1.249   1.703
  684SOL     OW 2950   0.334   6.005   6.665
  684SOL    HW1 2951   0.404   5.938   6.691
  684SOL    HW2 2952   0.245   5.959   6.658
  685SOL     OW 2953   6.392   0.741   6.713
  685SOL    HW1 2954   6.359   0.775   6.801
  685SOL    HW2 2955   6.315   0.730   6.650
  686SOL     OW 2956   5.627   5.147   2.644
  686SOL    HW1 2957   5.723   5.121   2.634
  686SOL    HW2 2958   5.620   5.246   2.660
  687SOL     OW 2959   5.292   1.979   5.901
  687SOL    HW1 2960   5.238   2.048   5.854
  687SOL    HW2 2961   5.377   2.020   5.933
  688SOL     OW 2962   6.289   3.328   5.060
  688SOL    HW1 2963   6.253   3.246   5.015
  688SOL    HW2 2964   6.216   3.395   5.073
  689SOL     OW 2965   5.631   4.218   4.658
  689SOL    HW1 2966   5.662   4.225   4.564
  689SOL    HW2 2967   5.611   4.123   4.680
  690SOL     OW 2968   0.120   3.330   4.624
  690SOL    HW1 2969   0.054   3.272   4.671
  690SOL    HW2 2970   0.112   3.317   4.525
  691SOL     OW 2971   0.028   3.057   6.640
  691SOL    HW1 2972   0.117   3.080   6.601
  691SOL    HW2 2973   6.988   3.046   6.565
  692SOL     OW 2974   2.586   0.229   3.539
  692SOL    HW1 2975   2.551   0.305   3.484
  692SOL    HW2 2976   2.525   0.212   3.616
  693SOL     OW 2977   6.741   1.762   2.866
  693SOL    HW1 2978   6.679   1.797   2.795
  693SOL    HW2 2979   6.792   1.838   2.905
  694SOL     OW 2980   1.660   0.541   2.096
  694SOL    HW1 2981   1.747   0.588   2.086
  694SOL    HW2 2982   1.588   0.607   2.116
  695SOL     OW 2983   4.496   5.447   6.507
  695SOL    HW1 2984   4.593   5.423   6.501
  695SOL    HW2 2985   4.484   5.542   6.481
  696SOL     OW 2986   5.300   6.190   2.187
  696SOL    HW1 2987   5.247   6.267   2.151
  696SOL    HW2 2988   5.348   6.219   2.269
  697SOL     OW 2989   1.470   3.698   3.849
  697SOL    HW1 2990   1.555   3.739   3.815
  697SOL    HW2 2991   1.413   3.671   3.771
  698SOL     OW 2992   4.780   5.599   4.003
  698SOL    HW1 2993   4.753   5.564   4.093
  698SOL    HW2 2994   4.755   5.532   3.933
  699SOL     OW 2995   1.048   4.553   6.574
  699SOL    HW1 2996   1.052   4.644   6.615
  699SOL    HW2 2997   0.957   4.514   6.587
  700SOL     OW 2998   1.807   1.816   4.735
  700SOL    HW1 2999   1.827   1.834   4.638
  700SOL    HW2 3000   1.842   1.891   4.791
  701SOL     OW 3001   0.898   4.669   5.001
  701SOL    HW1 3002   0.949   4.628   4.926
  701SOL    HW2 3003   0.941   4.645   5.088
  702SOL     OW 3004   5.793   5.964   5.211
  702SOL    HW1 3005   5.885   6.002   5.199
  702SOL    HW2 3006   5.797   5.886   5.274
  703SOL     OW 3007   5.004   4.047   6.475
  703SOL    HW1 3008   5.034   4.049   6.379
  703SOL    HW2 3009   5.065   3.988   6.528
  704SOL     OW 3010   2.584   6.876   1.988
  704SOL    HW1 3011   2.525   6.808   1.943
  704SOL    HW2 3012   2.593   6.853   2.085
  705SOL     OW 3013   0.688   1.935   3.724
  705SOL    HW1 3014   0.755   2.008   3.738
  705SOL    HW2 3015   0.704   1.862   3.791
  706SOL     OW 3016   5.193   3.306   4.352
  706SOL    HW1 3017   5.260   3.345   4.289
  706SOL    HW2 3018   5.231   3.225   4.396
  707SOL     OW 3019   5.136   2.685   3.076
  707SOL    HW1 3020   5.097   2.593   3.084
  707SOL    HW2 3021   5.063   2.752   3.070
  708SOL     OW 3022   4.163   0.876   2.405
  708SOL    HW1 3023   4.146   0.877   2.504
  708SOL    HW2 3024   4.244   0.931   2.385
  709SOL     OW 3025   1.124   5.506   6.801
  709SOL    HW1 3026   1.173   5.437   6.747
  709SOL    HW2 3027   1.042   5.466   6.840
  710SOL     OW 3028   3.129   3.884   2.840
  710SOL    HW1 3029   3.079   3.900   2.925
  710SOL    HW2 3030   3.197   3.813   2.854
  711SOL     OW 3031   0.489   0.808   5.077
  711SOL    HW1 3032   0.572   0.846   5.036
  711SOL    HW2 3033   0.513   0.756   5.159
  712SOL     OW 3034   0.161   3.843   2.955
  712SOL    HW1 3035   0.131   3.751   2.928
  712SOL    HW2 3036   0.240   3.870   2.899
  713SOL     OW 3037   3.342   3.685   4.494
  713SOL    HW1 3038   3.428   3.735   4.506
  713SOL    HW2 3039   3.283   3.701   4.573
  714SOL     OW 3040   4.905   4.531   5.268
  714SOL    HW1 3041   4.930   4.627   5.266
  714SOL    HW2 3042   4.882   4.503   5.361
  715SOL     OW 3043   6.176   6.973   6.436
  715SOL    HW1 3044   6.106   0.018   6.435
  715SOL    HW2 3045   6.239   6.988   6.359
  716SOL     OW 3046   6.321   5.115   0.911
  716SOL    HW1 3047   6.299   5.169   0.992
  716SOL    HW2 3048   6.236   5.086   0.866
  717SOL     OW 3049   6.267   3.324   6.340
  717SOL    HW1 3050   6.267   3.291   6.435
  717SOL    HW2 3051   6.344   3.387   6.327
  718SOL     OW 3052   2.680   3.111   6.796
  718SOL    HW1 3053   2.738   3.109   6.877
  718SOL    HW2 3054   2.712   3.043   6.730
  719SOL     OW 3055   5.170   4.598   0.198
  719SOL    HW1 3056   5.074   4.619   0.179
  719SOL    HW2 3057   5.196   4.638   0.286
  720SOL     OW 3058   3.736   1.397   5.809
  720SOL    HW1 3059   3.828   1.436   5.810
  720SOL    HW2 3060   3.688   1.424   5.893
  721SOL     OW 3061   0.982   6.645   5.335
  721SOL    HW1 3062   1.053   6.708   5.366
  721SOL    HW2 3063   0.893   6.692   5.339
  722SOL     OW 3064   4.763   6.915   5.200
  722SOL    HW1 3065   4.813   6.932   5.285
  722SOL    HW2 3066   4.676   6.870   5.221
  723SOL     OW 3067   1.415   3.538   1.763
  723SOL    HW1 3068   1.429   3.453   1.713
  723SOL    HW2 3069   1.339   3.527   1.827
  724SOL     OW 3070   0.390   1.479   5.160
  724SOL    HW1 3071   0.321   1.428   5.212
  724SOL    HW2 3072   0.472   1.490   5.215
  725SOL     OW 3073   2.160   5.326   2.073
  725SOL    HW1 3074   2.146   5.272   1.991
  725SOL    HW2 3075   2.253   5.312   2.107
  726SOL     OW 3076   5.380   6.171   5.604
  726SOL    HW1 3077   5.298   6.118   5.627
  726SOL    HW2 3078   5.357   6.237   5.532
  727SOL     OW 3079   2.255   4.419   4.321
  727SOL    HW1 3080   2.165   4.417   4.276
  727SOL    HW2 3081   2.276   4.328   4.357
  728SOL     OW 3082   6.727   2.943   5.676
  728SOL    HW1 3083   6.667   3.011   5.719
  728SOL    HW2 3084   6.705   2.852   5.712
  729SOL     OW 3085   4.053   1.302   0.797
  729SOL    HW1 3086   4.023   1.303   0.893
  729SOL    HW2 3087   3.976   1.276   0.739
  730SOL     OW 3088   5.654   1.597   4.503
  730SOL    HW1 3089   5.599   1.548   4.571
  730SOL    HW2 3090   5.679   1.534   4.429
  731SOL     OW 3091   0.018   2.666   4.210
  731SOL    HW1 3092   6.969   2.631   4.155
  731SOL    HW2 3093   0.051   2.752   4.172
  732SOL     OW 3094   0.682   3.546   3.542
  732SOL    HW1 3095   0.704   3.619   3.607
  732SOL    HW2 3096   0.617   3.482   3.583
  733SOL     OW 3097   4.244   5.236   4.692
  733SOL    HW1 3098   4.256   5.145   4.652
  733SOL    HW2 3099   4.156   5.274   4.664
  734SOL     OW 3100   1.059   5.912   7.000
  734SOL    HW1 3101   1.057   6.005   6.964
  734SOL    HW2 3102   0.977   5.895   0.027
  735SOL     OW 3103   2.918   4.561   6.905
  735SOL    HW1 3104   2.881   4.495   6.839
  735SOL    HW2 3105   2.900   4.529   6.998
  736SOL     OW 3106   5.877   0.804   2.693
  736SOL    HW1 3107   5.841   0.775   2.604
  736SOL    HW2 3108   5.868   0.729   2.758
  737SOL     OW 3109   5.402   4.349   0.480
  737SOL    HW1 3110   5.494   4.386   0.483
  737SOL    HW2 3111   5.367   4.353   0.386
  738SOL     OW 3112   0.811   4.319   3.166
  738SOL    HW1 3113   0.828   4.247   3.233
  738SOL    HW2 3114   0.889   4.381   3.164
  739SOL     OW 3115   4.689   6.494   6.460
  739SOL    HW1 3116   4.732   6.525   6.545
  739SOL    HW2 3117   4.759   6.452   6.402
  740SOL     OW 3118   5.513   0.064   6.997
  740SOL    HW1 3119   5.588   0.078   0.034
  740SOL    HW2 3120   5.523   7.002   6.951
  741SOL     OW 3121   2.799   0.590   3.919
  741SOL    HW1 3122   2.831   0.677   3.881
  741SOL    HW2 3123   2.848   0.571   4.003
  742SOL     OW 3124   1.198   6.829   2.686
  742SOL    HW1 3125   1.205   6.928   2.691
  742SOL    HW2 3126   1.141   6.803   2.608
  743SOL     OW 3127   1.617   3.206   4.081
  743SOL    HW1 3128   1.587   3.289   4.127
  743SOL    HW2 3129   1.571   3.199   3.992
  744SOL     OW 3130   6.616   5.272   0.448
  744SOL    HW1 3131   6.703   5.289   0.401
  744SOL    HW2 3132   6.627   5.288   0.546
  745SOL     OW 3133   1.502   5.950   3.072
  745SOL    HW1 3134   1.441   5.945   2.993
  745SOL    HW2 3135   1.541   6.042   3.078
  746SOL     OW 3136   3.400   0.298   3.295
  746SOL    HW1 3137   3.453   0.223   3.333
  746SOL    HW2 3138   3.330   0.261   3.234
  747SOL     OW 3139   6.436   3.406   1.082
  747SOL    HW1 3140   6.349   3.366   1.110
  747SOL    HW2 3141   6.425   3.505   1.067
  748SOL     OW 3142   3.758   2.978   2.735
  748SOL    HW1 3143   3.791   2.962   2.642
  748SOL    HW2 3144   3.666   2.941   2.745
  749SOL     OW 3145   5.866   2.510   5.028
  749SOL    HW1 3146   5.867   2.509   4.928
  749SOL    HW2 3147   5.777   2.479   5.061
  750SOL     OW 3148   3.130   3.419   1.708
  750SOL    HW1 3149   3.160   3.487   1.642
  750SOL    HW2 3150   3.119   3.331   1.662
  751SOL     OW 3151   5.301   1.566   0.525
  751SOL    HW1 3152   5.373   1.620   0.482
  751SOL    HW2 3153   5.241   1.528   0.454
  752SOL     OW 3154   4.451   0.820   1.773
  752SOL    HW1 3155   4.414   0.727   1.783
  752SOL    HW2 3156   4.535   0.829   1.826
  753SOL     OW 3157   3.970   1.466   2.846
  753SOL    HW1 3158   4.005   1.393   2.904
  753SOL    HW2 3159   3.997   1.450   2.751
  754SOL     OW 3160   5.401   5.551   0.504
  754SOL    HW1 3161   5.422   5.475   0.442
  754SOL    HW2 3162   5.481   5.572   0.560
  755SOL     OW 3163   6.456   5.567   2.709
  755SOL    HW1 3164   6.434   5.647   2.765
  755SOL    HW2 3165   6.376   5.540   2.656
  756SOL     OW 3166   3.157   6.369   3.600
  756SOL    HW1 3167   3.097   6.439   3.638
  756SOL    HW2 3168   3.165   6.293   3.664
  757SOL     OW 3169   6.811   1.232   3.583
  757SOL    HW1 3170   6.797   1.279   3.671
  757SOL    HW2 3171   6.726   1.187   3.556
  758SOL     OW 3172   4.532   2.279   0.874
  758SOL    HW1 3173   4.579   2.219   0.809
  758SOL    HW2 3174   4.493   2.224   0.947
  759SOL     OW 3175   2.013   1.159   1.061
  759SOL    HW1 3176   2.094   1.212   1.086
  759SOL    HW2 3177   1.965   1.204   0.986
  760SOL     OW 3178   4.984   2.270   5.764
  760SOL    HW1 3179   4.953   2.192   5.708
  760SOL    HW2 3180   5.083   2.263   5.777
  761SOL     OW 3181   5.448   1.190   6.569
  761SOL    HW1 3182   5.348   1.193   6.565
  761SOL    HW2 3183   5.485   1.213   6.479
  762SOL     OW 3184   2.055   4.681   4.424
  762SOL    HW1 3185   1.995   4.730   4.487
  762SOL    HW2 3186   2.075   4.590   4.461
  763SOL     OW 3187   6.158   5.231   6.923
  763SOL    HW1 3188   6.130   5.253   6.829
  763SOL    HW2 3189   6.078   5.202   6.975
  764SOL     OW 3190   5.707   1.153   3.054
  764SOL    HW1 3191   5.652   1.226   3.095
  764SOL    HW2 3192   5.687   1.066   3.100
  765SOL     OW 3193   0.124   6.796   3.036
  765SOL    HW1 3194   0.197   6.765   3.098
  765SOL    HW2 3195   0.037   6.797   3.085
  766SOL     OW 3196   6.839   6.631   0.108
  766SOL    HW1 3197   6.855   6.724   0.075
  766SOL    HW2 3198   6.754   6.596   0.068
  767SOL     OW 3199   6.012   5.862   1.601
  767SOL    HW1 3200   5.954   5.781   1.613
  767SOL    HW2 3201   5.963   5.931   1.547
  768SOL     OW 3202   3.035   6.762   3.997
  768SOL    HW1 3203   3.071   6.823   3.926
  768SOL    HW2 3204   2.936   6.760   3.992
  769SOL     OW 3205   3.781   0.672   0.398
  769SOL    HW1 3206   3.757   0.757   0.445
  769SOL    HW2 3207   3.863   0.686   0.342
  770SOL     OW 3208   2.934   4.843   4.359
  770SOL    HW1 3209   3.006   4.873   4.422
  770SOL    HW2 3210   2.915   4.916   4.294
  771SOL     OW 3211   0.738   5.793   4.706
  771SOL    HW1 3212   0.803   5.787   4.782
  771SOL    HW2 3213   0.730   5.888   4.677
  772SOL     OW 3214   0.085   4.392   5.885
  772SOL    HW1 3215   0.058   4.482   5.850
  772SOL    HW2 3216   0.067   4.322   5.816
  773SOL     OW 3217   0.073   3.269   2.272
  773SOL    HW1 3218   0.172   3.271   2.257
  773SOL    HW2 3219   0.053   3.222   2.358
  774SOL     OW 3220   1.483   0.988   1.687
  774SOL    HW1 3221   1.517   1.081   1.670
  774SOL    HW2 3222   1.385   0.985   1.670
  775SOL     OW 3223   1.648   2.603   4.334
  775SOL    HW1 3224   1.738   2.564   4.355
  775SOL    HW2 3225   1.647   2.700   4.357
  776SOL     OW 3226   2.093   0.520   5.031
  776SOL    HW1 3227   2.070   0.423   5.044
  776SOL    HW2 3228   2.138   0.554   5.113
  777SOL     OW 3229   4.423   6.856   6.840
  777SOL    HW1 3230   4.339   6.812   6.807
  777SOL    HW2 3231   4.436   6.834   6.936
  778SOL     OW 3232   4.522   5.217   4.882
  778SOL    HW1 3233   4.438   5.225   4.937
  778SOL    HW2 3234   4.501   5.235   4.786
  779SOL     OW 3235   0.740   0.455   2.299
  779SOL    HW1 3236   0.748   0.412   2.209
  779SOL    HW2 3237   0.704   0.388   2.364
  780SOL     OW 3238   5.171   2.715   4.892
  780SOL    HW1 3239   5.090   2.774   4.895
  780SOL    HW2 3240   5.223   2.735   4.809
  781SOL     OW 3241   0.480   2.605   6.508
  781SOL    HW1 3242   0.442   2.565   6.591
  781SOL    HW2 3243   0.514   2.532   6.449
  782SOL     OW 3244   0.078   4.477   0.572
  782SOL    HW1 3245   0.129   4.394   0.551
  782SOL    HW2 3246   0.009   4.493   0.501
  783SOL     OW 3247   2.249   4.924   6.935
  783SOL    HW1 3248   2.187   4.930   7.014
  783SOL    HW2 3249   2.235   4.837   6.888
  784SOL     OW 3250   5.128   5.169   3.444
  784SOL    HW1 3251   5.092   5.179   3.536
  784SOL    HW2 3252   5.228   5.166   3.447
  785SOL     OW 3253   6.235   2.458   4.269
  785SOL    HW1 3254   6.190   2.414   4.347
  785SOL    HW2 3255   6.200   2.418   4.184
  786SOL     OW 3256   6.026   6.630   0.577
  786SOL    HW1 3257   5.978   6.717   0.583
  786SOL    HW2 3258   6.102   6.629   0.642
  787SOL     OW 3259   4.668   0.840   0.012
  787SOL    HW1 3260   4.649   0.842   0.111
  787SOL    HW2 3261   4.743   0.903   7.018
  788SOL     OW 3262   1.040   4.513   3.200
  788SOL    HW1 3263   0.981   4.562   3.136
  788SOL    HW2 3264   1.104   4.578   3.242
  789SOL     OW 3265   5.427   2.717   1.156
  789SOL    HW1 3266   5.398   2.732   1.062
  789SOL    HW2 3267   5.520   2.752   1.169
  790SOL     OW 3268   3.304   0.199   3.824
  790SOL    HW1 3269   3.357   0.116   3.842
  790SOL    HW2 3270   3.364   0.269   3.787
  791SOL     OW 3271   4.303   1.569   5.031
  791SOL    HW1 3272   4.244   1.501   5.076
  791SOL    HW2 3273   4.247   1.645   4.998
  792SOL     OW 3274   5.221   0.471   3.571
  792SOL    HW1 3275   5.146   0.423   3.526
  792SOL    HW2 3276   5.294   0.406   3.594
  793SOL     OW 3277   0.082   0.499   6.518
  793SOL    HW1 3278   0.070   0.598   6.518
  793SOL    HW2 3279   0.004   0.456   6.472
  794SOL     OW 3280   3.541   5.078   5.074
  794SOL    HW1 3281   3.607   5.038   5.010
  794SOL    HW2 3282   3.574   5.064   5.168
  795SOL     OW 3283   5.036   4.636   6.824
  795SOL    HW1 3284   5.119   4.590   6.856
  795SOL    HW2 3285   5.059   4.692   6.744
  796SOL     OW 3286   0.192   1.415   5.814
  796SOL    HW1 3287   0.164   1.410   5.718
  796SOL    HW2 3288   0.137   1.352   5.868
  797SOL     OW 3289   6.005   3.054   5.570
  797SOL    HW1 3290   6.020   3.130   5.632
  797SOL    HW2 3291   6.093   3.010   5.549
  798SOL     OW 3292   6.577   0.675   5.044
  798SOL    HW1 3293   6.586   0.771   5.070
  798SOL    HW2 3294   6.484   0.657   5.013
  799SOL     OW 3295   6.764   3.481   3.469
  799SOL    HW1 3296   6.674   3.450   3.499
  799SOL    HW2 3297   6.779   3.452   3.374
  800SOL     OW 3298   6.879   1.600   1.847
  800SOL    HW1 3299   6.829   1.537   1.906
  800SOL    HW2 3300   6.883   1.562   1.754
  801SOL     OW 3301   0.454   2.639   3.825
  801SOL    HW1 3302   0.438   2.707   3.896
  801SOL    HW2 3303   0.552   2.627   3.811
  802SOL     OW 3304   6.199   1.746   1.909
  802SOL    HW1 3305   6.152   1.742   1.821
  802SOL    HW2 3306   6.153   1.812   1.969
  803SOL     OW 3307   1.347   0.150   5.207
  803SOL    HW1 3308   1.388   0.231   5.248
  803SOL    HW2 3309   1.405   0.070   5.225
  804SOL     OW 3310   6.285   6.734   0.676
  804SOL    HW1 3311   6.373   6.748   0.631
  804SOL    HW2 3312   6.248   6.823   0.705
  805SOL     OW 3313   1.829   3.187   5.291
  805SOL    HW1 3314   1.896   3.260   5.300
  805SOL    HW2 3315   1.861   3.120   5.224
  806SOL     OW 3316   4.965   0.321   0.123
  806SOL    HW1 3317   4.904   0.332   0.044
  806SOL    HW2 3318   5.041   0.262   0.097
  807SOL     OW 3319   0.912   0.137   2.922
  807SOL    HW1 3320   0.941   0.194   2.845
  807SOL    HW2 3321   0.905   0.193   3.004
  808SOL     OW 3322   6.012   3.658   4.966
  808SOL    HW1 3323   6.077   3.631   4.895
  808SOL    HW2 3324   6.031   3.751   4.996
  809SOL     OW 3325   0.680   5.603   5.988
  809SOL    HW1 3326   0.774   5.579   6.011
  809SOL    HW2 3327   0.680   5.676   5.920
  810SOL     OW 3328   6.513   5.342   6.223
  810SOL    HW1 3329   6.470   5.252   6.230
  810SOL    HW2 3330   6.446   5.408   6.188
  811SOL     OW 3331   3.760   5.216   3.441
  811SOL    HW1 3332   3.833   5.206   3.374
  811SOL    HW2 3333   3.799   5.218   3.533
  812SOL     OW 3334   6.913   0.610   2.443
  812SOL    HW1 3335   6.909   0.525   2.494
  812SOL    HW2 3336   6.833   0.666   2.466
  813SOL     OW 3337   5.540   5.481   1.853
  813SOL    HW1 3338   5.586   5.569   1.844
  813SOL    HW2 3339   5.449   5.486   1.810
  814SOL     OW 3340   5.309   5.363   1.279
  814SOL    HW1 3341   5.290   5.265   1.270
  814SOL    HW2 3342   5.223   5.413   1.281
  815SOL     OW 3343   0.622   1.171   0.539
  815SOL    HW1 3344   0.666   1.228   0.469
  815SOL    HW2 3345   0.580   1.091   0.495
  816SOL     OW 3346   5.450   0.509   1.798
  816SOL    HW1 3347   5.407   0.537   1.713
  816SOL    HW2 3348   5.506   0.428   1.782
  817SOL     OW 3349   0.536   2.111   2.126
  817SOL    HW1 3350   0.465   2.167   2.085
  817SOL    HW2 3351   0.613   2.169   2.154
  818SOL     OW 3352   5.375   1.673   2.274
  818SOL    HW1 3353   5.293   1.673   2.332
  818SOL    HW2 3354   5.358   1.731   2.194
  819SOL     OW 3355   0.048   5.418   2.183
  819SOL    HW1 3356   0.029   5.376   2.272
  819SOL    HW2 3357   0.113   5.360   2.133
  820SOL     OW 3358   1.515   2.578   4.895
  820SOL    HW1 3359   1.450   2.647   4.863
  820SOL    HW2 3360   1.604   2.620   4.908
  821SOL     OW 3361   0.932   4.247   0.396
  821SOL    HW1 3362   0.884   4.194   0.327
  821SOL    HW2 3363   1.011   4.196   0.429
  822SOL     OW 3364   1.323   3.305   4.765
  822SOL    HW1 3365   1.401   3.246   4.744
  822SOL    HW2 3366   1.328   3.388   4.711
  823SOL     OW 3367   3.489   3.689   1.561
  823SOL    HW1 3368   3.529   3.728   1.644
  823SOL    HW2 3369   3.518   3.594   1.551
  824SOL     OW 3370   6.335   2.484   6.027
  824SOL    HW1 3371   6.245   2.528   6.029
  824SOL    HW2 3372   6.369   2.480   5.933
  825SOL     OW 3373   1.357   3.776   1.591
  825SOL    HW1 3374   1.317   3.691   1.624
  825SOL    HW2 3375   1.302   3.811   1.515
  826SOL     OW 3376   1.235   3.626   5.809
  826SOL    HW1 3377   1.157   3.689   5.808
  826SOL    HW2 3378   1.271   3.618   5.716
  827SOL     OW 3379   3.141   4.969   0.720
  827SOL    HW1 3380   3.174   5.006   0.807
  827SOL    HW2 3381   3.105   4.877   0.735
  828SOL     OW 3382   6.193   0.377   6.036
  828SOL    HW1 3383   6.256   0.418   5.970
  828SOL    HW2 3384   6.157   0.448   6.096
  829SOL     OW 3385   3.178   3.277   5.195
  829SOL    HW1 3386   3.160   3.375   5.205
  829SOL    HW2 3387   3.256   3.262   5.136
  830SOL     OW 3388   4.316   3.765   6.276
  830SOL    HW1 3389   4.247   3.751   6.204
  830SOL    HW2 3390   4.374   3.684   6.283
  831SOL     OW 3391   6.117   0.164   4.216
  831SOL    HW1 3392   6.159   0.131   4.300
  831SOL    HW2 3393   6.134   0.263   4.207
  832SOL     OW 3394   2.070   1.605   5.624
  832SOL    HW1 3395   2.124   1.655   5.556
  832SOL    HW2 3396   2.130   1.543   5.675
  833SOL     OW 3397   1.116   0.334   5.881
  833SOL    HW1 3398   1.171   0.343   5.964
  833SOL    HW2 3399   1.019   0.333   5.906
  834SOL     OW 3400   3.274   4.567   5.985
  834SOL    HW1 3401   3.208   4.600   6.052
  834SOL    HW2 3402   3.350   4.522   6.031
  835SOL     OW 3403   4.110   0.926   3.049
  835SOL    HW1 3404   4.078   0.990   2.979
  835SOL    HW2 3405   4.141   0.976   3.129
  836SOL     OW 3406   2.439   0.789   6.550
  836SOL    HW1 3407   2.438   0.717   6.620
  836SOL    HW2 3408   2.379   0.863   6.578
  837SOL     OW 3409   3.975   1.561   4.805
  837SOL    HW1 3410   4.047   1.630   4.814
  837SOL    HW2 3411   4.015   1.477   4.768
  838SOL     OW 3412   0.892   6.296   2.253
  838SOL    HW1 3413   0.929   6.350   2.329
  838SOL    HW2 3414   0.953   6.304   2.174
  839SOL     OW 3415   3.219   1.254   1.928
  839SOL    HW1 3416   3.193   1.295   1.840
  839SOL    HW2 3417   3.155   1.182   1.951
  840SOL     OW 3418   0.517   1.476   5.511
  840SOL    HW1 3419   0.555   1.479   5.418
  840SOL    HW2 3420   0.519   1.382   5.544
  841SOL     OW 3421   0.263   3.464   0.952
  841SOL    HW1 3422   0.320   3.517   0.889
  841SOL    HW2 3423   0.300   3.471   1.045
  842SOL     OW 3424   3.321   5.315   4.001
  842SOL    HW1 3425   3.378   5.397   3.993
  842SOL    HW2 3426   3.356   5.245   3.939
  843SOL     OW 3427   0.075   3.885   2.026
  843SOL    HW1 3428   0.137   3.806   2.027
  843SOL    HW2 3429   0.124   3.965   1.992
  844SOL     OW 3430   5.760   4.590   6.869
  844SOL    HW1 3431   5.834   4.643   6.827
  844SOL    HW2 3432   5.795   4.542   6.949
  845SOL     OW 3433   1.649   5.078   5.525
  845SOL    HW1 3434   1.720   5.063   5.456
  845SOL    HW2 3435   1.692   5.098   5.613
  846SOL     OW 3436   4.550   2.562   6.883
  846SOL    HW1 3437   4.468   2.613   6.859
  846SOL    HW2 3438   4.574   2.500   6.809
  847SOL     OW 3439   5.368   3.780   2.075
  847SOL    HW1 3440   5.298   3.742   2.015
  847SOL    HW2 3441   5.386   3.875   2.048
  848SOL     OW 3442   6.226   6.832   5.392
  848SOL    HW1 3443   6.174   6.898   5.445
  848SOL    HW2 3444   6.185   6.741   5.401
  849SOL     OW 3445   0.827   5.667   3.853
  849SOL    HW1 3446   0.843   5.720   3.936
  849SOL    HW2 3447   0.835   5.728   3.774
  850SOL     OW 3448   4.080   0.462   3.306
  850SOL    HW1 3449   4.032   0.461   3.394
  850SOL    HW2 3450   4.044   0.389   3.247
  851SOL     OW 3451   6.839   0.906   5.824
  851SOL    HW1 3452   6.765   0.842   5.805
  851SOL    HW2 3453   6.830   0.940   5.918
  852SOL     OW 3454   2.968   4.467   5.600
  852SOL    HW1 3455   2.957   4.566   5.608
  852SOL    HW2 3456   2.882   4.422   5.625
  853SOL     OW 3457   0.681   4.068   0.563
  853SOL    HW1 3458   0.686   4.168   0.567
  853SOL    HW2 3459   0.773   4.030   0.569
  854SOL     OW 3460   6.183   5.229   1.512
  854SOL    HW1 3461   6.220   5.189   1.596
  854SOL    HW2 3462   6.091   5.264   1.530
  855SOL     OW 3463   5.468   0.314   0.392
  855SOL    HW1 3464   5.519   0.370   0.327
  855SOL    HW2 3465   5.407   0.252   0.341
  856SOL     OW 3466   1.416   0.595   5.207
  856SOL    HW1 3467   1.350   0.669   5.225
  856SOL    HW2 3468   1.420   0.578   5.108
  857SOL     OW 3469   5.688   3.297   1.432
  857SOL    HW1 3470   5.665   3.364   1.502
  857SOL    HW2 3471   5.753   3.231   1.469
  858SOL     OW 3472   3.780   3.467   1.738
  858SOL    HW1 3473   3.693   3.454   1.786
  858SOL    HW2 3474   3.854   3.472   1.805
  859SOL     OW 3475   6.944   4.457   0.904
  859SOL    HW1 3476   6.898   4.546   0.907
  859SOL    HW2 3477   0.010   4.467   0.939
  860SOL     OW 3478   1.642   4.215   6.710
  860SOL    HW1 3479   1.696   4.294   6.683
  860SOL    HW2 3480   1.686   4.131   6.677
  861SOL     OW 3481   3.533   4.533   5.613
  861SOL    HW1 3482   3.618   4.543   5.665
  861SOL    HW2 3483   3.553   4.491   5.525
  862SOL     OW 3484   4.703   4.467   3.207
  862SOL    HW1 3485   4.628   4.503   3.153
  862SOL    HW2 3486   4.763   4.541   3.236
  863SOL     OW 3487   5.910   2.312   1.149
  863SOL    HW1 3488   5.855   2.303   1.232
  863SOL    HW2 3489   5.889   2.237   1.087
  864SOL     OW 3490   0.117   5.124   3.163
  864SOL    HW1 3491   0.123   5.099   3.260
  864SOL    HW2 3492   0.149   5.218   3.151
  865SOL     OW 3493   1.967   0.974   3.532
  865SOL    HW1 3494   1.960   0.950   3.628
  865SOL    HW2 3495   1.916   0.908   3.476
  866SOL     OW 3496   4.978   1.085   1.188
  866SOL    HW1 3497   4.918   1.161   1.161
  866SOL    HW2 3498   4.946   1.046   1.275
  867SOL     OW 3499   2.316   1.743   6.301
  867SOL    HW1 3500   2.358   1.699   6.222
  867SOL    HW2 3501   2.327   1.684   6.382
  868SOL     OW 3502   5.691   2.385   3.424
  868SOL    HW1 3503   5.681   2.477   3.464
  868SOL    HW2 3504   5.683   2.391   3.325
  869SOL     OW 3505   6.552   3.888   1.156
  869SOL    HW1 3506   6.470   3.859   1.107
  869SOL    HW2 3507   6.628   3.828   1.132
  870SOL     OW 3508   6.516   2.140   0.245
  870SOL    HW1 3509   6.560   2.220   0.204
  870SOL    HW2 3510   6.582   2.092   0.303
  871SOL     OW 3511   5.900   4.419   0.448
  871SOL    HW1 3512   5.884   4.340   0.389
  871SOL    HW2 3513   5.989   4.410   0.492
  872SOL     OW 3514   0.083   1.924   1.777
  872SOL    HW1 3515   0.067   1.991   1.850
  872SOL    HW2 3516   0.110   1.972   1.693
  873SOL     OW 3517   3.395   6.791   5.029
  873SOL    HW1 3518   3.362   6.794   4.935
  873SOL    HW2 3519   3.464   6.863   5.042
  874SOL     OW 3520   0.530   4.278   6.654
  874SOL    HW1 3521   0.545   4.352   6.589
  874SOL    HW2 3522   0.518   4.317   6.745
  875SOL     OW 3523   6.404   5.576   6.137
  875SOL    HW1 3524   6.305   5.572   6.127
  875SOL    HW2 3525   6.428   5.656   6.192
  876SOL     OW 3526   2.153   1.938   1.326
  876SOL    HW1 3527   2.135   1.858   1.269
  876SOL    HW2 3528   2.079   1.947   1.394
  877SOL     OW 3529   5.180   5.478   6.860
  877SOL    HW1 3530   5.136   5.564   6.882
  877SOL    HW2 3531   5.279   5.488   6.870
  878SOL     OW 3532   3.785   2.854   0.730
  878SOL    HW1 3533   3.727   2.772   0.737
  878SOL    HW2 3534   3.756   2.921   0.798
  879SOL     OW 3535   4.949   2.921   3.086
  879SOL    HW1 3536   4.967   3.010   3.128
  879SOL    HW2 3537   4.872   2.877   3.133
  880SOL     OW 3538   4.309   5.661   1.616
  880SOL    HW1 3539   4.359   5.747   1.626
  880SOL    HW2 3540   4.319   5.628   1.522
  881SOL     OW 3541   4.951   4.577   3.039
  881SOL    HW1 3542   5.035   4.524   3.029
  881SOL    HW2 3543   4.883   4.521   3.088
  882SOL     OW 3544   0.753   2.044   4.543
  882SOL    HW1 3545   0.778   2.010   4.453
  882SOL    HW2 3546   0.821   2.109   4.575
  883SOL     OW 3547   3.159   4.843   0.166
  883SOL    HW1 3548   3.099   4.818   0.091
  883SOL    HW2 3549   3.224   4.913   0.135
  884SOL     OW 3550   4.084   4.204   1.636
  884SOL    HW1 3551   4.013   4.150   1.682
  884SOL    HW2 3552   4.106   4.284   1.693
  885SOL     OW 3553   4.791   5.616   5.304
  885SOL    HW1 3554   4.870   5.589   5.247
  885SOL    HW2 3555   4.746   5.695   5.262
  886SOL     OW 3556   3.864   2.247   6.728
  886SOL    HW1 3557   3.877   2.279   6.635
  886SOL    HW2 3558   3.867   2.324   6.792
  887SOL     OW 3559   5.882   5.973   4.864
  887SOL    HW1 3560   5.968   5.923   4.854
  887SOL    HW2 3561   5.812   5.912   4.900
  888SOL     OW 3562   6.347   0.279   3.481
  888SOL    HW1 3563   6.435   0.294   3.528
  888SOL    HW2 3564   6.306   0.194   3.513
  889SOL     OW 3565   0.603   0.264   4.615
  889SOL    HW1 3566   0.523   0.321   4.597
  889SOL    HW2 3567   0.607   0.190   4.548
  890SOL     OW 3568   1.591   3.952   2.089
  890SOL    HW1 3569   1.671   3.895   2.104
  890SOL    HW2 3570   1.520   3.899   2.042
  891SOL     OW 3571   5.729   3.769   6.671
  891SOL    HW1 3572   5.659   3.710   6.632
  891SOL    HW2 3573   5.811   3.765   6.614
  892SOL     OW 3574   1.957   5.730   1.775
  892SOL    HW1 3575   1.857   5.725   1.764
  892SOL    HW2 3576   1.996   5.776   1.695
  893SOL     OW 3577   2.019   0.337   2.215
  893SOL    HW1 3578   2.058   0.296   2.298
  893SOL    HW2 3579   2.090   0.342   2.145
  894SOL     OW 3580   1.342   5.373   4.580
  894SOL    HW1 3581   1.341   5.473   4.585
  894SOL    HW2 3582   1.248   5.340   4.569
  895SOL     OW 3583   2.402   0.653   4.664
  895SOL    HW1 3584   2.313   0.660   4.709
  895SOL    HW2 3585   2.388   0.630   4.567
  896SOL     OW 3586   5.069   6.508   3.542
  896SOL    HW1 3587   5.097   6.537   3.634
  896SOL    HW2 3588   5.150   6.479   3.491
  897SOL     OW 3589   5.306   1.425   6.323
  897SOL    HW1 3590   5.361   1.507   6.337
  897SOL    HW2 3591   5.228   1.446   6.263
  898SOL     OW 3592   5.559   6.540   3.570
  898SOL    HW1 3593   5.529   6.483   3.493
  898SOL    HW2 3594   5.512   6.628   3.567
  899SOL     OW 3595   1.572   4.444   6.932
  899SOL    HW1 3596   1.603   4.431   6.838
  899SOL    HW2 3597   1.638   4.404   6.995
  900SOL     OW 3598   0.439   5.074   3.434
  900SOL    HW1 3599   0.480   5.052   3.345
  900SOL    HW2 3600   0.352   5.026   3.443
  901SOL     OW 3601   6.162   2.041   4.043
  901SOL    HW1 3602   6.195   2.132   4.018
  901SOL    HW2 3603   6.071   2.026   4.004
  902SOL     OW 3604   1.266   6.443   0.100
  902SOL    HW1 3605   1.272   6.345   0.084
  902SOL    HW2 3606   1.352   6.487   0.075
  903SOL     OW 3607   0.759   4.871   6.499
  903SOL    HW1 3608   0.715   4.801   6.443
  903SOL    HW2 3609   0.767   4.955   6.447
  904SOL     OW 3610   2.308   0.947   4.470
  904SOL    HW1 3611   2.403   0.937   4.440
  904SOL    HW2 3612   2.262   0.859   4.464
  905SOL     OW 3613   6.202   3.116   3.970
  905SOL    HW1 3614   6.221   3.125   3.872
  905SOL    HW2 3615   6.148   3.194   4.001
  906SOL     OW 3616   6.377   3.884   5.682
  906SOL    HW1 3617   6.385   3.870   5.583
  906SOL    HW2 3618   6.282   3.901   5.706
  907SOL     OW 3619   0.298   3.387   2.400
  907SOL    HW1 3620   0.313   3.293   2.372
  907SOL    HW2 3621   0.269   3.389   2.496
  908SOL     OW 3622   2.783   1.245   3.703
  908SOL    HW1 3623   2.735   1.266   3.618
  908SOL    HW2 3624   2.817   1.151   3.700
  909SOL     OW 3625   4.018   6.317   1.030
  909SOL    HW1 3626   4.063   6.337   0.944
  909SOL    HW2 3627   3.967   6.398   1.061
  910SOL     OW 3628   1.961   1.162   1.798
  910SOL    HW1 3629   2.027   1.193   1.866
  910SOL    HW2 3630   1.897   1.098   1.840
  911SOL     OW 3631   0.453   3.283   0.638
  911SOL    HW1 3632   0.422   3.235   0.721
  911SOL    HW2 3633   0.549   3.260   0.621
  912SOL     OW 3634   1.838   1.136   6.830
  912SOL    HW1 3635   1.784   1.206   6.877
  912SOL    HW2 3636   1.892   1.179   6.758
  913SOL     OW 3637   2.145   1.739   2.684
  913SOL    HW1 3638   2.102   1.743   2.594
  913SOL    HW2 3639   2.240   1.771   2.676
  914SOL     OW 3640   2.650   5.269   1.915
  914SOL    HW1 3641   2.586   5.219   1.857
  914SOL    HW2 3642   2.738   5.277   1.869
  915SOL     OW 3643   2.523   2.246   0.823
  915SOL    HW1 3644   2.528   2.264   0.922
  915SOL    HW2 3645   2.429   2.225   0.798
  916SOL     OW 3646   1.233   3.257   2.676
  916SOL    HW1 3647   1.252   3.204   2.593
  916SOL    HW2 3648   1.137   3.246   2.702
  917SOL     OW 3649   3.738   1.173   6.144
  917SOL    HW1 3650   3.813   1.120   6.183
  917SOL    HW2 3651   3.651   1.142   6.183
  918SOL     OW 3652   0.519   1.886   4.587
  918SOL    HW1 3653   0.600   1.944   4.578
  918SOL    HW2 3654   0.477   1.874   4.497
  919SOL     OW 3655   1.442   0.220   1.073
  919SOL    HW1 3656   1.475   0.314   1.083
  919SOL    HW2 3657   1.365   0.206   1.135
  920SOL     OW 3658   1.577   1.431   2.883
  920SOL    HW1 3659   1.501   1.464   2.829
  920SOL    HW2 3660   1.588   1.333   2.868
  921SOL     OW 3661   3.722   4.367   0.353
  921SOL    HW1 3662   3.685   4.312   0.428
  921SOL    HW2 3663   3.764   4.308   0.285
  922SOL     OW 3664   2.506   6.079   6.930
  922SOL    HW1 3665   2.534   6.106   7.022
  922SOL    HW2 3666   2.407   6.088   6.921
  923SOL     OW 3667   4.333   1.192   6.991
  923SOL    HW1 3668   4.296   1.285   6.994
  923SOL    HW2 3669   4.388   1.175   0.045
  924SOL     OW 3670   6.169   5.025   2.562
  924SOL    HW1 3671   6.149   4.976   2.477
  924SOL    HW2 3672   6.262   5.003   2.592
  925SOL     OW 3673   6.893   1.794   2.334
  925SOL    HW1 3674   6.967   1.802   2.267
  925SOL    HW2 3675   6.915   1.849   2.414
  926SOL     OW 3676   3.735   5.831   1.316
  926SOL    HW1 3677   3.643   5.864   1.339
  926SOL    HW2 3678   3.784   5.902   1.264
  927SOL     OW 3679   4.808   5.375   4.803
  927SOL    HW1 3680   4.751   5.447   4.765
  927SOL    HW2 3681   4.763   5.336   4.884
  928SOL     OW 3682   0.374   1.581   1.639
  928SOL    HW1 3683   0.382   1.678   1.620
  928SOL    HW2 3684   0.314   1.566   1.718
  929SOL     OW 3685   0.231   1.999   2.271
  929SOL    HW1 3686   0.133   2.015   2.262
  929SOL    HW2 3687   0.281   2.080   2.241
  930SOL     OW 3688   6.071   4.899   2.071
  930SOL    HW1 3689   6.110   4.857   1.989
  930SOL    HW2 3690   6.067   4.998   2.058
  931SOL     OW 3691   1.256   3.129   1.776
  931SOL    HW1 3692   1.307   3.054   1.817
  931SOL    HW2 3693   1.167   3.097   1.745
  932SOL     OW 3694   4.717   5.846   1.382
  932SOL    HW1 3695   4.670   5.757   1.375
  932SOL    HW2 3696   4.653   5.915   1.417
  933SOL     OW 3697   0.954   6.657   3.108
  933SOL    HW1 3698   1.008   6.672   3.026
  933SOL    HW2 3699   0.918   6.563   3.108
  934SOL     OW 3700   3.178   1.414   5.548
  934SOL    HW1 3701   3.135   1.491   5.500
  934SOL    HW2 3702   3.114   1.338   5.554
  935SOL     OW 3703   1.374   4.265   4.524
  935SOL    HW1 3704   1.323   4.231   4.445
  935SOL    HW2 3705   1.452   4.205   4.542
  936SOL     OW 3706   1.324   1.477   1.852
  936SOL    HW1 3707   1.340   1.417   1.774
  936SOL    HW2 3708   1.379   1.445   1.930
  937SOL     OW 3709   5.165   1.955   3.255
  937SOL    HW1 3710   5.243   1.975   3.314
  937SOL    HW2 3711   5.088   2.014   3.280
  938SOL     OW 3712   0.744   1.119   6.486
  938SOL    HW1 3713   0.789   1.194   6.437
  938SOL    HW2 3714   0.648   1.142   6.500
  939SOL     OW 3715   5.883   1.172   5.135
  939SOL    HW1 3716   5.920   1.088   5.095
  939SOL    HW2 3717   5.798   1.152   5.184
  940SOL     OW 3718   6.702   0.557   3.913
  940SOL    HW1 3719   6.787   0.529   3.957
  940SOL    HW2 3720   6.688   0.504   3.829
  941SOL     OW 3721   5.894   2.604   5.331
  941SOL    HW1 3722   5.803   2.643   5.316
  941SOL    HW2 3723   5.894   2.552   5.417
  942SOL     OW 3724   4.634   0.137   4.933
  942SOL    HW1 3725   4.709   0.131   4.998
  942SOL    HW2 3726   4.546   0.139   4.981
  943SOL     OW 3727   5.244   2.437   0.467
  943SOL    HW1 3728   5.149   2.430   0.496
  943SOL    HW2 3729   5.299   2.368   0.515
  944SOL     OW 3730   4.920   4.401   4.199
  944SOL    HW1 3731   4.955   4.407   4.105
  944SOL    HW2 3732   4.956   4.476   4.253
  945SOL     OW 3733   5.584   3.569   6.559
  945SOL    HW1 3734   5.505   3.553   6.618
  945SOL    HW2 3735   5.634   3.483   6.546
  946SOL     OW 3736   5.610   3.698   6.912
  946SOL    HW1 3737   5.516   3.731   6.911
  946SOL    HW2 3738   5.660   3.737   6.835
  947SOL     OW 3739   0.603   2.481   5.346
  947SOL    HW1 3740   0.567   2.544   5.278
  947SOL    HW2 3741   0.528   2.430   5.388
  948SOL     OW 3742   3.980   1.310   1.054
  948SOL    HW1 3743   4.002   1.393   1.105
  948SOL    HW2 3744   3.900   1.326   0.997
  949SOL     OW 3745   5.346   6.421   6.308
  949SOL    HW1 3746   5.406   6.383   6.378
  949SOL    HW2 3747   5.401   6.450   6.229
  950SOL     OW 3748   3.375   5.340   0.687
  950SOL    HW1 3749   3.314   5.411   0.721
  950SOL    HW2 3750   3.324   5.279   0.626
  951SOL     OW 3751   1.287   3.080   3.664
  951SOL    HW1 3752   1.318   3.174   3.649
  951SOL    HW2 3753   1.360   3.028   3.706
  952SOL     OW 3754   5.043   1.450   1.123
  952SOL    HW1 3755   5.069   1.398   1.042
  952SOL    HW2 3756   4.964   1.407   1.167
  953SOL     OW 3757   4.292   6.575   5.910
  953SOL    HW1 3758   4.214   6.522   5.944
  953SOL    HW2 3759   4.300   6.562   5.811
  954SOL     OW 3760   6.381   0.571   1.078
  954SOL    HW1 3761   6.474   0.584   1.043
  954SOL    HW2 3762   6.319   0.637   1.035
  955SOL     OW 3763   0.758   5.891   2.780
  955SOL    HW1 3764   0.760   5.990   2.793
  955SOL    HW2 3765   0.664   5.862   2.760
  956SOL     OW 3766   1.603   2.750   0.846
  956SOL    HW1 3767   1.593   2.757   0.945
  956SOL    HW2 3768   1.518   2.776   0.801
  957SOL     OW 3769   1.988   6.636   4.974
  957SOL    HW1 3770   1.918   6.592   5.030
  957SOL    HW2 3771   2.072   6.583   4.978
  958SOL     OW 3772   4.696   2.686   0.067
  958SOL    HW1 3773   4.649   2.652   7.012
  958SOL    HW2 3774   4.763   2.756   0.040
  959SOL     OW 3775   1.666   3.610   0.896
  959SOL    HW1 3776   1.716   3.566   0.971
  959SOL    HW2 3777   1.625   3.695   0.928
  960SOL     OW 3778   1.959   5.037   5.727
  960SOL    HW1 3779   1.942   5.135   5.711
  960SOL    HW2 3780   1.980   5.022   5.823
  961SOL     OW 3781   3.406   6.634   0.136
  961SOL    HW1 3782   3.448   6.613   0.224
  961SOL    HW2 3783   3.465   6.696   0.084
  962SOL     OW 3784   1.344   0.108   3.530
  962SOL    HW1 3785   1.302   0.024   3.565
  962SOL    HW2 3786   1.272   0.169   3.497
  963SOL     OW 3787   5.647   6.973   1.782
  963SOL    HW1 3788   5.647   7.019   1.694
  963SOL    HW2 3789   5.557   6.932   1.799
  964SOL     OW 3790   5.944   3.523   1.533
  964SOL    HW1 3791   5.888   3.471   1.598
  964SOL    HW2 3792   5.927   3.621   1.545
  965SOL     OW 3793   1.750   1.562   0.492
  965SOL    HW1 3794   1.667   1.561   0.547
  965SOL    HW2 3795   1.826   1.596   0.547
  966SOL     OW 3796   6.384   2.553   2.435
  966SOL    HW1 3797   6.475   2.545   2.475
  966SOL    HW2 3798   6.320   2.494   2.484
  967SOL     OW 3799   1.308   5.719   2.437
  967SOL    HW1 3800   1.305   5.633   2.387
  967SOL    HW2 3801   1.348   5.705   2.527
  968SOL     OW 3802   6.740   4.129   0.497
  968SOL    HW1 3803   6.717   4.202   0.433
  968SOL    HW2 3804   6.786   4.168   0.577
  969SOL     OW 3805   4.137   6.244   6.267
  969SOL    HW1 3806   4.234   6.237   6.244
  969SOL    HW2 3807   4.108   6.161   6.314
  970SOL     OW 3808   5.141   3.197   5.922
  970SOL    HW1 3809   5.062   3.210   5.982
  970SOL    HW2 3810   5.138   3.106   5.882
  971SOL     OW 3811   0.220   2.847   6.912
  971SOL    HW1 3812   0.143   2.909   6.925
  971SOL    HW2 3813   0.291   2.893   6.859
  972SOL     OW 3814   5.124   6.697   0.616
  972SOL    HW1 3815   5.038   6.648   0.604
  972SOL    HW2 3816   5.105   6.790   0.647
  973SOL     OW 3817   6.050   3.517   6.477
  973SOL    HW1 3818   6.120   3.454   6.443
  973SOL    HW2 3819   6.042   3.507   6.576
  974SOL     OW 3820   1.754   0.561   4.618
  974SOL    HW1 3821   1.668   0.510   4.613
  974SOL    HW2 3822   1.831   0.497   4.616
  975SOL     OW 3823   2.899   0.202   5.501
  975SOL    HW1 3824   2.966   0.267   5.537
  975SOL    HW2 3825   2.821   0.252   5.464
  976SOL     OW 3826   0.380   4.375   3.682
  976SOL    HW1 3827   0.302   4.428   3.715
  976SOL    HW2 3828   0.370   4.280   3.709
  977SOL     OW 3829   0.964   2.387   2.247
  977SOL    HW1 3830   0.891   2.343   2.300
  977SOL    HW2 3831   0.968   2.348   2.155
  978SOL     OW 3832   5.345   2.751   4.692
  978SOL    HW1 3833   5.326   2.727   4.597
  978SOL    HW2 3834   5.385   2.842   4.696
  979SOL     OW 3835   5.913   1.403   3.107
  979SOL    HW1 3836   5.927   1.392   3.205
  979SOL    HW2 3837   6.001   1.424   3.063
  980SOL     OW 3838   6.967   0.166   5.658
  980SOL    HW1 3839   0.019   0.182   5.718
  980SOL    HW2 3840   6.982   0.083   5.606
  981SOL     OW 3841   6.264   2.941   6.054
  981SOL    HW1 3842   6.210   2.858   6.069
  981SOL    HW2 3843   6.359   2.922   6.079
  982SOL     OW 3844   1.246   4.351   0.918
  982SOL    HW1 3845   1.322   4.310   0.968
  982SOL    HW2 3846   1.255   4.331   0.821
  983SOL     OW 3847   5.460   1.622   3.749
  983SOL    HW1 3848   5.482   1.545   3.689
  983SOL    HW2 3849   5.442   1.703   3.693
  984SOL     OW 3850   4.799   2.820   5.386
  984SOL    HW1 3851   4.785   2.918   5.374
  984SOL    HW2 3852   4.728   2.770   5.336
  985SOL     OW 3853   1.660   4.473   0.684
  985SOL    HW1 3854   1.625   4.447   0.594
  985SOL    HW2 3855   1.583   4.485   0.747
  986SOL     OW 3856   4.752   4.281   6.230
  986SOL    HW1 3857   4.790   4.266   6.321
  986SOL    HW2 3858   4.729   4.378   6.218
  987SOL     OW 3859   3.906   6.621   2.731
  987SOL    HW1 3860   3.843   6.687   2.689
  987SOL    HW2 3861   3.855   6.541   2.762
  988SOL     OW 3862   3.485   2.833   1.396
  988SOL    HW1 3863   3.428   2.910   1.424
  988SOL    HW2 3864   3.428   2.767   1.346
  989SOL     OW 3865   0.758   0.686   4.568
  989SOL    HW1 3866   0.680   0.706   4.626
  989SOL    HW2 3867   0.752   0.592   4.534
  990SOL     OW 3868   5.507   6.333   1.792
  990SOL    HW1 3869   5.518   6.387   1.708
  990SOL    HW2 3870   5.511   6.236   1.769
  991SOL     OW 3871   5.811   1.847   5.474
  991SOL    HW1 3872   5.827   1.935   5.428
  991SOL    HW2 3873   5.899   1.806   5.498
  992SOL     OW 3874   6.929   2.950   1.322
  992SOL    HW1 3875   6.931   2.942   1.223
  992SOL    HW2 3876   7.023   2.957   1.356
  993SOL     OW 3877   3.868   6.694   4.908
  993SOL    HW1 3878   3.919   6.662   4.987
  993SOL    HW2 3879   3.774   6.662   4.914
  994SOL     OW 3880   2.891   3.337   2.507
  994SOL    HW1 3881   2.891   3.240   2.534
  994SOL    HW2 3882   2.953   3.350   2.430
  995SOL     OW 3883   0.584   1.124   4.665
  995SOL    HW1 3884   0.537   1.158   4.583
  995SOL    HW2 3885   0.683   1.135   4.653
  996SOL     OW 3886   0.703   3.497   0.261
  996SOL    HW1 3887   0.803   3.492   0.255
  996SOL    HW2 3888   0.668   3.416   0.309
  997SOL     OW 3889   0.049   1.895   0.740
  997SOL    HW1 3890   0.006   1.809   0.767
  997SOL    HW2 3891   0.149   1.885   0.740
  998SOL     OW 3892   5.227   6.805   3.419
  998SOL    HW1 3893   5.141   6.762   3.390
  998SOL    HW2 3894   5.264   6.859   3.343
  999SOL     OW 3895   5.954   5.394   1.469
  999SOL    HW1 3896   5.858   5.406   1.494
  999SOL    HW2 3897   5.975   5.452   1.390
 1000SOL     OW 3898   4.530   2.093   4.727
 1000SOL    HW1 3899   4.614   2.065   4.774
 1000SOL    HW2 3900   4.550   2.171   4.667
 1001SOL     OW 3901   4.550   1.361   5.611
 1001SOL    HW1 3902   4.616   1.345   5.537
 1001SOL    HW2 3903   4.486   1.284   5.616
 1002SOL     OW 3904   0.376   1.591   0.715
 1002SOL    HW1 3905   0.341   1.515   0.661
 1002SOL    HW2 3906   0.359   1.574   0.812
 1003SOL     OW 3907   3.958   5.043   2.717
 1003SOL    HW1 3908   3.876   5.100   2.717
 1003SOL    HW2 3909   4.001   5.047   2.627
 1004SOL     OW 3910   5.960   5.996   0.201
 1004SOL    HW1 3911   6.045   5.987   0.149
 1004SOL    HW2 3912   5.883   5.964   0.145
 1005SOL     OW 3913   6.743   5.721   3.589
 1005SOL    HW1 3914   6.724   5.786   3.514
 1005SOL    HW2 3915   6.658   5.674   3.614
 1006SOL     OW 3916   1.921   4.614   6.886
 1006SOL    HW1 3917   2.020   4.615   6.872
 1006SOL    HW2 3918   1.901   4.604   6.983
 1007SOL     OW 3919   0.409   1.114   3.084
 1007SOL    HW1 3920   0.342   1.188   3.094
 1007SOL    HW2 3921   0.500   1.153   3.074
 1008SOL     OW 3922   2.809   2.273   5.052
 1008SOL    HW1 3923   2.904   2.246   5.034
 1008SOL    HW2 3924   2.805   2.329   5.135
 1009SOL     OW 3925   3.152   6.056   5.863
 1009SOL    HW1 3926   3.150   5.959   5.889
 1009SOL    HW2 3927   3.153   6.113   5.946
 1010SOL     OW 3928   5.235   6.980   5.135
 1010SOL    HW1 3929   5.167   0.006   5.083
 1010SOL    HW2 3930   5.321   0.003   5.138
 1011SOL     OW 3931   3.001   5.667   3.892
 1011SOL    HW1 3932   3.086   5.620   3.865
 1011SOL    HW2 3933   2.998   5.675   3.991
 1012SOL     OW 3934   3.685   5.910   0.587
 1012SOL    HW1 3935   3.650   5.983   0.646
 1012SOL    HW2 3936   3.698   5.944   0.494
 1013SOL     OW 3937   0.858   0.583   0.095
 1013SOL    HW1 3938   0.853   0.562   0.193
 1013SOL    HW2 3939   0.915   0.664   0.081
 1014SOL     OW 3940   5.772   6.960   5.819
 1014SOL    HW1 3941   5.727   6.977   5.907
 1014SOL    HW2 3942   5.852   6.902   5.834
 1015SOL     OW 3943   2.711   0.562   4.858
 1015SOL    HW1 3944   2.717   0.509   4.773
 1015SOL    HW2 3945   2.679   0.654   4.838
 1016SOL     OW 3946   4.347   2.534   1.651
 1016SOL    HW1 3947   4.310   2.626   1.634
 1016SOL    HW2 3948   4.435   2.541   1.697
 1017SOL     OW 3949   4.973   0.531   6.076
 1017SOL    HW1 3950   5.052   0.554   6.133
 1017SOL    HW2 3951   4.932   0.616   6.041
 1018SOL     OW 3952   1.596   3.001   1.561
 1018SOL    HW1 3953   1.669   2.956   1.510
 1018SOL    HW2 3954   1.605   3.100   1.552
 1019SOL     OW 3955   6.435   1.789   0.857
 1019SOL    HW1 3956   6.481   1.711   0.816
 1019SOL    HW2 3957   6.503   1.860   0.879
 1020SOL     OW 3958   3.497   2.216   1.733
 1020SOL    HW1 3959   3.585   2.249   1.765
 1020SOL    HW2 3960   3.475   2.130   1.778
 1021SOL     OW 3961   6.458   1.243   1.182
 1021SOL    HW1 3962   6.517   1.228   1.103
 1021SOL    HW2 3963   6.446   1.342   1.196
 1022SOL     OW 3964   2.991   2.714   6.950
 1022SOL    HW1 3965   2.984   2.665   6.863
 1022SOL    HW2 3966   3.067   2.677   7.003
 1023SOL     OW 3967   6.745   0.815   4.630
 1023SOL    HW1 3968   6.764   0.761   4.548
 1023SOL    HW2 3969   6.816   0.798   4.698
 1024SOL     OW 3970   6.411   2.130   4.215
 1024SOL    HW1 3971   6.340   2.089   4.272
 1024SOL    HW2 3972   6.369   2.200   4.157
 1025SOL     OW 3973   3.034   4.713   1.450
 1025SOL    HW1 3974   3.104   4.771   1.491
 1025SOL    HW2 3975   2.944   4.745   1.479
 1026SOL     OW 3976   0.634   2.517   6.123
 1026SOL    HW1 3977   0.627   2.616   6.137
 1026SOL    HW2 3978   0.692   2.498   6.045
 1027SOL     OW 3979   2.134   5.006   0.873
 1027SOL    HW1 3980   2.227   5.033   0.848
 1027SOL    HW2 3981   2.136   4.957   0.960
 1028SOL     OW 3982   0.111   5.145   0.222
 1028SOL    HW1 3983   0.137   5.091   0.301
 1028SOL    HW2 3984   0.017   5.179   0.233
 1029SOL     OW 3985   3.668   0.551   5.061
 1029SOL    HW1 3986   3.568   0.560   5.062
 1029SOL    HW2 3987   3.694   0.465   5.106
 1030SOL     OW 3988   3.898   5.034   5.241
 1030SOL    HW1 3989   3.875   5.000   5.150
 1030SOL    HW2 3990   3.960   5.112   5.232
 1031SOL     OW 3991   2.604   5.530   0.622
 1031SOL    HW1 3992   2.540   5.456   0.642
 1031SOL    HW2 3993   2.651   5.512   0.536
 1032SOL     OW 3994   1.191   1.482   4.823
 1032SOL    HW1 3995   1.276   1.513   4.866
 1032SOL    HW2 3996   1.123   1.462   4.893
 1033SOL     OW 3997   2.435   6.764   2.204
 1033SOL    HW1 3998   2.356   6.756   2.143
 1033SOL    HW2 3999   2.470   6.673   2.225
 1034SOL     OW 4000   0.861   7.007   1.684
 1034SOL    HW1 4001   0.859   6.956   1.770
 1034SOL    HW2 4002   0.950   0.026   1.675
 1035SOL     OW 4003   3.726   1.741   2.745
 1035SOL    HW1 4004   3.731   1.650   2.785
 1035SOL    HW2 4005   3.791   1.749   2.670
 1036SOL     OW 4006   4.785   6.686   6.965
 1036SOL    HW1 4007   4.749   6.594   6.949
 1036SOL    HW2 4008   4.734   6.729   0.013
 1037SOL     OW 4009   3.548   1.656   6.283
 1037SOL    HW1 4010   3.483   1.713   6.332
 1037SOL    HW2 4011   3.606   1.608   6.348
 1038SOL     OW 4012   2.456   1.854   5.466
 1038SOL    HW1 4013   2.542   1.824   5.423
 1038SOL    HW2 4014   2.473   1.937   5.520
 1039SOL     OW 4015   4.585   1.869   3.467
 1039SOL    HW1 4016   4.539   1.943   3.418
 1039SOL    HW2 4017   4.551   1.865   3.561
 1040SOL     OW 4018   6.279   3.590   4.309
 1040SOL    HW1 4019   6.378   3.582   4.321
 1040SOL    HW2 4020   6.257   3.678   4.266
 1041SOL     OW 4021   1.864   6.775   4.367
 1041SOL    HW1 4022   1.921   6.852   4.340
 1041SOL    HW2 4023   1.859   6.709   4.293
 1042SOL     OW 4024   4.584   3.859   0.750
 1042SOL    HW1 4025   4.663   3.920   0.761
 1042SOL    HW2 4026   4.516   3.902   0.690
 1043SOL     OW 4027   3.969   0.793   6.917
 1043SOL    HW1 4028   4.008   0.708   6.953
 1043SOL    HW2 4029   3.876   0.805   6.953
 1044SOL     OW 4030   4.122   3.330   2.860
 1044SOL    HW1 4031   4.082   3.239   2.847
 1044SOL    HW2 4032   4.135   3.373   2.771
 1045SOL     OW 4033   4.366   0.503   3.354
 1045SOL    HW1 4034   4.269   0.481   3.363
 1045SOL    HW2 4035   4.393   0.496   3.258
 1046SOL     OW 4036   3.603   0.754   2.495
 1046SOL    HW1 4037   3.692   0.765   2.450
 1046SOL    HW2 4038   3.596   0.662   2.534
 1047SOL     OW 4039   0.556   5.871   1.813
 1047SOL    HW1 4040   0.575   5.773   1.808
 1047SOL    HW2 4041   0.640   5.921   1.833
 1048SOL     OW 4042   6.385   3.878   5.412
 1048SOL    HW1 4043   6.457   3.947   5.416
 1048SOL    HW2 4044   6.372   3.849   5.317
 1049SOL     OW 4045   0.417   3.055   5.714
 1049SOL    HW1 4046   0.425   2.995   5.634
 1049SOL    HW2 4047   0.497   3.114   5.720
 1050SOL     OW 4048   2.728   0.891   0.759
 1050SOL    HW1 4049   2.677   0.806   0.776
 1050SOL    HW2 4050   2.672   0.952   0.703
 1051SOL     OW 4051   4.911   4.550   2.049
 1051SOL    HW1 4052   4.869   4.610   1.980
 1051SOL    HW2 4053   4.974   4.604   2.106
 1052SOL     OW 4054   3.660   0.243   3.912
 1052SOL    HW1 4055   3.611   0.268   3.996
 1052SOL    HW2 4056   3.615   0.286   3.834
 1053SOL     OW 4057   3.176   4.917   3.652
 1053SOL    HW1 4058   3.267   4.897   3.689
 1053SOL    HW2 4059   3.147   4.841   3.594
 1054SOL     OW 4060   4.316   5.837   5.140
 1054SOL    HW1 4061   4.347   5.789   5.222
 1054SOL    HW2 4062   4.272   5.772   5.078
 1055SOL     OW 4063   3.452   5.003   4.547
 1055SOL    HW1 4064   3.380   4.934   4.541
 1055SOL    HW2 4065   3.445   5.066   4.470
 1056SOL     OW 4066   2.802   6.021   6.503
 1056SOL    HW1 4067   2.753   6.033   6.589
 1056SOL    HW2 4068   2.866   6.097   6.489
 1057SOL     OW 4069   3.703   4.379   1.197
 1057SOL    HW1 4070   3.690   4.284   1.170
 1057SOL    HW2 4071   3.706   4.437   1.116
 1058SOL     OW 4072   2.789   6.638   2.103
 1058SOL    HW1 4073   2.860   6.568   2.113
 1058SOL    HW2 4074   2.714   6.602   2.048
 1059SOL     OW 4075   3.619   0.480   0.336
 1059SOL    HW1 4076   3.669   0.420   0.273
 1059SOL    HW2 4077   3.677   0.558   0.360
 1060SOL     OW 4078   3.131   1.176   4.192
 1060SOL    HW1 4079   3.117   1.168   4.093
 1060SOL    HW2 4080   3.081   1.256   4.226
 1061SOL     OW 4081   2.440   6.002   1.336
 1061SOL    HW1 4082   2.372   6.065   1.371
 1061SOL    HW2 4083   2.400   5.911   1.327
 1062SOL     OW 4084   5.179   4.460   4.511
 1062SOL    HW1 4085   5.269   4.417   4.513
 1062SOL    HW2 4086   5.112   4.399   4.553
 1063SOL     OW 4087   2.800   2.347   5.976
 1063SOL    HW1 4088   2.872   2.313   6.037
 1063SOL    HW2 4089   2.839   2.415   5.915
 1064SOL     OW 4090   0.453   3.008   1.752
 1064SOL    HW1 4091   0.403   3.055   1.825
 1064SOL    HW2 4092   0.447   2.909   1.766
 1065SOL     OW 4093   4.749   5.229   5.769
 1065SOL    HW1 4094   4.717   5.226   5.675
 1065SOL    HW2 4095   4.739   5.139   5.812
 1066SOL     OW 4096   5.051   6.994   3.550
 1066SOL    HW1 4097   4.984   7.010   3.479
 1066SOL    HW2 4098   5.096   6.905   3.535
 1067SOL     OW 4099   2.807   3.696   0.473
 1067SOL    HW1 4100   2.801   3.598   0.454
 1067SOL    HW2 4101   2.899   3.716   0.508
 1068SOL     OW 4102   0.378   4.556   1.184
 1068SOL    HW1 4103   0.358   4.627   1.251
 1068SOL    HW2 4104   0.405   4.472   1.230
 1069SOL     OW 4105   3.856   2.968   2.481
 1069SOL    HW1 4106   3.907   2.916   2.413
 1069SOL    HW2 4107   3.782   3.019   2.436
 1070SOL     OW 4108   2.330   6.883   0.453
 1070SOL    HW1 4109   2.263   6.956   0.443
 1070SOL    HW2 4110   2.322   6.842   0.544
 1071SOL     OW 4111   5.128   5.396   3.282
 1071SOL    HW1 4112   5.097   5.323   3.343
 1071SOL    HW2 4113   5.053   5.460   3.267
 1072SOL     OW 4114   3.943   5.461   3.163
 1072SOL    HW1 4115   3.958   5.482   3.067
 1072SOL    HW2 4116   4.028   5.427   3.204
 1073SOL     OW 4117   2.965   5.616   3.575
 1073SOL    HW1 4118   2.986   5.587   3.482
 1073SOL    HW2 4119   2.974   5.538   3.637
 1074SOL     OW 4120   1.839   5.299   3.039
 1074SOL    HW1 4121   1.812   5.248   3.121
 1074SOL    HW2 4122   1.927   5.344   3.055
 1075SOL     OW 4123   0.657   4.064   2.953
 1075SOL    HW1 4124   0.683   4.148   2.905
 1075SOL    HW2 4125   0.607   4.086   3.036
 1076SOL     OW 4126   6.495   4.340   2.915
 1076SOL    HW1 4127   6.496   4.243   2.941
 1076SOL    HW2 4128   6.400   4.373   2.918
 1077SOL     OW 4129   4.430   6.908   1.922
 1077SOL    HW1 4130   4.503   6.847   1.954
 1077SOL    HW2 4131   4.418   6.896   1.824
 1078SOL     OW 4132   0.270   3.063   2.000
 1078SOL    HW1 4133   0.236   2.969   2.005
 1078SOL    HW2 4134   0.217   3.113   1.931
 1079SOL     OW 4135   1.819   4.807   3.497
 1079SOL    HW1 4136   1.821   4.866   3.416
 1079SOL    HW2 4137   1.728   4.809   3.538
 1080SOL     OW 4138   1.738   5.420   4.111
 1080SOL    HW1 4139   1.813   5.398   4.173
 1080SOL    HW2 4140   1.702   5.511   4.132
 1081SOL     OW 4141   1.302   0.579   0.025
 1081SOL    HW1 4142   1.265   0.487   0.014
 1081SOL    HW2 4143   1.375   0.577   0.094
 1082SOL     OW 4144   2.071   0.188   1.052
 1082SOL    HW1 4145   2.042   0.134   0.973
 1082SOL    HW2 4146   2.148   0.246   1.026
 1083SOL     OW 4147   3.686   2.541   1.670
 1083SOL    HW1 4148   3.688   2.634   1.709
 1083SOL    HW2 4149   3.685   2.474   1.743
 1084SOL     OW 4150   6.907   4.056   1.004
 1084SOL    HW1 4151   6.956   3.974   1.032
 1084SOL    HW2 4152   6.810   4.046   1.026
 1085SOL     OW 4153   1.647   5.657   4.187
 1085SOL    HW1 4154   1.551   5.636   4.174
 1085SOL    HW2 4155   1.659   5.713   4.270
 1086SOL     OW 4156   2.691   5.745   2.306
 1086SOL    HW1 4157   2.722   5.726   2.399
 1086SOL    HW2 4158   2.668   5.659   2.260
 1087SOL     OW 4159   3.877   3.060   4.911
 1087SOL    HW1 4160   3.860   3.080   4.814
 1087SOL    HW2 4161   3.888   2.961   4.923
 1088SOL     OW 4162   0.166   4.429   2.498
 1088SOL    HW1 4163   0.096   4.498   2.479
 1088SOL    HW2 4164   0.128   4.360   2.561
 1089SOL     OW 4165   6.787   0.107   3.153
 1089SOL    HW1 4166   6.731   0.034   3.194
 1089SOL    HW2 4167   6.867   0.067   3.109
 1090SOL     OW 4168   1.642   2.408   6.616
 1090SOL    HW1 4169   1.627   2.347   6.538
 1090SOL    HW2 4170   1.562   2.406   6.676
 1091SOL     OW 4171   0.995   2.294   5.682
 1091SOL    HW1 4172   0.996   2.200   5.716
 1091SOL    HW2 4173   1.051   2.301   5.600
 1092SOL     OW 4174   2.478   4.998   1.313
 1092SOL    HW1 4175   2.478   5.032   1.219
 1092SOL    HW2 4176   2.436   4.907   1.316
 1093SOL     OW 4177   0.114   2.814   1.716
 1093SOL    HW1 4178   0.046   2.792   1.646
 1093SOL    HW2 4179   0.069   2.858   1.794
 1094SOL     OW 4180   0.877   6.517   2.705
 1094SOL    HW1 4181   0.919   6.541   2.617
 1094SOL    HW2 4182   0.783   6.485   2.689
 1095SOL     OW 4183   0.595   3.616   6.294
 1095SOL    HW1 4184   0.575   3.647   6.201
 1095SOL    HW2 4185   0.690   3.583   6.298
 1096SOL     OW 4186   3.745   2.994   1.638
 1096SOL    HW1 4187   3.705   3.065   1.580
 1096SOL    HW2 4188   3.820   3.033   1.692
 1097SOL     OW 4189   2.762   4.710   6.157
 1097SOL    HW1 4190   2.678   4.719   6.212
 1097SOL    HW2 4191   2.767   4.786   6.092
 1098SOL     OW 4192   3.911   0.086   2.581
 1098SOL    HW1 4193   3.851   0.066   2.504
 1098SOL    HW2 4194   3.860   0.135   2.652
 1099SOL     OW 4195   3.751   0.066   2.376
 1099SOL    HW1 4196   3.686   7.017   2.373
 1099SOL    HW2 4197   3.808   0.065   2.293
 1100SOL     OW 4198   6.619   1.346   0.259
 1100SOL    HW1 4199   6.651   1.360   0.165
 1100SOL    HW2 4200   6.632   1.251   0.286
 1101SOL     OW 4201   5.342   2.804   0.900
 1101SOL    HW1 4202   5.274   2.858   0.949
 1101SOL    HW2 4203   5.417   2.863   0.871
 1102SOL     OW 4204   0.239   3.568   3.871
 1102SOL    HW1 4205   0.318   3.521   3.910
 1102SOL    HW2 4206   0.170   3.501   3.844
 1103SOL     OW 4207   6.865   3.250   6.957
 1103SOL    HW1 4208   6.880   3.306   0.012
 1103SOL    HW2 4209   6.947   3.196   6.939
 1104SOL     OW 4210   2.753   5.532   5.883
 1104SOL    HW1 4211   2.699   5.538   5.967
 1104SOL    HW2 4212   2.693   5.516   5.805
 1105SOL     OW 4213   3.941   5.026   1.030
 1105SOL    HW1 4214   3.872   5.093   1.058
 1105SOL    HW2 4215   3.928   5.003   0.934
 1106SOL     OW 4216   1.430   1.452   6.920
 1106SOL    HW1 4217   1.429   1.547   6.888
 1106SOL    HW2 4218   1.340   1.427   6.956
 1107SOL     OW 4219   6.874   0.365   1.454
 1107SOL    HW1 4220   6.806   0.385   1.384
 1107SOL    HW2 4221   6.892   0.448   1.507
 1108SOL     OW 4222   1.679   1.350   6.995
 1108SOL    HW1 4223   1.716   1.404   0.044
 1108SOL    HW2 4224   1.581   1.366   6.988
 1109SOL     OW 4225   4.513   0.652   4.167
 1109SOL    HW1 4226   4.452   0.618   4.238
 1109SOL    HW2 4227   4.528   0.750   4.179
 1110SOL     OW 4228   3.471   2.962   2.704
 1110SOL    HW1 4229   3.454   2.950   2.607
 1110SOL    HW2 4230   3.385   2.959   2.754
 1111SOL     OW 4231   4.441   6.764   0.108
 1111SOL    HW1 4232   4.523   6.744   0.161
 1111SOL    HW2 4233   4.404   6.680   0.070
 1112SOL     OW 4234   0.955   1.448   2.314
 1112SOL    HW1 4235   0.888   1.391   2.265
 1112SOL    HW2 4236   0.911   1.488   2.395
 1113SOL     OW 4237   6.360   3.494   1.555
 1113SOL    HW1 4238   6.282   3.510   1.615
 1113SOL    HW2 4239   6.381   3.396   1.554
 1114SOL     OW 4240   6.007   1.207   5.671
 1114SOL    HW1 4241   5.944   1.135   5.699
 1114SOL    HW2 4242   6.090   1.167   5.634
 1115SOL     OW 4243   2.086   4.641   0.558
 1115SOL    HW1 4244   2.039   4.670   0.641
 1115SOL    HW2 4245   2.182   4.670   0.562
 1116SOL     OW 4246   3.893   6.505   6.783
 1116SOL    HW1 4247   3.793   6.502   6.787
 1116SOL    HW2 4248   3.922   6.585   6.730
 1117SOL     OW 4249   2.192   3.266   1.003
 1117SOL    HW1 4250   2.117   3.302   1.059
 1117SOL    HW2 4251   2.271   3.327   1.011
 1118SOL     OW 4252   1.855   3.243   1.621
 1118SOL    HW1 4253   1.908   3.326   1.637
 1118SOL    HW2 4254   1.871   3.178   1.694
 1119SOL     OW 4255   2.987   3.571   3.323
 1119SOL    HW1 4256   3.033   3.495   3.370
 1119SOL    HW2 4257   3.026   3.583   3.232
 1120SOL     OW 4258   4.199   0.762   4.066
 1120SOL    HW1 4259   4.274   0.704   4.034
 1120SOL    HW2 4260   4.128   0.766   3.996
 1121SOL     OW 4261   5.192   3.344   3.232
 1121SOL    HW1 4262   5.153   3.263   3.186
 1121SOL    HW2 4263   5.289   3.329   3.248
 1122SOL     OW 4264   4.577   5.420   6.143
 1122SOL    HW1 4265   4.644   5.461   6.206
 1122SOL    HW2 4266   4.538   5.338   6.185
 1123SOL     OW 4267   4.080   1.094   2.035
 1123SOL    HW1 4268   4.127   1.169   2.080
 1123SOL    HW2 4269   3.998   1.128   1.989
 1124SOL     OW 4270   1.742   5.106   4.160
 1124SOL    HW1 4271   1.838   5.084   4.176
 1124SOL    HW2 4272   1.734   5.202   4.133
 1125SOL     OW 4273   2.938   3.298   4.837
 1125SOL    HW1 4274   3.012   3.364   4.855
 1125SOL    HW2 4275   2.934   3.280   4.738
 1126SOL     OW 4276   6.448   0.524   2.225
 1126SOL    HW1 4277   6.418   0.430   2.210
 1126SOL    HW2 4278   6.472   0.566   2.138
 1127SOL     OW 4279   1.992   6.159   6.107
 1127SOL    HW1 4280   1.906   6.203   6.133
 1127SOL    HW2 4281   1.991   6.064   6.138
 1128SOL     OW 4282   2.538   2.584   4.426
 1128SOL    HW1 4283   2.603   2.510   4.443
 1128SOL    HW2 4284   2.517   2.629   4.513
 1129SOL     OW 4285   4.409   6.284   6.218
 1129SOL    HW1 4286   4.447   6.198   6.252
 1129SOL    HW2 4287   4.472   6.323   6.150
 1130SOL     OW 4288   0.320   5.444   5.787
 1130SOL    HW1 4289   0.359   5.476   5.701
 1130SOL    HW2 4290   0.385   5.461   5.861
 1131SOL     OW 4291   0.083   5.124   5.526
 1131SOL    HW1 4292   0.077   5.099   5.429
 1131SOL    HW2 4293   0.053   5.047   5.583
 1132SOL     OW 4294   5.691   6.342   4.692
 1132SOL    HW1 4295   5.609   6.309   4.740
 1132SOL    HW2 4296   5.664   6.411   4.625
 1133SOL     OW 4297   6.924   2.661   6.711
 1133SOL    HW1 4298   6.928   2.633   6.807
 1133SOL    HW2 4299   6.845   2.618   6.667
 1134SOL     OW 4300   6.955   2.441   6.061
 1134SOL    HW1 4301   0.005   2.413   6.003
 1134SOL    HW2 4302   6.980   2.428   6.157
 1135SOL     OW 4303   6.884   1.513   4.516
 1135SOL    HW1 4304   6.917   1.545   4.428
 1135SOL    HW2 4305   6.789   1.543   4.530
 1136SOL     OW 4306   3.449   5.186   4.358
 1136SOL    HW1 4307   3.511   5.171   4.280
 1136SOL    HW2 4308   3.358   5.207   4.324
 1137SOL     OW 4309   1.343   1.102   6.619
 1137SOL    HW1 4310   1.410   1.128   6.689
 1137SOL    HW2 4311   1.353   1.005   6.598
 1138SOL     OW 4312   1.156   3.939   5.882
 1138SOL    HW1 4313   1.150   3.913   5.979
 1138SOL    HW2 4314   1.094   3.883   5.828
 1139SOL     OW 4315   0.839   0.530   2.701
 1139SOL    HW1 4316   0.758   0.586   2.680
 1139SOL    HW2 4317   0.910   0.548   2.633
 1140SOL     OW 4318   3.680   2.017   3.185
 1140SOL    HW1 4319   3.647   1.930   3.224
 1140SOL    HW2 4320   3.731   1.998   3.101
 1141SOL     OW 4321   6.864   5.992   6.164
 1141SOL    HW1 4322   6.831   5.912   6.214
 1141SOL    HW2 4323   6.903   5.962   6.077
 1142SOL     OW 4324   0.138   0.552   4.843
 1142SOL    HW1 4325   0.107   0.556   4.748
 1142SOL    HW2 4326   0.063   0.575   4.904
 1143SOL     OW 4327   4.575   2.183   1.272
 1143SOL    HW1 4328   4.548   2.246   1.344
 1143SOL    HW2 4329   4.658   2.216   1.228
 1144SOL     OW 4330   0.820   6.233   5.065
 1144SOL    HW1 4331   0.890   6.220   4.995
 1144SOL    HW2 4332   0.853   6.298   5.133
 1145SOL     OW 4333   1.972   4.761   5.047
 1145SOL    HW1 4334   1.906   4.721   4.984
 1145SOL    HW2 4335   1.938   4.752   5.141
 1146SOL     OW 4336   6.040   1.797   1.368
 1146SOL    HW1 4337   6.042   1.698   1.358
 1146SOL    HW2 4338   6.108   1.839   1.309
 1147SOL     OW 4339   6.498   3.209   2.109
 1147SOL    HW1 4340   6.492   3.301   2.147
 1147SOL    HW2 4341   6.422   3.195   2.045
 1148SOL     OW 4342   5.449   0.832   6.355
 1148SOL    HW1 4343   5.355   0.865   6.345
 1148SOL    HW2 4344   5.509   0.884   6.294
 1149SOL     OW 4345   5.680   2.758   2.983
 1149SOL    HW1 4346   5.640   2.711   2.904
 1149SOL    HW2 4347   5.780   2.746   2.981
 1150SOL     OW 4348   1.408   5.596   5.806
 1150SOL    HW1 4349   1.400   5.623   5.710
 1150SOL    HW2 4350   1.330   5.538   5.830
 1151SOL     OW 4351   2.619   5.319   0.137
 1151SOL    HW1 4352   2.613   5.316   0.237
 1151SOL    HW2 4353   2.577   5.236   0.099
 1152SOL     OW 4354   0.707   0.975   3.571
 1152SOL    HW1 4355   0.684   0.888   3.528
 1152SOL    HW2 4356   0.624   1.019   3.604
 1153SOL     OW 4357   2.354   4.426   2.485
 1153SOL    HW1 4358   2.437   4.475   2.511
 1153SOL    HW2 4359   2.327   4.365   2.559
 1154SOL     OW 4360   1.355   4.400   2.130
 1154SOL    HW1 4361   1.274   4.409   2.073
 1154SOL    HW2 4362   1.361   4.307   2.165
 1155SOL     OW 4363   4.193   0.076   2.234
 1155SOL    HW1 4364   4.206   0.134   2.154
 1155SOL    HW2 4365   4.248   0.110   2.310
 1156SOL     OW 4366   1.896   0.930   4.130
 1156SOL    HW1 4367   1.845   0.859   4.181
 1156SOL    HW2 4368   1.907   1.010   4.188
 1157SOL     OW 4369   1.743   2.987   4.163
 1157SOL    HW1 4370   1.830   2.955   4.128
 1157SOL    HW2 4371   1.723   3.078   4.126
 1158SOL     OW 4372   4.527   6.035   6.299
 1158SOL    HW1 4373   4.519   6.075   6.390
 1158SOL    HW2 4374   4.594   6.087   6.246
 1159SOL     OW 4375   5.884   4.457   2.646
 1159SOL    HW1 4376   5.885   4.486   2.550
 1159SOL    HW2 4377   5.826   4.518   2.699
 1160SOL     OW 4378   2.576   3.109   1.149
 1160SOL    HW1 4379   2.618   3.190   1.109
 1160SOL    HW2 4380   2.579   3.034   1.083
 1161SOL     OW 4381   4.077   0.768   3.804
 1161SOL    HW1 4382   4.023   0.852   3.800
 1161SOL    HW2 4383   4.093   0.734   3.712
 1162SOL     OW 4384   3.636   5.219   1.486
 1162SOL    HW1 4385   3.542   5.191   1.467
 1162SOL    HW2 4386   3.641   5.318   1.488
 1163SOL     OW 4387   4.998   0.191   2.334
 1163SOL    HW1 4388   5.064   0.233   2.396
 1163SOL    HW2 4389   5.011   0.092   2.333
 1164SOL     OW 4390   6.381   3.816   4.856
 1164SOL    HW1 4391   6.474   3.780   4.853
 1164SOL    HW2 4392   6.317   3.742   4.834
 1165SOL     OW 4393   1.146   4.698   2.155
 1165SOL    HW1 4394   1.084   4.641   2.208
 1165SOL    HW2 4395   1.187   4.644   2.081
 1166SOL     OW 4396   3.159   1.340   6.854
 1166SOL    HW1 4397   3.256   1.318   6.841
 1166SOL    HW2 4398   3.109   1.323   6.769
 1167SOL     OW 4399   4.268   1.917   5.681
 1167SOL    HW1 4400   4.182   1.890   5.639
 1167SOL    HW2 4401   4.321   1.971   5.616
 1168SOL     OW 4402   5.930   0.605   3.634
 1168SOL    HW1 4403   5.971   0.655   3.558
 1168SOL    HW2 4404   5.910   0.512   3.606
 1169SOL     OW 4405   1.021   3.054   1.156
 1169SOL    HW1 4406   0.993   3.129   1.215
 1169SOL    HW2 4407   0.940   3.012   1.115
 1170SOL     OW 4408   2.666   0.835   1.214
 1170SOL    HW1 4409   2.744   0.895   1.199
 1170SOL    HW2 4410   2.594   0.857   1.148
 1171SOL     OW 4411   3.421   0.852   0.531
 1171SOL    HW1 4412   3.434   0.759   0.496
 1171SOL    HW2 4413   3.404   0.913   0.454
 1172SOL     OW 4414   3.268   3.680   5.408
 1172SOL    HW1 4415   3.310   3.734   5.481
 1172SOL    HW2 4416   3.339   3.652   5.343
 1173SOL     OW 4417   5.451   6.985   5.684
 1173SOL    HW1 4418   5.509   0.040   5.682
 1173SOL    HW2 4419   5.359   7.009   5.654
 1174SOL     OW 4420   3.884   5.889   6.518
 1174SOL    HW1 4421   3.867   5.983   6.487
 1174SOL    HW2 4422   3.892   5.829   6.438
 1175SOL     OW 4423   0.018   5.171   4.549
 1175SOL    HW1 4424   6.990   5.114   4.610
 1175SOL    HW2 4425   0.070   5.113   4.487
 1176SOL     OW 4426   6.019   2.555   1.122
 1176SOL    HW1 4427   5.978   2.464   1.130
 1176SOL    HW2 4428   5.986   2.613   1.197
 1177SOL     OW 4429   6.330   3.372   6.868
 1177SOL    HW1 4430   6.332   3.351   6.965
 1177SOL    HW2 4431   6.370   3.295   6.817
 1178SOL     OW 4432   5.349   4.427   2.559
 1178SOL    HW1 4433   5.343   4.366   2.480
 1178SOL    HW2 4434   5.257   4.454   2.587
 1179SOL     OW 4435   1.615   5.462   6.157
 1179SOL    HW1 4436   1.595   5.528   6.230
 1179SOL    HW2 4437   1.572   5.374   6.179
 1180SOL     OW 4438   2.141   0.504   4.219
 1180SOL    HW1 4439   2.129   0.600   4.242
 1180SOL    HW2 4440   2.177   0.495   4.126
 1181SOL     OW 4441   1.685   4.822   2.192
 1181SOL    HW1 4442   1.702   4.905   2.138
 1181SOL    HW2 4443   1.735   4.828   2.278
 1182SOL     OW 4444   1.698   3.783   4.150
 1182SOL    HW1 4445   1.743   3.835   4.223
 1182SOL    HW2 4446   1.604   3.762   4.177
 1183SOL     OW 4447   4.185   5.524   1.043
 1183SOL    HW1 4448   4.259   5.577   1.000
 1183SOL    HW2 4449   4.174   5.438   0.994
 1184SOL     OW 4450   3.227   2.673   6.595
 1184SOL    HW1 4451   3.286   2.742   6.638
 1184SOL    HW2 4452   3.206   2.601   6.661
 1185SOL     OW 4453   2.818   1.020   6.603
 1185SOL    HW1 4454   2.723   1.048   6.589
 1185SOL    HW2 4455   2.878   1.101   6.598
 1186SOL     OW 4456   4.041   1.094   5.056
 1186SOL    HW1 4457   3.985   1.066   5.134
 1186SOL    HW2 4458   3.983   1.106   4.976
 1187SOL     OW 4459   1.273   1.972   4.724
 1187SOL    HW1 4460   1.244   1.955   4.629
 1187SOL    HW2 4461   1.352   1.913   4.745
 1188SOL     OW 4462   1.968   0.651   5.474
 1188SOL    HW1 4463   1.949   0.749   5.477
 1188SOL    HW2 4464   2.011   0.623   5.560
 1189SOL     OW 4465   0.395   0.814   1.305
 1189SOL    HW1 4466   0.340   0.867   1.240
 1189SOL    HW2 4467   0.336   0.752   1.356
 1190SOL     OW 4468   3.834   5.339   1.968
 1190SOL    HW1 4469   3.823   5.294   1.879
 1190SOL    HW2 4470   3.771   5.297   2.034
 1191SOL     OW 4471   2.538   4.584   1.599
 1191SOL    HW1 4472   2.595   4.513   1.640
 1191SOL    HW2 4473   2.446   4.580   1.639
 1192SOL     OW 4474   3.687   5.324   3.035
 1192SOL    HW1 4475   3.757   5.385   3.074
 1192SOL    HW2 4476   3.709   5.229   3.058
 1193SOL     OW 4477   3.281   0.168   4.221
 1193SOL    HW1 4478   3.330   0.236   4.166
 1193SOL    HW2 4479   3.334   0.083   4.224
 1194SOL     OW 4480   6.027   1.919   2.021
 1194SOL    HW1 4481   6.043   1.996   2.083
 1194SOL    HW2 4482   5.930   1.914   1.998
 1195SOL     OW 4483   3.128   6.714   7.007
 1195SOL    HW1 4484   3.168   6.725   0.071
 1195SOL    HW2 4485   3.183   6.765   6.940
 1196SOL     OW 4486   1.253   5.572   3.360
 1196SOL    HW1 4487   1.208   5.597   3.446
 1196SOL    HW2 4488   1.228   5.638   3.289
 1197SOL     OW 4489   3.662   4.774   0.098
 1197SOL    HW1 4490   3.567   4.804   0.089
 1197SOL    HW2 4491   3.664   4.674   0.106
 1198SOL     OW 4492   3.544   0.545   2.725
 1198SOL    HW1 4493   3.458   0.498   2.704
 1198SOL    HW2 4494   3.551   0.559   2.824
 1199SOL     OW 4495   3.234   3.822   3.653
 1199SOL    HW1 4496   3.188   3.879   3.720
 1199SOL    HW2 4497   3.333   3.828   3.666
 1200SOL     OW 4498   4.752   3.176   1.327
 1200SOL    HW1 4499   4.783   3.266   1.295
 1200SOL    HW2 4500   4.832   3.119   1.346
 1201SOL     OW 4501   1.506   1.849   4.813
 1201SOL    HW1 4502   1.548   1.868   4.724
 1201SOL    HW2 4503   1.522   1.926   4.875
 1202SOL     OW 4504   6.475   0.187   4.644
 1202SOL    HW1 4505   6.403   0.148   4.702
 1202SOL    HW2 4506   6.562   0.140   4.663
 1203SOL     OW 4507   6.360   0.164   2.503
 1203SOL    HW1 4508   6.390   0.258   2.483
 1203SOL    HW2 4509   6.332   0.158   2.599
 1204SOL     OW 4510   1.443   0.179   0.145
 1204SOL    HW1 4511   1.530   0.224   0.129
 1204SOL    HW2 4512   1.382   0.241   0.194
 1205SOL     OW 4513   0.756   2.568   5.675
 1205SOL    HW1 4514   0.850   2.575   5.710
 1205SOL    HW2 4515   0.757   2.584   5.576
 1206SOL     OW 4516   6.828   1.264   4.425
 1206SOL    HW1 4517   6.904   1.238   4.365
 1206SOL    HW2 4518   6.857   1.341   4.483
 1207SOL     OW 4519   6.258   6.413   6.333
 1207SOL    HW1 4520   6.265   6.496   6.278
 1207SOL    HW2 4521   6.348   6.370   6.340
 1208SOL     OW 4522   3.630   3.509   2.873
 1208SOL    HW1 4523   3.569   3.436   2.840
 1208SOL    HW2 4524   3.689   3.539   2.798
 1209SOL     OW 4525   0.004   3.910   4.813
 1209SOL    HW1 4526   6.980   3.839   4.862
 1209SOL    HW2 4527   0.022   3.879   4.720
 1210SOL     OW 4528   2.411   0.235   2.650
 1210SOL    HW1 4529   2.490   0.296   2.644
 1210SOL    HW2 4530   2.345   0.272   2.715
 1211SOL     OW 4531   0.927   3.031   3.242
 1211SOL    HW1 4532   0.995   2.965   3.210
 1211SOL    HW2 4533   0.965   3.123   3.235
 1212SOL     OW 4534   1.270   4.688   3.362
 1212SOL    HW1 4535   1.349   4.657   3.415
 1212SOL    HW2 4536   1.193   4.703   3.423
 1213SOL     OW 4537   5.581   3.949   5.432
 1213SOL    HW1 4538   5.510   3.920   5.368
 1213SOL    HW2 4539   5.649   3.876   5.442
 1214SOL     OW 4540   1.645   1.754   1.614
 1214SOL    HW1 4541   1.589   1.763   1.532
 1214SOL    HW2 4542   1.586   1.752   1.695
 1215SOL     OW 4543   0.337   5.417   1.844
 1215SOL    HW1 4544   0.376   5.467   1.922
 1215SOL    HW2 4545   0.394   5.338   1.823
 1216SOL     OW 4546   2.194   0.093   1.275
 1216SOL    HW1 4547   2.139   0.125   1.197
 1216SOL    HW2 4548   2.218   0.171   1.333
 1217SOL     OW 4549   1.683   2.951   3.056
 1217SOL    HW1 4550   1.740   2.975   2.977
 1217SOL    HW2 4551   1.728   2.982   3.140
 1218SOL     OW 4552   0.581   3.595   3.185
 1218SOL    HW1 4553   0.596   3.663   3.256
 1218SOL    HW2 4554   0.559   3.507   3.227
 1219SOL     OW 4555   2.766   6.034   3.319
 1219SOL    HW1 4556   2.799   5.954   3.369
 1219SOL    HW2 4557   2.828   6.056   3.245
 1220SOL     OW 4558   6.411   4.935   2.687
 1220SOL    HW1 4559   6.482   4.991   2.729
 1220SOL    HW2 4560   6.450   4.881   2.613
 1221SOL     OW 4561   4.864   4.681   5.751
 1221SOL    HW1 4562   4.883   4.766   5.702
 1221SOL    HW2 4563   4.892   4.691   5.846
 1222SOL     OW 4564   6.737   4.166   1.189
 1222SOL    HW1 4565   6.834   4.190   1.191
 1222SOL    HW2 4566   6.724   4.077   1.234
 1223SOL     OW 4567   6.807   4.816   4.876
 1223SOL    HW1 4568   6.719   4.800   4.919
 1223SOL    HW2 4569   6.872   4.746   4.906
 1224SOL     OW 4570   4.000   4.277   0.991
 1224SOL    HW1 4571   3.989   4.368   1.032
 1224SOL    HW2 4572   4.077   4.278   0.927
 1225SOL     OW 4573   4.488   1.691   0.098
 1225SOL    HW1 4574   4.504   1.779   0.143
 1225SOL    HW2 4575   4.530   1.618   0.152
 1226SOL     OW 4576   6.102   5.625   0.814
 1226SOL    HW1 4577   6.155   5.691   0.761
 1226SOL    HW2 4578   6.097   5.655   0.909
 1227SOL     OW 4579   4.756   4.366   7.016
 1227SOL    HW1 4580   4.853   4.341   7.013
 1227SOL    HW2 4581   4.745   4.458   6.979
 1228SOL     OW 4582   3.415   4.080   4.087
 1228SOL    HW1 4583   3.486   4.075   4.157
 1228SOL    HW2 4584   3.329   4.110   4.129
 1229SOL     OW 4585   2.400   5.301   2.945
 1229SOL    HW1 4586   2.466   5.345   3.006
 1229SOL    HW2 4587   2.307   5.329   2.969
 1230SOL     OW 4588   4.327   4.388   0.617
 1230SOL    HW1 4589   4.349   4.465   0.557
 1230SOL    HW2 4590   4.247   4.339   0.581
 1231SOL     OW 4591   2.165   1.595   0.327
 1231SOL    HW1 4592   2.168   1.569   0.231
 1231SOL    HW2 4593   2.088   1.658   0.342
 1232SOL     OW 4594   2.563   2.055   5.621
 1232SOL    HW1 4595   2.565   2.115   5.702
 1232SOL    HW2 4596   2.657   2.041   5.589
 1233SOL     OW 4597   0.387   5.100   4.632
 1233SOL    HW1 4598   0.446   5.149   4.568
 1233SOL    HW2 4599   0.291   5.122   4.613
 1234SOL     OW 4600   6.045   4.350   6.754
 1234SOL    HW1 4601   6.072   4.256   6.771
 1234SOL    HW2 4602   6.121   4.411   6.778
 1235SOL     OW 4603   6.167   4.697   0.630
 1235SOL    HW1 4604   6.228   4.673   0.555
 1235SOL    HW2 4605   6.189   4.789   0.663
 1236SOL     OW 4606   0.877   1.007   2.848
 1236SOL    HW1 4607   0.818   1.013   2.768
 1236SOL    HW2 4608   0.967   1.046   2.827
 1237SOL     OW 4609   1.266   0.342   4.156
 1237SOL    HW1 4610   1.181   0.372   4.112
 1237SOL    HW2 4611   1.257   0.247   4.185
 1238SOL     OW 4612   0.235   0.743   4.160
 1238SOL    HW1 4613   0.310   0.720   4.221
 1238SOL    HW2 4614   0.201   0.660   4.115
 1239SOL     OW 4615   5.014   4.426   3.943
 1239SOL    HW1 4616   4.993   4.521   3.920
 1239SOL    HW2 4617   5.003   4.369   3.861
 1240SOL     OW 4618   0.443   3.550   0.762
 1240SOL    HW1 4619   0.443   3.460   0.718
 1240SOL    HW2 4620   0.536   3.586   0.764
 1241SOL     OW 4621   3.550   5.108   6.034
 1241SOL    HW1 4622   3.532   5.119   5.936
 1241SOL    HW2 4623   3.578   5.197   6.072
 1242SOL     OW 4624   2.023   5.473   0.470
 1242SOL    HW1 4625   2.066   5.557   0.437
 1242SOL    HW2 4626   2.079   5.433   0.543
 1243SOL     OW 4627   0.465   3.859   3.478
 1243SOL    HW1 4628   0.455   3.767   3.517
 1243SOL    HW2 4629   0.456   3.855   3.379
 1244SOL     OW 4630   6.772   6.863   4.844
 1244SOL    HW1 4631   6.788   6.912   4.930
 1244SOL    HW2 4632   6.847   6.880   4.780
 1245SOL     OW 4633   4.888   6.480   1.312
 1245SOL    HW1 4634   4.984   6.455   1.324
 1245SOL    HW2 4635   4.877   6.579   1.322
 1246SOL     OW 4636   5.991   2.262   1.781
 1246SOL    HW1 4637   5.905   2.218   1.806
 1246SOL    HW2 4638   5.978   2.314   1.696
 1247SOL     OW 4639   5.051   6.950   2.420
 1247SOL    HW1 4640   5.143   6.941   2.459
 1247SOL    HW2 4641   5.033   6.872   2.359
 1248SOL     OW 4642   0.627   6.835   4.747
 1248SOL    HW1 4643   0.606   6.743   4.779
 1248SOL    HW2 4644   0.612   6.900   4.821
 1249SOL     OW 4645   6.088   6.443   6.558
 1249SOL    HW1 4646   6.150   6.436   6.479
 1249SOL    HW2 4647   6.034   6.526   6.549
 1250SOL     OW 4648   0.219   4.627   4.707
 1250SOL    HW1 4649   0.208   4.568   4.627
 1250SOL    HW2 4650   0.313   4.623   4.739
 1251SOL     OW 4651   2.960   0.278   2.626
 1251SOL    HW1 4652   2.943   0.213   2.552
 1251SOL    HW2 4653   3.018   0.236   2.696
 1252SOL     OW 4654   2.511   5.451   6.549
 1252SOL    HW1 4655   2.429   5.461   6.606
 1252SOL    HW2 4656   2.488   5.396   6.469
 1253SOL     OW 4657   2.630   5.881   0.133
 1253SOL    HW1 4658   2.577   5.947   0.186
 1253SOL    HW2 4659   2.706   5.928   0.088
 1254SOL     OW 4660   6.136   1.409   4.141
 1254SOL    HW1 4661   6.139   1.375   4.047
 1254SOL    HW2 4662   6.219   1.460   4.162
 1255SOL     OW 4663   5.956   1.985   5.780
 1255SOL    HW1 4664   5.984   1.926   5.856
 1255SOL    HW2 4665   5.997   1.952   5.695
 1256SOL     OW 4666   6.898   5.494   4.944
 1256SOL    HW1 4667   6.915   5.575   5.000
 1256SOL    HW2 4668   6.966   5.424   4.964
 1257SOL     OW 4669   0.397   6.278   3.445
 1257SOL    HW1 4670   0.365   6.257   3.537
 1257SOL    HW2 4671   0.338   6.349   3.405
 1258SOL     OW 4672   4.223   5.441   6.704
 1258SOL    HW1 4673   4.245   5.369   6.639
 1258SOL    HW2 4674   4.300   5.504   6.712
 1259SOL     OW 4675   5.171   6.463   5.219
 1259SOL    HW1 4676   5.075   6.454   5.192
 1259SOL    HW2 4677   5.206   6.553   5.192
 1260SOL     OW 4678   2.983   1.316   0.778
 1260SOL    HW1 4679   2.939   1.356   0.698
 1260SOL    HW2 4680   3.027   1.230   0.752
 1261SOL     OW 4681   6.922   4.227   4.419
 1261SOL    HW1 4682   6.915   4.184   4.329
 1261SOL    HW2 4683   7.016   4.255   4.436
 1262SOL     OW 4684   3.872   5.621   1.489
 1262SOL    HW1 4685   3.871   5.654   1.583
 1262SOL    HW2 4686   3.871   5.698   1.426
 1263SOL     OW 4687   0.028   1.476   1.593
 1263SOL    HW1 4688   0.079   1.429   1.520
 1263SOL    HW2 4689   6.962   1.495   1.560
 1264SOL     OW 4690   6.276   2.112   4.524
 1264SOL    HW1 4691   6.261   2.018   4.557
 1264SOL    HW2 4692   6.368   2.142   4.550
 1265SOL     OW 4693   6.373   5.792   4.850
 1265SOL    HW1 4694   6.384   5.752   4.941
 1265SOL    HW2 4695   6.413   5.730   4.782
 1266SOL     OW 4696   3.182   0.559   3.863
 1266SOL    HW1 4697   3.171   0.620   3.941
 1266SOL    HW2 4698   3.106   0.494   3.861
 1267SOL     OW 4699   0.668   4.801   2.321
 1267SOL    HW1 4700   0.653   4.862   2.399
 1267SOL    HW2 4701   0.740   4.734   2.345
 1268SOL     OW 4702   5.793   4.454   0.104
 1268SOL    HW1 4703   5.873   4.428   0.158
 1268SOL    HW2 4704   5.726   4.380   0.105
 1269SOL     OW 4705   6.741   4.981   6.485
 1269SOL    HW1 4706   6.716   4.967   6.390
 1269SOL    HW2 4707   6.658   4.984   6.541
 1270SOL     OW 4708   1.239   1.691   4.130
 1270SOL    HW1 4709   1.260   1.706   4.227
 1270SOL    HW2 4710   1.322   1.702   4.076
 1271SOL     OW 4711   5.569   2.915   3.305
 1271SOL    HW1 4712   5.510   2.835   3.294
 1271SOL    HW2 4713   5.606   2.941   3.216
 1272SOL     OW 4714   6.034   6.399   0.173
 1272SOL    HW1 4715   6.069   6.475   0.229
 1272SOL    HW2 4716   5.937   6.415   0.153
 1273SOL     OW 4717   2.454   0.070   5.112
 1273SOL    HW1 4718   2.400   7.013   5.104
 1273SOL    HW2 4719   2.505   0.085   5.027
 1274SOL     OW 4720   5.976   2.283   2.338
 1274SOL    HW1 4721   5.897   2.258   2.283
 1274SOL    HW2 4722   5.963   2.375   2.375
 1275SOL     OW 4723   3.985   1.679   4.066
 1275SOL    HW1 4724   3.976   1.601   4.129
 1275SOL    HW2 4725   3.991   1.645   3.972
 1276SOL     OW 4726   6.064   0.135   2.267
 1276SOL    HW1 4727   6.049   0.044   2.306
 1276SOL    HW2 4728   6.066   0.203   2.341
 1277SOL     OW 4729   1.116   1.553   4.572
 1277SOL    HW1 4730   1.140   1.556   4.669
 1277SOL    HW2 4731   1.018   1.571   4.562
 1278SOL     OW 4732   3.009   1.610   5.384
 1278SOL    HW1 4733   3.006   1.709   5.398
 1278SOL    HW2 4734   2.934   1.583   5.324
 1279SOL     OW 4735   2.352   5.250   0.473
 1279SOL    HW1 4736   2.291   5.231   0.551
 1279SOL    HW2 4737   2.333   5.342   0.438
 1280SOL     OW 4738   1.082   6.018   2.872
 1280SOL    HW1 4739   1.178   6.031   2.849
 1280SOL    HW2 4740   1.025   6.053   2.797
 1281SOL     OW 4741   0.593   6.912   3.708
 1281SOL    HW1 4742   0.651   6.842   3.667
 1281SOL    HW2 4743   0.528   6.945   3.641
 1282SOL     OW 4744   1.081   6.371   2.865
 1282SOL    HW1 4745   1.063   6.275   2.843
 1282SOL    HW2 4746   1.038   6.429   2.797
 1283SOL     OW 4747   5.047   4.213   5.093
 1283SOL    HW1 4748   5.031   4.243   5.187
 1283SOL    HW2 4749   5.114   4.274   5.049
 1284SOL     OW 4750   3.228   1.899   2.856
 1284SOL    HW1 4751   3.191   1.865   2.943
 1284SOL    HW2 4752   3.291   1.974   2.874
 1285SOL     OW 4753   5.961   3.004   6.284
 1285SOL    HW1 4754   6.010   3.072   6.228
 1285SOL    HW2 4755   6.006   2.915   6.276
 1286SOL     OW 4756   6.277   5.897   1.407
 1286SOL    HW1 4757   6.190   5.856   1.433
 1286SOL    HW2 4758   6.264   5.993   1.383
 1287SOL     OW 4759   6.542   4.003   5.856
 1287SOL    HW1 4760   6.597   4.066   5.801
 1287SOL    HW2 4761   6.498   3.936   5.797
 1288SOL     OW 4762   6.406   3.365   3.846
 1288SOL    HW1 4763   6.505   3.369   3.832
 1288SOL    HW2 4764   6.379   3.436   3.911
 1289SOL     OW 4765   0.487   5.145   2.733
 1289SOL    HW1 4766   0.459   5.066   2.787
 1289SOL    HW2 4767   0.478   5.228   2.788
 1290SOL     OW 4768   0.697   0.138   1.246
 1290SOL    HW1 4769   0.726   0.078   1.171
 1290SOL    HW2 4770   0.630   0.091   1.302
 1291SOL     OW 4771   1.716   6.354   1.275
 1291SOL    HW1 4772   1.633   6.373   1.329
 1291SOL    HW2 4773   1.797   6.374   1.330
 1292SOL     OW 4774   1.117   6.382   6.701
 1292SOL    HW1 4775   1.128   6.472   6.743
 1292SOL    HW2 4776   1.027   6.377   6.658
 1293SOL     OW 4777   6.067   2.475   6.354
 1293SOL    HW1 4778   5.970   2.451   6.360
 1293SOL    HW2 4779   6.100   2.502   6.445
 1294SOL     OW 4780   0.583   1.387   3.382
 1294SOL    HW1 4781   0.641   1.306   3.371
 1294SOL    HW2 4782   0.502   1.377   3.324
 1295SOL     OW 4783   4.838   3.424   1.273
 1295SOL    HW1 4784   4.926   3.449   1.235
 1295SOL    HW2 4785   4.823   3.474   1.359
 1296SOL     OW 4786   3.301   2.106   0.102
 1296SOL    HW1 4787   3.320   2.066   0.013
 1296SOL    HW2 4788   3.331   2.043   0.174
 1297SOL     OW 4789   6.642   0.553   6.355
 1297SOL    HW1 4790   6.569   0.597   6.407
 1297SOL    HW2 4791   6.687   0.620   6.297
 1298SOL     OW 4792   6.853   2.609   3.610
 1298SOL    HW1 4793   6.878   2.519   3.573
 1298SOL    HW2 4794   6.830   2.599   3.707
 1299SOL     OW 4795   1.576   2.865   4.379
 1299SOL    HW1 4796   1.486   2.903   4.404
 1299SOL    HW2 4797   1.625   2.930   4.321
 1300SOL     OW 4798   3.790   3.514   2.336
 1300SOL    HW1 4799   3.867   3.573   2.313
 1300SOL    HW2 4800   3.796   3.429   2.283
 1301SOL     OW 4801   1.221   1.497   2.293
 1301SOL    HW1 4802   1.284   1.433   2.248
 1301SOL    HW2 4803   1.134   1.451   2.311
 1302SOL     OW 4804   2.708   6.445   5.470
 1302SOL    HW1 4805   2.640   6.464   5.400
 1302SOL    HW2 4806   2.785   6.396   5.428
 1303SOL     OW 4807   3.281   0.452   1.446
 1303SOL    HW1 4808   3.326   0.519   1.387
 1303SOL    HW2 4809   3.255   0.372   1.391
 1304SOL     OW 4810   3.590   1.455   6.035
 1304SOL    HW1 4811   3.508   1.476   6.088
 1304SOL    HW2 4812   3.626   1.366   6.063
 1305SOL     OW 4813   5.952   6.379   3.680
 1305SOL    HW1 4814   6.003   6.411   3.600
 1305SOL    HW2 4815   5.858   6.358   3.654
 1306SOL     OW 4816   1.435   5.123   4.500
 1306SOL    HW1 4817   1.424   5.070   4.584
 1306SOL    HW2 4818   1.436   5.220   4.521
 1307SOL     OW 4819   1.011   1.120   4.123
 1307SOL    HW1 4820   0.986   1.123   4.026
 1307SOL    HW2 4821   1.090   1.179   4.138
 1308SOL     OW 4822   4.792   6.030   3.093
 1308SOL    HW1 4823   4.721   5.960   3.083
 1308SOL    HW2 4824   4.756   6.118   3.062
 1309SOL     OW 4825   5.255   3.069   4.440
 1309SOL    HW1 4826   5.355   3.066   4.427
 1309SOL    HW2 4827   5.215   2.986   4.401
 1310SOL     OW 4828   5.215   3.677   5.567
 1310SOL    HW1 4829   5.190   3.627   5.650
 1310SOL    HW2 4830   5.229   3.773   5.588
 1311SOL     OW 4831   5.102   5.087   5.312
 1311SOL    HW1 4832   5.065   5.082   5.219
 1311SOL    HW2 4833   5.054   5.158   5.363
 1312SOL     OW 4834   6.227   0.263   1.734
 1312SOL    HW1 4835   6.233   0.359   1.761
 1312SOL    HW2 4836   6.292   0.209   1.788
 1313SOL     OW 4837   3.023   4.973   5.053
 1313SOL    HW1 4838   3.092   5.030   5.098
 1313SOL    HW2 4839   3.011   4.888   5.105
 1314SOL     OW 4840   6.510   1.335   5.952
 1314SOL    HW1 4841   6.446   1.396   5.999
 1314SOL    HW2 4842   6.539   1.378   5.866
 1315SOL     OW 4843   1.648   6.829   3.549
 1315SOL    HW1 4844   1.577   6.759   3.557
 1315SOL    HW2 4845   1.641   6.873   3.459
 1316SOL     OW 4846   3.499   6.086   3.060
 1316SOL    HW1 4847   3.447   6.004   3.039
 1316SOL    HW2 4848   3.546   6.119   2.978
 1317SOL     OW 4849   0.455   3.420   3.988
 1317SOL    HW1 4850   0.385   3.439   4.057
 1317SOL    HW2 4851   0.508   3.340   4.016
 1318SOL     OW 4852   1.263   6.480   1.597
 1318SOL    HW1 4853   1.231   6.462   1.503
 1318SOL    HW2 4854   1.215   6.419   1.660
 1319SOL     OW 4855   6.312   0.550   0.388
 1319SOL    HW1 4856   6.374   0.524   0.314
 1319SOL    HW2 4857   6.246   0.477   0.404
 1320SOL     OW 4858   4.944   5.673   4.753
 1320SOL    HW1 4859   4.954   5.713   4.844
 1320SOL    HW2 4860   5.031   5.634   4.725
 1321SOL     OW 4861   3.495   1.217   0.428
 1321SOL    HW1 4862   3.590   1.247   0.425
 1321SOL    HW2 4863   3.483   1.138   0.369
 1322SOL     OW 4864   5.008   1.521   6.213
 1322SOL    HW1 4865   4.990   1.508   6.116
 1322SOL    HW2 4866   4.989   1.616   6.238
 1323SOL     OW 4867   0.033   0.922   4.076
 1323SOL    HW1 4868   0.075   0.868   4.149
 1323SOL    HW2 4869   6.963   0.938   4.098
 1324SOL     OW 4870   1.346   2.788   0.418
 1324SOL    HW1 4871   1.338   2.696   0.378
 1324SOL    HW2 4872   1.320   2.856   0.350
 1325SOL     OW 4873   4.233   5.305   3.920
 1325SOL    HW1 4874   4.196   5.371   3.855
 1325SOL    HW2 4875   4.202   5.213   3.896
 1326SOL     OW 4876   5.693   4.050   4.997
 1326SOL    HW1 4877   5.668   3.961   4.961
 1326SOL    HW2 4878   5.615   4.090   5.044
 1327SOL     OW 4879   2.433   6.235   4.366
 1327SOL    HW1 4880   2.339   6.218   4.394
 1327SOL    HW2 4881   2.452   6.333   4.371
 1328SOL     OW 4882   2.451   1.212   1.162
 1328SOL    HW1 4883   2.441   1.178   1.256
 1328SOL    HW2 4884   2.539   1.258   1.153
 1329SOL     OW 4885   0.926   6.546   1.904
 1329SOL    HW1 4886   0.997   6.613   1.922
 1329SOL    HW2 4887   0.968   6.460   1.875
 1330SOL     OW 4888   4.482   6.262   0.924
 1330SOL    HW1 4889   4.459   6.186   0.984
 1330SOL    HW2 4890   4.539   6.328   0.973
 1331SOL     OW 4891   0.827   2.145   1.995
 1331SOL    HW1 4892   0.799   2.237   2.021
 1331SOL    HW2 4893   0.840   2.090   2.078
 1332SOL     OW 4894   4.374   2.157   1.051
 1332SOL    HW1 4895   4.287   2.205   1.066
 1332SOL    HW2 4896   4.435   2.174   1.129
 1333SOL     OW 4897   4.069   3.643   4.643
 1333SOL    HW1 4898   4.143   3.603   4.697
 1333SOL    HW2 4899   4.093   3.639   4.546
 1334SOL     OW 4900   1.008   3.516   3.864
 1334SOL    HW1 4901   0.917   3.477   3.849
 1334SOL    HW2 4902   1.035   3.502   3.959
 1335SOL     OW 4903   2.061   6.092   3.349
 1335SOL    HW1 4904   1.997   6.015   3.342
 1335SOL    HW2 4905   2.148   6.061   3.386
 1336SOL     OW 4906   0.044   0.320   5.452
 1336SOL    HW1 4907   0.084   0.253   5.390
 1336SOL    HW2 4908   0.005   0.274   5.531
 1337SOL     OW 4909   3.792   0.235   0.182
 1337SOL    HW1 4910   3.836   0.198   0.101
 1337SOL    HW2 4911   3.856   0.230   0.260
 1338SOL     OW 4912   2.992   5.376   1.522
 1338SOL    HW1 4913   2.976   5.283   1.489
 1338SOL    HW2 4914   2.974   5.441   1.448
 1339SOL     OW 4915   0.202   4.430   6.597
 1339SOL    HW1 4916   0.153   4.472   6.673
 1339SOL    HW2 4917   0.283   4.485   6.575
 1340SOL     OW 4918   2.243   1.371   6.198
 1340SOL    HW1 4919   2.229   1.458   6.150
 1340SOL    HW2 4920   2.170   1.307   6.173
 1341SOL     OW 4921   5.730   2.531   4.468
 1341SOL    HW1 4922   5.823   2.524   4.433
 1341SOL    HW2 4923   5.717   2.463   4.541
 1342SOL     OW 4924   0.979   6.726   1.290
 1342SOL    HW1 4925   0.951   6.635   1.321
 1342SOL    HW2 4926   1.038   6.768   1.358
 1343SOL     OW 4927   2.667   5.834   4.257
 1343SOL    HW1 4928   2.680   5.756   4.196
 1343SOL    HW2 4929   2.604   5.899   4.215
 1344SOL     OW 4930   5.198   1.572   3.203
 1344SOL    HW1 4931   5.148   1.641   3.152
 1344SOL    HW2 4932   5.137   1.494   3.222
 1345SOL     OW 4933   0.515   5.585   2.599
 1345SOL    HW1 4934   0.605   5.544   2.586
 1345SOL    HW2 4935   0.464   5.582   2.513
 1346SOL     OW 4936   0.200   1.177   3.341
 1346SOL    HW1 4937   0.143   1.213   3.415
 1346SOL    HW2 4938   0.276   1.240   3.323
 1347SOL     OW 4939   4.426   0.586   3.711
 1347SOL    HW1 4940   4.356   0.529   3.755
 1347SOL    HW2 4941   4.386   0.675   3.686
 1348SOL     OW 4942   4.321   5.728   4.308
 1348SOL    HW1 4943   4.371   5.796   4.361
 1348SOL    HW2 4944   4.365   5.716   4.219
 1349SOL     OW 4945   4.531   2.177   0.140
 1349SOL    HW1 4946   4.476   2.162   0.222
 1349SOL    HW2 4947   4.628   2.184   0.165
 1350SOL     OW 4948   3.186   0.797   4.959
 1350SOL    HW1 4949   3.152   0.708   4.990
 1350SOL    HW2 4950   3.115   0.866   4.975
 1351SOL     OW 4951   1.641   1.709   3.728
 1351SOL    HW1 4952   1.618   1.682   3.634
 1351SOL    HW2 4953   1.711   1.780   3.726
 1352SOL     OW 4954   0.927   6.362   4.263
 1352SOL    HW1 4955   0.997   6.319   4.205
 1352SOL    HW2 4956   0.853   6.396   4.206
 1353SOL     OW 4957   2.219   3.089   5.500
 1353SOL    HW1 4958   2.188   3.182   5.479
 1353SOL    HW2 4959   2.316   3.081   5.477
 1354SOL     OW 4960   0.444   7.022   0.125
 1354SOL    HW1 4961   0.362   0.007   0.179
 1354SOL    HW2 4962   0.524   7.015   0.185
 1355SOL     OW 4963   3.725   2.858   6.800
 1355SOL    HW1 4964   3.756   2.916   6.724
 1355SOL    HW2 4965   3.735   2.907   6.886
 1356SOL     OW 4966   3.346   3.031   1.502
 1356SOL    HW1 4967   3.359   3.006   1.597
 1356SOL    HW2 4968   3.249   3.027   1.479
 1357SOL     OW 4969   3.174   2.748   6.021
 1357SOL    HW1 4970   3.250   2.796   6.064
 1357SOL    HW2 4971   3.209   2.668   5.971
 1358SOL     OW 4972   1.681   4.010   5.777
 1358SOL    HW1 4973   1.664   4.001   5.679
 1358SOL    HW2 4974   1.750   4.081   5.793
 1359SOL     OW 4975   0.015   1.842   6.278
 1359SOL    HW1 4976   0.082   1.865   6.348
 1359SOL    HW2 4977   0.018   1.743   6.261
 1360SOL     OW 4978   3.063   3.286   3.954
 1360SOL    HW1 4979   3.155   3.324   3.960
 1360SOL    HW2 4980   2.996   3.358   3.975
 1361SOL     OW 4981   0.678   6.256   1.249
 1361SOL    HW1 4982   0.662   6.206   1.164
 1361SOL    HW2 4983   0.699   6.192   1.322
 1362SOL     OW 4984   3.447   1.620   0.193
 1362SOL    HW1 4985   3.535   1.602   0.150
 1362SOL    HW2 4986   3.454   1.604   0.292
 1363SOL     OW 4987   6.890   6.632   1.172
 1363SOL    HW1 4988   6.813   6.670   1.223
 1363SOL    HW2 4989   6.879   6.651   1.075
 1364SOL     OW 4990   1.161   3.784   0.868
 1364SOL    HW1 4991   1.191   3.879   0.878
 1364SOL    HW2 4992   1.181   3.733   0.952
 1365SOL     OW 4993   1.035   3.759   6.211
 1365SOL    HW1 4994   0.976   3.716   6.143
 1365SOL    HW2 4995   1.072   3.689   6.272
 1366SOL     OW 4996   3.621   0.223   1.548
 1366SOL    HW1 4997   3.580   0.313   1.564
 1366SOL    HW2 4998   3.717   0.225   1.576
 1367SOL     OW 4999   1.260   0.088   4.280
 1367SOL    HW1 5000   1.335   0.078   4.345
 1367SOL    HW2 5001   1.175   0.108   4.330
 1368SOL     OW 5002   1.701   6.265   4.760
 1368SOL    HW1 5003   1.783   6.286   4.708
 1368SOL    HW2 5004   1.725   6.248   4.855
 1369SOL     OW 5005   2.003   5.344   3.797
 1369SOL    HW1 5006   1.904   5.336   3.807
 1369SOL    HW2 5007   2.038   5.409   3.865
 1370SOL     OW 5008   6.904   2.568   3.170
 1370SOL    HW1 5009   7.001   2.543   3.167
 1370SOL    HW2 5010   6.877   2.585   3.264
 1371SOL     OW 5011   6.099   1.944   5.547
 1371SOL    HW1 5012   6.184   1.892   5.557
 1371SOL    HW2 5013   6.106   2.003   5.467
 1372SOL     OW 5014   5.636   2.696   1.544
 1372SOL    HW1 5015   5.608   2.650   1.628
 1372SOL    HW2 5016   5.620   2.637   1.465
 1373SOL     OW 5017   6.073   3.143   1.778
 1373SOL    HW1 5018   5.996   3.181   1.830
 1373SOL    HW2 5019   6.087   3.048   1.803
 1374SOL     OW 5020   3.924   3.028   2.195
 1374SOL    HW1 5021   4.014   3.069   2.176
 1374SOL    HW2 5022   3.887   2.989   2.111
 1375SOL     OW 5023   5.249   4.879   4.303
 1375SOL    HW1 5024   5.185   4.843   4.371
 1375SOL    HW2 5025   5.335   4.827   4.308
 1376SOL     OW 5026   3.218   4.251   5.428
 1376SOL    HW1 5027   3.134   4.265   5.375
 1376SOL    HW2 5028   3.230   4.154   5.447
 1377SOL     OW 5029   1.192   1.787   3.000
 1377SOL    HW1 5030   1.132   1.851   3.047
 1377SOL    HW2 5031   1.234   1.832   2.921
 1378SOL     OW 5032   5.051   2.234   4.278
 1378SOL    HW1 5033   5.038   2.204   4.183
 1378SOL    HW2 5034   5.121   2.178   4.321
 1379SOL     OW 5035   4.362   5.458   0.251
 1379SOL    HW1 5036   4.446   5.406   0.237
 1379SOL    HW2 5037   4.309   5.417   0.325
 1380SOL     OW 5038   0.611   6.066   3.649
 1380SOL    HW1 5039   0.664   6.078   3.565
 1380SOL    HW2 5040   0.521   6.108   3.638
 1381SOL     OW 5041   6.469   2.629   5.507
 1381SOL    HW1 5042   6.501   2.723   5.499
 1381SOL    HW2 5043   6.487   2.580   5.422
 1382SOL     OW 5044   4.329   2.312   6.649
 1382SOL    HW1 5045   4.273   2.369   6.709
 1382SOL    HW2 5046   4.423   2.308   6.684
 1383SOL     OW 5047   6.621   0.413   0.514
 1383SOL    HW1 5048   6.648   0.453   0.601
 1383SOL    HW2 5049   6.530   0.371   0.523
 1384SOL     OW 5050   6.319   2.295   2.110
 1384SOL    HW1 5051   6.239   2.253   2.154
 1384SOL    HW2 5052   6.335   2.386   2.150
 1385SOL     OW 5053   0.324   6.047   1.838
 1385SOL    HW1 5054   0.268   6.043   1.755
 1385SOL    HW2 5055   0.393   5.975   1.835
 1386SOL     OW 5056   2.258   6.347   3.893
 1386SOL    HW1 5057   2.285   6.251   3.886
 1386SOL    HW2 5058   2.182   6.364   3.831
 1387SOL     OW 5059   2.191   5.976   2.042
 1387SOL    HW1 5060   2.112   6.012   1.991
 1387SOL    HW2 5061   2.197   6.022   2.130
 1388SOL     OW 5062   6.411   0.588   1.480
 1388SOL    HW1 5063   6.370   0.675   1.507
 1388SOL    HW2 5064   6.489   0.606   1.419
 1389SOL     OW 5065   6.356   0.794   1.848
 1389SOL    HW1 5066   6.425   0.866   1.858
 1389SOL    HW2 5067   6.271   0.823   1.892
 1390SOL     OW 5068   1.293   1.700   4.425
 1390SOL    HW1 5069   1.257   1.793   4.426
 1390SOL    HW2 5070   1.225   1.638   4.463
 1391SOL     OW 5071   0.528   3.053   3.318
 1391SOL    HW1 5072   0.539   3.021   3.412
 1391SOL    HW2 5073   0.432   3.046   3.291
 1392SOL     OW 5074   5.401   4.305   4.561
 1392SOL    HW1 5075   5.354   4.218   4.581
 1392SOL    HW2 5076   5.493   4.285   4.528
 1393SOL     OW 5077   3.974   5.006   6.612
 1393SOL    HW1 5078   3.878   5.003   6.584
 1393SOL    HW2 5079   4.031   4.965   6.541
 1394SOL     OW 5080   1.543   6.280   6.944
 1394SOL    HW1 5081   1.579   6.307   0.006
 1394SOL    HW2 5082   1.529   6.181   6.942
 1395SOL     OW 5083   4.307   4.713   5.965
 1395SOL    HW1 5084   4.274   4.794   6.012
 1395SOL    HW2 5085   4.304   4.634   6.027
 1396SOL     OW 5086   6.369   6.244   3.556
 1396SOL    HW1 5087   6.319   6.217   3.473
 1396SOL    HW2 5088   6.433   6.317   3.534
 1397SOL     OW 5089   4.822   6.144   5.376
 1397SOL    HW1 5090   4.890   6.217   5.386
 1397SOL    HW2 5091   4.860   6.073   5.317
 1398SOL     OW 5092   1.865   0.735   4.380
 1398SOL    HW1 5093   1.787   0.797   4.371
 1398SOL    HW2 5094   1.839   0.658   4.439
 1399SOL     OW 5095   2.804   5.432   2.298
 1399SOL    HW1 5096   2.808   5.447   2.200
 1399SOL    HW2 5097   2.708   5.429   2.327
 1400SOL     OW 5098   1.622   0.068   2.797
 1400SOL    HW1 5099   1.596   0.114   2.712
 1400SOL    HW2 5100   1.656   7.003   2.777
 1401SOL     OW 5101   6.738   1.791   4.126
 1401SOL    HW1 5102   6.828   1.831   4.145
 1401SOL    HW2 5103   6.681   1.859   4.080
 1402SOL     OW 5104   6.261   3.339   0.107
 1402SOL    HW1 5105   6.239   3.261   0.165
 1402SOL    HW2 5106   6.185   3.404   0.108
 1403SOL     OW 5107   3.881   0.393   2.105
 1403SOL    HW1 5108   3.901   0.482   2.064
 1403SOL    HW2 5109   3.863   0.405   2.203
 1404SOL     OW 5110   4.775   1.685   0.244
 1404SOL    HW1 5111   4.789   1.663   0.148
 1404SOL    HW2 5112   4.705   1.755   0.254
 1405SOL     OW 5113   3.125   3.180   1.091
 1405SOL    HW1 5114   3.061   3.156   1.165
 1405SOL    HW2 5115   3.120   3.110   1.019
 1406SOL     OW 5116   1.288   4.440   1.602
 1406SOL    HW1 5117   1.324   4.529   1.628
 1406SOL    HW2 5118   1.353   4.394   1.542
 1407SOL     OW 5119   6.560   2.233   2.847
 1407SOL    HW1 5120   6.657   2.206   2.851
 1407SOL    HW2 5121   6.515   2.208   2.933
 1408SOL     OW 5122   6.508   6.365   6.359
 1408SOL    HW1 5123   6.591   6.385   6.411
 1408SOL    HW2 5124   6.531   6.315   6.276
 1409SOL     OW 5125   0.573   1.466   3.637
 1409SOL    HW1 5126   0.503   1.532   3.662
 1409SOL    HW2 5127   0.567   1.446   3.539
 1410SOL     OW 5128   6.293   2.428   6.884
 1410SOL    HW1 5129   6.316   2.348   6.830
 1410SOL    HW2 5130   6.287   2.402   6.981
 1411SOL     OW 5131   1.925   0.596   2.092
 1411SOL    HW1 5132   1.942   0.509   2.137
 1411SOL    HW2 5133   1.974   0.600   2.005
 1412SOL     OW 5134   1.286   2.607   6.768
 1412SOL    HW1 5135   1.238   2.651   6.692
 1412SOL    HW2 5136   1.347   2.673   6.811
 1413SOL     OW 5137   2.998   6.682   3.355
 1413SOL    HW1 5138   3.007   6.591   3.397
 1413SOL    HW2 5139   2.903   6.697   3.330
 1414SOL     OW 5140   2.999   0.765   1.897
 1414SOL    HW1 5141   2.914   0.758   1.845
 1414SOL    HW2 5142   3.065   0.697   1.863
 1415SOL     OW 5143   4.672   5.862   5.221
 1415SOL    HW1 5144   4.620   5.868   5.136
 1415SOL    HW2 5145   4.762   5.904   5.208
 1416SOL     OW 5146   4.131   5.490   3.407
 1416SOL    HW1 5147   4.171   5.539   3.329
 1416SOL    HW2 5148   4.034   5.511   3.414
 1417SOL     OW 5149   3.107   2.900   6.497
 1417SOL    HW1 5150   3.151   2.816   6.529
 1417SOL    HW2 5151   3.166   2.978   6.515
 1418SOL     OW 5152   3.621   4.135   2.813
 1418SOL    HW1 5153   3.628   4.229   2.846
 1418SOL    HW2 5154   3.708   4.106   2.775
 1419SOL     OW 5155   4.067   6.373   4.006
 1419SOL    HW1 5156   4.049   6.275   3.992
 1419SOL    HW2 5157   4.120   6.408   3.929
 1420SOL     OW 5158   0.288   5.655   1.676
 1420SOL    HW1 5159   0.252   5.668   1.769
 1420SOL    HW2 5160   0.279   5.559   1.650
 1421SOL     OW 5161   4.103   0.881   2.665
 1421SOL    HW1 5162   4.106   0.789   2.705
 1421SOL    HW2 5163   4.088   0.948   2.738
 1422SOL     OW 5164   2.780   0.527   0.264
 1422SOL    HW1 5165   2.813   0.479   0.345
 1422SOL    HW2 5166   2.694   0.487   0.233
 1423SOL     OW 5167   4.915   0.744   2.160
 1423SOL    HW1 5168   5.002   0.794   2.165
 1423SOL    HW2 5169   4.927   0.660   2.107
 1424SOL     OW 5170   0.202   5.185   2.394
 1424SOL    HW1 5171   0.182   5.100   2.442
 1424SOL    HW2 5172   0.133   5.254   2.417
 1425SOL     OW 5173   1.661   0.181   4.534
 1425SOL    HW1 5174   1.685   0.214   4.442
 1425SOL    HW2 5175   1.736   0.125   4.569
 1426SOL     OW 5176   1.923   1.123   5.693
 1426SOL    HW1 5177   1.901   1.217   5.666
 1426SOL    HW2 5178   1.857   1.092   5.761
 1427SOL     OW 5179   5.779   0.834   4.997
 1427SOL    HW1 5180   5.717   0.756   4.986
 1427SOL    HW2 5181   5.737   0.915   4.955
 1428SOL     OW 5182   5.460   1.251   0.220
 1428SOL    HW1 5183   5.375   1.250   0.167
 1428SOL    HW2 5184   5.489   1.345   0.235
 1429SOL     OW 5185   5.918   6.590   6.701
 1429SOL    HW1 5186   5.944   6.662   6.765
 1429SOL    HW2 5187   5.872   6.516   6.751
 1430SOL     OW 5188   1.964   4.022   3.067
 1430SOL    HW1 5189   1.987   3.993   3.160
 1430SOL    HW2 5190   2.026   3.978   3.003
 1431SOL     OW 5191   1.195   0.599   1.352
 1431SOL    HW1 5192   1.156   0.652   1.278
 1431SOL    HW2 5193   1.295   0.611   1.354
 1432SOL     OW 5194   2.604   0.055   0.838
 1432SOL    HW1 5195   2.555   7.005   0.878
 1432SOL    HW2 5196   2.659   0.023   0.762
 1433SOL     OW 5197   4.169   0.275   4.558
 1433SOL    HW1 5198   4.115   0.217   4.497
 1433SOL    HW2 5199   4.112   0.306   4.633
 1434SOL     OW 5200   1.047   1.023   5.324
 1434SOL    HW1 5201   0.970   0.964   5.298
 1434SOL    HW2 5202   1.069   1.084   5.248
 1435SOL     OW 5203   6.812   1.859   3.218
 1435SOL    HW1 5204   6.839   1.813   3.303
 1435SOL    HW2 5205   6.717   1.834   3.196
 1436SOL     OW 5206   4.496   3.700   1.165
 1436SOL    HW1 5207   4.444   3.758   1.103
 1436SOL    HW2 5208   4.482   3.604   1.139
 1437SOL     OW 5209   4.458   1.410   2.130
 1437SOL    HW1 5210   4.507   1.412   2.217
 1437SOL    HW2 5211   4.409   1.496   2.117
 1438SOL     OW 5212   2.499   0.723   1.580
 1438SOL    HW1 5213   2.474   0.665   1.658
 1438SOL    HW2 5214   2.559   0.673   1.518
 1439SOL     OW 5215   0.455   5.805   2.054
 1439SOL    HW1 5216   0.491   5.816   1.962
 1439SOL    HW2 5217   0.358   5.780   2.050
 1440SOL     OW 5218   2.210   3.025   1.837
 1440SOL    HW1 5219   2.184   3.104   1.893
 1440SOL    HW2 5220   2.295   3.046   1.788
 1441SOL     OW 5221   5.133   6.184   0.491
 1441SOL    HW1 5222   5.156   6.121   0.566
 1441SOL    HW2 5223   5.120   6.131   0.407
 1442SOL     OW 5224   5.329   5.385   0.763
 1442SOL    HW1 5225   5.347   5.330   0.844
 1442SOL    HW2 5226   5.316   5.480   0.790
 1443SOL     OW 5227   0.743   2.526   2.544
 1443SOL    HW1 5228   0.644   2.532   2.527
 1443SOL    HW2 5229   0.792   2.572   2.469
 1444SOL     OW 5230   0.782   5.129   6.076
 1444SOL    HW1 5231   0.707   5.065   6.089
 1444SOL    HW2 5232   0.762   5.215   6.123
 1445SOL     OW 5233   0.993   3.414   1.516
 1445SOL    HW1 5234   1.082   3.428   1.474
 1445SOL    HW2 5235   0.998   3.433   1.614
 1446SOL     OW 5236   6.587   5.908   0.853
 1446SOL    HW1 5237   6.659   5.968   0.889
 1446SOL    HW2 5238   6.581   5.827   0.910
 1447SOL     OW 5239   6.308   5.702   4.301
 1447SOL    HW1 5240   6.218   5.686   4.341
 1447SOL    HW2 5241   6.358   5.615   4.295
 1448SOL     OW 5242   1.130   1.966   6.239
 1448SOL    HW1 5243   1.089   2.038   6.294
 1448SOL    HW2 5244   1.058   1.912   6.195
 1449SOL     OW 5245   2.086   3.387   2.871
 1449SOL    HW1 5246   2.155   3.445   2.916
 1449SOL    HW2 5247   2.001   3.438   2.861
 1450SOL     OW 5248   3.326   2.125   4.028
 1450SOL    HW1 5249   3.339   2.202   4.091
 1450SOL    HW2 5250   3.330   2.039   4.079
 1451SOL     OW 5251   3.449   1.421   2.650
 1451SOL    HW1 5252   3.434   1.408   2.552
 1451SOL    HW2 5253   3.416   1.511   2.678
 1452SOL     OW 5254   3.976   2.716   6.684
 1452SOL    HW1 5255   3.922   2.799   6.691
 1452SOL    HW2 5256   4.013   2.708   6.591
 1453SOL     OW 5257   0.523   4.024   5.725
 1453SOL    HW1 5258   0.619   4.011   5.704
 1453SOL    HW2 5259   0.499   4.121   5.715
 1454SOL     OW 5260   3.415   2.071   2.913
 1454SOL    HW1 5261   3.414   2.141   2.984
 1454SOL    HW2 5262   3.484   2.093   2.844
 1455SOL     OW 5263   0.489   5.474   2.321
 1455SOL    HW1 5264   0.411   5.535   2.334
 1455SOL    HW2 5265   0.553   5.516   2.256
 1456SOL     OW 5266   6.429   5.466   4.030
 1456SOL    HW1 5267   6.414   5.453   4.129
 1456SOL    HW2 5268   6.505   5.408   4.000
 1457SOL     OW 5269   1.357   5.283   6.279
 1457SOL    HW1 5270   1.383   5.273   6.183
 1457SOL    HW2 5271   1.423   5.233   6.336
 1458SOL     OW 5272   5.766   5.599   5.138
 1458SOL    HW1 5273   5.689   5.535   5.132
 1458SOL    HW2 5274   5.820   5.579   5.220
 1459SOL     OW 5275   6.505   6.579   5.254
 1459SOL    HW1 5276   6.488   6.609   5.160
 1459SOL    HW2 5277   6.512   6.480   5.256
 1460SOL     OW 5278   1.769   6.541   5.126
 1460SOL    HW1 5279   1.716   6.478   5.070
 1460SOL    HW2 5280   1.748   6.526   5.223
 1461SOL     OW 5281   6.157   2.827   4.068
 1461SOL    HW1 5282   6.074   2.804   4.119
 1461SOL    HW2 5283   6.149   2.921   4.033
 1462SOL     OW 5284   0.293   1.488   1.904
 1462SOL    HW1 5285   0.290   1.465   2.001
 1462SOL    HW2 5286   0.240   1.420   1.852
 1463SOL     OW 5287   1.428   5.832   6.705
 1463SOL    HW1 5288   1.450   5.740   6.739
 1463SOL    HW2 5289   1.342   5.862   6.746
 1464SOL     OW 5290   1.027   4.333   4.072
 1464SOL    HW1 5291   1.042   4.235   4.054
 1464SOL    HW2 5292   1.115   4.378   4.083
 1465SOL     OW 5293   1.291   2.795   4.830
 1465SOL    HW1 5294   1.377   2.843   4.816
 1465SOL    HW2 5295   1.229   2.815   4.754
 1466SOL     OW 5296   5.552   1.279   2.831
 1466SOL    HW1 5297   5.630   1.259   2.890
 1466SOL    HW2 5298   5.496   1.351   2.872
 1467SOL     OW 5299   0.265   0.213   3.594
 1467SOL    HW1 5300   0.168   0.237   3.592
 1467SOL    HW2 5301   0.314   0.265   3.524
 1468SOL     OW 5302   3.069   5.428   2.763
 1468SOL    HW1 5303   3.038   5.518   2.792
 1468SOL    HW2 5304   2.993   5.379   2.720
 1469SOL     OW 5305   5.634   4.156   3.180
 1469SOL    HW1 5306   5.632   4.056   3.185
 1469SOL    HW2 5307   5.729   4.187   3.176
 1470SOL     OW 5308   6.081   1.871   2.409
 1470SOL    HW1 5309   6.128   1.783   2.396
 1470SOL    HW2 5310   6.066   1.887   2.506
 1471SOL     OW 5311   5.165   6.983   0.680
 1471SOL    HW1 5312   5.130   7.000   0.772
 1471SOL    HW2 5313   5.264   6.972   0.683
 1472SOL     OW 5314   2.012   0.818   6.477
 1472SOL    HW1 5315   1.978   0.729   6.506
 1472SOL    HW2 5316   2.064   0.860   6.552
 1473SOL     OW 5317   1.686   5.894   3.408
 1473SOL    HW1 5318   1.696   5.963   3.480
 1473SOL    HW2 5319   1.590   5.889   3.379
 1474SOL     OW 5320   2.321   5.100   1.519
 1474SOL    HW1 5321   2.376   5.089   1.436
 1474SOL    HW2 5322   2.260   5.179   1.509
 1475SOL     OW 5323   5.953   0.379   6.475
 1475SOL    HW1 5324   5.948   0.282   6.452
 1475SOL    HW2 5325   5.941   0.434   6.392
 1476SOL     OW 5326   5.365   0.156   6.297
 1476SOL    HW1 5327   5.287   0.209   6.262
 1476SOL    HW2 5328   5.422   0.127   6.220
 1477SOL     OW 5329   3.390   4.217   1.638
 1477SOL    HW1 5330   3.387   4.316   1.626
 1477SOL    HW2 5331   3.298   4.184   1.660
 1478SOL     OW 5332   4.675   4.845   6.747
 1478SOL    HW1 5333   4.770   4.867   6.765
 1478SOL    HW2 5334   4.631   4.922   6.700
 1479SOL     OW 5335   4.484   3.296   1.275
 1479SOL    HW1 5336   4.448   3.344   1.355
 1479SOL    HW2 5337   4.570   3.251   1.300
 1480SOL     OW 5338   2.720   0.547   4.383
 1480SOL    HW1 5339   2.664   0.609   4.328
 1480SOL    HW2 5340   2.773   0.487   4.323
 1481SOL     OW 5341   4.592   2.478   6.086
 1481SOL    HW1 5342   4.511   2.430   6.120
 1481SOL    HW2 5343   4.645   2.416   6.027
 1482SOL     OW 5344   6.058   1.280   1.469
 1482SOL    HW1 5345   6.053   1.304   1.566
 1482SOL    HW2 5346   5.975   1.232   1.442
 1483SOL     OW 5347   6.195   0.806   0.366
 1483SOL    HW1 5348   6.136   0.800   0.285
 1483SOL    HW2 5349   6.233   0.716   0.385
 1484SOL     OW 5350   3.890   5.733   5.561
 1484SOL    HW1 5351   3.842   5.647   5.580
 1484SOL    HW2 5352   3.833   5.790   5.503
 1485SOL     OW 5353   4.963   3.483   3.358
 1485SOL    HW1 5354   4.885   3.469   3.297
 1485SOL    HW2 5355   5.045   3.444   3.316
 1486SOL     OW 5356   4.429   5.706   4.060
 1486SOL    HW1 5357   4.493   5.769   4.016
 1486SOL    HW2 5358   4.439   5.615   4.019
 1487SOL     OW 5359   6.626   1.466   0.795
 1487SOL    HW1 5360   6.572   1.427   0.721
 1487SOL    HW2 5361   6.664   1.554   0.765
 1488SOL     OW 5362   6.490   2.230   2.545
 1488SOL    HW1 5363   6.528   2.321   2.528
 1488SOL    HW2 5364   6.519   2.197   2.635
 1489SOL     OW 5365   2.950   4.939   7.017
 1489SOL    HW1 5366   2.956   4.899   6.926
 1489SOL    HW2 5367   2.962   5.038   7.011
 1490SOL     OW 5368   6.191   3.103   2.675
 1490SOL    HW1 5369   6.134   3.026   2.646
 1490SOL    HW2 5370   6.277   3.102   2.625
 1491SOL     OW 5371   5.600   2.730   3.762
 1491SOL    HW1 5372   5.533   2.793   3.801
 1491SOL    HW2 5373   5.645   2.773   3.683
 1492SOL     OW 5374   6.996   1.853   2.602
 1492SOL    HW1 5375   0.067   1.848   2.620
 1492SOL    HW2 5376   6.957   1.761   2.606
 1493SOL     OW 5377   5.939   2.044   6.130
 1493SOL    HW1 5378   5.989   2.129   6.115
 1493SOL    HW2 5379   5.999   1.976   6.171
 1494SOL     OW 5380   0.244   4.623   6.282
 1494SOL    HW1 5381   0.211   4.716   6.298
 1494SOL    HW2 5382   0.167   4.559   6.290
 1495SOL     OW 5383   6.583   3.902   4.580
 1495SOL    HW1 5384   6.628   3.829   4.631
 1495SOL    HW2 5385   6.484   3.896   4.592
 1496SOL     OW 5386   6.744   6.505   5.798
 1496SOL    HW1 5387   6.814   6.577   5.792
 1496SOL    HW2 5388   6.761   6.436   5.727
 1497SOL     OW 5389   6.157   2.424   2.566
 1497SOL    HW1 5390   6.112   2.375   2.641
 1497SOL    HW2 5391   6.090   2.479   2.516
 1498SOL     OW 5392   3.258   4.187   0.583
 1498SOL    HW1 5393   3.166   4.226   0.575
 1498SOL    HW2 5394   3.251   4.090   0.604
 1499SOL     OW 5395   0.162   4.328   4.365
 1499SOL    HW1 5396   0.181   4.334   4.463
 1499SOL    HW2 5397   0.217   4.395   4.315
 1500SOL     OW 5398   1.531   5.766   2.012
 1500SOL    HW1 5399   1.532   5.680   2.064
 1500SOL    HW2 5400   1.492   5.838   2.068
 1501SOL     OW 5401   6.714   1.887   0.875
 1501SOL    HW1 5402   6.779   1.963   0.868
 1501SOL    HW2 5403   6.722   1.830   0.793
 1502SOL     OW 5404   0.024   6.735   6.514
 1502SOL    HW1 5405   7.010   6.688   6.593
 1502SOL    HW2 5406   6.979   6.770   6.455
 1503SOL     OW 5407   0.279   4.497   1.713
 1503SOL    HW1 5408   0.306   4.481   1.618
 1503SOL    HW2 5409   0.208   4.567   1.716
 1504SOL     OW 5410   1.938   6.977   2.994
 1504SOL    HW1 5411   1.900   0.042   2.989
 1504SOL    HW2 5412   2.028   6.980   3.037
 1505SOL     OW 5413   6.198   5.416   5.073
 1505SOL    HW1 5414   6.278   5.451   5.025
 1505SOL    HW2 5415   6.115   5.456   5.033
 1506SOL     OW 5416   1.125   0.816   0.419
 1506SOL    HW1 5417   1.093   0.737   0.365
 1506SOL    HW2 5418   1.066   0.827   0.499
 1507SOL     OW 5419   3.027   2.092   3.547
 1507SOL    HW1 5420   2.978   2.094   3.634
 1507SOL    HW2 5421   3.021   2.000   3.508
 1508SOL     OW 5422   1.924   0.376   1.492
 1508SOL    HW1 5423   1.895   0.415   1.579
 1508SOL    HW2 5424   1.907   0.443   1.419
 1509SOL     OW 5425   5.162   0.872   3.934
 1509SOL    HW1 5426   5.124   0.780   3.928
 1509SOL    HW2 5427   5.130   0.917   4.017
 1510SOL     OW 5428   3.864   5.852   5.248
 1510SOL    HW1 5429   3.840   5.897   5.334
 1510SOL    HW2 5430   3.881   5.921   5.177
 1511SOL     OW 5431   3.115   3.488   4.862
 1511SOL    HW1 5432   3.124   3.534   4.950
 1511SOL    HW2 5433   3.200   3.441   4.840
 1512SOL     OW 5434   5.286   6.314   0.824
 1512SOL    HW1 5435   5.196   6.271   0.835
 1512SOL    HW2 5436   5.339   6.303   0.909
 1513SOL     OW 5437   2.838   0.989   5.506
 1513SOL    HW1 5438   2.928   1.032   5.511
 1513SOL    HW2 5439   2.822   0.935   5.589
 1514SOL     OW 5440   3.130   2.226   6.484
 1514SOL    HW1 5441   3.111   2.188   6.574
 1514SOL    HW2 5442   3.070   2.304   6.468
 1515SOL     OW 5443   3.878   0.475   2.643
 1515SOL    HW1 5444   3.930   0.539   2.700
 1515SOL    HW2 5445   3.790   0.455   2.687
 1516SOL     OW 5446   6.161   6.863   5.907
 1516SOL    HW1 5447   6.206   6.852   5.819
 1516SOL    HW2 5448   6.137   6.773   5.943
 1517SOL     OW 5449   3.157   5.875   3.369
 1517SOL    HW1 5450   3.122   5.871   3.463
 1517SOL    HW2 5451   3.104   5.814   3.311
 1518SOL     OW 5452   0.679   3.018   6.558
 1518SOL    HW1 5453   0.662   2.969   6.473
 1518SOL    HW2 5454   0.637   3.109   6.552
 1519SOL     OW 5455   0.085   4.546   6.834
 1519SOL    HW1 5456   0.075   4.637   6.793
 1519SOL    HW2 5457   7.024   4.517   6.872
 1520SOL     OW 5458   0.233   6.530   3.450
 1520SOL    HW1 5459   0.285   6.542   3.535
 1520SOL    HW2 5460   0.139   6.560   3.465
 1521SOL     OW 5461   2.142   5.515   6.193
 1521SOL    HW1 5462   2.045   5.538   6.206
 1521SOL    HW2 5463   2.175   5.560   6.110
 1522SOL     OW 5464   5.440   6.326   4.216
 1522SOL    HW1 5465   5.400   6.418   4.218
 1522SOL    HW2 5466   5.511   6.322   4.147
 1523SOL     OW 5467   2.869   6.625   0.596
 1523SOL    HW1 5468   2.932   6.681   0.650
 1523SOL    HW2 5469   2.812   6.684   0.540
 1524SOL     OW 5470   2.132   1.498   3.678
 1524SOL    HW1 5471   2.139   1.399   3.686
 1524SOL    HW2 5472   2.073   1.534   3.751
 1525SOL     OW 5473   5.149   4.277   6.488
 1525SOL    HW1 5474   5.093   4.195   6.492
 1525SOL    HW2 5475   5.090   4.358   6.492
 1526SOL     OW 5476   1.204   1.845   1.356
 1526SOL    HW1 5477   1.213   1.938   1.394
 1526SOL    HW2 5478   1.149   1.849   1.273
 1527SOL     OW 5479   5.004   1.644   4.450
 1527SOL    HW1 5480   4.913   1.638   4.491
 1527SOL    HW2 5481   5.035   1.553   4.424
 1528SOL     OW 5482   3.609   3.546   2.115
 1528SOL    HW1 5483   3.636   3.503   2.201
 1528SOL    HW2 5484   3.649   3.638   2.110
 1529SOL     OW 5485   4.574   1.534   6.139
 1529SOL    HW1 5486   4.616   1.565   6.224
 1529SOL    HW2 5487   4.621   1.575   6.061
 1530SOL     OW 5488   2.242   6.943   0.911
 1530SOL    HW1 5489   2.273   6.868   0.852
 1530SOL    HW2 5490   2.168   6.993   0.865
 1531SOL     OW 5491   4.670   5.800   4.287
 1531SOL    HW1 5492   4.647   5.844   4.201
 1531SOL    HW2 5493   4.614   5.839   4.361
 1532SOL     OW 5494   2.687   5.752   1.430
 1532SOL    HW1 5495   2.747   5.780   1.355
 1532SOL    HW2 5496   2.664   5.832   1.486
 1533SOL     OW 5497   5.596   6.112   0.999
 1533SOL    HW1 5498   5.688   6.131   0.965
 1533SOL    HW2 5499   5.550   6.199   1.018
 1534SOL     OW 5500   2.736   5.189   6.440
 1534SOL    HW1 5501   2.832   5.217   6.427
 1534SOL    HW2 5502   2.733   5.102   6.489
 1535SOL     OW 5503   5.512   4.194   3.635
 1535SOL    HW1 5504   5.514   4.236   3.545
 1535SOL    HW2 5505   5.424   4.148   3.648
 1536SOL     OW 5506   4.210   3.795   6.848
 1536SOL    HW1 5507   4.241   3.862   6.916
 1536SOL    HW2 5508   4.261   3.710   6.861
 1537SOL     OW 5509   2.735   5.032   2.472
 1537SOL    HW1 5510   2.736   4.984   2.385
 1537SOL    HW2 5511   2.802   5.106   2.471
 1538SOL     OW 5512   2.890   1.235   0.372
 1538SOL    HW1 5513   2.860   1.157   0.426
 1538SOL    HW2 5514   2.851   1.230   0.280
 1539SOL     OW 5515   6.090   3.207   0.924
 1539SOL    HW1 5516   6.069   3.111   0.908
 1539SOL    HW2 5517   6.018   3.265   0.886
 1540SOL     OW 5518   3.521   6.582   3.217
 1540SOL    HW1 5519   3.584   6.553   3.289
 1540SOL    HW2 5520   3.535   6.526   3.136
 1541SOL     OW 5521   4.237   2.868   5.617
 1541SOL    HW1 5522   4.256   2.902   5.709
 1541SOL    HW2 5523   4.323   2.860   5.566
 1542SOL     OW 5524   6.909   5.214   3.026
 1542SOL    HW1 5525   6.931   5.273   2.948
 1542SOL    HW2 5526   6.994   5.190   3.074
 1543SOL     OW 5527   3.136   5.468   0.228
 1543SOL    HW1 5528   3.075   5.522   0.170
 1543SOL    HW2 5529   3.219   5.445   0.177
 1544SOL     OW 5530   3.965   3.352   3.919
 1544SOL    HW1 5531   3.940   3.357   3.822
 1544SOL    HW2 5532   3.978   3.256   3.944
 1545SOL     OW 5533   5.499   5.342   1.516
 1545SOL    HW1 5534   5.454   5.272   1.573
 1545SOL    HW2 5535   5.436   5.371   1.444
 1546SOL     OW 5536   5.915   6.222   5.737
 1546SOL    HW1 5537   5.942   6.271   5.653
 1546SOL    HW2 5538   5.867   6.284   5.798
 1547SOL     OW 5539   2.245   3.514   6.195
 1547SOL    HW1 5540   2.281   3.586   6.135
 1547SOL    HW2 5541   2.192   3.449   6.140
 1548SOL     OW 5542   6.855   2.358   0.950
 1548SOL    HW1 5543   6.890   2.355   1.044
 1548SOL    HW2 5544   6.760   2.328   0.950
 1549SOL     OW 5545   5.048   0.595   4.779
 1549SOL    HW1 5546   4.973   0.552   4.730
 1549SOL    HW2 5547   5.029   0.595   4.877
 1550SOL     OW 5548   3.635   3.021   3.879
 1550SOL    HW1 5549   3.576   2.969   3.940
 1550SOL    HW2 5550   3.609   3.003   3.784
 1551SOL     OW 5551   6.708   5.022   5.569
 1551SOL    HW1 5552   6.721   4.923   5.562
 1551SOL    HW2 5553   6.737   5.053   5.659
 1552SOL     OW 5554   1.809   4.050   1.555
 1552SOL    HW1 5555   1.881   4.102   1.600
 1552SOL    HW2 5556   1.849   3.970   1.509
 1553SOL     OW 5557   1.890   2.199   6.257
 1553SOL    HW1 5558   1.798   2.172   6.228
 1553SOL    HW2 5559   1.916   2.284   6.210
 1554SOL     OW 5560   4.177   1.810   3.493
 1554SOL    HW1 5561   4.264   1.825   3.540
 1554SOL    HW2 5562   4.114   1.885   3.515
 1555SOL     OW 5563   5.992   5.111   5.348
 1555SOL    HW1 5564   6.047   5.031   5.325
 1555SOL    HW2 5565   5.902   5.082   5.381
 1556SOL     OW 5566   2.011   0.877   5.828
 1556SOL    HW1 5567   1.943   0.843   5.893
 1556SOL    HW2 5568   1.965   0.916   5.748
 1557SOL     OW 5569   0.664   1.991   5.025
 1557SOL    HW1 5570   0.723   2.018   4.949
 1557SOL    HW2 5571   0.577   2.039   5.019
 1558SOL     OW 5572   6.951   6.607   4.766
 1558SOL    HW1 5573   6.936   6.513   4.737
 1558SOL    HW2 5574   6.943   6.668   4.688
 1559SOL     OW 5575   1.473   1.387   5.747
 1559SOL    HW1 5576   1.532   1.329   5.802
 1559SOL    HW2 5577   1.525   1.426   5.672
 1560SOL     OW 5578   6.928   0.633   6.764
 1560SOL    HW1 5579   6.994   0.566   6.797
 1560SOL    HW2 5580   6.972   0.691   6.695
 1561SOL     OW 5581   5.969   6.213   2.298
 1561SOL    HW1 5582   5.932   6.304   2.318
 1561SOL    HW2 5583   6.060   6.205   2.340
 1562SOL     OW 5584   5.607   0.940   3.859
 1562SOL    HW1 5585   5.531   0.975   3.913
 1562SOL    HW2 5586   5.690   0.941   3.915
 1563SOL     OW 5587   3.323   0.021   5.686
 1563SOL    HW1 5588   3.356   6.962   5.648
 1563SOL    HW2 5589   3.229   0.010   5.718
 1564SOL     OW 5590   0.841   2.131   3.378
 1564SOL    HW1 5591   0.911   2.094   3.439
 1564SOL    HW2 5592   0.758   2.075   3.386
 1565SOL     OW 5593   6.252   4.209   1.542
 1565SOL    HW1 5594   6.341   4.207   1.495
 1565SOL    HW2 5595   6.253   4.142   1.617
 1566SOL     OW 5596   5.774   4.094   2.612
 1566SOL    HW1 5597   5.719   4.167   2.571
 1566SOL    HW2 5598   5.737   4.072   2.702
 1567SOL     OW 5599   6.425   5.972   5.329
 1567SOL    HW1 5600   6.463   5.881   5.347
 1567SOL    HW2 5601   6.468   6.011   5.247
 1568SOL     OW 5602   7.019   0.040   6.939
 1568SOL    HW1 5603   0.053   6.999   6.897
 1568SOL    HW2 5604   0.048   0.108   6.988
 1569SOL     OW 5605   3.323   6.396   5.134
 1569SOL    HW1 5606   3.413   6.352   5.128
 1569SOL    HW2 5607   3.258   6.347   5.076
 1570SOL     OW 5608   2.867   2.207   1.688
 1570SOL    HW1 5609   2.846   2.286   1.745
 1570SOL    HW2 5610   2.926   2.235   1.613
 1571SOL     OW 5611   0.270   3.676   0.598
 1571SOL    HW1 5612   0.296   3.700   0.504
 1571SOL    HW2 5613   0.352   3.651   0.650
 1572SOL     OW 5614   1.110   5.610   2.663
 1572SOL    HW1 5615   1.136   5.524   2.620
 1572SOL    HW2 5616   1.077   5.592   2.756
 1573SOL     OW 5617   4.353   6.997   0.156
 1573SOL    HW1 5618   4.388   6.906   0.135
 1573SOL    HW2 5619   4.272   6.989   0.214
 1574SOL     OW 5620   5.329   2.488   2.417
 1574SOL    HW1 5621   5.365   2.547   2.490
 1574SOL    HW2 5622   5.247   2.530   2.378
 1575SOL     OW 5623   3.525   1.611   0.482
 1575SOL    HW1 5624   3.465   1.598   0.560
 1575SOL    HW2 5625   3.587   1.532   0.474
 1576SOL     OW 5626   5.889   5.516   3.161
 1576SOL    HW1 5627   5.917   5.436   3.216
 1576SOL    HW2 5628   5.924   5.506   3.068
 1577SOL     OW 5629   1.314   0.350   0.281
 1577SOL    HW1 5630   1.229   0.369   0.330
 1577SOL    HW2 5631   1.363   0.435   0.264
 1578SOL     OW 5632   5.911   5.453   4.682
 1578SOL    HW1 5633   5.815   5.478   4.694
 1578SOL    HW2 5634   5.917   5.362   4.640
 1579SOL     OW 5635   0.035   0.201   2.913
 1579SOL    HW1 5636   0.028   0.271   2.984
 1579SOL    HW2 5637   0.042   0.244   2.823
 1580SOL     OW 5638   3.319   3.958   5.969
 1580SOL    HW1 5639   3.398   3.933   6.024
 1580SOL    HW2 5640   3.349   4.009   5.888
 1581SOL     OW 5641   6.521   3.246   4.697
 1581SOL    HW1 5642   6.618   3.234   4.673
 1581SOL    HW2 5643   6.513   3.314   4.769
 1582SOL     OW 5644   6.086   6.325   5.078
 1582SOL    HW1 5645   6.136   6.391   5.023
 1582SOL    HW2 5646   5.995   6.311   5.038
 1583SOL     OW 5647   2.297   2.131   2.372
 1583SOL    HW1 5648   2.258   2.190   2.301
 1583SOL    HW2 5649   2.387   2.098   2.343
 1584SOL     OW 5650   2.410   0.591   6.363
 1584SOL    HW1 5651   2.429   0.670   6.421
 1584SOL    HW2 5652   2.346   0.530   6.409
 1585SOL     OW 5653   5.897   1.186   5.995
 1585SOL    HW1 5654   5.826   1.219   5.932
 1585SOL    HW2 5655   5.886   1.232   6.083
 1586SOL     OW 5656   4.092   3.570   3.013
 1586SOL    HW1 5657   4.139   3.547   3.098
 1586SOL    HW2 5658   4.098   3.493   2.950
 1587SOL     OW 5659   2.653   6.881   6.235
 1587SOL    HW1 5660   2.640   6.782   6.243
 1587SOL    HW2 5661   2.594   6.927   6.301
 1588SOL     OW 5662   5.917   3.796   1.552
 1588SOL    HW1 5663   6.017   3.784   1.553
 1588SOL    HW2 5664   5.895   3.893   1.548
 1589SOL     OW 5665   5.048   4.854   3.419
 1589SOL    HW1 5666   4.961   4.882   3.459
 1589SOL    HW2 5667   5.109   4.932   3.413
 1590SOL     OW 5668   1.878   6.726   5.362
 1590SOL    HW1 5669   1.862   6.805   5.303
 1590SOL    HW2 5670   1.969   6.688   5.344
 1591SOL     OW 5671   1.179   3.848   0.586
 1591SOL    HW1 5672   1.164   3.826   0.683
 1591SOL    HW2 5673   1.275   3.830   0.562
 1592SOL     OW 5674   3.498   3.831   3.615
 1592SOL    HW1 5675   3.547   3.866   3.695
 1592SOL    HW2 5676   3.547   3.751   3.579
 1593SOL     OW 5677   1.637   4.701   4.312
 1593SOL    HW1 5678   1.574   4.779   4.307
 1593SOL    HW2 5679   1.634   4.652   4.225
 1594SOL     OW 5680   1.462   5.244   3.267
 1594SOL    HW1 5681   1.445   5.205   3.358
 1594SOL    HW2 5682   1.385   5.223   3.207
 1595SOL     OW 5683   6.780   4.615   5.173
 1595SOL    HW1 5684   6.866   4.605   5.122
 1595SOL    HW2 5685   6.709   4.649   5.111
 1596SOL     OW 5686   2.959   5.619   0.056
 1596SOL    HW1 5687   3.015   5.590   7.005
 1596SOL    HW2 5688   2.871   5.571   0.053
 1597SOL     OW 5689   2.205   0.163   0.325
 1597SOL    HW1 5690   2.137   0.090   0.332
 1597SOL    HW2 5691   2.293   0.124   0.297
 1598SOL     OW 5692   6.624   5.347   1.318
 1598SOL    HW1 5693   6.589   5.295   1.396
 1598SOL    HW2 5694   6.653   5.438   1.349
 1599SOL     OW 5695   2.927   5.140   0.229
 1599SOL    HW1 5696   2.934   5.166   0.133
 1599SOL    HW2 5697   2.937   5.222   0.286
 1600SOL     OW 5698   3.093   1.200   5.363
 1600SOL    HW1 5699   3.128   1.106   5.367
 1600SOL    HW2 5700   3.142   1.251   5.293
 1601SOL     OW 5701   1.451   5.118   4.940
 1601SOL    HW1 5702   1.423   5.123   5.036
 1601SOL    HW2 5703   1.540   5.164   4.929
 1602SOL     OW 5704   0.712   3.735   2.231
 1602SOL    HW1 5705   0.676   3.825   2.255
 1602SOL    HW2 5706   0.658   3.664   2.277
 1603SOL     OW 5707   5.684   6.661   0.697
 1603SOL    HW1 5708   5.718   6.660   0.791
 1603SOL    HW2 5709   5.714   6.579   0.649
 1604SOL     OW 5710   0.579   5.610   4.997
 1604SOL    HW1 5711   0.608   5.663   5.077
 1604SOL    HW2 5712   0.656   5.557   4.962
 1605SOL     OW 5713   5.307   6.010   2.858
 1605SOL    HW1 5714   5.267   5.936   2.911
 1605SOL    HW2 5715   5.385   6.049   2.908
 1606SOL     OW 5716   5.629   6.099   5.046
 1606SOL    HW1 5717   5.698   6.159   5.007
 1606SOL    HW2 5718   5.670   6.039   5.114
 1607SOL     OW 5719   4.567   3.099   1.032
 1607SOL    HW1 5720   4.667   3.103   1.037
 1607SOL    HW2 5721   4.528   3.149   1.109
 1608SOL     OW 5722   2.810   0.886   0.457
 1608SOL    HW1 5723   2.773   0.932   0.376
 1608SOL    HW2 5724   2.742   0.888   0.530
 1609SOL     OW 5725   5.175   0.829   5.552
 1609SOL    HW1 5726   5.182   0.749   5.492
 1609SOL    HW2 5727   5.158   0.911   5.497
 1610SOL     OW 5728   5.146   6.338   2.923
 1610SOL    HW1 5729   5.120   6.373   3.013
 1610SOL    HW2 5730   5.089   6.260   2.900
 1611SOL     OW 5731   4.219   2.849   1.610
 1611SOL    HW1 5732   4.130   2.804   1.606
 1611SOL    HW2 5733   4.215   2.935   1.559
 1612SOL     OW 5734   3.579   1.009   4.549
 1612SOL    HW1 5735   3.583   0.924   4.601
 1612SOL    HW2 5736   3.639   1.077   4.591
 1613SOL     OW 5737   1.717   0.260   0.677
 1613SOL    HW1 5738   1.796   0.313   0.707
 1613SOL    HW2 5739   1.717   0.172   0.725
 1614SOL     OW 5740   0.406   2.321   5.513
 1614SOL    HW1 5741   0.359   2.233   5.518
 1614SOL    HW2 5742   0.442   2.345   5.604
 1615SOL     OW 5743   6.380   4.679   5.656
 1615SOL    HW1 5744   6.472   4.671   5.693
 1615SOL    HW2 5745   6.377   4.753   5.588
 1616SOL     OW 5746   2.523   2.121   6.198
 1616SOL    HW1 5747   2.451   2.181   6.164
 1616SOL    HW2 5748   2.530   2.041   6.139
 1617SOL     OW 5749   4.073   0.313   4.203
 1617SOL    HW1 5750   4.161   0.296   4.160
 1617SOL    HW2 5751   4.063   0.253   4.283
 1618SOL     OW 5752   5.461   2.522   2.041
 1618SOL    HW1 5753   5.386   2.478   1.992
 1618SOL    HW2 5754   5.427   2.602   2.089
 1619SOL     OW 5755   1.936   2.829   4.450
 1619SOL    HW1 5756   1.941   2.770   4.370
 1619SOL    HW2 5757   1.895   2.916   4.425
 1620SOL     OW 5758   3.695   5.958   1.666
 1620SOL    HW1 5759   3.706   5.878   1.725
 1620SOL    HW2 5760   3.670   6.037   1.722
 1621SOL     OW 5761   1.864   1.748   2.047
 1621SOL    HW1 5762   1.951   1.779   2.085
 1621SOL    HW2 5763   1.862   1.767   1.948
 1622SOL     OW 5764   2.272   2.410   4.750
 1622SOL    HW1 5765   2.313   2.392   4.839
 1622SOL    HW2 5766   2.197   2.476   4.760
 1623SOL     OW 5767   2.200   1.944   4.574
 1623SOL    HW1 5768   2.228   2.040   4.585
 1623SOL    HW2 5769   2.260   1.886   4.629
 1624SOL     OW 5770   2.337   1.075   0.782
 1624SOL    HW1 5771   2.422   1.072   0.835
 1624SOL    HW2 5772   2.293   0.985   0.785
 1625SOL     OW 5773   0.734   6.050   1.459
 1625SOL    HW1 5774   0.812   6.037   1.521
 1625SOL    HW2 5775   0.715   5.964   1.411
 1626SOL     OW 5776   2.267   2.877   5.946
 1626SOL    HW1 5777   2.221   2.902   5.861
 1626SOL    HW2 5778   2.342   2.940   5.963
 1627SOL     OW 5779   4.919   3.438   3.925
 1627SOL    HW1 5780   4.908   3.484   3.837
 1627SOL    HW2 5781   4.872   3.492   3.996
 1628SOL     OW 5782   2.670   3.491   0.137
 1628SOL    HW1 5783   2.735   3.419   0.112
 1628SOL    HW2 5784   2.599   3.496   0.067
 1629SOL     OW 5785   3.217   2.140   2.690
 1629SOL    HW1 5786   3.265   2.124   2.777
 1629SOL    HW2 5787   3.192   2.053   2.650
 1630SOL     OW 5788   6.212   4.873   4.568
 1630SOL    HW1 5789   6.160   4.916   4.494
 1630SOL    HW2 5790   6.198   4.774   4.565
 1631SOL     OW 5791   0.655   6.977   5.569
 1631SOL    HW1 5792   0.562   6.975   5.532
 1631SOL    HW2 5793   0.658   0.012   5.648
 1632SOL     OW 5794   4.711   6.807   0.195
 1632SOL    HW1 5795   4.716   6.901   0.160
 1632SOL    HW2 5796   4.802   6.779   0.225
 1633SOL     OW 5797   6.116   3.570   3.451
 1633SOL    HW1 5798   6.135   3.611   3.361
 1633SOL    HW2 5799   6.187   3.504   3.473
 1634SOL     OW 5800   4.253   0.837   1.012
 1634SOL    HW1 5801   4.281   0.897   1.086
 1634SOL    HW2 5802   4.171   0.787   1.039
 1635SOL     OW 5803   1.019   4.841   3.711
 1635SOL    HW1 5804   1.014   4.741   3.712
 1635SOL    HW2 5805   1.008   4.874   3.617
 1636SOL     OW 5806   2.425   6.452   0.192
 1636SOL    HW1 5807   2.524   6.468   0.186
 1636SOL    HW2 5808   2.407   6.376   0.254
 1637SOL     OW 5809   0.828   2.453   2.802
 1637SOL    HW1 5810   0.902   2.514   2.828
 1637SOL    HW2 5811   0.807   2.466   2.705
 1638SOL     OW 5812   1.318   2.518   5.765
 1638SOL    HW1 5813   1.406   2.564   5.748
 1638SOL    HW2 5814   1.246   2.563   5.712
 1639SOL     OW 5815   4.232   5.132   2.738
 1639SOL    HW1 5816   4.261   5.052   2.687
 1639SOL    HW2 5817   4.133   5.133   2.747
 1640SOL     OW 5818   5.501   0.412   0.910
 1640SOL    HW1 5819   5.555   0.496   0.908
 1640SOL    HW2 5820   5.479   0.386   0.816
 1641SOL     OW 5821   6.682   3.100   5.185
 1641SOL    HW1 5822   6.733   3.136   5.263
 1641SOL    HW2 5823   6.586   3.089   5.211
 1642SOL     OW 5824   0.680   2.468   1.404
 1642SOL    HW1 5825   0.719   2.524   1.476
 1642SOL    HW2 5826   0.601   2.418   1.439
 1643SOL     OW 5827   3.873   0.902   5.728
 1643SOL    HW1 5828   3.787   0.869   5.766
 1643SOL    HW2 5829   3.871   1.002   5.722
 1644SOL     OW 5830   4.087   0.953   0.530
 1644SOL    HW1 5831   4.064   0.874   0.588
 1644SOL    HW2 5832   4.040   0.944   0.442
 1645SOL     OW 5833   1.876   6.573   6.173
 1645SOL    HW1 5834   1.800   6.513   6.198
 1645SOL    HW2 5835   1.910   6.549   6.082
 1646SOL     OW 5836   1.666   3.772   0.346
 1646SOL    HW1 5837   1.588   3.734   0.396
 1646SOL    HW2 5838   1.737   3.799   0.411
 1647SOL     OW 5839   5.728   2.809   2.633
 1647SOL    HW1 5840   5.753   2.833   2.539
 1647SOL    HW2 5841   5.790   2.739   2.668
 1648SOL     OW 5842   3.792   6.820   2.589
 1648SOL    HW1 5843   3.881   6.859   2.563
 1648SOL    HW2 5844   3.729   6.826   2.512
 1649SOL     OW 5845   2.508   0.216   3.017
 1649SOL    HW1 5846   2.578   0.174   2.959
 1649SOL    HW2 5847   2.418   0.204   2.974
 1650SOL     OW 5848   3.113   6.939   3.804
 1650SOL    HW1 5849   3.142   0.008   3.801
 1650SOL    HW2 5850   3.154   6.889   3.729
 1651SOL     OW 5851   1.443   0.567   1.772
 1651SOL    HW1 5852   1.348   0.580   1.744
 1651SOL    HW2 5853   1.458   0.472   1.798
 1652SOL     OW 5854   2.874   3.165   1.900
 1652SOL    HW1 5855   2.838   3.255   1.872
 1652SOL    HW2 5856   2.818   3.093   1.859
 1653SOL     OW 5857   1.618   5.072   0.846
 1653SOL    HW1 5858   1.562   4.999   0.885
 1653SOL    HW2 5859   1.587   5.091   0.753
 1654SOL     OW 5860   0.495   1.788   3.567
 1654SOL    HW1 5861   0.580   1.832   3.599
 1654SOL    HW2 5862   0.444   1.754   3.646
 1655SOL     OW 5863   4.762   4.261   5.618
 1655SOL    HW1 5864   4.764   4.333   5.687
 1655SOL    HW2 5865   4.739   4.173   5.661
 1656SOL     OW 5866   0.248   3.778   2.452
 1656SOL    HW1 5867   0.313   3.724   2.398
 1656SOL    HW2 5868   0.259   3.875   2.431
 1657SOL     OW 5869   1.100   0.362   5.063
 1657SOL    HW1 5870   1.184   0.334   5.109
 1657SOL    HW2 5871   1.122   0.403   4.974
 1658SOL     OW 5872   6.516   6.374   2.762
 1658SOL    HW1 5873   6.572   6.440   2.712
 1658SOL    HW2 5874   6.573   6.298   2.793
 1659SOL     OW 5875   5.078   1.999   6.519
 1659SOL    HW1 5876   5.122   2.075   6.568
 1659SOL    HW2 5877   5.047   1.931   6.585
 1660SOL     OW 5878   2.576   6.314   3.072
 1660SOL    HW1 5879   2.670   6.283   3.058
 1660SOL    HW2 5880   2.550   6.300   3.168
 1661SOL     OW 5881   3.160   0.492   3.062
 1661SOL    HW1 5882   3.218   0.411   3.066
 1661SOL    HW2 5883   3.102   0.496   3.144
 1662SOL     OW 5884   6.403   1.077   2.918
 1662SOL    HW1 5885   6.424   1.151   2.855
 1662SOL    HW2 5886   6.311   1.089   2.954
 1663SOL     OW 5887   1.928   0.327   3.755
 1663SOL    HW1 5888   1.864   0.400   3.780
 1663SOL    HW2 5889   2.019   0.366   3.739
 1664SOL     OW 5890   2.388   5.372   4.749
 1664SOL    HW1 5891   2.391   5.272   4.756
 1664SOL    HW2 5892   2.295   5.400   4.724
 1665SOL     OW 5893   1.103   0.759   3.607
 1665SOL    HW1 5894   1.148   0.683   3.654
 1665SOL    HW2 5895   1.005   0.755   3.625
 1666SOL     OW 5896   5.703   2.992   6.190
 1666SOL    HW1 5897   5.798   3.011   6.214
 1666SOL    HW2 5898   5.672   2.909   6.238
 1667SOL     OW 5899   6.817   0.975   0.058
 1667SOL    HW1 5900   6.904   1.025   0.060
 1667SOL    HW2 5901   6.761   1.002   0.136
 1668SOL     OW 5902   1.822   0.429   5.044
 1668SOL    HW1 5903   1.804   0.527   5.039
 1668SOL    HW2 5904   1.840   0.394   4.952
 1669SOL     OW 5905   5.917   5.973   6.263
 1669SOL    HW1 5906   5.904   5.905   6.334
 1669SOL    HW2 5907   5.992   6.034   6.287
 1670SOL     OW 5908   6.490   3.504   6.702
 1670SOL    HW1 5909   6.458   3.586   6.655
 1670SOL    HW2 5910   6.418   3.469   6.762
 1671SOL     OW 5911   5.699   5.172   0.350
 1671SOL    HW1 5912   5.764   5.242   0.319
 1671SOL    HW2 5913   5.703   5.166   0.450
 1672SOL     OW 5914   1.988   5.292   2.287
 1672SOL    HW1 5915   2.029   5.296   2.378
 1672SOL    HW2 5916   2.046   5.341   2.222
 1673SOL     OW 5917   6.391   2.604   3.356
 1673SOL    HW1 5918   6.479   2.596   3.403
 1673SOL    HW2 5919   6.403   2.652   3.270
 1674SOL     OW 5920   2.231   5.815   6.774
 1674SOL    HW1 5921   2.235   5.908   6.738
 1674SOL    HW2 5922   2.178   5.814   6.859
 1675SOL     OW 5923   4.505   2.192   0.431
 1675SOL    HW1 5924   4.559   2.270   0.461
 1675SOL    HW2 5925   4.429   2.177   0.494
 1676SOL     OW 5926   2.777   1.036   4.074
 1676SOL    HW1 5927   2.759   1.026   4.172
 1676SOL    HW2 5928   2.867   0.999   4.052
 1677SOL     OW 5929   6.039   0.508   5.534
 1677SOL    HW1 5930   5.985   0.526   5.616
 1677SOL    HW2 5931   6.120   0.455   5.558
 1678SOL     OW 5932   4.806   0.420   1.781
 1678SOL    HW1 5933   4.890   0.426   1.727
 1678SOL    HW2 5934   4.777   0.325   1.787
 1679SOL     OW 5935   5.311   4.383   0.192
 1679SOL    HW1 5936   5.368   4.374   0.111
 1679SOL    HW2 5937   5.260   4.469   0.188
 1680SOL     OW 5938   1.239   2.345   5.109
 1680SOL    HW1 5939   1.265   2.339   5.206
 1680SOL    HW2 5940   1.321   2.349   5.052
 1681SOL     OW 5941   4.655   5.402   0.303
 1681SOL    HW1 5942   4.684   5.310   0.273
 1681SOL    HW2 5943   4.715   5.434   0.376
 1682SOL     OW 5944   6.687   3.425   5.250
 1682SOL    HW1 5945   6.627   3.470   5.317
 1682SOL    HW2 5946   6.720   3.338   5.287
 1683SOL     OW 5947   5.440   5.524   6.133
 1683SOL    HW1 5948   5.419   5.614   6.094
 1683SOL    HW2 5949   5.355   5.474   6.149
 1684SOL     OW 5950   0.465   6.589   4.054
 1684SOL    HW1 5951   0.431   6.662   3.995
 1684SOL    HW2 5952   0.562   6.574   4.036
 1685SOL     OW 5953   1.232   1.674   0.487
 1685SOL    HW1 5954   1.161   1.700   0.552
 1685SOL    HW2 5955   1.188   1.644   0.402
 1686SOL     OW 5956   2.433   6.472   6.564
 1686SOL    HW1 5957   2.471   6.387   6.527
 1686SOL    HW2 5958   2.504   6.542   6.567
 1687SOL     OW 5959   2.472   6.270   2.274
 1687SOL    HW1 5960   2.521   6.250   2.189
 1687SOL    HW2 5961   2.381   6.228   2.270
 1688SOL     OW 5962   0.674   1.130   3.314
 1688SOL    HW1 5963   0.682   1.080   3.228
 1688SOL    HW2 5964   0.697   1.070   3.390
 1689SOL     OW 5965   3.331   1.794   2.056
 1689SOL    HW1 5966   3.324   1.872   2.118
 1689SOL    HW2 5967   3.288   1.816   1.969
 1690SOL     OW 5968   1.123   2.494   0.699
 1690SOL    HW1 5969   1.030   2.506   0.664
 1690SOL    HW2 5970   1.188   2.497   0.624
 1691SOL     OW 5971   4.088   5.043   2.481
 1691SOL    HW1 5972   4.061   5.012   2.390
 1691SOL    HW2 5973   4.175   5.001   2.505
 1692SOL     OW 5974   1.614   6.914   3.296
 1692SOL    HW1 5975   1.551   6.987   3.322
 1692SOL    HW2 5976   1.575   6.861   3.221
 1693SOL     OW 5977   3.479   1.578   3.877
 1693SOL    HW1 5978   3.530   1.619   3.801
 1693SOL    HW2 5979   3.541   1.526   3.935
 1694SOL     OW 5980   5.790   5.802   5.453
 1694SOL    HW1 5981   5.719   5.870   5.472
 1694SOL    HW2 5982   5.868   5.818   5.513
 1695SOL     OW 5983   3.916   1.356   6.239
 1695SOL    HW1 5984   4.007   1.326   6.210
 1695SOL    HW2 5985   3.855   1.360   6.160
 1696SOL     OW 5986   3.031   5.831   2.114
 1696SOL    HW1 5987   3.083   5.888   2.050
 1696SOL    HW2 5988   2.945   5.803   2.072
 1697SOL     OW 5989   1.106   2.051   1.651
 1697SOL    HW1 5990   1.013   2.035   1.681
 1697SOL    HW2 5991   1.108   2.132   1.591
 1698SOL     OW 5992   4.960   2.280   0.794
 1698SOL    HW1 5993   4.924   2.201   0.844
 1698SOL    HW2 5994   4.901   2.359   0.809
 1699SOL     OW 5995   2.497   4.825   0.641
 1699SOL    HW1 5996   2.524   4.741   0.688
 1699SOL    HW2 5997   2.425   4.805   0.574
 1700SOL     OW 5998   6.444   2.384   4.641
 1700SOL    HW1 5999   6.466   2.476   4.674
 1700SOL    HW2 6000   6.527   2.342   4.604
 1701SOL     OW 6001   6.242   3.081   5.017
 1701SOL    HW1 6002   6.151   3.040   5.013
 1701SOL    HW2 6003   6.303   3.033   4.954
 1702SOL     OW 6004   4.669   2.748   1.907
 1702SOL    HW1 6005   4.598   2.739   1.837
 1702SOL    HW2 6006   4.669   2.842   1.941
 1703SOL     OW 6007   1.678   3.814   0.075
 1703SOL    HW1 6008   1.662   3.778   0.166
 1703SOL    HW2 6009   1.600   3.869   0.046
 1704SOL     OW 6010   0.074   1.097   2.003
 1704SOL    HW1 6011   0.107   1.177   2.053
 1704SOL    HW2 6012   0.150   1.033   1.989
 1705SOL     OW 6013   4.008   3.071   2.833
 1705SOL    HW1 6014   4.051   3.085   2.744
 1705SOL    HW2 6015   3.914   3.039   2.819
 1706SOL     OW 6016   2.547   0.551   6.687
 1706SOL    HW1 6017   2.501   0.462   6.678
 1706SOL    HW2 6018   2.625   0.554   6.624
 1707SOL     OW 6019   5.055   1.282   2.731
 1707SOL    HW1 6020   5.038   1.294   2.633
 1707SOL    HW2 6021   5.100   1.195   2.747
 1708SOL     OW 6022   0.102   4.554   1.424
 1708SOL    HW1 6023   0.144   4.467   1.452
 1708SOL    HW2 6024   0.017   4.536   1.375
 1709SOL     OW 6025   2.467   5.283   5.100
 1709SOL    HW1 6026   2.489   5.295   5.197
 1709SOL    HW2 6027   2.544   5.315   5.045
 1710SOL     OW 6028   6.816   5.334   4.193
 1710SOL    HW1 6029   6.900   5.388   4.203
 1710SOL    HW2 6030   6.777   5.316   4.283
 1711SOL     OW 6031   1.574   4.143   5.285
 1711SOL    HW1 6032   1.648   4.209   5.300
 1711SOL    HW2 6033   1.566   4.123   5.188
 1712SOL     OW 6034   2.143   4.806   1.545
 1712SOL    HW1 6035   2.240   4.809   1.520
 1712SOL    HW2 6036   2.093   4.876   1.494
 1713SOL     OW 6037   1.844   3.235   0.768
 1713SOL    HW1 6038   1.913   3.265   0.702
 1713SOL    HW2 6039   1.880   3.159   0.822
 1714SOL     OW 6040   4.073   1.047   1.602
 1714SOL    HW1 6041   4.130   1.062   1.521
 1714SOL    HW2 6042   4.119   1.083   1.683
 1715SOL     OW 6043   0.441   3.076   3.705
 1715SOL    HW1 6044   0.420   3.030   3.792
 1715SOL    HW2 6045   0.519   3.031   3.662
 1716SOL     OW 6046   0.301   0.337   6.778
 1716SOL    HW1 6047   0.307   0.272   6.702
 1716SOL    HW2 6048   0.381   0.398   6.776
 1717SOL     OW 6049   3.306   0.057   6.833
 1717SOL    HW1 6050   3.392   0.079   6.879
 1717SOL    HW2 6051   3.238   0.128   6.852
 1718SOL     OW 6052   1.726   4.538   5.374
 1718SOL    HW1 6053   1.766   4.458   5.330
 1718SOL    HW2 6054   1.636   4.514   5.412
 1719SOL     OW 6055   2.100   3.659   1.467
 1719SOL    HW1 6056   2.198   3.647   1.478
 1719SOL    HW2 6057   2.065   3.589   1.404
 1720SOL     OW 6058   6.641   1.788   2.226
 1720SOL    HW1 6059   6.736   1.792   2.256
 1720SOL    HW2 6060   6.632   1.832   2.136
 1721SOL     OW 6061   1.562   6.238   4.397
 1721SOL    HW1 6062   1.608   6.321   4.364
 1721SOL    HW2 6063   1.574   6.164   4.331
 1722SOL     OW 6064   5.553   0.256   1.802
 1722SOL    HW1 6065   5.579   0.203   1.883
 1722SOL    HW2 6066   5.621   0.242   1.730
 1723SOL     OW 6067   5.834   1.057   2.601
 1723SOL    HW1 6068   5.874   1.084   2.688
 1723SOL    HW2 6069   5.823   0.957   2.598
 1724SOL     OW 6070   5.309   0.183   0.197
 1724SOL    HW1 6071   5.340   0.172   0.103
 1724SOL    HW2 6072   5.229   0.124   0.212
 1725SOL     OW 6073   3.616   5.556   2.018
 1725SOL    HW1 6074   3.599   5.471   1.968
 1725SOL    HW2 6075   3.621   5.536   2.116
 1726SOL     OW 6076   6.699   3.669   4.620
 1726SOL    HW1 6077   6.797   3.650   4.616
 1726SOL    HW2 6078   6.666   3.651   4.713
 1727SOL     OW 6079   2.723   3.437   5.286
 1727SOL    HW1 6080   2.739   3.535   5.277
 1727SOL    HW2 6081   2.771   3.388   5.213
 1728SOL     OW 6082   4.155   5.125   3.518
 1728SOL    HW1 6083   4.159   5.029   3.545
 1728SOL    HW2 6084   4.204   5.181   3.585
 1729SOL     OW 6085   1.507   3.624   2.293
 1729SOL    HW1 6086   1.548   3.605   2.204
 1729SOL    HW2 6087   1.424   3.678   2.281
 1730SOL     OW 6088   5.626   2.120   4.870
 1730SOL    HW1 6089   5.577   2.096   4.786
 1730SOL    HW2 6090   5.674   2.040   4.904
 1731SOL     OW 6091   6.982   6.728   0.641
 1731SOL    HW1 6092   6.883   6.738   0.648
 1731SOL    HW2 6093   7.019   6.697   0.729
 1732SOL     OW 6094   0.607   4.607   6.888
 1732SOL    HW1 6095   0.667   4.586   6.811
 1732SOL    HW2 6096   0.544   4.531   6.904
 1733SOL     OW 6097   1.070   4.048   6.959
 1733SOL    HW1 6098   1.076   3.987   6.881
 1733SOL    HW2 6099   1.037   3.998   0.012
 1734SOL     OW 6100   5.019   3.874   1.452
 1734SOL    HW1 6101   4.943   3.837   1.505
 1734SOL    HW2 6102   5.080   3.799   1.425
 1735SOL     OW 6103   4.956   5.582   0.248
 1735SOL    HW1 6104   4.989   5.513   0.183
 1735SOL    HW2 6105   4.999   5.565   0.337
 1736SOL     OW 6106   3.059   3.546   0.182
 1736SOL    HW1 6107   3.095   3.514   0.270
 1736SOL    HW2 6108   2.977   3.494   0.158
 1737SOL     OW 6109   0.685   5.465   3.317
 1737SOL    HW1 6110   0.712   5.561   3.307
 1737SOL    HW2 6111   0.747   5.420   3.381
 1738SOL     OW 6112   1.069   1.463   1.886
 1738SOL    HW1 6113   1.051   1.520   1.966
 1738SOL    HW2 6114   1.168   1.461   1.868
 1739SOL     OW 6115   4.188   2.535   6.167
 1739SOL    HW1 6116   4.147   2.444   6.169
 1739SOL    HW2 6117   4.206   2.565   6.261
 1740SOL     OW 6118   0.845   1.251   5.533
 1740SOL    HW1 6119   0.882   1.338   5.502
 1740SOL    HW2 6120   0.752   1.264   5.568
 1741SOL     OW 6121   2.192   1.238   2.305
 1741SOL    HW1 6122   2.204   1.142   2.279
 1741SOL    HW2 6123   2.224   1.296   2.231
 1742SOL     OW 6124   5.868   6.407   4.054
 1742SOL    HW1 6125   5.834   6.495   4.022
 1742SOL    HW2 6126   5.967   6.414   4.070
 1743SOL     OW 6127   4.942   1.038   0.634
 1743SOL    HW1 6128   4.844   1.037   0.650
 1743SOL    HW2 6129   4.988   0.977   0.699
 1744SOL     OW 6130   3.141   6.014   1.901
 1744SOL    HW1 6131   3.217   6.024   1.837
 1744SOL    HW2 6132   3.063   6.066   1.867
 1745SOL     OW 6133   6.911   3.520   5.116
 1745SOL    HW1 6134   6.998   3.545   5.157
 1745SOL    HW2 6135   6.852   3.478   5.185
 1746SOL     OW 6136   2.439   1.080   5.818
 1746SOL    HW1 6137   2.507   1.124   5.758
 1746SOL    HW2 6138   2.448   1.118   5.910
 1747SOL     OW 6139   5.134   6.631   5.544
 1747SOL    HW1 6140   5.221   6.584   5.525
 1747SOL    HW2 6141   5.133   6.664   5.638
 1748SOL     OW 6142   5.720   1.253   1.373
 1748SOL    HW1 6143   5.653   1.184   1.345
 1748SOL    HW2 6144   5.753   1.303   1.292
 1749SOL     OW 6145   4.701   6.985   5.936
 1749SOL    HW1 6146   4.778   0.003   5.980
 1749SOL    HW2 6147   4.622   6.985   5.997
 1750SOL     OW 6148   4.762   0.135   4.451
 1750SOL    HW1 6149   4.796   0.218   4.405
 1750SOL    HW2 6150   4.744   0.155   4.547
 1751SOL     OW 6151   1.968   5.960   4.163
 1751SOL    HW1 6152   1.874   5.975   4.136
 1751SOL    HW2 6153   2.012   5.897   4.099
 1752SOL     OW 6154   6.761   2.040   6.229
 1752SOL    HW1 6155   6.785   2.111   6.162
 1752SOL    HW2 6156   6.845   2.000   6.266
 1753SOL     OW 6157   2.788   6.463   2.415
 1753SOL    HW1 6158   2.697   6.500   2.397
 1753SOL    HW2 6159   2.780   6.376   2.463
 1754SOL     OW 6160   3.463   2.961   1.902
 1754SOL    HW1 6161   3.397   2.931   1.833
 1754SOL    HW2 6162   3.555   2.932   1.875
 1755SOL     OW 6163   6.206   4.380   0.482
 1755SOL    HW1 6164   6.224   4.477   0.469
 1755SOL    HW2 6165   6.271   4.342   0.548
 1756SOL     OW 6166   5.657   5.449   4.560
 1756SOL    HW1 6167   5.658   5.539   4.604
 1756SOL    HW2 6168   5.603   5.453   4.476
 1757SOL     OW 6169   3.545   0.676   5.388
 1757SOL    HW1 6170   3.558   0.710   5.481
 1757SOL    HW2 6171   3.625   0.698   5.332
 1758SOL     OW 6172   3.005   1.813   3.427
 1758SOL    HW1 6173   3.008   1.753   3.507
 1758SOL    HW2 6174   2.996   1.758   3.344
 1759SOL     OW 6175   0.688   5.324   6.231
 1759SOL    HW1 6176   0.702   5.422   6.215
 1759SOL    HW2 6177   0.599   5.310   6.274
 1760SOL     OW 6178   4.586   0.026   2.247
 1760SOL    HW1 6179   4.621   0.088   2.176
 1760SOL    HW2 6180   4.662   7.022   2.304
 1761SOL     OW 6181   5.934   3.105   1.501
 1761SOL    HW1 6182   5.997   3.105   1.578
 1761SOL    HW2 6183   5.858   3.043   1.519
 1762SOL     OW 6184   5.548   2.912   0.552
 1762SOL    HW1 6185   5.479   2.840   0.558
 1762SOL    HW2 6186   5.628   2.886   0.606
 1763SOL     OW 6187   2.271   2.905   3.927
 1763SOL    HW1 6188   2.296   2.916   3.831
 1763SOL    HW2 6189   2.235   2.992   3.962
 1764SOL     OW 6190   6.552   3.283   4.358
 1764SOL    HW1 6191   6.456   3.253   4.356
 1764SOL    HW2 6192   6.606   3.224   4.298
 1765SOL     OW 6193   2.317   3.774   6.068
 1765SOL    HW1 6194   2.244   3.767   6.000
 1765SOL    HW2 6195   2.287   3.832   6.143
 1766SOL     OW 6196   5.872   3.285   6.057
 1766SOL    HW1 6197   5.968   3.258   6.053
 1766SOL    HW2 6198   5.858   3.349   6.133
 1767SOL     OW 6199   6.420   4.646   1.766
 1767SOL    HW1 6200   6.520   4.640   1.770
 1767SOL    HW2 6201   6.389   4.617   1.675
 1768SOL     OW 6202   6.355   6.823   3.324
 1768SOL    HW1 6203   6.310   6.841   3.412
 1768SOL    HW2 6204   6.288   6.794   3.257
 1769SOL     OW 6205   5.091   0.809   3.577
 1769SOL    HW1 6206   5.116   0.765   3.491
 1769SOL    HW2 6207   5.016   0.759   3.620
 1770SOL     OW 6208   3.572   5.702   5.306
 1770SOL    HW1 6209   3.652   5.761   5.302
 1770SOL    HW2 6210   3.494   5.752   5.344
 1771SOL     OW 6211   4.521   6.699   6.638
 1771SOL    HW1 6212   4.558   6.619   6.685
 1771SOL    HW2 6213   4.473   6.756   6.704
 1772SOL     OW 6214   3.141   6.078   3.097
 1772SOL    HW1 6215   3.045   6.074   3.070
 1772SOL    HW2 6216   3.147   6.103   3.194
 1773SOL     OW 6217   0.883   0.129   0.450
 1773SOL    HW1 6218   0.874   0.031   0.429
 1773SOL    HW2 6219   0.974   0.147   0.488
 1774SOL     OW 6220   2.572   4.778   2.801
 1774SOL    HW1 6221   2.615   4.810   2.886
 1774SOL    HW2 6222   2.528   4.855   2.755
 1775SOL     OW 6223   0.898   4.236   1.367
 1775SOL    HW1 6224   0.934   4.228   1.273
 1775SOL    HW2 6225   0.973   4.262   1.428
 1776SOL     OW 6226   3.051   6.596   5.612
 1776SOL    HW1 6227   2.966   6.605   5.665
 1776SOL    HW2 6228   3.091   6.506   5.629
 1777SOL     OW 6229   3.247   6.416   0.458
 1777SOL    HW1 6230   3.170   6.370   0.413
 1777SOL    HW2 6231   3.333   6.380   0.422
 1778SOL     OW 6232   6.977   3.318   5.693
 1778SOL    HW1 6233   7.023   3.330   5.781
 1778SOL    HW2 6234   6.956   3.221   5.680
 1779SOL     OW 6235   3.899   0.430   5.844
 1779SOL    HW1 6236   3.813   0.448   5.796
 1779SOL    HW2 6237   3.881   0.422   5.942
 1780SOL     OW 6238   2.812   3.472   6.701
 1780SOL    HW1 6239   2.747   3.511   6.637
 1780SOL    HW2 6240   2.872   3.544   6.736
 1781SOL     OW 6241   3.238   5.533   3.797
 1781SOL    HW1 6242   3.303   5.529   3.721
 1781SOL    HW2 6243   3.164   5.468   3.781
 1782SOL     OW 6244   3.138   1.756   4.474
 1782SOL    HW1 6245   3.071   1.696   4.517
 1782SOL    HW2 6246   3.130   1.750   4.375
 1783SOL     OW 6247   1.881   6.046   6.479
 1783SOL    HW1 6248   1.935   6.017   6.401
 1783SOL    HW2 6249   1.808   5.979   6.496
 1784SOL     OW 6250   3.267   0.541   6.188
 1784SOL    HW1 6251   3.365   0.561   6.191
 1784SOL    HW2 6252   3.231   0.562   6.097
 1785SOL     OW 6253   6.704   5.106   1.681
 1785SOL    HW1 6254   6.667   5.029   1.733
 1785SOL    HW2 6255   6.719   5.184   1.743
 1786SOL     OW 6256   4.078   2.397   1.426
 1786SOL    HW1 6257   4.005   2.373   1.362
 1786SOL    HW2 6258   4.151   2.446   1.378
 1787SOL     OW 6259   3.736   0.922   5.442
 1787SOL    HW1 6260   3.674   0.886   5.512
 1787SOL    HW2 6261   3.729   0.866   5.359
 1788SOL     OW 6262   1.526   4.810   5.867
 1788SOL    HW1 6263   1.530   4.787   5.770
 1788SOL    HW2 6264   1.437   4.784   5.904
 1789SOL     OW 6265   5.795   0.256   0.338
 1789SOL    HW1 6266   5.758   0.215   0.254
 1789SOL    HW2 6267   5.822   0.350   0.320
 1790SOL     OW 6268   3.007   6.701   2.895
 1790SOL    HW1 6269   3.094   6.708   2.943
 1790SOL    HW2 6270   3.018   6.645   2.813
 1791SOL     OW 6271   0.140   6.510   2.629
 1791SOL    HW1 6272   0.094   6.431   2.588
 1791SOL    HW2 6273   0.173   6.571   2.557
 1792SOL     OW 6274   1.352   3.657   4.347
 1792SOL    HW1 6275   1.343   3.732   4.282
 1792SOL    HW2 6276   1.425   3.596   4.318
 1793SOL     OW 6277   6.899   0.724   3.364
 1793SOL    HW1 6278   6.944   0.813   3.370
 1793SOL    HW2 6279   6.948   0.657   3.420
 1794SOL     OW 6280   4.298   5.316   6.395
 1794SOL    HW1 6281   4.374   5.374   6.425
 1794SOL    HW2 6282   4.231   5.372   6.345
 1795SOL     OW 6283   0.637   2.891   6.993
 1795SOL    HW1 6284   0.586   2.874   0.050
 1795SOL    HW2 6285   0.616   2.819   6.927
 1796SOL     OW 6286   3.946   0.888   6.081
 1796SOL    HW1 6287   3.861   0.837   6.068
 1796SOL    HW2 6288   3.996   0.852   6.159
 1797SOL     OW 6289   0.584   1.005   1.390
 1797SOL    HW1 6290   0.652   1.013   1.316
 1797SOL    HW2 6291   0.499   0.967   1.353
 1798SOL     OW 6292   5.626   1.794   3.335
 1798SOL    HW1 6293   5.665   1.844   3.257
 1798SOL    HW2 6294   5.536   1.759   3.310
 1799SOL     OW 6295   2.265   2.083   0.260
 1799SOL    HW1 6296   2.285   1.993   0.297
 1799SOL    HW2 6297   2.306   2.091   0.169
 1800SOL     OW 6298   3.044   4.929   2.716
 1800SOL    HW1 6299   3.134   4.958   2.748
 1800SOL    HW2 6300   2.998   4.878   2.789
 1801SOL     OW 6301   5.466   6.835   0.638
 1801SOL    HW1 6302   5.494   6.911   0.696
 1801SOL    HW2 6303   5.530   6.759   0.649
 1802SOL     OW 6304   5.993   4.981   3.529
 1802SOL    HW1 6305   5.974   4.898   3.476
 1802SOL    HW2 6306   5.914   5.043   3.524
 1803SOL     OW 6307   5.429   5.080   1.246
 1803SOL    HW1 6308   5.517   5.069   1.292
 1803SOL    HW2 6309   5.438   5.050   1.151
 1804SOL     OW 6310   3.206   3.544   5.913
 1804SOL    HW1 6311   3.121   3.563   5.864
 1804SOL    HW2 6312   3.219   3.445   5.921
 1805SOL     OW 6313   5.730   3.281   6.576
 1805SOL    HW1 6314   5.656   3.219   6.602
 1805SOL    HW2 6315   5.808   3.227   6.544
 1806SOL     OW 6316   0.049   0.566   0.406
 1806SOL    HW1 6317   7.011   0.641   0.397
 1806SOL    HW2 6318   0.108   0.563   0.325
 1807SOL     OW 6319   6.362   2.179   5.672
 1807SOL    HW1 6320   6.409   2.091   5.684
 1807SOL    HW2 6321   6.321   2.206   5.760
 1808SOL     OW 6322   2.016   4.624   4.148
 1808SOL    HW1 6323   1.947   4.692   4.123
 1808SOL    HW2 6324   2.061   4.651   4.233
 1809SOL     OW 6325   3.772   0.737   6.354
 1809SOL    HW1 6326   3.761   0.638   6.366
 1809SOL    HW2 6327   3.868   0.758   6.336
 1810SOL     OW 6328   3.600   6.125   2.538
 1810SOL    HW1 6329   3.513   6.157   2.502
 1810SOL    HW2 6330   3.633   6.048   2.483
 1811SOL     OW 6331   6.044   5.725   2.618
 1811SOL    HW1 6332   6.042   5.723   2.718
 1811SOL    HW2 6333   6.020   5.635   2.583
 1812SOL     OW 6334   4.616   5.108   6.165
 1812SOL    HW1 6335   4.701   5.160   6.176
 1812SOL    HW2 6336   4.609   5.041   6.239
 1813SOL     OW 6337   6.660   5.361   5.192
 1813SOL    HW1 6338   6.729   5.433   5.199
 1813SOL    HW2 6339   6.690   5.281   5.245
 1814SOL     OW 6340   4.811   6.452   2.372
 1814SOL    HW1 6341   4.714   6.429   2.368
 1814SOL    HW2 6342   4.852   6.412   2.454
 1815SOL     OW 6343   0.262   1.250   2.546
 1815SOL    HW1 6344   0.172   1.289   2.569
 1815SOL    HW2 6345   0.332   1.296   2.601
 1816SOL     OW 6346   1.291   4.967   0.816
 1816SOL    HW1 6347   1.234   4.885   0.805
 1816SOL    HW2 6348   1.379   4.942   0.855
 1817SOL     OW 6349   1.346   5.730   1.764
 1817SOL    HW1 6350   1.362   5.818   1.719
 1817SOL    HW2 6351   1.419   5.711   1.830
 1818SOL     OW 6352   1.107   1.510   2.976
 1818SOL    HW1 6353   1.171   1.452   3.025
 1818SOL    HW2 6354   1.122   1.606   3.001
 1819SOL     OW 6355   0.540   4.183   2.578
 1819SOL    HW1 6356   0.494   4.180   2.666
 1819SOL    HW2 6357   0.639   4.187   2.593
 1820SOL     OW 6358   5.934   0.426   2.698
 1820SOL    HW1 6359   5.854   0.368   2.712
 1820SOL    HW2 6360   5.925   0.509   2.754
 1821SOL     OW 6361   1.800   1.831   3.444
 1821SOL    HW1 6362   1.835   1.745   3.482
 1821SOL    HW2 6363   1.874   1.898   3.440
 1822SOL     OW 6364   3.307   3.691   1.946
 1822SOL    HW1 6365   3.360   3.736   2.017
 1822SOL    HW2 6366   3.330   3.731   1.857
 1823SOL     OW 6367   4.146   0.204   2.602
 1823SOL    HW1 6368   4.209   0.144   2.552
 1823SOL    HW2 6369   4.052   0.174   2.587
 1824SOL     OW 6370   5.099   2.246   1.615
 1824SOL    HW1 6371   5.008   2.262   1.577
 1824SOL    HW2 6372   5.154   2.329   1.604
 1825SOL     OW 6373   0.876   0.723   1.710
 1825SOL    HW1 6374   0.798   0.774   1.673
 1825SOL    HW2 6375   0.882   0.634   1.666
 1826SOL     OW 6376   2.612   6.009   6.117
 1826SOL    HW1 6377   2.599   5.955   6.200
 1826SOL    HW2 6378   2.709   6.009   6.092
 1827SOL     OW 6379   6.238   6.931   1.374
 1827SOL    HW1 6380   6.169   6.953   1.443
 1827SOL    HW2 6381   6.217   6.842   1.334
 1828SOL     OW 6382   1.822   2.496   0.080
 1828SOL    HW1 6383   1.839   2.563   0.007
 1828SOL    HW2 6384   1.723   2.489   0.096
 1829SOL     OW 6385   6.113   5.172   1.933
 1829SOL    HW1 6386   6.096   5.243   1.865
 1829SOL    HW2 6387   6.171   5.209   2.006
 1830SOL     OW 6388   5.233   6.313   3.835
 1830SOL    HW1 6389   5.178   6.396   3.832
 1830SOL    HW2 6390   5.191   6.247   3.897
 1831SOL     OW 6391   5.438   0.586   3.687
 1831SOL    HW1 6392   5.478   0.676   3.668
 1831SOL    HW2 6393   5.348   0.580   3.644
 1832SOL     OW 6394   4.719   2.442   0.232
 1832SOL    HW1 6395   4.676   2.456   0.321
 1832SOL    HW2 6396   4.689   2.513   0.169
 1833SOL     OW 6397   5.387   1.770   5.723
 1833SOL    HW1 6398   5.340   1.824   5.792
 1833SOL    HW2 6399   5.486   1.782   5.732
 1834SOL     OW 6400   2.586   4.090   0.588
 1834SOL    HW1 6401   2.553   4.178   0.623
 1834SOL    HW2 6402   2.674   4.069   0.629
 1835SOL     OW 6403   1.510   4.896   6.582
 1835SOL    HW1 6404   1.491   4.963   6.653
 1835SOL    HW2 6405   1.536   4.808   6.624
 1836SOL     OW 6406   1.167   6.546   0.354
 1836SOL    HW1 6407   1.167   6.457   0.399
 1836SOL    HW2 6408   1.227   6.544   0.275
 1837SOL     OW 6409   0.893   2.350   5.077
 1837SOL    HW1 6410   0.835   2.374   5.000
 1837SOL    HW2 6411   0.894   2.425   5.143
 1838SOL     OW 6412   0.995   2.730   4.945
 1838SOL    HW1 6413   1.049   2.679   5.011
 1838SOL    HW2 6414   1.055   2.790   4.892
 1839SOL     OW 6415   0.538   1.568   6.558
 1839SOL    HW1 6416   0.619   1.624   6.539
 1839SOL    HW2 6417   0.500   1.595   6.647
 1840SOL     OW 6418   1.145   5.181   0.918
 1840SOL    HW1 6419   1.201   5.262   0.900
 1840SOL    HW2 6420   1.186   5.101   0.874
 1841SOL     OW 6421   1.463   2.932   3.349
 1841SOL    HW1 6422   1.427   2.859   3.290
 1841SOL    HW2 6423   1.387   2.987   3.383
 1842SOL     OW 6424   0.874   5.543   6.150
 1842SOL    HW1 6425   0.944   5.474   6.169
 1842SOL    HW2 6426   0.901   5.630   6.191
 1843SOL     OW 6427   4.095   2.232   4.784
 1843SOL    HW1 6428   4.001   2.235   4.749
 1843SOL    HW2 6429   4.107   2.302   4.853
 1844SOL     OW 6430   5.427   3.690   3.899
 1844SOL    HW1 6431   5.505   3.743   3.934
 1844SOL    HW2 6432   5.414   3.710   3.802
 1845SOL     OW 6433   4.613   6.496   0.737
 1845SOL    HW1 6434   4.592   6.408   0.695
 1845SOL    HW2 6435   4.540   6.520   0.801
 1846SOL     OW 6436   3.641   1.560   5.589
 1846SOL    HW1 6437   3.647   1.482   5.651
 1846SOL    HW2 6438   3.732   1.597   5.573
 1847SOL     OW 6439   1.404   6.841   6.766
 1847SOL    HW1 6440   1.428   6.753   6.808
 1847SOL    HW2 6441   1.358   6.825   6.678
 1848SOL     OW 6442   2.259   0.226   2.919
 1848SOL    HW1 6443   2.225   0.156   2.982
 1848SOL    HW2 6444   2.251   0.316   2.962
 1849SOL     OW 6445   3.183   0.737   6.619
 1849SOL    HW1 6446   3.100   0.687   6.644
 1849SOL    HW2 6447   3.188   0.745   6.519
 1850SOL     OW 6448   5.280   1.837   1.770
 1850SOL    HW1 6449   5.275   1.832   1.870
 1850SOL    HW2 6450   5.267   1.745   1.733
 1851SOL     OW 6451   6.343   3.785   3.224
 1851SOL    HW1 6452   6.280   3.863   3.221
 1851SOL    HW2 6453   6.318   3.719   3.154
 1852SOL     OW 6454   4.850   2.298   5.994
 1852SOL    HW1 6455   4.898   2.356   6.059
 1852SOL    HW2 6456   4.890   2.309   5.903
 1853SOL     OW 6457   1.098   4.518   0.612
 1853SOL    HW1 6458   1.053   4.568   0.538
 1853SOL    HW2 6459   1.029   4.483   0.676
 1854SOL     OW 6460   2.760   5.321   3.787
 1854SOL    HW1 6461   2.705   5.394   3.747
 1854SOL    HW2 6462   2.719   5.232   3.763
 1855SOL     OW 6463   5.873   4.516   2.375
 1855SOL    HW1 6464   5.893   4.435   2.319
 1855SOL    HW2 6465   5.890   4.599   2.322
 1856SOL     OW 6466   5.109   3.087   6.575
 1856SOL    HW1 6467   5.043   3.127   6.512
 1856SOL    HW2 6468   5.194   3.068   6.527
 1857SOL     OW 6469   4.770   1.467   3.301
 1857SOL    HW1 6470   4.695   1.494   3.361
 1857SOL    HW2 6471   4.857   1.500   3.339
 1858SOL     OW 6472   5.810   3.680   3.006
 1858SOL    HW1 6473   5.717   3.675   2.968
 1858SOL    HW2 6474   5.811   3.745   3.082
 1859SOL     OW 6475   5.910   1.380   2.763
 1859SOL    HW1 6476   5.857   1.352   2.843
 1859SOL    HW2 6477   5.961   1.301   2.729
 1860SOL     OW 6478   3.893   2.177   5.150
 1860SOL    HW1 6479   3.920   2.251   5.212
 1860SOL    HW2 6480   3.974   2.124   5.126
 1861SOL     OW 6481   5.594   5.959   2.271
 1861SOL    HW1 6482   5.642   5.874   2.252
 1861SOL    HW2 6483   5.557   5.995   2.185
 1862SOL     OW 6484   2.042   1.864   0.690
 1862SOL    HW1 6485   2.025   1.766   0.683
 1862SOL    HW2 6486   1.982   1.904   0.759
 1863SOL     OW 6487   2.103   2.600   1.690
 1863SOL    HW1 6488   2.098   2.575   1.787
 1863SOL    HW2 6489   2.184   2.557   1.649
 1864SOL     OW 6490   0.648   6.877   2.922
 1864SOL    HW1 6491   0.665   6.863   3.019
 1864SOL    HW2 6492   0.735   6.886   2.873
 1865SOL     OW 6493   5.075   2.261   6.855
 1865SOL    HW1 6494   5.129   2.344   6.872
 1865SOL    HW2 6495   5.073   2.205   6.938
 1866SOL     OW 6496   4.976   5.219   2.502
 1866SOL    HW1 6497   4.894   5.185   2.457
 1866SOL    HW2 6498   5.001   5.156   2.577
 1867SOL     OW 6499   0.720   4.951   6.780
 1867SOL    HW1 6500   0.760   4.883   6.841
 1867SOL    HW2 6501   0.733   4.923   6.685
 1868SOL     OW 6502   6.873   4.333   5.519
 1868SOL    HW1 6503   6.936   4.291   5.585
 1868SOL    HW2 6504   6.926   4.378   5.447
 1869SOL     OW 6505   6.613   1.601   4.569
 1869SOL    HW1 6506   6.592   1.642   4.480
 1869SOL    HW2 6507   6.544   1.630   4.636
 1870SOL     OW 6508   2.281   4.241   4.563
 1870SOL    HW1 6509   2.258   4.169   4.628
 1870SOL    HW2 6510   2.352   4.300   4.601
 1871SOL     OW 6511   1.432   0.284   0.589
 1871SOL    HW1 6512   1.531   0.275   0.583
 1871SOL    HW2 6513   1.402   0.269   0.684
 1872SOL     OW 6514   2.491   5.041   6.628
 1872SOL    HW1 6515   2.580   5.002   6.604
 1872SOL    HW2 6516   2.505   5.132   6.668
 1873SOL     OW 6517   5.304   0.492   0.182
 1873SOL    HW1 6518   5.401   0.493   0.204
 1873SOL    HW2 6519   5.266   0.402   0.201
 1874SOL     OW 6520   0.811   4.161   2.560
 1874SOL    HW1 6521   0.844   4.097   2.491
 1874SOL    HW2 6522   0.888   4.195   2.614
 1875SOL     OW 6523   1.100   0.090   1.626
 1875SOL    HW1 6524   1.096   0.027   1.548
 1875SOL    HW2 6525   1.137   0.178   1.595
 1876SOL     OW 6526   2.281   6.945   3.979
 1876SOL    HW1 6527   2.252   6.865   4.032
 1876SOL    HW2 6528   2.214   7.019   3.990
 1877SOL     OW 6529   0.374   6.793   3.872
 1877SOL    HW1 6530   0.309   6.863   3.902
 1877SOL    HW2 6531   0.453   6.836   3.829
 1878SOL     OW 6532   6.021   2.533   5.758
 1878SOL    HW1 6533   6.012   2.439   5.723
 1878SOL    HW2 6534   5.930   2.568   5.780
 1879SOL     OW 6535   1.747   4.690   5.993
 1879SOL    HW1 6536   1.811   4.618   5.966
 1879SOL    HW2 6537   1.668   4.688   5.932
 1880SOL     OW 6538   6.117   0.390   5.005
 1880SOL    HW1 6539   6.092   0.317   5.069
 1880SOL    HW2 6540   6.063   0.472   5.026
 1881SOL     OW 6541   0.079   2.736   0.082
 1881SOL    HW1 6542   0.157   2.771   0.030
 1881SOL    HW2 6543   0.023   2.813   0.113
 1882SOL     OW 6544   1.467   6.329   6.678
 1882SOL    HW1 6545   1.493   6.319   6.774
 1882SOL    HW2 6546   1.394   6.264   6.657
 1883SOL     OW 6547   0.501   1.707   4.083
 1883SOL    HW1 6548   0.512   1.795   4.036
 1883SOL    HW2 6549   0.542   1.635   4.028
 1884SOL     OW 6550   0.195   2.234   1.019
 1884SOL    HW1 6551   0.097   2.218   1.023
 1884SOL    HW2 6552   0.220   2.265   0.927
 1885SOL     OW 6553   2.139   1.103   4.600
 1885SOL    HW1 6554   2.196   1.049   4.538
 1885SOL    HW2 6555   2.190   1.182   4.633
 1886SOL     OW 6556   0.611   6.356   3.274
 1886SOL    HW1 6557   0.535   6.339   3.337
 1886SOL    HW2 6558   0.578   6.407   3.194
 1887SOL     OW 6559   2.708   6.289   6.000
 1887SOL    HW1 6560   2.793   6.265   5.953
 1887SOL    HW2 6561   2.632   6.236   5.962
 1888SOL     OW 6562   2.835   0.685   3.506
 1888SOL    HW1 6563   2.863   0.623   3.580
 1888SOL    HW2 6564   2.739   0.669   3.484
 1889SOL     OW 6565   0.629   3.574   2.794
 1889SOL    HW1 6566   0.643   3.616   2.704
 1889SOL    HW2 6567   0.668   3.634   2.865
 1890SOL     OW 6568   1.241   6.086   4.826
 1890SOL    HW1 6569   1.201   6.147   4.894
 1890SOL    HW2 6570   1.235   5.992   4.858
 1891SOL     OW 6571   3.337   3.335   3.356
 1891SOL    HW1 6572   3.329   3.430   3.387
 1891SOL    HW2 6573   3.433   3.311   3.347
 1892SOL     OW 6574   0.761   0.159   2.504
 1892SOL    HW1 6575   0.770   0.060   2.507
 1892SOL    HW2 6576   0.664   0.183   2.501
 1893SOL     OW 6577   4.137   3.431   4.221
 1893SOL    HW1 6578   4.155   3.516   4.271
 1893SOL    HW2 6579   4.196   3.427   4.140
 1894SOL     OW 6580   3.298   3.465   4.093
 1894SOL    HW1 6581   3.351   3.381   4.103
 1894SOL    HW2 6582   3.347   3.542   4.135
 1895SOL     OW 6583   1.883   6.116   6.845
 1895SOL    HW1 6584   1.854   6.171   6.767
 1895SOL    HW2 6585   1.843   6.024   6.838
 1896SOL     OW 6586   6.481   2.406   1.689
 1896SOL    HW1 6587   6.386   2.397   1.720
 1896SOL    HW2 6588   6.489   2.368   1.597
 1897SOL     OW 6589   1.271   4.476   4.148
 1897SOL    HW1 6590   1.345   4.452   4.085
 1897SOL    HW2 6591   1.236   4.567   4.125
 1898SOL     OW 6592   1.362   6.036   2.850
 1898SOL    HW1 6593   1.350   6.020   2.752
 1898SOL    HW2 6594   1.460   6.039   2.871
 1899SOL     OW 6595   0.223   0.957   2.521
 1899SOL    HW1 6596   0.232   1.057   2.517
 1899SOL    HW2 6597   0.153   0.927   2.456
 1900SOL     OW 6598   3.069   6.972   6.587
 1900SOL    HW1 6599   3.094   7.018   6.502
 1900SOL    HW2 6600   3.032   0.012   6.652
 1901SOL     OW 6601   2.803   3.440   1.865
 1901SOL    HW1 6602   2.750   3.513   1.822
 1901SOL    HW2 6603   2.887   3.478   1.905
 1902SOL     OW 6604   1.251   6.678   4.934
 1902SOL    HW1 6605   1.312   6.711   5.006
 1902SOL    HW2 6606   1.301   6.616   4.874
 1903SOL     OW 6607   0.895   1.877   4.314
 1903SOL    HW1 6608   0.843   1.912   4.236
 1903SOL    HW2 6609   0.926   1.784   4.295
 1904SOL     OW 6610   5.704   5.928   1.682
 1904SOL    HW1 6611   5.609   5.924   1.652
 1904SOL    HW2 6612   5.723   6.020   1.717
 1905SOL     OW 6613   0.773   1.515   4.061
 1905SOL    HW1 6614   0.713   1.445   4.099
 1905SOL    HW2 6615   0.848   1.534   4.125
 1906SOL     OW 6616   0.935   6.172   4.482
 1906SOL    HW1 6617   0.877   6.220   4.416
 1906SOL    HW2 6618   0.957   6.081   4.447
 1907SOL     OW 6619   5.151   3.110   0.576
 1907SOL    HW1 6620   5.105   3.027   0.544
 1907SOL    HW2 6621   5.216   3.086   0.649
 1908SOL     OW 6622   3.875   0.496   1.692
 1908SOL    HW1 6623   3.907   0.534   1.605
 1908SOL    HW2 6624   3.782   0.530   1.710
 1909SOL     OW 6625   6.365   5.579   4.649
 1909SOL    HW1 6626   6.450   5.574   4.596
 1909SOL    HW2 6627   6.290   5.605   4.589
 1910SOL     OW 6628   0.506   6.274   5.924
 1910SOL    HW1 6629   0.600   6.304   5.939
 1910SOL    HW2 6630   0.448   6.354   5.912
 1911SOL     OW 6631   5.911   6.182   4.236
 1911SOL    HW1 6632   5.952   6.273   4.223
 1911SOL    HW2 6633   5.887   6.143   4.147
 1912SOL     OW 6634   3.504   4.923   2.260
 1912SOL    HW1 6635   3.479   5.020   2.268
 1912SOL    HW2 6636   3.453   4.882   2.185
 1913SOL     OW 6637   3.114   4.320   6.859
 1913SOL    HW1 6638   3.105   4.247   6.927
 1913SOL    HW2 6639   3.031   4.325   6.804
 1914SOL     OW 6640   3.431   4.080   6.905
 1914SOL    HW1 6641   3.468   4.080   6.998
 1914SOL    HW2 6642   3.373   4.000   6.892
 1915SOL     OW 6643   3.271   3.016   6.851
 1915SOL    HW1 6644   3.268   2.980   6.944
 1915SOL    HW2 6645   3.190   3.073   6.834
 1916SOL     OW 6646   4.489   0.582   2.612
 1916SOL    HW1 6647   4.397   0.545   2.626
 1916SOL    HW2 6648   4.492   0.633   2.526
 1917SOL     OW 6649   2.006   4.235   1.610
 1917SOL    HW1 6650   2.101   4.209   1.631
 1917SOL    HW2 6651   1.975   4.303   1.676
 1918SOL     OW 6652   5.510   2.246   3.642
 1918SOL    HW1 6653   5.562   2.302   3.577
 1918SOL    HW2 6654   5.492   2.299   3.725
 1919SOL     OW 6655   6.084   2.280   6.157
 1919SOL    HW1 6656   6.169   2.261   6.107
 1919SOL    HW2 6657   6.093   2.366   6.206
 1920SOL     OW 6658   4.389   2.913   0.771
 1920SOL    HW1 6659   4.444   2.966   0.707
 1920SOL    HW2 6660   4.449   2.868   0.837
 1921SOL     OW 6661   2.519   2.141   0.506
 1921SOL    HW1 6662   2.503   2.045   0.485
 1921SOL    HW2 6663   2.441   2.179   0.555
 1922SOL     OW 6664   3.176   3.049   3.907
 1922SOL    HW1 6665   3.111   3.125   3.905
 1922SOL    HW2 6666   3.177   3.008   3.998
 1923SOL     OW 6667   3.119   0.677   4.124
 1923SOL    HW1 6668   3.105   0.774   4.144
 1923SOL    HW2 6669   3.204   0.647   4.167
 1924SOL     OW 6670   5.561   1.047   0.720
 1924SOL    HW1 6671   5.480   1.032   0.664
 1924SOL    HW2 6672   5.537   1.033   0.817
 1925SOL     OW 6673   1.077   4.136   1.088
 1925SOL    HW1 6674   1.116   4.206   1.029
 1925SOL    HW2 6675   1.116   4.144   1.180
 1926SOL     OW 6676   3.897   0.111   1.664
 1926SOL    HW1 6677   3.928   0.167   1.740
 1926SOL    HW2 6678   3.968   0.107   1.593
 1927SOL     OW 6679   2.240   5.840   1.210
 1927SOL    HW1 6680   2.175   5.911   1.182
 1927SOL    HW2 6681   2.201   5.750   1.192
 1928SOL     OW 6682   6.774   4.540   2.410
 1928SOL    HW1 6683   6.681   4.567   2.384
 1928SOL    HW2 6684   6.773   4.446   2.444
 1929SOL     OW 6685   3.520   6.893   3.503
 1929SOL    HW1 6686   3.620   6.884   3.503
 1929SOL    HW2 6687   3.496   6.984   3.537
 1930SOL     OW 6688   3.581   3.230   0.333
 1930SOL    HW1 6689   3.621   3.204   0.245
 1930SOL    HW2 6690   3.651   3.275   0.389
 1931SOL     OW 6691   6.948   2.813   3.884
 1931SOL    HW1 6692   6.848   2.816   3.882
 1931SOL    HW2 6693   6.979   2.724   3.849
 1932SOL     OW 6694   4.792   1.144   2.189
 1932SOL    HW1 6695   4.701   1.149   2.149
 1932SOL    HW2 6696   4.848   1.219   2.155
 1933SOL     OW 6697   1.679   1.074   1.194
 1933SOL    HW1 6698   1.686   1.022   1.280
 1933SOL    HW2 6699   1.599   1.041   1.143
 1934SOL     OW 6700   0.017   1.106   0.116
 1934SOL    HW1 6701   0.047   1.154   0.033
 1934SOL    HW2 6702   7.008   1.172   0.182
 1935SOL     OW 6703   5.766   5.408   3.548
 1935SOL    HW1 6704   5.721   5.461   3.476
 1935SOL    HW2 6705   5.759   5.310   3.526
 1936SOL     OW 6706   4.965   3.276   6.122
 1936SOL    HW1 6707   5.040   3.340   6.140
 1936SOL    HW2 6708   4.881   3.327   6.106
 1937SOL     OW 6709   6.734   4.977   6.796
 1937SOL    HW1 6710   6.652   4.920   6.798
 1937SOL    HW2 6711   6.813   4.921   6.770
 1938SOL     OW 6712   6.984   2.335   6.883
 1938SOL    HW1 6713   6.971   2.414   6.943
 1938SOL    HW2 6714   6.946   2.253   6.926
 1939SOL     OW 6715   0.452   0.216   4.317
 1939SOL    HW1 6716   0.427   0.288   4.382
 1939SOL    HW2 6717   0.398   0.225   4.234
 1940SOL     OW 6718   0.552   5.127   0.944
 1940SOL    HW1 6719   0.577   5.066   0.868
 1940SOL    HW2 6720   0.568   5.080   1.031
 1941SOL     OW 6721   6.101   1.166   4.804
 1941SOL    HW1 6722   6.070   1.089   4.748
 1941SOL    HW2 6723   6.027   1.233   4.812
 1942SOL     OW 6724   0.404   5.076   1.951
 1942SOL    HW1 6725   0.339   5.138   1.995
 1942SOL    HW2 6726   0.461   5.128   1.887
 1943SOL     OW 6727   0.773   3.176   3.757
 1943SOL    HW1 6728   0.752   3.115   3.681
 1943SOL    HW2 6729   0.868   3.164   3.785
 1944SOL     OW 6730   0.894   3.020   3.503
 1944SOL    HW1 6731   0.980   2.982   3.539
 1944SOL    HW2 6732   0.900   3.028   3.404
 1945SOL     OW 6733   5.266   1.549   1.748
 1945SOL    HW1 6734   5.207   1.481   1.792
 1945SOL    HW2 6735   5.287   1.519   1.655
 1946SOL     OW 6736   5.914   5.439   0.799
 1946SOL    HW1 6737   5.964   5.525   0.808
 1946SOL    HW2 6738   5.826   5.456   0.754
 1947SOL     OW 6739   6.239   5.261   2.872
 1947SOL    HW1 6740   6.206   5.225   2.784
 1947SOL    HW2 6741   6.231   5.190   2.942
 1948SOL     OW 6742   5.276   3.405   3.692
 1948SOL    HW1 6743   5.186   3.370   3.663
 1948SOL    HW2 6744   5.348   3.358   3.642
 1949SOL     OW 6745   3.328   4.262   6.715
 1949SOL    HW1 6746   3.249   4.304   6.759
 1949SOL    HW2 6747   3.354   4.179   6.764
 1950SOL     OW 6748   3.928   3.879   3.327
 1950SOL    HW1 6749   3.837   3.844   3.349
 1950SOL    HW2 6750   3.997   3.826   3.377
 1951SOL     OW 6751   6.424   5.414   5.768
 1951SOL    HW1 6752   6.423   5.415   5.668
 1951SOL    HW2 6753   6.488   5.484   5.802
 1952SOL     OW 6754   5.544   4.198   6.708
 1952SOL    HW1 6755   5.507   4.159   6.623
 1952SOL    HW2 6756   5.596   4.280   6.687
 1953SOL     OW 6757   0.933   0.918   0.096
 1953SOL    HW1 6758   0.973   0.993   0.149
 1953SOL    HW2 6759   1.006   0.864   0.053
 1954SOL     OW 6760   3.547   6.361   2.252
 1954SOL    HW1 6761   3.570   6.395   2.343
 1954SOL    HW2 6762   3.513   6.267   2.259
 1955SOL     OW 6763   6.499   2.519   4.267
 1955SOL    HW1 6764   6.400   2.509   4.268
 1955SOL    HW2 6765   6.524   2.605   4.223
 1956SOL     OW 6766   4.662   1.040   1.649
 1956SOL    HW1 6767   4.739   1.090   1.689
 1956SOL    HW2 6768   4.630   0.971   1.713
 1957SOL     OW 6769   6.792   2.505   4.612
 1957SOL    HW1 6770   6.747   2.456   4.538
 1957SOL    HW2 6771   6.793   2.603   4.593
 1958SOL     OW 6772   3.782   1.967   0.669
 1958SOL    HW1 6773   3.870   1.991   0.628
 1958SOL    HW2 6774   3.712   1.962   0.598
 1959SOL     OW 6775   1.391   1.447   6.003
 1959SOL    HW1 6776   1.433   1.378   6.063
 1959SOL    HW2 6777   1.430   1.440   5.911
 1960SOL     OW 6778   5.239   4.014   2.947
 1960SOL    HW1 6779   5.291   3.991   2.864
 1960SOL    HW2 6780   5.219   4.112   2.947
 1961SOL     OW 6781   0.503   3.764   4.346
 1961SOL    HW1 6782   0.596   3.733   4.330
 1961SOL    HW2 6783   0.480   3.752   4.443
 1962SOL     OW 6784   0.415   6.866   2.201
 1962SOL    HW1 6785   0.458   6.868   2.292
 1962SOL    HW2 6786   0.473   6.915   2.136
 1963SOL     OW 6787   0.916   2.834   6.992
 1963SOL    HW1 6788   0.931   2.785   6.906
 1963SOL    HW2 6789   0.824   2.874   6.992
 1964SOL     OW 6790   5.428   3.331   0.923
 1964SOL    HW1 6791   5.407   3.255   0.861
 1964SOL    HW2 6792   5.388   3.415   0.887
 1965SOL     OW 6793   6.256   4.492   3.813
 1965SOL    HW1 6794   6.291   4.541   3.734
 1965SOL    HW2 6795   6.205   4.411   3.783
 1966SOL     OW 6796   0.824   5.315   6.708
 1966SOL    HW1 6797   0.826   5.383   6.635
 1966SOL    HW2 6798   0.747   5.333   6.769
 1967SOL     OW 6799   0.062   3.161   5.296
 1967SOL    HW1 6800   7.018   3.143   5.364
 1967SOL    HW2 6801   0.023   3.212   5.220
 1968SOL     OW 6802   2.057   1.167   6.113
 1968SOL    HW1 6803   2.104   1.187   6.027
 1968SOL    HW2 6804   2.091   1.082   6.151
 1969SOL     OW 6805   0.871   5.593   0.803
 1969SOL    HW1 6806   0.905   5.534   0.729
 1969SOL    HW2 6807   0.777   5.619   0.783
 1970SOL     OW 6808   5.553   4.424   3.839
 1970SOL    HW1 6809   5.515   4.510   3.804
 1970SOL    HW2 6810   5.479   4.358   3.852
 1971SOL     OW 6811   1.682   4.826   4.567
 1971SOL    HW1 6812   1.649   4.795   4.478
 1971SOL    HW2 6813   1.611   4.880   4.612
 1972SOL     OW 6814   6.186   2.246   2.821
 1972SOL    HW1 6815   6.245   2.275   2.746
 1972SOL    HW2 6816   6.216   2.156   2.854
 1973SOL     OW 6817   3.542   2.236   1.011
 1973SOL    HW1 6818   3.630   2.255   0.968
 1973SOL    HW2 6819   3.506   2.150   0.975
 1974SOL     OW 6820   2.414   6.795   4.961
 1974SOL    HW1 6821   2.353   6.797   4.882
 1974SOL    HW2 6822   2.360   6.794   5.045
 1975SOL     OW 6823   1.970   2.980   2.311
 1975SOL    HW1 6824   1.927   3.049   2.252
 1975SOL    HW2 6825   2.055   3.017   2.347
 1976SOL     OW 6826   1.667   0.832   5.276
 1976SOL    HW1 6827   1.646   0.759   5.341
 1976SOL    HW2 6828   1.677   0.794   5.185
 1977SOL     OW 6829   0.980   3.609   6.762
 1977SOL    HW1 6830   0.999   3.707   6.765
 1977SOL    HW2 6831   0.955   3.577   6.853
 1978SOL     OW 6832   3.148   0.244   2.113
 1978SOL    HW1 6833   3.051   0.225   2.096
 1978SOL    HW2 6834   3.168   0.338   2.085
 1979SOL     OW 6835   5.454   4.104   6.455
 1979SOL    HW1 6836   5.394   4.178   6.427
 1979SOL    HW2 6837   5.427   4.019   6.409
 1980SOL     OW 6838   4.206   0.234   1.197
 1980SOL    HW1 6839   4.208   0.255   1.294
 1980SOL    HW2 6840   4.174   0.140   1.183
 1981SOL     OW 6841   4.211   2.076   2.291
 1981SOL    HW1 6842   4.248   2.081   2.198
 1981SOL    HW2 6843   4.120   2.032   2.288
 1982SOL     OW 6844   1.475   2.987   6.235
 1982SOL    HW1 6845   1.469   2.966   6.138
 1982SOL    HW2 6846   1.407   3.055   6.259
 1983SOL     OW 6847   0.035   1.370   2.058
 1983SOL    HW1 6848   6.968   1.394   2.084
 1983SOL    HW2 6849   0.100   1.424   2.111
 1984SOL     OW 6850   4.823   3.724   5.948
 1984SOL    HW1 6851   4.865   3.775   5.873
 1984SOL    HW2 6852   4.893   3.698   6.015
 1985SOL     OW 6853   6.337   4.108   4.068
 1985SOL    HW1 6854   6.354   4.206   4.078
 1985SOL    HW2 6855   6.288   4.075   4.148
 1986SOL     OW 6856   2.874   3.552   2.288
 1986SOL    HW1 6857   2.836   3.531   2.378
 1986SOL    HW2 6858   2.842   3.485   2.221
 1987SOL     OW 6859   2.500   1.010   2.290
 1987SOL    HW1 6860   2.542   1.050   2.372
 1987SOL    HW2 6861   2.471   1.084   2.229
 1988SOL     OW 6862   0.893   2.002   2.795
 1988SOL    HW1 6863   0.927   2.075   2.736
 1988SOL    HW2 6864   0.864   2.041   2.882
 1989SOL     OW 6865   2.887   5.526   5.027
 1989SOL    HW1 6866   2.981   5.493   5.018
 1989SOL    HW2 6867   2.866   5.539   5.124
 1990SOL     OW 6868   4.574   6.857   0.476
 1990SOL    HW1 6869   4.530   6.946   0.484
 1990SOL    HW2 6870   4.624   6.852   0.390
 1991SOL     OW 6871   2.162   5.691   2.132
 1991SOL    HW1 6872   2.119   5.773   2.094
 1991SOL    HW2 6873   2.240   5.665   2.075
 1992SOL     OW 6874   1.153   6.736   2.935
 1992SOL    HW1 6875   1.164   6.752   2.836
 1992SOL    HW2 6876   1.155   6.824   2.982
 1993SOL     OW 6877   1.876   1.923   2.587
 1993SOL    HW1 6878   1.859   1.846   2.526
 1993SOL    HW2 6879   1.950   1.979   2.550
 1994SOL     OW 6880   3.543   3.438   1.418
 1994SOL    HW1 6881   3.568   3.416   1.323
 1994SOL    HW2 6882   3.550   3.356   1.474
 1995SOL     OW 6883   5.946   1.523   4.339
 1995SOL    HW1 6884   5.973   1.456   4.270
 1995SOL    HW2 6885   5.953   1.615   4.301
 1996SOL     OW 6886   4.998   0.493   0.348
 1996SOL    HW1 6887   5.058   0.445   0.412
 1996SOL    HW2 6888   4.986   0.438   0.266
 1997SOL     OW 6889   3.812   1.153   3.708
 1997SOL    HW1 6890   3.873   1.156   3.629
 1997SOL    HW2 6891   3.717   1.144   3.676
 1998SOL     OW 6892   2.572   3.643   1.359
 1998SOL    HW1 6893   2.571   3.544   1.345
 1998SOL    HW2 6894   2.606   3.688   1.276
 1999SOL     OW 6895   0.832   6.993   6.617
 1999SOL    HW1 6896   0.767   6.923   6.647
 1999SOL    HW2 6897   0.851   0.029   6.692
 2000SOL     OW 6898   4.304   4.526   6.174
 2000SOL    HW1 6899   4.380   4.491   6.120
 2000SOL    HW2 6900   4.326   4.517   6.272
 2001SOL     OW 6901   1.430   2.462   0.944
 2001SOL    HW1 6902   1.487   2.418   1.014
 2001SOL    HW2 6903   1.391   2.547   0.980
 2002SOL     OW 6904   6.217   5.151   0.560
 2002SOL    HW1 6905   6.236   5.247   0.539
 2002SOL    HW2 6906   6.122   5.142   0.588
 2003SOL     OW 6907   5.942   5.616   1.265
 2003SOL    HW1 6908   5.843   5.619   1.245
 2003SOL    HW2 6909   5.989   5.681   1.205
 2004SOL     OW 6910   4.014   6.893   3.416
 2004SOL    HW1 6911   4.058   6.983   3.420
 2004SOL    HW2 6912   4.084   6.822   3.420
 2005SOL     OW 6913   1.516   6.536   0.111
 2005SOL    HW1 6914   1.547   6.618   0.159
 2005SOL    HW2 6915   1.567   6.457   0.144
 2006SOL     OW 6916   5.864   0.204   2.064
 2006SOL    HW1 6917   5.780   0.173   2.108
 2006SOL    HW2 6918   5.941   0.188   2.126
 2007SOL     OW 6919   5.784   5.183   6.026
 2007SOL    HW1 6920   5.732   5.097   6.029
 2007SOL    HW2 6921   5.725   5.256   5.992
 2008SOL     OW 6922   1.837   3.288   2.726
 2008SOL    HW1 6923   1.885   3.372   2.701
 2008SOL    HW2 6924   1.788   3.253   2.646
 2009SOL     OW 6925   6.188   0.159   2.708
 2009SOL    HW1 6926   6.173   0.246   2.661
 2009SOL    HW2 6927   6.099   0.116   2.727
 2010SOL     OW 6928   0.378   1.334   1.502
 2010SOL    HW1 6929   0.442   1.284   1.559
 2010SOL    HW2 6930   0.371   1.428   1.533
 2011SOL     OW 6931   0.892   6.921   4.748
 2011SOL    HW1 6932   0.913   6.980   4.826
 2011SOL    HW2 6933   0.793   6.917   4.734
 2012SOL     OW 6934   0.224   2.745   0.809
 2012SOL    HW1 6935   0.154   2.722   0.742
 2012SOL    HW2 6936   0.296   2.798   0.764
 2013SOL     OW 6937   0.849   2.650   2.314
 2013SOL    HW1 6938   0.897   2.705   2.246
 2013SOL    HW2 6939   0.844   2.556   2.283
 2014SOL     OW 6940   3.682   1.407   3.999
 2014SOL    HW1 6941   3.646   1.314   4.004
 2014SOL    HW2 6942   3.675   1.450   4.090
 2015SOL     OW 6943   3.677   6.221   1.898
 2015SOL    HW1 6944   3.665   6.308   1.946
 2015SOL    HW2 6945   3.595   6.165   1.909
 2016SOL     OW 6946   1.988   0.920   5.528
 2016SOL    HW1 6947   2.077   0.912   5.483
 2016SOL    HW2 6948   1.977   1.013   5.563
 2017SOL     OW 6949   2.511   6.500   4.380
 2017SOL    HW1 6950   2.433   6.558   4.402
 2017SOL    HW2 6951   2.548   6.528   4.291
 2018SOL     OW 6952   0.355   0.380   4.581
 2018SOL    HW1 6953   0.330   0.461   4.635
 2018SOL    HW2 6954   0.298   0.303   4.610
 2019SOL     OW 6955   6.513   4.823   6.835
 2019SOL    HW1 6956   6.443   4.865   6.893
 2019SOL    HW2 6957   6.498   4.724   6.833
 2020SOL     OW 6958   1.855   6.763   1.107
 2020SOL    HW1 6959   1.818   6.678   1.069
 2020SOL    HW2 6960   1.779   6.821   1.139
 2021SOL     OW 6961   0.308   5.876   4.147
 2021SOL    HW1 6962   0.309   5.804   4.078
 2021SOL    HW2 6963   0.334   5.963   4.105
 2022SOL     OW 6964   1.382   3.266   4.283
 2022SOL    HW1 6965   1.284   3.283   4.290
 2022SOL    HW2 6966   1.398   3.189   4.222
 2023SOL     OW 6967   0.042   5.674   6.890
 2023SOL    HW1 6968   0.128   5.721   6.905
 2023SOL    HW2 6969   6.993   5.730   6.923
 2024SOL     OW 6970   6.918   5.488   3.612
 2024SOL    HW1 6971   6.858   5.566   3.632
 2024SOL    HW2 6972   6.896   5.413   3.675
 2025SOL     OW 6973   1.909   6.743   4.739
 2025SOL    HW1 6974   1.835   6.678   4.723
 2025SOL    HW2 6975   1.952   6.722   4.827
 2026SOL     OW 6976   1.399   6.910   5.360
 2026SOL    HW1 6977   1.407   6.989   5.420
 2026SOL    HW2 6978   1.344   6.840   5.404
 2027SOL     OW 6979   6.815   5.920   2.435
 2027SOL    HW1 6980   6.763   5.966   2.506
 2027SOL    HW2 6981   6.757   5.905   2.355
 2028SOL     OW 6982   2.616   5.826   5.078
 2028SOL    HW1 6983   2.694   5.815   5.140
 2028SOL    HW2 6984   2.643   5.879   4.998
 2029SOL     OW 6985   6.387   2.125   6.828
 2029SOL    HW1 6986   6.386   2.070   6.912
 2029SOL    HW2 6987   6.310   2.098   6.770
 2030SOL     OW 6988   1.918   6.886   2.726
 2030SOL    HW1 6989   1.895   6.913   2.820
 2030SOL    HW2 6990   1.973   6.958   2.684
 2031SOL     OW 6991   0.402   6.367   5.355
 2031SOL    HW1 6992   0.441   6.459   5.348
 2031SOL    HW2 6993   0.388   6.344   5.451
 2032SOL     OW 6994   2.456   3.082   5.981
 2032SOL    HW1 6995   2.499   3.090   6.071
 2032SOL    HW2 6996   2.527   3.074   5.911
 2033SOL     OW 6997   2.441   0.926   1.081
 2033SOL    HW1 6998   2.468   1.022   1.085
 2033SOL    HW2 6999   2.343   0.919   1.100
 2034SOL     OW 7000   0.500   4.373   5.019
 2034SOL    HW1 7001   0.506   4.427   4.934
 2034SOL    HW2 7002   0.404   4.360   5.043
 2035SOL     OW 7003   5.786   5.561   2.821
 2035SOL    HW1 7004   5.760   5.486   2.881
 2035SOL    HW2 7005   5.719   5.568   2.747
 2036SOL     OW 7006   0.380   4.169   6.410
 2036SOL    HW1 7007   0.433   4.185   6.493
 2036SOL    HW2 7008   0.413   4.229   6.337
 2037SOL     OW 7009   0.907   2.758   6.745
 2037SOL    HW1 7010   0.810   2.780   6.734
 2037SOL    HW2 7011   0.930   2.681   6.685
 2038SOL     OW 7012   1.160   1.080   6.017
 2038SOL    HW1 7013   1.156   1.180   6.015
 2038SOL    HW2 7014   1.186   1.045   5.928
 2039SOL     OW 7015   5.647   5.838   3.596
 2039SOL    HW1 7016   5.585   5.803   3.526
 2039SOL    HW2 7017   5.607   5.823   3.686
 2040SOL     OW 7018   2.778   1.924   0.539
 2040SOL    HW1 7019   2.818   1.999   0.485
 2040SOL    HW2 7020   2.772   1.952   0.635
 2041SOL     OW 7021   2.670   6.664   0.101
 2041SOL    HW1 7022   2.652   6.640   0.005
 2041SOL    HW2 7023   2.583   6.676   0.149
 2042SOL     OW 7024   7.007   6.989   6.098
 2042SOL    HW1 7025   6.953   0.001   6.172
 2042SOL    HW2 7026   0.049   6.927   6.136
 2043SOL     OW 7027   0.603   4.006   6.967
 2043SOL    HW1 7028   0.674   4.072   6.944
 2043SOL    HW2 7029   0.542   3.994   6.888
 2044SOL     OW 7030   3.975   0.312   1.830
 2044SOL    HW1 7031   3.930   0.362   1.757
 2044SOL    HW2 7032   3.912   0.301   1.907
 2045SOL     OW 7033   1.970   6.070   3.648
 2045SOL    HW1 7034   1.896   6.087   3.583
 2045SOL    HW2 7035   1.952   5.984   3.697
 2046SOL     OW 7036   1.022   2.881   5.659
 2046SOL    HW1 7037   1.030   2.783   5.642
 2046SOL    HW2 7038   0.925   2.906   5.665
 2047SOL     OW 7039   6.474   6.779   1.551
 2047SOL    HW1 7040   6.432   6.869   1.567
 2047SOL    HW2 7041   6.489   6.734   1.639
 2048SOL     OW 7042   2.230   0.925   3.738
 2048SOL    HW1 7043   2.286   1.006   3.718
 2048SOL    HW2 7044   2.171   0.944   3.816
 2049SOL     OW 7045   4.894   2.367   5.468
 2049SOL    HW1 7046   4.933   2.459   5.465
 2049SOL    HW2 7047   4.830   2.361   5.545
 2050SOL     OW 7048   0.618   1.003   2.717
 2050SOL    HW1 7049   0.532   0.989   2.766
 2050SOL    HW2 7050   0.609   1.081   2.655
 2051SOL     OW 7051   3.516   6.870   6.672
 2051SOL    HW1 7052   3.471   6.958   6.655
 2051SOL    HW2 7053   3.455   6.813   6.728
 2052SOL     OW 7054   0.401   3.826   0.948
 2052SOL    HW1 7055   0.461   3.842   0.869
 2052SOL    HW2 7056   0.321   3.774   0.919
 2053SOL     OW 7057   5.871   5.135   2.860
 2053SOL    HW1 7058   5.908   5.133   2.767
 2053SOL    HW2 7059   5.791   5.074   2.865
 2054SOL     OW 7060   3.214   4.118   2.698
 2054SOL    HW1 7061   3.160   4.037   2.720
 2054SOL    HW2 7062   3.217   4.180   2.777
 2055SOL     OW 7063   4.065   2.637   5.601
 2055SOL    HW1 7064   4.066   2.574   5.679
 2055SOL    HW2 7065   4.152   2.687   5.598
 2056SOL     OW 7066   2.843   4.765   1.762
 2056SOL    HW1 7067   2.858   4.724   1.852
 2056SOL    HW2 7068   2.833   4.692   1.694
 2057SOL     OW 7069   5.809   3.583   4.176
 2057SOL    HW1 7070   5.740   3.637   4.225
 2057SOL    HW2 7071   5.780   3.570   4.082
 2058SOL     OW 7072   5.464   6.798   3.611
 2058SOL    HW1 7073   5.530   6.872   3.599
 2058SOL    HW2 7074   5.406   6.791   3.530
 2059SOL     OW 7075   1.914   2.150   5.854
 2059SOL    HW1 7076   1.924   2.218   5.781
 2059SOL    HW2 7077   2.004   2.114   5.878
 2060SOL     OW 7078   1.536   2.272   6.415
 2060SOL    HW1 7079   1.604   2.214   6.371
 2060SOL    HW2 7080   1.452   2.271   6.360
 2061SOL     OW 7081   2.029   1.979   3.528
 2061SOL    HW1 7082   2.026   2.079   3.523
 2061SOL    HW2 7083   2.070   1.952   3.616
 2062SOL     OW 7084   5.575   5.234   4.061
 2062SOL    HW1 7085   5.672   5.244   4.082
 2062SOL    HW2 7086   5.523   5.306   4.107
 2063SOL     OW 7087   0.987   1.596   4.226
 2063SOL    HW1 7088   1.074   1.635   4.196
 2063SOL    HW2 7089   1.004   1.512   4.278
 2064SOL     OW 7090   0.636   4.200   4.531
 2064SOL    HW1 7091   0.659   4.208   4.628
 2064SOL    HW2 7092   0.702   4.141   4.486
 2065SOL     OW 7093   3.839   3.454   5.431
 2065SOL    HW1 7094   3.934   3.433   5.411
 2065SOL    HW2 7095   3.791   3.371   5.459
 2066SOL     OW 7096   1.789   2.797   4.686
 2066SOL    HW1 7097   1.857   2.781   4.614
 2066SOL    HW2 7098   1.788   2.894   4.709
 2067SOL     OW 7099   6.408   4.424   2.610
 2067SOL    HW1 7100   6.350   4.343   2.606
 2067SOL    HW2 7101   6.481   4.410   2.676
 2068SOL     OW 7102   3.506   6.398   4.077
 2068SOL    HW1 7103   3.434   6.329   4.081
 2068SOL    HW2 7104   3.547   6.398   3.986
 2069SOL     OW 7105   6.314   1.687   3.823
 2069SOL    HW1 7106   6.234   1.665   3.767
 2069SOL    HW2 7107   6.378   1.742   3.770
 2070SOL     OW 7108   0.551   4.832   1.526
 2070SOL    HW1 7109   0.644   4.856   1.552
 2070SOL    HW2 7110   0.544   4.830   1.426
 2071SOL     OW 7111   6.814   2.245   4.768
 2071SOL    HW1 7112   6.798   2.336   4.731
 2071SOL    HW2 7113   6.840   2.182   4.695
 2072SOL     OW 7114   5.402   3.565   5.401
 2072SOL    HW1 7115   5.331   3.582   5.469
 2072SOL    HW2 7116   5.492   3.582   5.443
 2073SOL     OW 7117   3.499   5.186   6.502
 2073SOL    HW1 7118   3.535   5.178   6.595
 2073SOL    HW2 7119   3.554   5.250   6.450
 2074SOL     OW 7120   3.790   4.707   5.451
 2074SOL    HW1 7121   3.838   4.791   5.477
 2074SOL    HW2 7122   3.692   4.722   5.456
 2075SOL     OW 7123   5.525   2.308   1.639
 2075SOL    HW1 7124   5.579   2.321   1.722
 2075SOL    HW2 7125   5.432   2.279   1.662
 2076SOL     OW 7126   6.821   6.545   3.696
 2076SOL    HW1 7127   6.878   6.498   3.629
 2076SOL    HW2 7128   6.824   6.644   3.679
 2077SOL     OW 7129   0.202   4.421   0.988
 2077SOL    HW1 7130   0.240   4.487   1.052
 2077SOL    HW2 7131   0.253   4.336   0.993
 2078SOL     OW 7132   0.601   2.838   6.377
 2078SOL    HW1 7133   0.622   2.832   6.279
 2078SOL    HW2 7134   0.561   2.751   6.408
 2079SOL     OW 7135   5.658   1.521   3.028
 2079SOL    HW1 7136   5.676   1.611   2.989
 2079SOL    HW2 7137   5.741   1.486   3.071
 2080SOL     OW 7138   2.228   3.941   6.270
 2080SOL    HW1 7139   2.248   3.976   6.362
 2080SOL    HW2 7140   2.146   3.885   6.273
 2081SOL     OW 7141   0.375   6.137   2.582
 2081SOL    HW1 7142   0.369   6.073   2.506
 2081SOL    HW2 7143   0.393   6.229   2.548
 2082SOL     OW 7144   6.979   5.794   3.692
 2082SOL    HW1 7145   6.894   5.747   3.668
 2082SOL    HW2 7146   0.024   5.768   3.626
 2083SOL     OW 7147   0.498   5.680   4.064
 2083SOL    HW1 7148   0.521   5.749   3.996
 2083SOL    HW2 7149   0.476   5.725   4.151
 2084SOL     OW 7150   6.505   2.275   1.457
 2084SOL    HW1 7151   6.560   2.343   1.407
 2084SOL    HW2 7152   6.551   2.186   1.453
 2085SOL     OW 7153   6.157   5.559   0.151
 2085SOL    HW1 7154   6.233   5.510   0.107
 2085SOL    HW2 7155   6.074   5.548   0.096
 2086SOL     OW 7156   6.040   6.974   6.140
 2086SOL    HW1 7157   6.095   6.910   6.087
 2086SOL    HW2 7158   6.021   0.029   6.085
 2087SOL     OW 7159   4.871   1.017   0.017
 2087SOL    HW1 7160   4.870   1.104   0.066
 2087SOL    HW2 7161   4.958   0.970   0.033
 2088SOL     OW 7162   0.385   3.970   6.219
 2088SOL    HW1 7163   0.365   4.047   6.279
 2088SOL    HW2 7164   0.484   3.959   6.209
 2089SOL     OW 7165   2.928   4.787   5.820
 2089SOL    HW1 7166   2.905   4.835   5.904
 2089SOL    HW2 7167   3.014   4.821   5.784
 2090SOL     OW 7168   4.948   2.644   6.763
 2090SOL    HW1 7169   4.962   2.554   6.805
 2090SOL    HW2 7170   5.036   2.690   6.752
 2091SOL     OW 7171   5.410   6.309   1.090
 2091SOL    HW1 7172   5.377   6.404   1.097
 2091SOL    HW2 7173   5.345   6.248   1.134
 2092SOL     OW 7174   3.332   3.214   1.794
 2092SOL    HW1 7175   3.260   3.282   1.781
 2092SOL    HW2 7176   3.293   3.131   1.833
 2093SOL     OW 7177   4.734   6.986   0.697
 2093SOL    HW1 7178   4.735   6.946   0.605
 2093SOL    HW2 7179   4.719   6.914   0.765
 2094SOL     OW 7180   5.125   2.332   1.030
 2094SOL    HW1 7181   5.068   2.343   0.949
 2094SOL    HW2 7182   5.174   2.245   1.026
 2095SOL     OW 7183   5.344   4.942   3.882
 2095SOL    HW1 7184   5.280   4.894   3.822
 2095SOL    HW2 7185   5.355   5.036   3.849
 2096SOL     OW 7186   4.139   6.658   3.088
 2096SOL    HW1 7187   4.158   6.757   3.085
 2096SOL    HW2 7188   4.191   6.613   3.016
 2097SOL     OW 7189   0.998   6.052   5.503
 2097SOL    HW1 7190   1.026   5.957   5.516
 2097SOL    HW2 7191   0.942   6.059   5.420
 2098SOL     OW 7192   1.839   6.841   3.759
 2098SOL    HW1 7193   1.796   6.818   3.672
 2098SOL    HW2 7194   1.839   6.941   3.770
 2099SOL     OW 7195   4.612   1.452   6.951
 2099SOL    HW1 7196   4.558   1.476   0.005
 2099SOL    HW2 7197   4.660   1.533   6.917
 2100SOL     OW 7198   5.015   0.405   6.867
 2100SOL    HW1 7199   4.948   0.372   6.801
 2100SOL    HW2 7200   4.993   0.499   6.892
 2101SOL     OW 7201   1.876   0.670   2.659
 2101SOL    HW1 7202   1.890   0.571   2.648
 2101SOL    HW2 7203   1.902   0.717   2.575
 2102SOL     OW 7204   3.675   2.789   1.791
 2102SOL    HW1 7205   3.683   2.857   1.718
 2102SOL    HW2 7206   3.736   2.815   1.867
 2103SOL     OW 7207   1.601   6.741   0.984
 2103SOL    HW1 7208   1.575   6.836   0.999
 2103SOL    HW2 7209   1.526   6.680   1.010
 2104SOL     OW 7210   1.058   4.362   2.550
 2104SOL    HW1 7211   1.158   4.363   2.547
 2104SOL    HW2 7212   1.027   4.408   2.633
 2105SOL     OW 7213   5.570   6.787   4.930
 2105SOL    HW1 7214   5.633   6.752   4.861
 2105SOL    HW2 7215   5.492   6.725   4.939
 2106SOL     OW 7216   3.468   2.335   1.244
 2106SOL    HW1 7217   3.394   2.273   1.271
 2106SOL    HW2 7218   3.506   2.305   1.156
 2107SOL     OW 7219   4.994   4.344   4.696
 2107SOL    HW1 7220   5.045   4.330   4.780
 2107SOL    HW2 7221   4.962   4.255   4.662
 2108SOL     OW 7222   4.566   6.766   4.907
 2108SOL    HW1 7223   4.636   6.820   4.860
 2108SOL    HW2 7224   4.513   6.715   4.839
 2109SOL     OW 7225   2.512   5.894   1.949
 2109SOL    HW1 7226   2.507   5.802   1.988
 2109SOL    HW2 7227   2.433   5.910   1.890
 2110SOL     OW 7228   3.770   6.028   6.834
 2110SOL    HW1 7229   3.672   6.046   6.846
 2110SOL    HW2 7230   3.786   5.929   6.834
 2111SOL     OW 7231   0.750   2.566   0.230
 2111SOL    HW1 7232   0.655   2.587   0.206
 2111SOL    HW2 7233   0.805   2.559   0.147
 2112SOL     OW 7234   0.712   0.309   6.624
 2112SOL    HW1 7235   0.677   0.262   6.543
 2112SOL    HW2 7236   0.744   0.242   6.690
 2113SOL     OW 7237   0.042   1.515   4.714
 2113SOL    HW1 7238   7.015   1.496   4.632
 2113SOL    HW2 7239   7.008   1.536   4.790
 2114SOL     OW 7240   2.798   1.552   5.234
 2114SOL    HW1 7241   2.760   1.574   5.144
 2114SOL    HW2 7242   2.812   1.453   5.241
 2115SOL     OW 7243   6.532   6.703   3.692
 2115SOL    HW1 7244   6.574   6.618   3.723
 2115SOL    HW2 7245   6.453   6.724   3.750
 2116SOL     OW 7246   2.145   1.501   6.459
 2116SOL    HW1 7247   2.116   1.589   6.498
 2116SOL    HW2 7248   2.190   1.517   6.371
 2117SOL     OW 7249   5.725   2.817   2.146
 2117SOL    HW1 7250   5.629   2.824   2.120
 2117SOL    HW2 7251   5.782   2.825   2.064
 2118SOL     OW 7252   0.510   3.142   2.629
 2118SOL    HW1 7253   0.444   3.210   2.660
 2118SOL    HW2 7254   0.547   3.092   2.708
 2119SOL     OW 7255   1.286   3.106   0.670
 2119SOL    HW1 7256   1.187   3.090   0.668
 2119SOL    HW2 7257   1.312   3.147   0.757
 2120SOL     OW 7258   5.205   1.792   0.260
 2120SOL    HW1 7259   5.299   1.760   0.274
 2120SOL    HW2 7260   5.157   1.729   0.199
 2121SOL     OW 7261   2.604   6.645   1.303
 2121SOL    HW1 7262   2.602   6.590   1.387
 2121SOL    HW2 7263   2.529   6.617   1.243
 2122SOL     OW 7264   6.998   0.495   4.598
 2122SOL    HW1 7265   0.049   0.482   4.536
 2122SOL    HW2 7266   6.940   0.568   4.562
 2123SOL     OW 7267   1.173   5.019   3.287
 2123SOL    HW1 7268   1.248   4.974   3.239
 2123SOL    HW2 7269   1.087   4.998   3.242
 2124SOL     OW 7270   4.891   3.035   6.009
 2124SOL    HW1 7271   4.930   3.123   6.035
 2124SOL    HW2 7272   4.800   3.026   6.048
 2125SOL     OW 7273   1.267   5.622   5.234
 2125SOL    HW1 7274   1.239   5.533   5.197
 2125SOL    HW2 7275   1.365   5.634   5.223
 2126SOL     OW 7276   2.966   5.112   1.426
 2126SOL    HW1 7277   3.004   5.061   1.350
 2126SOL    HW2 7278   2.983   5.063   1.511
 2127SOL     OW 7279   1.321   3.560   4.595
 2127SOL    HW1 7280   1.321   3.621   4.516
 2127SOL    HW2 7281   1.411   3.559   4.637
 2128SOL     OW 7282   5.454   3.121   1.426
 2128SOL    HW1 7283   5.443   3.168   1.338
 2128SOL    HW2 7284   5.551   3.112   1.447
 2129SOL     OW 7285   5.588   4.085   4.194
 2129SOL    HW1 7286   5.491   4.061   4.195
 2129SOL    HW2 7287   5.601   4.168   4.139
 2130SOL     OW 7288   2.509   0.580   2.566
 2130SOL    HW1 7289   2.591   0.550   2.517
 2130SOL    HW2 7290   2.465   0.654   2.516
 2131SOL     OW 7291   6.002   0.921   6.697
 2131SOL    HW1 7292   5.982   1.003   6.752
 2131SOL    HW2 7293   5.928   0.855   6.708
 2132SOL     OW 7294   2.725   2.835   0.352
 2132SOL    HW1 7295   2.725   2.735   0.352
 2132SOL    HW2 7296   2.707   2.868   0.260
 2133SOL     OW 7297   4.106   2.409   1.696
 2133SOL    HW1 7298   4.196   2.449   1.713
 2133SOL    HW2 7299   4.099   2.383   1.599
 2134SOL     OW 7300   2.630   0.286   5.525
 2134SOL    HW1 7301   2.540   0.262   5.488
 2134SOL    HW2 7302   2.625   0.293   5.625
 2135SOL     OW 7303   0.874   5.841   4.095
 2135SOL    HW1 7304   0.808   5.802   4.159
 2135SOL    HW2 7305   0.926   5.913   4.140
 2136SOL     OW 7306   0.915   4.949   3.489
 2136SOL    HW1 7307   0.919   5.048   3.477
 2136SOL    HW2 7308   0.820   4.918   3.486
 2137SOL     OW 7309   0.436   6.886   4.547
 2137SOL    HW1 7310   0.470   6.948   4.475
 2137SOL    HW2 7311   0.514   6.855   4.602
 2138SOL     OW 7312   1.308   2.197   6.176
 2138SOL    HW1 7313   1.276   2.102   6.180
 2138SOL    HW2 7314   1.332   2.221   6.082
 2139SOL     OW 7315   3.162   6.534   4.423
 2139SOL    HW1 7316   3.260   6.520   4.413
 2139SOL    HW2 7317   3.118   6.448   4.449
 2140SOL     OW 7318   1.377   5.706   3.653
 2140SOL    HW1 7319   1.372   5.764   3.735
 2140SOL    HW2 7320   1.440   5.630   3.671
 2141SOL     OW 7321   0.164   1.535   6.839
 2141SOL    HW1 7322   0.085   1.597   6.836
 2141SOL    HW2 7323   0.132   1.440   6.843
 2142SOL     OW 7324   4.217   1.085   3.228
 2142SOL    HW1 7325   4.295   1.137   3.193
 2142SOL    HW2 7326   4.247   1.028   3.304
 2143SOL     OW 7327   3.356   5.954   0.392
 2143SOL    HW1 7328   3.271   5.955   0.445
 2143SOL    HW2 7329   3.385   5.859   0.379
 2144SOL     OW 7330   1.291   1.238   1.663
 2144SOL    HW1 7331   1.206   1.208   1.619
 2144SOL    HW2 7332   1.305   1.186   1.747
 2145SOL     OW 7333   2.287   5.672   3.361
 2145SOL    HW1 7334   2.218   5.741   3.384
 2145SOL    HW2 7335   2.297   5.667   3.262
 2146SOL     OW 7336   2.912   2.432   0.904
 2146SOL    HW1 7337   2.849   2.426   0.827
 2146SOL    HW2 7338   2.935   2.340   0.935
 2147SOL     OW 7339   0.401   0.519   4.899
 2147SOL    HW1 7340   0.305   0.535   4.922
 2147SOL    HW2 7341   0.433   0.593   4.839
 2148SOL     OW 7342   6.573   3.566   4.399
 2148SOL    HW1 7343   6.611   3.615   4.478
 2148SOL    HW2 7344   6.583   3.468   4.413
 2149SOL     OW 7345   3.018   1.129   3.154
 2149SOL    HW1 7346   2.958   1.147   3.232
 2149SOL    HW2 7347   2.973   1.064   3.092
 2150SOL     OW 7348   5.107   6.976   2.940
 2150SOL    HW1 7349   5.047   6.901   2.912
 2150SOL    HW2 7350   5.135   0.002   2.860
 2151SOL     OW 7351   4.952   4.858   5.980
 2151SOL    HW1 7352   4.931   4.905   6.065
 2151SOL    HW2 7353   5.046   4.824   5.983
 2152SOL     OW 7354   0.181   6.678   2.402
 2152SOL    HW1 7355   0.139   6.685   2.311
 2152SOL    HW2 7356   0.280   6.674   2.393
 2153SOL     OW 7357   4.469   1.535   4.017
 2153SOL    HW1 7358   4.474   1.623   3.969
 2153SOL    HW2 7359   4.374   1.509   4.030
 2154SOL     OW 7360   3.621   6.607   4.971
 2154SOL    HW1 7361   3.604   6.528   4.912
 2154SOL    HW2 7362   3.537   6.661   4.978
 2155SOL     OW 7363   5.452   3.283   0.525
 2155SOL    HW1 7364   5.394   3.343   0.470
 2155SOL    HW2 7365   5.487   3.209   0.467
 2156SOL     OW 7366   6.515   6.764   2.700
 2156SOL    HW1 7367   6.567   6.681   2.679
 2156SOL    HW2 7368   6.508   6.820   2.617
 2157SOL     OW 7369   6.124   1.276   3.903
 2157SOL    HW1 7370   6.033   1.243   3.880
 2157SOL    HW2 7371   6.186   1.198   3.914
 2158SOL     OW 7372   4.286   7.004   3.831
 2158SOL    HW1 7373   4.194   0.004   3.857
 2158SOL    HW2 7374   4.326   0.048   3.773
 2159SOL     OW 7375   2.336   0.984   5.198
 2159SOL    HW1 7376   2.321   0.904   5.141
 2159SOL    HW2 7377   2.404   1.044   5.155
 2160SOL     OW 7378   2.458   3.602   0.853
 2160SOL    HW1 7379   2.461   3.506   0.825
 2160SOL    HW2 7380   2.512   3.657   0.789
 2161SOL     OW 7381   4.804   2.803   3.538
 2161SOL    HW1 7382   4.784   2.746   3.617
 2161SOL    HW2 7383   4.820   2.897   3.567
 2162SOL     OW 7384   2.778   1.579   1.936
 2162SOL    HW1 7385   2.799   1.491   1.979
 2162SOL    HW2 7386   2.684   1.605   1.959
 2163SOL     OW 7387   3.538   1.676   0.976
 2163SOL    HW1 7388   3.539   1.578   0.959
 2163SOL    HW2 7389   3.556   1.694   1.072
 2164SOL     OW 7390   6.937   0.827   1.460
 2164SOL    HW1 7391   6.952   0.760   1.533
 2164SOL    HW2 7392   6.845   0.864   1.467
 2165SOL     OW 7393   2.614   0.307   2.004
 2165SOL    HW1 7394   2.526   0.294   2.049
 2165SOL    HW2 7395   2.606   0.379   1.935
 2166SOL     OW 7396   5.479   2.569   5.550
 2166SOL    HW1 7397   5.449   2.473   5.553
 2166SOL    HW2 7398   5.444   2.613   5.468
 2167SOL     OW 7399   3.728   1.242   0.898
 2167SOL    HW1 7400   3.669   1.234   0.978
 2167SOL    HW2 7401   3.672   1.245   0.815
 2168SOL     OW 7402   5.778   6.143   4.470
 2168SOL    HW1 7403   5.798   6.210   4.541
 2168SOL    HW2 7404   5.828   6.166   4.386
 2169SOL     OW 7405   5.758   1.381   5.791
 2169SOL    HW1 7406   5.665   1.404   5.821
 2169SOL    HW2 7407   5.757   1.358   5.693
 2170SOL     OW 7408   5.154   4.779   4.018
 2170SOL    HW1 7409   5.199   4.706   4.070
 2170SOL    HW2 7410   5.190   4.867   4.047
 2171SOL     OW 7411   6.751   3.599   6.881
 2171SOL    HW1 7412   6.688   3.622   6.807
 2171SOL    HW2 7413   6.725   3.648   6.964
 2172SOL     OW 7414   2.501   0.538   2.142
 2172SOL    HW1 7415   2.540   0.588   2.219
 2172SOL    HW2 7416   2.456   0.455   2.175
 2173SOL     OW 7417   4.781   2.065   4.819
 2173SOL    HW1 7418   4.872   2.053   4.778
 2173SOL    HW2 7419   4.768   2.160   4.844
 2174SOL     OW 7420   1.105   5.574   4.798
 2174SOL    HW1 7421   1.197   5.537   4.808
 2174SOL    HW2 7422   1.042   5.501   4.772
 2175SOL     OW 7423   1.771   6.753   5.950
 2175SOL    HW1 7424   1.699   6.783   5.888
 2175SOL    HW2 7425   1.855   6.739   5.899
 2176SOL     OW 7426   1.948   2.525   2.829
 2176SOL    HW1 7427   1.876   2.566   2.773
 2176SOL    HW2 7428   2.032   2.518   2.776
 2177SOL     OW 7429   1.697   1.473   1.640
 2177SOL    HW1 7430   1.710   1.572   1.649
 2177SOL    HW2 7431   1.785   1.430   1.621
 2178SOL     OW 7432   6.290   6.461   0.536
 2178SOL    HW1 7433   6.327   6.543   0.580
 2178SOL    HW2 7434   6.344   6.438   0.455
 2179SOL     OW 7435   2.182   3.838   4.169
 2179SOL    HW1 7436   2.211   3.932   4.189
 2179SOL    HW2 7437   2.092   3.839   4.127
 2180SOL     OW 7438   3.242   2.873   1.736
 2180SOL    HW1 7439   3.191   2.926   1.804
 2180SOL    HW2 7440   3.214   2.777   1.741
 2181SOL     OW 7441   3.256   6.682   1.403
 2181SOL    HW1 7442   3.239   6.740   1.483
 2181SOL    HW2 7443   3.198   6.712   1.327
 2182SOL     OW 7444   4.414   3.208   0.855
 2182SOL    HW1 7445   4.438   3.164   0.769
 2182SOL    HW2 7446   4.477   3.176   0.927
 2183SOL     OW 7447   3.602   2.638   0.718
 2183SOL    HW1 7448   3.582   2.665   0.624
 2183SOL    HW2 7449   3.516   2.630   0.769
 2184SOL     OW 7450   5.237   2.986   6.283
 2184SOL    HW1 7451   5.174   2.919   6.322
 2184SOL    HW2 7452   5.220   2.996   6.185
 2185SOL     OW 7453   6.446   7.020   2.174
 2185SOL    HW1 7454   6.436   6.997   2.077
 2185SOL    HW2 7455   6.446   6.935   2.228
 2186SOL     OW 7456   0.356   4.309   3.068
 2186SOL    HW1 7457   0.276   4.316   3.127
 2186SOL    HW2 7458   0.417   4.387   3.084
 2187SOL     OW 7459   6.434   1.569   0.292
 2187SOL    HW1 7460   6.506   1.500   0.289
 2187SOL    HW2 7461   6.400   1.585   0.199
 2188SOL     OW 7462   4.956   1.636   3.840
 2188SOL    HW1 7463   4.909   1.683   3.915
 2188SOL    HW2 7464   4.915   1.664   3.753
 2189SOL     OW 7465   3.730   6.812   0.248
 2189SOL    HW1 7466   3.673   6.887   0.280
 2189SOL    HW2 7467   3.813   6.806   0.305
 2190SOL     OW 7468   5.149   2.916   0.348
 2190SOL    HW1 7469   5.052   2.938   0.339
 2190SOL    HW2 7470   5.202   2.968   0.281
 2191SOL     OW 7471   3.398   1.300   6.741
 2191SOL    HW1 7472   3.409   1.201   6.734
 2191SOL    HW2 7473   3.422   1.343   6.655
 2192SOL     OW 7474   3.703   5.920   2.099
 2192SOL    HW1 7475   3.778   5.960   2.048
 2192SOL    HW2 7476   3.636   5.880   2.036
 2193SOL     OW 7477   6.728   6.212   4.724
 2193SOL    HW1 7478   6.825   6.221   4.701
 2193SOL    HW2 7479   6.716   6.219   4.823
 2194SOL     OW 7480   2.845   6.903   1.968
 2194SOL    HW1 7481   2.746   6.914   1.957
 2194SOL    HW2 7482   2.865   6.816   2.012
 2195SOL     OW 7483   0.507   4.517   1.869
 2195SOL    HW1 7484   0.428   4.523   1.807
 2195SOL    HW2 7485   0.477   4.536   1.963
 2196SOL     OW 7486   4.621   3.935   0.135
 2196SOL    HW1 7487   4.627   4.009   0.067
 2196SOL    HW2 7488   4.647   3.971   0.224
 2197SOL     OW 7489   4.600   3.321   6.899
 2197SOL    HW1 7490   4.596   3.421   6.903
 2197SOL    HW2 7491   4.694   3.290   6.912
 2198SOL     OW 7492   6.911   4.464   7.013
 2198SOL    HW1 7493   6.905   4.378   0.037
 2198SOL    HW2 7494   6.824   4.513   7.020
 2199SOL     OW 7495   4.488   1.418   3.606
 2199SOL    HW1 7496   4.396   1.381   3.617
 2199SOL    HW2 7497   4.490   1.479   3.527
 2200SOL     OW 7498   3.120   7.000   4.308
 2200SOL    HW1 7499   3.169   6.956   4.232
 2200SOL    HW2 7500   3.115   0.072   4.292
 2201SOL     OW 7501   4.779   4.732   4.396
 2201SOL    HW1 7502   4.741   4.669   4.464
 2201SOL    HW2 7503   4.879   4.731   4.403
 2202SOL     OW 7504   4.627   5.572   3.471
 2202SOL    HW1 7505   4.530   5.548   3.466
 2202SOL    HW2 7506   4.636   5.672   3.474
 2203SOL     OW 7507   2.600   2.115   2.917
 2203SOL    HW1 7508   2.593   2.036   2.856
 2203SOL    HW2 7509   2.686   2.163   2.899
 2204SOL     OW 7510   3.007   2.177   0.806
 2204SOL    HW1 7511   3.058   2.196   0.890
 2204SOL    HW2 7512   3.064   2.122   0.744
 2205SOL     OW 7513   3.269   1.178   2.536
 2205SOL    HW1 7514   3.189   1.215   2.583
 2205SOL    HW2 7515   3.303   1.246   2.470
 2206SOL     OW 7516   1.430   3.699   0.472
 2206SOL    HW1 7517   1.388   3.710   0.383
 2206SOL    HW2 7518   1.412   3.607   0.507
 2207SOL     OW 7519   6.579   4.679   5.008
 2207SOL    HW1 7520   6.508   4.697   5.076
 2207SOL    HW2 7521   6.538   4.639   4.927
 2208SOL     OW 7522   6.382   5.586   1.689
 2208SOL    HW1 7523   6.412   5.681   1.678
 2208SOL    HW2 7524   6.368   5.545   1.599
 2209SOL     OW 7525   0.212   6.360   1.503
 2209SOL    HW1 7526   0.277   6.354   1.579
 2209SOL    HW2 7527   0.124   6.394   1.536
 2210SOL     OW 7528   2.019   5.103   4.186
 2210SOL    HW1 7529   2.025   5.192   4.140
 2210SOL    HW2 7530   2.110   5.078   4.221
 2211SOL     OW 7531   6.883   1.542   5.192
 2211SOL    HW1 7532   6.943   1.617   5.221
 2211SOL    HW2 7533   6.934   1.478   5.135
 2212SOL     OW 7534   3.374   0.233   5.870
 2212SOL    HW1 7535   3.367   0.162   5.801
 2212SOL    HW2 7536   3.415   0.196   5.953
 2213SOL     OW 7537   4.922   0.315   3.117
 2213SOL    HW1 7538   4.830   0.345   3.139
 2213SOL    HW2 7539   4.963   0.270   3.197
 2214SOL     OW 7540   3.606   6.970   5.058
 2214SOL    HW1 7541   3.563   0.032   5.070
 2214SOL    HW2 7542   3.704   6.983   5.042
 2215SOL     OW 7543   5.820   2.075   5.342
 2215SOL    HW1 7544   5.821   2.110   5.248
 2215SOL    HW2 7545   5.831   2.152   5.405
 2216SOL     OW 7546   3.146   1.917   2.569
 2216SOL    HW1 7547   3.174   1.833   2.523
 2216SOL    HW2 7548   3.166   1.911   2.667
 2217SOL     OW 7549   3.425   7.025   1.604
 2217SOL    HW1 7550   3.403   7.013   1.701
 2217SOL    HW2 7551   3.516   0.040   1.595
 2218SOL     OW 7552   0.089   0.785   2.346
 2218SOL    HW1 7553   0.022   0.722   2.387
 2218SOL    HW2 7554   0.173   0.734   2.325
 2219SOL     OW 7555   2.771   2.360   2.918
 2219SOL    HW1 7556   2.833   2.334   2.843
 2219SOL    HW2 7557   2.804   2.322   3.004
 2220SOL     OW 7558   1.213   0.188   2.290
 2220SOL    HW1 7559   1.115   0.204   2.275
 2220SOL    HW2 7560   1.264   0.269   2.260
 2221SOL     OW 7561   0.343   0.113   5.605
 2221SOL    HW1 7562   0.395   0.197   5.622
 2221SOL    HW2 7563   0.354   0.051   5.683
 2222SOL     OW 7564   6.181   5.100   3.911
 2222SOL    HW1 7565   6.202   5.110   3.814
 2222SOL    HW2 7566   6.084   5.079   3.922
 2223SOL     OW 7567   6.959   6.408   1.579
 2223SOL    HW1 7568   6.944   6.496   1.625
 2223SOL    HW2 7569   7.002   6.344   1.643
 2224SOL     OW 7570   0.602   5.618   0.372
 2224SOL    HW1 7571   0.667   5.621   0.296
 2224SOL    HW2 7572   0.545   5.536   0.363
 2225SOL     OW 7573   0.386   4.026   0.134
 2225SOL    HW1 7574   0.402   3.943   0.187
 2225SOL    HW2 7575   0.462   4.041   0.072
 2226SOL     OW 7576   4.149   3.339   2.336
 2226SOL    HW1 7577   4.232   3.339   2.280
 2226SOL    HW2 7578   4.105   3.428   2.330
 2227SOL     OW 7579   0.444   1.769   4.339
 2227SOL    HW1 7580   0.503   1.701   4.381
 2227SOL    HW2 7581   0.451   1.762   4.239
 2228SOL     OW 7582   2.565   4.556   4.100
 2228SOL    HW1 7583   2.538   4.562   4.195
 2228SOL    HW2 7584   2.643   4.617   4.083
 2229SOL     OW 7585   6.509   6.172   3.135
 2229SOL    HW1 7586   6.525   6.089   3.082
 2229SOL    HW2 7587   6.570   6.244   3.103
 2230SOL     OW 7588   1.948   4.948   2.823
 2230SOL    HW1 7589   2.029   5.002   2.846
 2230SOL    HW2 7590   1.930   4.955   2.725
 2231SOL     OW 7591   2.067   6.018   1.096
 2231SOL    HW1 7592   2.127   6.094   1.072
 2231SOL    HW2 7593   1.972   6.048   1.095
 2232SOL     OW 7594   5.832   2.251   4.107
 2232SOL    HW1 7595   5.857   2.286   4.017
 2232SOL    HW2 7596   5.739   2.280   4.130
 2233SOL     OW 7597   3.827   1.298   0.021
 2233SOL    HW1 7598   3.868   1.354   0.094
 2233SOL    HW2 7599   3.874   1.210   0.017
 2234SOL     OW 7600   3.858   2.437   0.962
 2234SOL    HW1 7601   3.816   2.523   0.992
 2234SOL    HW2 7602   3.949   2.455   0.926
 2235SOL     OW 7603   2.041   2.101   2.490
 2235SOL    HW1 7604   2.136   2.119   2.465
 2235SOL    HW2 7605   1.991   2.188   2.498
 2236SOL     OW 7606   1.109   4.295   5.139
 2236SOL    HW1 7607   1.090   4.308   5.236
 2236SOL    HW2 7608   1.023   4.297   5.088
 2237SOL     OW 7609   6.807   2.864   4.173
 2237SOL    HW1 7610   6.809   2.831   4.267
 2237SOL    HW2 7611   6.899   2.896   4.147
 2238SOL     OW 7612   5.432   6.143   0.001
 2238SOL    HW1 7613   5.489   6.110   0.077
 2238SOL    HW2 7614   5.474   6.117   6.941
 2239SOL     OW 7615   6.685   5.980   1.171
 2239SOL    HW1 7616   6.651   5.910   1.109
 2239SOL    HW2 7617   6.784   5.976   1.175
 2240SOL     OW 7618   6.197   3.808   1.541
 2240SOL    HW1 7619   6.264   3.874   1.575
 2240SOL    HW2 7620   6.186   3.734   1.608
 2241SOL     OW 7621   1.169   0.651   3.880
 2241SOL    HW1 7622   1.267   0.636   3.871
 2241SOL    HW2 7623   1.153   0.744   3.913
 2242SOL     OW 7624   3.045   1.490   3.038
 2242SOL    HW1 7625   3.138   1.489   3.001
 2242SOL    HW2 7626   2.995   1.410   3.006
 2243SOL     OW 7627   2.071   0.223   5.171
 2243SOL    HW1 7628   1.992   0.274   5.205
 2243SOL    HW2 7629   2.047   0.175   5.087
 2244SOL     OW 7630   4.115   0.578   5.058
 2244SOL    HW1 7631   4.083   0.612   5.147
 2244SOL    HW2 7632   4.157   0.488   5.071
 2245SOL     OW 7633   0.476   2.438   2.479
 2245SOL    HW1 7634   0.540   2.368   2.448
 2245SOL    HW2 7635   0.386   2.397   2.496
 2246SOL     OW 7636   0.868   4.163   5.363
 2246SOL    HW1 7637   0.917   4.247   5.386
 2246SOL    HW2 7638   0.783   4.186   5.316
 2247SOL     OW 7639   1.839   1.353   4.404
 2247SOL    HW1 7640   1.818   1.429   4.466
 2247SOL    HW2 7641   1.790   1.271   4.434
 2248SOL     OW 7642   5.571   4.203   6.130
 2248SOL    HW1 7643   5.596   4.143   6.053
 2248SOL    HW2 7644   5.650   4.214   6.190
 2249SOL     OW 7645   5.104   5.742   5.483
 2249SOL    HW1 7646   5.040   5.727   5.409
 2249SOL    HW2 7647   5.188   5.784   5.448
 2250SOL     OW 7648   4.619   4.939   1.583
 2250SOL    HW1 7649   4.602   5.035   1.561
 2250SOL    HW2 7650   4.606   4.925   1.681
 2251SOL     OW 7651   0.525   0.978   5.848
 2251SOL    HW1 7652   0.541   0.887   5.812
 2251SOL    HW2 7653   0.597   1.040   5.817
 2252SOL     OW 7654   3.576   1.107   6.465
 2252SOL    HW1 7655   3.530   1.092   6.377
 2252SOL    HW2 7656   3.575   1.022   6.518
 2253SOL     OW 7657   0.709   4.382   0.030
 2253SOL    HW1 7658   0.751   4.449   6.995
 2253SOL    HW2 7659   0.757   4.295   0.020
 2254SOL     OW 7660   1.934   4.771   6.315
 2254SOL    HW1 7661   2.019   4.819   6.291
 2254SOL    HW2 7662   1.856   4.824   6.282
 2255SOL     OW 7663   6.660   3.568   6.489
 2255SOL    HW1 7664   6.614   3.540   6.573
 2255SOL    HW2 7665   6.752   3.601   6.510
 2256SOL     OW 7666   2.490   5.118   1.745
 2256SOL    HW1 7667   2.408   5.122   1.687
 2256SOL    HW2 7668   2.539   5.033   1.727
 2257SOL     OW 7669   1.498   4.065   5.015
 2257SOL    HW1 7670   1.473   3.970   4.999
 2257SOL    HW2 7671   1.416   4.122   5.016
 2258SOL     OW 7672   1.891   5.299   5.120
 2258SOL    HW1 7673   1.798   5.275   5.144
 2258SOL    HW2 7674   1.940   5.218   5.086
 2259SOL     OW 7675   6.308   2.151   5.950
 2259SOL    HW1 7676   6.289   2.054   5.935
 2259SOL    HW2 7677   6.387   2.161   6.011
 2260SOL     OW 7678   3.827   3.256   0.437
 2260SOL    HW1 7679   3.872   3.343   0.457
 2260SOL    HW2 7680   3.890   3.181   0.457
 2261SOL     OW 7681   2.091   6.366   5.167
 2261SOL    HW1 7682   2.129   6.413   5.087
 2261SOL    HW2 7683   2.101   6.267   5.155
 2262SOL     OW 7684   3.508   1.773   2.904
 2262SOL    HW1 7685   3.580   1.769   2.834
 2262SOL    HW2 7686   3.480   1.868   2.917
 2263SOL     OW 7687   0.913   4.504   5.968
 2263SOL    HW1 7688   0.966   4.419   5.959
 2263SOL    HW2 7689   0.855   4.499   6.049
 2264SOL     OW 7690   3.730   3.801   3.080
 2264SOL    HW1 7691   3.706   3.704   3.078
 2264SOL    HW2 7692   3.829   3.811   3.095
 2265SOL     OW 7693   0.881   6.779   4.041
 2265SOL    HW1 7694   0.849   6.858   3.989
 2265SOL    HW2 7695   0.858   6.792   4.138
 2266SOL     OW 7696   6.632   0.548   5.720
 2266SOL    HW1 7697   6.627   0.477   5.650
 2266SOL    HW2 7698   6.698   0.521   5.790
 2267SOL     OW 7699   5.586   1.769   5.316
 2267SOL    HW1 7700   5.520   1.730   5.380
 2267SOL    HW2 7701   5.674   1.781   5.363
 2268SOL     OW 7702   6.753   5.943   0.235
 2268SOL    HW1 7703   6.797   5.853   0.236
 2268SOL    HW2 7704   6.731   5.967   0.141
 2269SOL     OW 7705   0.025   6.579   2.883
 2269SOL    HW1 7706   0.081   6.653   2.919
 2269SOL    HW2 7707   0.041   6.568   2.785
 2270SOL     OW 7708   3.591   3.301   3.236
 2270SOL    HW1 7709   3.627   3.239   3.167
 2270SOL    HW2 7710   3.580   3.392   3.196
 2271SOL     OW 7711   1.783   4.523   2.779
 2271SOL    HW1 7712   1.868   4.492   2.822
 2271SOL    HW2 7713   1.793   4.520   2.679
 2272SOL     OW 7714   5.061   0.562   5.478
 2272SOL    HW1 7715   4.967   0.596   5.487
 2272SOL    HW2 7716   5.097   0.540   5.569
 2273SOL     OW 7717   0.700   1.618   2.417
 2273SOL    HW1 7718   0.661   1.567   2.340
 2273SOL    HW2 7719   0.644   1.699   2.434
 2274SOL     OW 7720   0.908   4.078   3.294
 2274SOL    HW1 7721   0.955   4.022   3.226
 2274SOL    HW2 7722   0.874   4.019   3.368
 2275SOL     OW 7723   4.910   6.747   3.321
 2275SOL    HW1 7724   4.879   6.652   3.309
 2275SOL    HW2 7725   4.851   6.808   3.268
 2276SOL     OW 7726   3.213   5.579   2.131
 2276SOL    HW1 7727   3.148   5.645   2.092
 2276SOL    HW2 7728   3.168   5.490   2.142
 2277SOL     OW 7729   3.146   2.988   2.177
 2277SOL    HW1 7730   3.098   3.053   2.236
 2277SOL    HW2 7731   3.174   2.909   2.231
 2278SOL     OW 7732   3.790   5.462   1.049
 2278SOL    HW1 7733   3.824   5.377   1.089
 2278SOL    HW2 7734   3.733   5.510   1.116
 2279SOL     OW 7735   5.692   4.050   5.952
 2279SOL    HW1 7736   5.691   4.033   5.853
 2279SOL    HW2 7737   5.696   3.963   6.001
 2280SOL     OW 7738   5.770   0.314   6.130
 2280SOL    HW1 7739   5.732   0.238   6.077
 2280SOL    HW2 7740   5.702   0.348   6.194
 2281SOL     OW 7741   2.257   0.982   0.381
 2281SOL    HW1 7742   2.168   0.972   0.425
 2281SOL    HW2 7743   2.282   1.079   0.379
 2282SOL     OW 7744   4.025   6.098   2.428
 2282SOL    HW1 7745   3.944   6.128   2.377
 2282SOL    HW2 7746   4.053   6.007   2.396
 2283SOL     OW 7747   0.851   3.663   1.428
 2283SOL    HW1 7748   0.915   3.603   1.476
 2283SOL    HW2 7749   0.758   3.644   1.458
 2284SOL     OW 7750   2.417   2.504   1.204
 2284SOL    HW1 7751   2.508   2.542   1.186
 2284SOL    HW2 7752   2.353   2.579   1.218
 2285SOL     OW 7753   1.594   3.130   6.975
 2285SOL    HW1 7754   1.659   3.063   7.011
 2285SOL    HW2 7755   1.503   3.111   7.012
 2286SOL     OW 7756   6.565   6.604   4.054
 2286SOL    HW1 7757   6.530   6.698   4.048
 2286SOL    HW2 7758   6.536   6.553   3.974
 2287SOL     OW 7759   2.997   1.629   1.107
 2287SOL    HW1 7760   2.902   1.608   1.083
 2287SOL    HW2 7761   3.018   1.724   1.082
 2288SOL     OW 7762   2.661   6.129   4.513
 2288SOL    HW1 7763   2.638   6.184   4.594
 2288SOL    HW2 7764   2.595   6.148   4.440
 2289SOL     OW 7765   4.038   0.440   6.758
 2289SOL    HW1 7766   4.023   0.516   6.695
 2289SOL    HW2 7767   4.134   0.413   6.757
 2290SOL     OW 7768   3.143   3.322   4.426
 2290SOL    HW1 7769   3.111   3.367   4.343
 2290SOL    HW2 7770   3.070   3.323   4.495
 2291SOL     OW 7771   2.690   2.328   0.402
 2291SOL    HW1 7772   2.775   2.275   0.401
 2291SOL    HW2 7773   2.615   2.271   0.433
 2292SOL     OW 7774   5.149   2.339   3.368
 2292SOL    HW1 7775   5.222   2.365   3.304
 2292SOL    HW2 7776   5.154   2.241   3.387
 2293SOL     OW 7777   0.934   1.135   6.710
 2293SOL    HW1 7778   0.852   1.137   6.767
 2293SOL    HW2 7779   0.944   1.224   6.665
 2294SOL     OW 7780   6.480   2.180   5.036
 2294SOL    HW1 7781   6.429   2.239   4.973
 2294SOL    HW2 7782   6.540   2.236   5.093
 2295SOL     OW 7783   5.497   6.063   0.282
 2295SOL    HW1 7784   5.472   6.133   0.349
 2295SOL    HW2 7785   5.430   5.988   0.285
 2296SOL     OW 7786   3.699   5.730   4.825
 2296SOL    HW1 7787   3.619   5.774   4.865
 2296SOL    HW2 7788   3.676   5.692   4.736
 2297SOL     OW 7789   6.262   2.897   6.623
 2297SOL    HW1 7790   6.327   2.884   6.697
 2297SOL    HW2 7791   6.297   2.856   6.539
 2298SOL     OW 7792   2.895   3.710   5.223
 2298SOL    HW1 7793   2.943   3.766   5.291
 2298SOL    HW2 7794   2.801   3.741   5.214
 2299SOL     OW 7795   5.873   3.417   4.876
 2299SOL    HW1 7796   5.906   3.345   4.937
 2299SOL    HW2 7797   5.895   3.506   4.916
 2300SOL     OW 7798   5.306   7.023   2.705
 2300SOL    HW1 7799   5.374   0.003   2.777
 2300SOL    HW2 7800   5.333   6.952   2.640
 2301SOL     OW 7801   3.892   3.292   5.201
 2301SOL    HW1 7802   3.850   3.357   5.138
 2301SOL    HW2 7803   3.833   3.211   5.210
 2302SOL     OW 7804   6.550   3.448   5.854
 2302SOL    HW1 7805   6.537   3.520   5.922
 2302SOL    HW2 7806   6.508   3.476   5.768
 2303SOL     OW 7807   2.726   1.696   6.287
 2303SOL    HW1 7808   2.741   1.606   6.329
 2303SOL    HW2 7809   2.673   1.753   6.350
 2304SOL     OW 7810   5.379   0.131   2.323
 2304SOL    HW1 7811   5.320   0.172   2.392
 2304SOL    HW2 7812   5.324   0.102   2.244
 2305SOL     OW 7813   2.916   6.821   5.295
 2305SOL    HW1 7814   2.909   6.897   5.230
 2305SOL    HW2 7815   2.952   6.855   5.382
 2306SOL     OW 7816   0.497   4.541   4.794
 2306SOL    HW1 7817   0.511   4.525   4.696
 2306SOL    HW2 7818   0.541   4.627   4.821
 2307SOL     OW 7819   5.947   4.056   4.913
 2307SOL    HW1 7820   5.952   4.146   4.869
 2307SOL    HW2 7821   5.859   4.047   4.961
 2308SOL     OW 7822   1.096   5.940   2.014
 2308SOL    HW1 7823   1.034   5.865   1.988
 2308SOL    HW2 7824   1.138   5.920   2.103
 2309SOL     OW 7825   1.878   0.738   4.781
 2309SOL    HW1 7826   1.884   0.831   4.745
 2309SOL    HW2 7827   1.822   0.682   4.720
 2310SOL     OW 7828   4.651   6.379   0.220
 2310SOL    HW1 7829   4.714   6.457   0.221
 2310SOL    HW2 7830   4.559   6.409   0.245
 2311SOL     OW 7831   2.509   5.796   0.623
 2311SOL    HW1 7832   2.510   5.840   0.533
 2311SOL    HW2 7833   2.506   5.696   0.611
 2312SOL     OW 7834   2.743   4.794   3.124
 2312SOL    HW1 7835   2.693   4.775   3.209
 2312SOL    HW2 7836   2.769   4.890   3.121
 2313SOL     OW 7837   4.642   5.379   1.827
 2313SOL    HW1 7838   4.656   5.364   1.925
 2313SOL    HW2 7839   4.558   5.430   1.812
 2314SOL     OW 7840   2.298   4.216   3.160
 2314SOL    HW1 7841   2.307   4.135   3.219
 2314SOL    HW2 7842   2.284   4.297   3.218
 2315SOL     OW 7843   4.266   2.148   6.435
 2315SOL    HW1 7844   4.168   2.134   6.427
 2315SOL    HW2 7845   4.285   2.225   6.496
 2316SOL     OW 7846   5.191   3.079   1.440
 2316SOL    HW1 7847   5.285   3.084   1.473
 2316SOL    HW2 7848   5.128   3.078   1.517
 2317SOL     OW 7849   0.515   5.899   3.882
 2317SOL    HW1 7850   0.480   5.971   3.942
 2317SOL    HW2 7851   0.558   5.939   3.802
 2318SOL     OW 7852   6.596   1.673   3.669
 2318SOL    HW1 7853   6.564   1.624   3.588
 2318SOL    HW2 7854   6.600   1.610   3.746
 2319SOL     OW 7855   1.315   5.218   1.652
 2319SOL    HW1 7856   1.254   5.145   1.623
 2319SOL    HW2 7857   1.341   5.274   1.573
 2320SOL     OW 7858   6.404   4.793   3.882
 2320SOL    HW1 7859   6.343   4.804   3.960
 2320SOL    HW2 7860   6.361   4.735   3.814
 2321SOL     OW 7861   3.543   4.928   4.111
 2321SOL    HW1 7862   3.570   5.024   4.110
 2321SOL    HW2 7863   3.462   4.915   4.166
 2322SOL     OW 7864   2.634   0.436   4.596
 2322SOL    HW1 7865   2.667   0.481   4.513
 2322SOL    HW2 7866   2.541   0.467   4.617
 2323SOL     OW 7867   5.355   3.392   1.654
 2323SOL    HW1 7868   5.300   3.470   1.683
 2323SOL    HW2 7869   5.306   3.341   1.584
 2324SOL     OW 7870   0.161   5.049   4.025
 2324SOL    HW1 7871   0.216   5.103   3.960
 2324SOL    HW2 7872   0.178   4.952   4.011
 2325SOL     OW 7873   6.659   2.334   0.126
 2325SOL    HW1 7874   6.594   2.409   0.137
 2325SOL    HW2 7875   6.685   2.326   0.030
 2326SOL     OW 7876   0.381   4.570   0.773
 2326SOL    HW1 7877   0.400   4.573   0.675
 2326SOL    HW2 7878   0.306   4.506   0.790
 2327SOL     OW 7879   4.902   1.192   3.509
 2327SOL    HW1 7880   4.960   1.147   3.577
 2327SOL    HW2 7881   4.915   1.148   3.420
 2328SOL     OW 7882   6.196   5.113   3.625
 2328SOL    HW1 7883   6.134   5.042   3.591
 2328SOL    HW2 7884   6.153   5.203   3.615
 2329SOL     OW 7885   1.238   6.341   3.082
 2329SOL    HW1 7886   1.278   6.428   3.109
 2329SOL    HW2 7887   1.170   6.356   3.010
 2330SOL     OW 7888   1.330   4.551   0.016
 2330SOL    HW1 7889   1.349   4.497   0.098
 2330SOL    HW2 7890   1.396   4.528   6.972
 2331SOL     OW 7891   1.232   4.951   4.900
 2331SOL    HW1 7892   1.307   5.017   4.891
 2331SOL    HW2 7893   1.164   4.966   4.828
 2332SOL     OW 7894   6.098   3.244   5.786
 2332SOL    HW1 7895   6.094   3.339   5.757
 2332SOL    HW2 7896   6.066   3.237   5.881
 2333SOL     OW 7897   2.467   4.905   3.731
 2333SOL    HW1 7898   2.554   4.951   3.748
 2333SOL    HW2 7899   2.431   4.867   3.816
 2334SOL     OW 7900   2.513   0.630   5.916
 2334SOL    HW1 7901   2.452   0.700   5.877
 2334SOL    HW2 7902   2.458   0.558   5.958
 2335SOL     OW 7903   5.060   4.617   4.335
 2335SOL    HW1 7904   5.108   4.573   4.411
 2335SOL    HW2 7905   5.119   4.619   4.254
 2336SOL     OW 7906   4.244   2.120   5.909
 2336SOL    HW1 7907   4.235   2.030   5.868
 2336SOL    HW2 7908   4.341   2.142   5.922
 2337SOL     OW 7909   5.846   0.776   4.530
 2337SOL    HW1 7910   5.908   0.812   4.600
 2337SOL    HW2 7911   5.899   0.731   4.458
 2338SOL     OW 7912   1.217   0.100   6.658
 2338SOL    HW1 7913   1.269   0.116   6.742
 2338SOL    HW2 7914   1.254   0.019   6.612
 2339SOL     OW 7915   4.146   4.663   6.850
 2339SOL    HW1 7916   4.222   4.705   6.800
 2339SOL    HW2 7917   4.059   4.699   6.816
 2340SOL     OW 7918   3.537   5.308   4.581
 2340SOL    HW1 7919   3.468   5.285   4.649
 2340SOL    HW2 7920   3.526   5.249   4.501
 2341SOL     OW 7921   6.782   4.436   6.698
 2341SOL    HW1 7922   6.769   4.439   6.599
 2341SOL    HW2 7923   6.781   4.529   6.734
 2342SOL     OW 7924   6.709   1.528   5.763
 2342SOL    HW1 7925   6.717   1.445   5.708
 2342SOL    HW2 7926   6.647   1.592   5.718
 2343SOL     OW 7927   1.643   6.303   0.211
 2343SOL    HW1 7928   1.743   6.309   0.216
 2343SOL    HW2 7929   1.610   6.243   0.284
 2344SOL     OW 7930   2.880   0.957   2.962
 2344SOL    HW1 7931   2.801   1.006   2.925
 2344SOL    HW2 7932   2.930   0.913   2.888
 2345SOL     OW 7933   1.304   2.059   2.071
 2345SOL    HW1 7934   1.270   1.969   2.098
 2345SOL    HW2 7935   1.230   2.126   2.076
 2346SOL     OW 7936   4.784   3.080   5.257
 2346SOL    HW1 7937   4.881   3.059   5.250
 2346SOL    HW2 7938   4.769   3.145   5.331
 2347SOL     OW 7939   1.587   3.846   0.663
 2347SOL    HW1 7940   1.524   3.778   0.627
 2347SOL    HW2 7941   1.668   3.800   0.700
 2348SOL     OW 7942   2.394   6.942   1.158
 2348SOL    HW1 7943   2.340   6.954   1.074
 2348SOL    HW2 7944   2.348   6.988   1.234
 2349SOL     OW 7945   5.121   3.120   0.044
 2349SOL    HW1 7946   5.210   3.152   0.078
 2349SOL    HW2 7947   5.056   3.117   0.120
 2350SOL     OW 7948   1.719   6.230   5.032
 2350SOL    HW1 7949   1.796   6.191   5.083
 2350SOL    HW2 7950   1.637   6.176   5.049
 2351SOL     OW 7951   1.676   4.977   2.468
 2351SOL    HW1 7952   1.685   4.911   2.543
 2351SOL    HW2 7953   1.585   5.017   2.469
 2352SOL     OW 7954   5.554   5.389   0.074
 2352SOL    HW1 7955   5.530   5.361   7.008
 2352SOL    HW2 7956   5.507   5.475   0.096
 2353SOL     OW 7957   2.672   3.082   5.811
 2353SOL    HW1 7958   2.626   3.107   5.726
 2353SOL    HW2 7959   2.705   2.988   5.804
 2354SOL     OW 7960   4.201   1.611   2.381
 2354SOL    HW1 7961   4.163   1.614   2.288
 2354SOL    HW2 7962   4.258   1.692   2.397
 2355SOL     OW 7963   0.721   1.475   1.913
 2355SOL    HW1 7964   0.810   1.508   1.944
 2355SOL    HW2 7965   0.731   1.429   1.825
 2356SOL     OW 7966   3.162   5.173   4.560
 2356SOL    HW1 7967   3.222   5.230   4.616
 2356SOL    HW2 7968   3.126   5.226   4.483
 2357SOL     OW 7969   1.303   5.418   0.912
 2357SOL    HW1 7970   1.394   5.407   0.951
 2357SOL    HW2 7971   1.240   5.449   0.983
 2358SOL     OW 7972   2.760   0.899   5.272
 2358SOL    HW1 7973   2.774   0.965   5.198
 2358SOL    HW2 7974   2.782   0.943   5.359
 2359SOL     OW 7975   2.581   2.210   5.846
 2359SOL    HW1 7976   2.529   2.290   5.816
 2359SOL    HW2 7977   2.662   2.241   5.897
 2360SOL     OW 7978   3.194   5.193   0.562
 2360SOL    HW1 7979   3.107   5.224   0.522
 2360SOL    HW2 7980   3.176   5.119   0.626
 2361SOL     OW 7981   3.403   5.068   1.456
 2361SOL    HW1 7982   3.373   5.035   1.545
 2361SOL    HW2 7983   3.367   5.007   1.385
 2362SOL     OW 7984   2.713   5.233   4.716
 2362SOL    HW1 7985   2.630   5.242   4.662
 2362SOL    HW2 7986   2.778   5.174   4.668
 2363SOL     OW 7987   2.157   3.920   0.979
 2363SOL    HW1 7988   2.136   3.960   0.889
 2363SOL    HW2 7989   2.113   3.974   1.050
 2364SOL     OW 7990   4.501   0.665   2.359
 2364SOL    HW1 7991   4.424   0.610   2.326
 2364SOL    HW2 7992   4.543   0.713   2.282
 2365SOL     OW 7993   5.554   4.501   3.096
 2365SOL    HW1 7994   5.505   4.423   3.058
 2365SOL    HW2 7995   5.524   4.516   3.191
 2366SOL     OW 7996   3.309   5.078   5.203
 2366SOL    HW1 7997   3.315   5.073   5.302
 2366SOL    HW2 7998   3.401   5.079   5.164
 2367SOL     OW 7999   6.230   5.576   5.341
 2367SOL    HW1 8000   6.293   5.534   5.405
 2367SOL    HW2 8001   6.229   5.525   5.255
 2368SOL     OW 8002   5.589   0.326   4.962
 2368SOL    HW1 8003   5.654   0.287   5.027
 2368SOL    HW2 8004   5.521   0.257   4.937
 2369SOL     OW 8005   4.037   1.777   4.569
 2369SOL    HW1 8006   4.004   1.690   4.531
 2369SOL    HW2 8007   3.967   1.847   4.558
 2370SOL     OW 8008   4.576   1.534   1.552
 2370SOL    HW1 8009   4.555   1.615   1.497
 2370SOL    HW2 8010   4.500   1.516   1.615
 2371SOL     OW 8011   1.668   0.299   1.979
 2371SOL    HW1 8012   1.663   0.388   2.023
 2371SOL    HW2 8013   1.613   0.299   1.896
 2372SOL     OW 8014   6.472   6.946   5.284
 2372SOL    HW1 8015   6.403   6.888   5.328
 2372SOL    HW2 8016   6.539   6.975   5.353
 2373SOL     OW 8017   5.846   4.284   5.906
 2373SOL    HW1 8018   5.911   4.259   5.834
 2373SOL    HW2 8019   5.794   4.203   5.933
 2374SOL     OW 8020   0.186   6.083   2.104
 2374SOL    HW1 8021   0.236   6.062   2.020
 2374SOL    HW2 8022   0.091   6.055   2.094
 2375SOL     OW 8023   1.524   0.363   4.047
 2375SOL    HW1 8024   1.433   0.341   4.084
 2375SOL    HW2 8025   1.526   0.459   4.019
 2376SOL     OW 8026   5.033   3.330   3.602
 2376SOL    HW1 8027   4.989   3.310   3.690
 2376SOL    HW2 8028   4.987   3.409   3.560
 2377SOL     OW 8029   3.639   3.810   5.666
 2377SOL    HW1 8030   3.549   3.815   5.709
 2377SOL    HW2 8031   3.635   3.751   5.586
 2378SOL     OW 8032   0.567   0.508   0.600
 2378SOL    HW1 8033   0.484   0.539   0.555
 2378SOL    HW2 8034   0.550   0.422   0.648
 2379SOL     OW 8035   0.775   4.993   2.651
 2379SOL    HW1 8036   0.812   4.908   2.614
 2379SOL    HW2 8037   0.833   5.024   2.727
 2380SOL     OW 8038   4.289   5.110   6.563
 2380SOL    HW1 8039   4.272   5.023   6.519
 2380SOL    HW2 8040   4.288   5.183   6.495
 2381SOL     OW 8041   2.132   3.594   4.286
 2381SOL    HW1 8042   2.189   3.663   4.242
 2381SOL    HW2 8043   2.042   3.593   4.244
 2382SOL     OW 8044   0.178   5.463   3.185
 2382SOL    HW1 8045   0.083   5.492   3.195
 2382SOL    HW2 8046   0.216   5.502   3.101
 2383SOL     OW 8047   5.072   4.034   5.931
 2383SOL    HW1 8048   5.031   3.976   5.860
 2383SOL    HW2 8049   5.167   4.054   5.908
 2384SOL     OW 8050   0.374   2.667   2.999
 2384SOL    HW1 8051   0.451   2.647   2.938
 2384SOL    HW2 8052   0.339   2.759   2.980
 2385SOL     OW 8053   0.687   1.248   0.260
 2385SOL    HW1 8054   0.655   1.302   0.182
 2385SOL    HW2 8055   0.684   1.151   0.237
 2386SOL     OW 8056   6.662   5.374   4.898
 2386SOL    HW1 8057   6.752   5.408   4.872
 2386SOL    HW2 8058   6.662   5.349   4.995
 2387SOL     OW 8059   0.255   0.616   3.668
 2387SOL    HW1 8060   0.224   0.698   3.716
 2387SOL    HW2 8061   0.196   0.599   3.589
 2388SOL     OW 8062   0.961   3.472   4.870
 2388SOL    HW1 8063   0.899   3.468   4.948
 2388SOL    HW2 8064   0.939   3.398   4.806
 2389SOL     OW 8065   3.855   6.107   3.125
 2389SOL    HW1 8066   3.821   6.194   3.161
 2389SOL    HW2 8067   3.817   6.032   3.180
 2390SOL     OW 8068   5.338   2.306   6.074
 2390SOL    HW1 8069   5.420   2.249   6.083
 2390SOL    HW2 8070   5.279   2.293   6.153
 2391SOL     OW 8071   3.034   3.976   6.703
 2391SOL    HW1 8072   2.944   3.934   6.706
 2391SOL    HW2 8073   3.097   3.919   6.650
 2392SOL     OW 8074   4.227   5.087   5.813
 2392SOL    HW1 8075   4.273   5.137   5.887
 2392SOL    HW2 8076   4.281   5.095   5.729
 2393SOL     OW 8077   3.635   4.981   0.429
 2393SOL    HW1 8078   3.609   4.941   0.517
 2393SOL    HW2 8079   3.616   5.079   0.430
 2394SOL     OW 8080   6.487   2.127   3.606
 2394SOL    HW1 8081   6.481   2.088   3.514
 2394SOL    HW2 8082   6.571   2.181   3.614
 2395SOL     OW 8083   1.484   2.641   3.862
 2395SOL    HW1 8084   1.486   2.541   3.867
 2395SOL    HW2 8085   1.508   2.678   3.952
 2396SOL     OW 8086   6.858   0.130   6.290
 2396SOL    HW1 8087   6.859   0.228   6.310
 2396SOL    HW2 8088   6.766   0.095   6.307
 2397SOL     OW 8089   2.115   4.641   5.921
 2397SOL    HW1 8090   2.145   4.656   5.827
 2397SOL    HW2 8091   2.195   4.640   5.981
 2398SOL     OW 8092   4.129   5.650   5.029
 2398SOL    HW1 8093   4.053   5.714   5.039
 2398SOL    HW2 8094   4.105   5.562   5.070
 2399SOL     OW 8095   2.965   1.136   2.226
 2399SOL    HW1 8096   2.994   1.056   2.279
 2399SOL    HW2 8097   3.002   1.219   2.268
 2400SOL     OW 8098   0.858   2.795   0.388
 2400SOL    HW1 8099   0.890   2.886   0.414
 2400SOL    HW2 8100   0.760   2.789   0.402
 2401SOL     OW 8101   1.263   6.158   0.089
 2401SOL    HW1 8102   1.304   6.068   0.075
 2401SOL    HW2 8103   1.183   6.149   0.149
 2402SOL     OW 8104   0.657   3.721   1.956
 2402SOL    HW1 8105   0.567   3.762   1.945
 2402SOL    HW2 8106   0.677   3.709   2.053
 2403SOL     OW 8107   3.063   4.145   5.185
 2403SOL    HW1 8108   3.079   4.212   5.113
 2403SOL    HW2 8109   2.999   4.183   5.252
 2404SOL     OW 8110   6.201   1.480   1.781
 2404SOL    HW1 8111   6.207   1.575   1.812
 2404SOL    HW2 8112   6.268   1.425   1.830
 2405SOL     OW 8113   1.589   3.136   1.252
 2405SOL    HW1 8114   1.586   3.194   1.334
 2405SOL    HW2 8115   1.520   3.064   1.260
 2406SOL     OW 8116   4.191   5.692   4.777
 2406SOL    HW1 8117   4.171   5.658   4.869
 2406SOL    HW2 8118   4.251   5.628   4.729
 2407SOL     OW 8119   1.976   1.217   3.963
 2407SOL    HW1 8120   1.966   1.181   4.056
 2407SOL    HW2 8121   2.052   1.282   3.961
 2408SOL     OW 8122   3.655   0.175   6.175
 2408SOL    HW1 8123   3.635   0.152   6.270
 2408SOL    HW2 8124   3.718   0.108   6.136
 2409SOL     OW 8125   0.444   3.034   6.816
 2409SOL    HW1 8126   0.539   3.014   6.791
 2409SOL    HW2 8127   0.442   3.109   6.882
 2410SOL     OW 8128   6.984   3.586   4.632
 2410SOL    HW1 8129   0.023   3.636   4.688
 2410SOL    HW2 8130   7.016   3.492   4.619
 2411SOL     OW 8131   3.248   1.315   0.510
 2411SOL    HW1 8132   3.338   1.288   0.475
 2411SOL    HW2 8133   3.201   1.235   0.546
 2412SOL     OW 8134   3.342   2.004   6.840
 2412SOL    HW1 8135   3.409   1.946   6.887
 2412SOL    HW2 8136   3.323   1.968   6.749
 2413SOL     OW 8137   0.176   4.277   6.890
 2413SOL    HW1 8138   0.140   4.247   6.802
 2413SOL    HW2 8139   0.179   4.377   6.892
 2414SOL     OW 8140   0.309   1.723   5.075
 2414SOL    HW1 8141   0.318   1.624   5.085
 2414SOL    HW2 8142   0.361   1.753   4.995
 2415SOL     OW 8143   3.410   4.340   6.448
 2415SOL    HW1 8144   3.381   4.319   6.541
 2415SOL    HW2 8145   3.509   4.354   6.446
 2416SOL     OW 8146   0.116   3.306   3.773
 2416SOL    HW1 8147   0.060   3.367   3.718
 2416SOL    HW2 8148   0.110   3.213   3.737
 2417SOL     OW 8149   3.399   2.527   1.564
 2417SOL    HW1 8150   3.325   2.542   1.630
 2417SOL    HW2 8151   3.485   2.562   1.603
 2418SOL     OW 8152   5.713   3.969   6.332
 2418SOL    HW1 8153   5.721   3.894   6.397
 2418SOL    HW2 8154   5.669   4.047   6.376
 2419SOL     OW 8155   3.655   0.964   3.134
 2419SOL    HW1 8156   3.610   0.891   3.185
 2419SOL    HW2 8157   3.590   1.007   3.072
 2420SOL     OW 8158   1.148   3.794   2.447
 2420SOL    HW1 8159   1.148   3.698   2.420
 2420SOL    HW2 8160   1.242   3.827   2.454
 2421SOL     OW 8161   2.434   6.467   2.866
 2421SOL    HW1 8162   2.494   6.518   2.804
 2421SOL    HW2 8163   2.487   6.430   2.942
 2422SOL     OW 8164   4.026   5.964   0.349
 2422SOL    HW1 8165   3.963   6.040   0.332
 2422SOL    HW2 8166   4.114   5.985   0.306
 2423SOL     OW 8167   3.209   4.882   4.542
 2423SOL    HW1 8168   3.228   4.817   4.616
 2423SOL    HW2 8169   3.199   4.974   4.580
 2424SOL     OW 8170   5.293   6.699   6.312
 2424SOL    HW1 8171   5.274   6.609   6.273
 2424SOL    HW2 8172   5.388   6.701   6.344
 2425SOL     OW 8173   4.040   5.385   5.163
 2425SOL    HW1 8174   4.006   5.352   5.075
 2425SOL    HW2 8175   3.985   5.463   5.193
 2426SOL     OW 8176   2.972   2.288   5.375
 2426SOL    HW1 8177   2.887   2.333   5.350
 2426SOL    HW2 8178   3.043   2.311   5.309
 2427SOL     OW 8179   4.311   1.789   0.736
 2427SOL    HW1 8180   4.342   1.846   0.660
 2427SOL    HW2 8181   4.266   1.847   0.805
 2428SOL     OW 8182   1.889   1.750   2.970
 2428SOL    HW1 8183   1.841   1.733   3.056
 2428SOL    HW2 8184   1.826   1.735   2.894
 2429SOL     OW 8185   5.950   6.022   1.052
 2429SOL    HW1 8186   5.934   6.095   1.119
 2429SOL    HW2 8187   5.989   6.061   0.969
 2430SOL     OW 8188   6.737   0.153   6.955
 2430SOL    HW1 8189   6.834   0.160   6.931
 2430SOL    HW2 8190   6.683   0.200   6.885
 2431SOL     OW 8191   2.113   3.266   1.965
 2431SOL    HW1 8192   2.120   3.250   2.063
 2431SOL    HW2 8193   2.133   3.362   1.946
 2432SOL     OW 8194   2.680   5.993   2.182
 2432SOL    HW1 8195   2.721   5.920   2.236
 2432SOL    HW2 8196   2.628   5.953   2.106
 2433SOL     OW 8197   6.684   4.164   4.604
 2433SOL    HW1 8198   6.645   4.076   4.580
 2433SOL    HW2 8199   6.780   4.167   4.574
 2434SOL     OW 8200   4.670   1.726   3.079
 2434SOL    HW1 8201   4.658   1.631   3.049
 2434SOL    HW2 8202   4.616   1.786   3.021
 2435SOL     OW 8203   6.250   6.989   6.692
 2435SOL    HW1 8204   6.230   6.984   6.594
 2435SOL    HW2 8205   6.208   6.912   6.739
 2436SOL     OW 8206   6.888   2.766   0.825
 2436SOL    HW1 8207   6.814   2.698   0.824
 2436SOL    HW2 8208   6.865   2.841   0.763
 2437SOL     OW 8209   0.275   4.362   1.435
 2437SOL    HW1 8210   0.375   4.365   1.437
 2437SOL    HW2 8211   0.245   4.290   1.373
 2438SOL     OW 8212   3.897   1.510   5.172
 2438SOL    HW1 8213   3.886   1.479   5.267
 2438SOL    HW2 8214   3.981   1.470   5.134
 2439SOL     OW 8215   0.205   5.747   0.362
 2439SOL    HW1 8216   0.176   5.664   0.409
 2439SOL    HW2 8217   0.254   5.806   0.427
 2440SOL     OW 8218   6.376   1.711   5.409
 2440SOL    HW1 8219   6.372   1.788   5.346
 2440SOL    HW2 8220   6.350   1.627   5.361
 2441SOL     OW 8221   6.019   1.024   0.395
 2441SOL    HW1 8222   6.097   0.964   0.377
 2441SOL    HW2 8223   5.994   1.073   0.311
 2442SOL     OW 8224   5.054   3.030   2.341
 2442SOL    HW1 8225   5.143   3.047   2.382
 2442SOL    HW2 8226   5.044   2.932   2.322
 2443SOL     OW 8227   0.216   3.247   1.408
 2443SOL    HW1 8228   0.266   3.237   1.493
 2443SOL    HW2 8229   0.238   3.170   1.347
 2444SOL     OW 8230   3.343   5.012   3.327
 2444SOL    HW1 8231   3.374   5.095   3.282
 2444SOL    HW2 8232   3.331   5.029   3.425
 2445SOL     OW 8233   0.860   2.090   1.119
 2445SOL    HW1 8234   0.825   2.128   1.205
 2445SOL    HW2 8235   0.954   2.123   1.104
 2446SOL     OW 8236   6.840   5.532   1.698
 2446SOL    HW1 8237   6.938   5.517   1.685
 2446SOL    HW2 8238   6.794   5.444   1.713
 2447SOL     OW 8239   1.709   6.799   0.667
 2447SOL    HW1 8240   1.672   6.846   0.587
 2447SOL    HW2 8241   1.636   6.782   0.733
 2448SOL     OW 8242   5.362   1.347   4.077
 2448SOL    HW1 8243   5.335   1.359   4.173
 2448SOL    HW2 8244   5.320   1.418   4.021
 2449SOL     OW 8245   2.117   4.270   1.122
 2449SOL    HW1 8246   2.080   4.324   1.047
 2449SOL    HW2 8247   2.204   4.310   1.152
 2450SOL     OW 8248   0.839   6.691   4.946
 2450SOL    HW1 8249   0.925   6.659   4.985
 2450SOL    HW2 8250   0.850   6.705   4.848
 2451SOL     OW 8251   2.152   6.888   6.355
 2451SOL    HW1 8252   2.056   6.898   6.380
 2451SOL    HW2 8253   2.163   6.814   6.289
 2452SOL     OW 8254   2.153   1.724   4.432
 2452SOL    HW1 8255   2.155   1.809   4.485
 2452SOL    HW2 8256   2.238   1.717   4.378
 2453SOL     OW 8257   1.387   1.816   6.061
 2453SOL    HW1 8258   1.399   1.722   6.029
 2453SOL    HW2 8259   1.304   1.854   6.022
 2454SOL     OW 8260   2.986   6.215   0.595
 2454SOL    HW1 8261   2.889   6.197   0.585
 2454SOL    HW2 8262   3.023   6.251   0.509
 2455SOL     OW 8263   4.047   2.055   0.570
 2455SOL    HW1 8264   3.988   2.126   0.532
 2455SOL    HW2 8265   4.084   2.085   0.657
 2456SOL     OW 8266   0.586   3.793   6.493
 2456SOL    HW1 8267   0.540   3.755   6.573
 2456SOL    HW2 8268   0.566   3.736   6.413
 2457SOL     OW 8269   4.744   1.796   5.635
 2457SOL    HW1 8270   4.798   1.813   5.717
 2457SOL    HW2 8271   4.646   1.800   5.657
 2458SOL     OW 8272   0.927   0.148   2.267
 2458SOL    HW1 8273   0.877   0.146   2.353
 2458SOL    HW2 8274   0.877   0.203   2.200
 2459SOL     OW 8275   2.145   6.805   1.587
 2459SOL    HW1 8276   2.092   6.838   1.508
 2459SOL    HW2 8277   2.242   6.829   1.574
 2460SOL     OW 8278   0.730   0.883   4.011
 2460SOL    HW1 8279   0.714   0.946   4.086
 2460SOL    HW2 8280   0.642   0.851   3.974
 2461SOL     OW 8281   3.546   1.451   3.595
 2461SOL    HW1 8282   3.492   1.431   3.677
 2461SOL    HW2 8283   3.574   1.366   3.552
 2462SOL     OW 8284   0.653   6.162   0.965
 2462SOL    HW1 8285   0.580   6.230   0.953
 2462SOL    HW2 8286   0.631   6.080   0.913
 2463SOL     OW 8287   6.588   6.911   0.799
 2463SOL    HW1 8288   6.621   6.826   0.757
 2463SOL    HW2 8289   6.515   6.890   0.865
 2464SOL     OW 8290   0.801   2.925   4.630
 2464SOL    HW1 8291   0.828   2.829   4.625
 2464SOL    HW2 8292   0.754   2.942   4.716
 2465SOL     OW 8293   6.232   1.379   7.023
 2465SOL    HW1 8294   6.139   1.389   6.989
 2465SOL    HW2 8295   6.241   1.293   0.046
 2466SOL     OW 8296   0.735   2.674   1.612
 2466SOL    HW1 8297   0.824   2.657   1.569
 2466SOL    HW2 8298   0.747   2.727   1.695
 2467SOL     OW 8299   4.670   2.730   4.962
 2467SOL    HW1 8300   4.675   2.739   4.863
 2467SOL    HW2 8301   4.602   2.661   4.986
 2468SOL     OW 8302   3.719   0.284   5.131
 2468SOL    HW1 8303   3.799   0.234   5.163
 2468SOL    HW2 8304   3.638   0.249   5.178
 2469SOL     OW 8305   3.010   2.240   6.129
 2469SOL    HW1 8306   3.070   2.235   6.050
 2469SOL    HW2 8307   2.985   2.147   6.157
 2470SOL     OW 8308   2.124   6.309   6.482
 2470SOL    HW1 8309   2.044   6.301   6.542
 2470SOL    HW2 8310   2.185   6.380   6.516
 2471SOL     OW 8311   2.769   5.661   2.550
 2471SOL    HW1 8312   2.863   5.632   2.569
 2471SOL    HW2 8313   2.721   5.679   2.636
 2472SOL     OW 8314   4.585   1.091   2.536
 2472SOL    HW1 8315   4.514   1.110   2.603
 2472SOL    HW2 8316   4.620   1.177   2.498
 2473SOL     OW 8317   0.323   4.274   4.000
 2473SOL    HW1 8318   0.311   4.227   4.087
 2473SOL    HW2 8319   0.273   4.225   3.928
 2474SOL     OW 8320   1.496   6.409   1.727
 2474SOL    HW1 8321   1.429   6.463   1.676
 2474SOL    HW2 8322   1.495   6.315   1.693
 2475SOL     OW 8323   5.059   2.002   0.372
 2475SOL    HW1 8324   4.968   1.970   0.398
 2475SOL    HW2 8325   5.115   1.925   0.342
 2476SOL     OW 8326   4.527   6.790   0.811
 2476SOL    HW1 8327   4.512   6.702   0.857
 2476SOL    HW2 8328   4.550   6.773   0.715
 2477SOL     OW 8329   4.004   7.009   3.848
 2477SOL    HW1 8330   3.983   6.920   3.807
 2477SOL    HW2 8331   3.990   7.004   3.947
 2478SOL     OW 8332   3.425   0.529   4.595
 2478SOL    HW1 8333   3.334   0.547   4.632
 2478SOL    HW2 8334   3.421   0.450   4.533
 2479SOL     OW 8335   5.035   3.243   0.973
 2479SOL    HW1 8336   5.044   3.293   0.886
 2479SOL    HW2 8337   5.031   3.309   1.048
 2480SOL     OW 8338   3.289   2.270   1.547
 2480SOL    HW1 8339   3.360   2.214   1.590
 2480SOL    HW2 8340   3.323   2.362   1.533
 2481SOL     OW 8341   3.546   0.216   1.912
 2481SOL    HW1 8342   3.514   0.271   1.835
 2481SOL    HW2 8343   3.549   0.273   1.994
 2482SOL     OW 8344   6.660   3.166   0.413
 2482SOL    HW1 8345   6.628   3.208   0.498
 2482SOL    HW2 8346   6.759   3.179   0.404
 2483SOL     OW 8347   2.696   2.452   0.720
 2483SOL    HW1 8348   2.636   2.372   0.725
 2483SOL    HW2 8349   2.661   2.515   0.650
 2484SOL     OW 8350   4.301   0.563   6.879
 2484SOL    HW1 8351   4.322   0.534   6.973
 2484SOL    HW2 8352   4.332   0.658   6.866
 2485SOL     OW 8353   0.407   2.041   6.077
 2485SOL    HW1 8354   0.319   2.074   6.112
 2485SOL    HW2 8355   0.414   2.063   5.980
 2486SOL     OW 8356   0.323   5.563   3.395
 2486SOL    HW1 8357   0.249   5.542   3.331
 2486SOL    HW2 8358   0.376   5.480   3.413
 2487SOL     OW 8359   4.285   6.025   0.184
 2487SOL    HW1 8360   4.232   6.083   0.122
 2487SOL    HW2 8361   4.354   5.975   0.132
 2488SOL     OW 8362   6.791   3.711   0.707
 2488SOL    HW1 8363   6.835   3.799   0.722
 2488SOL    HW2 8364   6.768   3.701   0.610
 2489SOL     OW 8365   6.008   4.985   4.402
 2489SOL    HW1 8366   5.978   4.897   4.366
 2489SOL    HW2 8367   6.038   5.043   4.327
 2490SOL     OW 8368   2.533   5.853   3.111
 2490SOL    HW1 8369   2.549   5.904   3.027
 2490SOL    HW2 8370   2.436   5.860   3.136
 2491SOL     OW 8371   3.687   4.614   1.514
 2491SOL    HW1 8372   3.739   4.677   1.457
 2491SOL    HW2 8373   3.605   4.584   1.465
 2492SOL     OW 8374   6.465   5.319   1.082
 2492SOL    HW1 8375   6.521   5.347   1.160
 2492SOL    HW2 8376   6.378   5.283   1.114
 2493SOL     OW 8377   5.499   6.765   0.920
 2493SOL    HW1 8378   5.559   6.689   0.946
 2493SOL    HW2 8379   5.432   6.733   0.853
 2494SOL     OW 8380   6.752   3.736   1.069
 2494SOL    HW1 8381   6.750   3.643   1.032
 2494SOL    HW2 8382   6.846   3.768   1.075
 2495SOL     OW 8383   0.429   3.769   1.756
 2495SOL    HW1 8384   0.339   3.808   1.734
 2495SOL    HW2 8385   0.417   3.675   1.788
 2496SOL     OW 8386   5.617   4.449   6.657
 2496SOL    HW1 8387   5.518   4.463   6.651
 2496SOL    HW2 8388   5.653   4.501   6.735
 2497SOL     OW 8389   0.044   0.143   2.264
 2497SOL    HW1 8390   0.079   0.162   2.172
 2497SOL    HW2 8391   6.988   0.198   2.280
 2498SOL     OW 8392   1.864   3.440   5.045
 2498SOL    HW1 8393   1.767   3.436   5.066
 2498SOL    HW2 8394   1.915   3.468   5.126
 2499SOL     OW 8395   6.730   3.627   2.434
 2499SOL    HW1 8396   6.636   3.595   2.425
 2499SOL    HW2 8397   6.764   3.655   2.344
 2500SOL     OW 8398   3.959   3.167   1.738
 2500SOL    HW1 8399   3.937   3.250   1.790
 2500SOL    HW2 8400   4.028   3.189   1.669
 2501SOL     OW 8401   6.462   5.830   6.242
 2501SOL    HW1 8402   6.541   5.855   6.299
 2501SOL    HW2 8403   6.405   5.911   6.227
 2502SOL     OW 8404   2.132   6.627   4.549
 2502SOL    HW1 8405   2.037   6.656   4.535
 2502SOL    HW2 8406   2.186   6.655   4.469
 2503SOL     OW 8407   2.792   0.409   5.782
 2503SOL    HW1 8408   2.715   0.448   5.834
 2503SOL    HW2 8409   2.817   0.320   5.821
 2504SOL     OW 8410   3.707   0.182   3.486
 2504SOL    HW1 8411   3.791   0.184   3.541
 2504SOL    HW2 8412   3.628   0.199   3.545
 2505SOL     OW 8413   6.683   4.242   3.873
 2505SOL    HW1 8414   6.650   4.245   3.778
 2505SOL    HW2 8415   6.706   4.334   3.903
 2506SOL     OW 8416   5.576   5.301   6.347
 2506SOL    HW1 8417   5.525   5.264   6.269
 2506SOL    HW2 8418   5.564   5.400   6.349
 2507SOL     OW 8419   0.262   3.308   2.684
 2507SOL    HW1 8420   0.288   3.353   2.769
 2507SOL    HW2 8421   0.163   3.300   2.678
 2508SOL     OW 8422   5.872   0.980   4.283
 2508SOL    HW1 8423   5.962   1.022   4.293
 2508SOL    HW2 8424   5.837   0.954   4.373
 2509SOL     OW 8425   0.786   2.942   5.789
 2509SOL    HW1 8426   0.708   2.892   5.826
 2509SOL    HW2 8427   0.773   3.040   5.803
 2510SOL     OW 8428   2.995   3.790   2.345
 2510SOL    HW1 8429   2.984   3.814   2.441
 2510SOL    HW2 8430   2.930   3.717   2.321
 2511SOL     OW 8431   1.577   0.694   4.156
 2511SOL    HW1 8432   1.575   0.781   4.205
 2511SOL    HW2 8433   1.536   0.622   4.213
 2512SOL     OW 8434   4.191   4.716   3.819
 2512SOL    HW1 8435   4.150   4.744   3.906
 2512SOL    HW2 8436   4.124   4.665   3.765
 2513SOL     OW 8437   1.893   5.881   5.953
 2513SOL    HW1 8438   1.991   5.868   5.936
 2513SOL    HW2 8439   1.868   5.976   5.936
 2514SOL     OW 8440   1.439   1.813   3.179
 2514SOL    HW1 8441   1.421   1.895   3.233
 2514SOL    HW2 8442   1.362   1.796   3.118
 2515SOL     OW 8443   0.608   2.091   1.286
 2515SOL    HW1 8444   0.578   2.145   1.365
 2515SOL    HW2 8445   0.670   2.018   1.316
 2516SOL     OW 8446   5.873   2.571   4.745
 2516SOL    HW1 8447   5.955   2.545   4.694
 2516SOL    HW2 8448   5.826   2.646   4.698
 2517SOL     OW 8449   1.037   1.339   3.682
 2517SOL    HW1 8450   0.963   1.405   3.698
 2517SOL    HW2 8451   1.001   1.261   3.632
 2518SOL     OW 8452   2.349   4.528   0.950
 2518SOL    HW1 8453   2.341   4.520   1.049
 2518SOL    HW2 8454   2.326   4.440   0.908
 2519SOL     OW 8455   1.229   1.451   0.791
 2519SOL    HW1 8456   1.147   1.436   0.735
 2519SOL    HW2 8457   1.295   1.378   0.774
 2520SOL     OW 8458   2.559   2.109   1.092
 2520SOL    HW1 8459   2.637   2.107   1.155
 2520SOL    HW2 8460   2.547   2.019   1.051
 2521SOL     OW 8461   5.447   0.587   4.731
 2521SOL    HW1 8462   5.518   0.653   4.707
 2521SOL    HW2 8463   5.421   0.599   4.827
 2522SOL     OW 8464   0.976   1.801   6.609
 2522SOL    HW1 8465   1.041   1.792   6.535
 2522SOL    HW2 8466   0.955   1.897   6.624
 2523SOL     OW 8467   1.500   5.155   6.477
 2523SOL    HW1 8468   1.509   5.056   6.486
 2523SOL    HW2 8469   1.477   5.195   6.566
 2524SOL     OW 8470   1.096   0.583   4.545
 2524SOL    HW1 8471   1.025   0.512   4.541
 2524SOL    HW2 8472   1.112   0.620   4.453
 2525SOL     OW 8473   6.151   2.726   5.496
 2525SOL    HW1 8474   6.116   2.671   5.572
 2525SOL    HW2 8475   6.198   2.806   5.532
 2526SOL     OW 8476   1.741   0.030   0.815
 2526SOL    HW1 8477   1.647   0.035   0.848
 2526SOL    HW2 8478   1.762   6.963   0.787
 2527SOL     OW 8479   4.360   5.196   6.039
 2527SOL    HW1 8480   4.452   5.161   6.053
 2527SOL    HW2 8481   4.294   5.137   6.086
 2528SOL     OW 8482   4.708   5.735   6.027
 2528SOL    HW1 8483   4.625   5.753   6.079
 2528SOL    HW2 8484   4.700   5.646   5.981
 2529SOL     OW 8485   0.594   6.733   5.833
 2529SOL    HW1 8486   0.592   6.672   5.912
 2529SOL    HW2 8487   0.689   6.750   5.807
 2530SOL     OW 8488   2.546   6.215   6.519
 2530SOL    HW1 8489   2.582   6.179   6.606
 2530SOL    HW2 8490   2.520   6.138   6.460
 2531SOL     OW 8491   6.769   5.468   6.263
 2531SOL    HW1 8492   6.803   5.426   6.347
 2531SOL    HW2 8493   6.675   5.439   6.247
 2532SOL     OW 8494   5.775   6.222   1.657
 2532SOL    HW1 8495   5.730   6.299   1.612
 2532SOL    HW2 8496   5.809   6.158   1.587
 2533SOL     OW 8497   4.623   0.507   3.954
 2533SOL    HW1 8498   4.583   0.550   4.035
 2533SOL    HW2 8499   4.577   0.541   3.872
 2534SOL     OW 8500   4.325   1.402   2.953
 2534SOL    HW1 8501   4.423   1.410   2.971
 2534SOL    HW2 8502   4.307   1.419   2.856
 2535SOL     OW 8503   3.835   2.747   6.266
 2535SOL    HW1 8504   3.876   2.737   6.176
 2535SOL    HW2 8505   3.737   2.728   6.261
 2536SOL     OW 8506   1.458   0.875   1.413
 2536SOL    HW1 8507   1.524   0.847   1.483
 2536SOL    HW2 8508   1.460   0.810   1.337
 2537SOL     OW 8509   4.104   0.753   5.901
 2537SOL    HW1 8510   4.023   0.795   5.943
 2537SOL    HW2 8511   4.082   0.724   5.808
 2538SOL     OW 8512   6.300   3.372   3.568
 2538SOL    HW1 8513   6.273   3.367   3.664
 2538SOL    HW2 8514   6.334   3.283   3.538
 2539SOL     OW 8515   5.153   2.294   5.408
 2539SOL    HW1 8516   5.067   2.327   5.447
 2539SOL    HW2 8517   5.134   2.230   5.334
 2540SOL     OW 8518   2.828   1.687   1.676
 2540SOL    HW1 8519   2.805   1.656   1.768
 2540SOL    HW2 8520   2.831   1.787   1.674
 2541SOL     OW 8521   3.430   6.566   4.260
 2541SOL    HW1 8522   3.457   6.489   4.202
 2541SOL    HW2 8523   3.338   6.595   4.235
 2542SOL     OW 8524   2.160   5.878   6.013
 2542SOL    HW1 8525   2.175   5.782   5.992
 2542SOL    HW2 8526   2.246   5.928   6.002
 2543SOL     OW 8527   0.676   1.085   4.206
 2543SOL    HW1 8528   0.739   1.149   4.248
 2543SOL    HW2 8529   0.656   1.010   4.269
 2544SOL     OW 8530   0.539   5.273   6.945
 2544SOL    HW1 8531   0.475   5.215   6.894
 2544SOL    HW2 8532   0.488   5.348   6.987
 2545SOL     OW 8533   3.040   5.857   3.626
 2545SOL    HW1 8534   3.007   5.764   3.611
 2545SOL    HW2 8535   3.040   5.876   3.724
 2546SOL     OW 8536   0.139   1.270   1.422
 2546SOL    HW1 8537   0.230   1.294   1.454
 2546SOL    HW2 8538   0.131   1.170   1.418
 2547SOL     OW 8539   0.800   3.823   5.014
 2547SOL    HW1 8540   0.772   3.732   4.984
 2547SOL    HW2 8541   0.736   3.855   5.084
 2548SOL     OW 8542   0.973   0.371   5.344
 2548SOL    HW1 8543   1.043   0.310   5.382
 2548SOL    HW2 8544   1.007   0.412   5.260
 2549SOL     OW 8545   6.171   3.264   2.110
 2549SOL    HW1 8546   6.113   3.183   2.121
 2549SOL    HW2 8547   6.259   3.247   2.155
 2550SOL     OW 8548   6.002   5.492   6.957
 2550SOL    HW1 8549   6.060   5.450   6.886
 2550SOL    HW2 8550   5.920   5.437   6.969
 2551SOL     OW 8551   1.244   4.506   0.323
 2551SOL    HW1 8552   1.219   4.476   0.231
 2551SOL    HW2 8553   1.172   4.565   0.359
 2552SOL     OW 8554   1.739   5.282   3.526
 2552SOL    HW1 8555   1.819   5.337   3.551
 2552SOL    HW2 8556   1.752   5.243   3.435
 2553SOL     OW 8557   4.016   3.660   6.703
 2553SOL    HW1 8558   3.974   3.569   6.711
 2553SOL    HW2 8559   4.063   3.682   6.788
 2554SOL     OW 8560   1.469   1.572   0.592
 2554SOL    HW1 8561   1.492   1.595   0.687
 2554SOL    HW2 8562   1.376   1.605   0.572
 2555SOL     OW 8563   5.917   0.275   6.737
 2555SOL    HW1 8564   5.997   0.333   6.747
 2555SOL    HW2 8565   5.886   0.277   6.642
 2556SOL     OW 8566   3.464   5.112   1.100
 2556SOL    HW1 8567   3.541   5.056   1.131
 2556SOL    HW2 8568   3.446   5.092   1.003
 2557SOL     OW 8569   2.073   4.932   6.536
 2557SOL    HW1 8570   1.995   4.888   6.491
 2557SOL    HW2 8571   2.044   5.020   6.575
 2558SOL     OW 8572   4.012   0.631   5.654
 2558SOL    HW1 8573   4.084   0.590   5.599
 2558SOL    HW2 8574   3.979   0.564   5.721
 2559SOL     OW 8575   0.286   4.934   4.824
 2559SOL    HW1 8576   0.201   4.893   4.790
 2559SOL    HW2 8577   0.335   4.977   4.748
 2560SOL     OW 8578   5.940   1.665   0.150
 2560SOL    HW1 8579   6.017   1.605   0.168
 2560SOL    HW2 8580   5.892   1.685   0.235
 2561SOL     OW 8581   2.801   5.745   4.751
 2561SOL    HW1 8582   2.717   5.691   4.759
 2561SOL    HW2 8583   2.880   5.684   4.759
 2562SOL     OW 8584   2.426   3.868   6.629
 2562SOL    HW1 8585   2.352   3.882   6.695
 2562SOL    HW2 8586   2.510   3.907   6.664
 2563SOL     OW 8587   2.516   0.713   0.889
 2563SOL    HW1 8588   2.471   0.776   0.953
 2563SOL    HW2 8589   2.539   0.628   0.937
 2564SOL     OW 8590   1.492   6.619   2.351
 2564SOL    HW1 8591   1.562   6.578   2.409
 2564SOL    HW2 8592   1.534   6.658   2.269
 2565SOL     OW 8593   0.659   0.884   1.628
 2565SOL    HW1 8594   0.587   0.814   1.633
 2565SOL    HW2 8595   0.664   0.919   1.535
 2566SOL     OW 8596   2.543   0.219   5.782
 2566SOL    HW1 8597   2.443   0.226   5.781
 2566SOL    HW2 8598   2.577   0.237   5.874
 2567SOL     OW 8599   1.356   0.759   0.552
 2567SOL    HW1 8600   1.399   0.671   0.531
 2567SOL    HW2 8601   1.284   0.778   0.485
 2568SOL     OW 8602   5.337   4.072   0.073
 2568SOL    HW1 8603   5.246   4.043   0.105
 2568SOL    HW2 8604   5.407   4.032   0.132
 2569SOL     OW 8605   2.900   0.729   2.662
 2569SOL    HW1 8606   2.960   0.770   2.730
 2569SOL    HW2 8607   2.898   0.787   2.580
 2570SOL     OW 8608   5.719   2.696   6.079
 2570SOL    HW1 8609   5.698   2.726   6.172
 2570SOL    HW2 8610   5.743   2.599   6.080
 2571SOL     OW 8611   0.617   3.813   4.648
 2571SOL    HW1 8612   0.668   3.892   4.615
 2571SOL    HW2 8613   0.681   3.740   4.673
 2572SOL     OW 8614   1.292   4.883   3.711
 2572SOL    HW1 8615   1.310   4.935   3.794
 2572SOL    HW2 8616   1.198   4.848   3.713
 2573SOL     OW 8617   1.075   0.357   1.278
 2573SOL    HW1 8618   0.977   0.370   1.263
 2573SOL    HW2 8619   1.119   0.445   1.294
 2574SOL     OW 8620   6.219   3.440   0.692
 2574SOL    HW1 8621   6.289   3.402   0.753
 2574SOL    HW2 8622   6.148   3.372   0.676
 2575SOL     OW 8623   0.416   6.355   6.189
 2575SOL    HW1 8624   0.436   6.412   6.110
 2575SOL    HW2 8625   0.445   6.261   6.171
 2576SOL     OW 8626   4.308   5.918   4.658
 2576SOL    HW1 8627   4.255   5.850   4.708
 2576SOL    HW2 8628   4.340   5.989   4.721
 2577SOL     OW 8629   2.160   3.874   2.525
 2577SOL    HW1 8630   2.201   3.929   2.453
 2577SOL    HW2 8631   2.094   3.810   2.485
 2578SOL     OW 8632   4.155   1.689   2.950
 2578SOL    HW1 8633   4.174   1.687   3.049
 2578SOL    HW2 8634   4.076   1.631   2.930
 2579SOL     OW 8635   0.492   6.555   3.113
 2579SOL    HW1 8636   0.434   6.569   3.033
 2579SOL    HW2 8637   0.543   6.639   3.131
 2580SOL     OW 8638   2.421   2.434   5.820
 2580SOL    HW1 8639   2.341   2.392   5.777
 2580SOL    HW2 8640   2.450   2.513   5.767
 2581SOL     OW 8641   3.380   0.864   5.213
 2581SOL    HW1 8642   3.438   0.851   5.133
 2581SOL    HW2 8643   3.428   0.834   5.295
 2582SOL     OW 8644   6.989   3.236   1.550
 2582SOL    HW1 8645   0.034   3.265   1.487
 2582SOL    HW2 8646   6.984   3.301   1.626
 2583SOL     OW 8647   6.033   0.395   0.998
 2583SOL    HW1 8648   6.115   0.341   1.019
 2583SOL    HW2 8649   6.053   0.457   0.922
 2584SOL     OW 8650   3.714   4.382   6.129
 2584SOL    HW1 8651   3.765   4.354   6.047
 2584SOL    HW2 8652   3.716   4.481   6.137
 2585SOL     OW 8653   3.239   4.656   6.846
 2585SOL    HW1 8654   3.153   4.612   6.869
 2585SOL    HW2 8655   3.225   4.719   6.769
 2586SOL     OW 8656   2.799   0.951   3.682
 2586SOL    HW1 8657   2.784   0.904   3.595
 2586SOL    HW2 8658   2.713   0.957   3.732
 2587SOL     OW 8659   6.482   0.760   4.287
 2587SOL    HW1 8660   6.383   0.771   4.293
 2587SOL    HW2 8661   6.504   0.675   4.240
 2588SOL     OW 8662   4.505   0.423   6.755
 2588SOL    HW1 8663   4.577   0.480   6.794
 2588SOL    HW2 8664   4.418   0.444   6.800
 2589SOL     OW 8665   2.266   6.691   0.754
 2589SOL    HW1 8666   2.299   6.596   0.755
 2589SOL    HW2 8667   2.168   6.691   0.733
 2590SOL     OW 8668   2.913   5.726   0.455
 2590SOL    HW1 8669   2.845   5.677   0.400
 2590SOL    HW2 8670   2.971   5.781   0.395
 2591SOL     OW 8671   5.316   5.344   3.097
 2591SOL    HW1 8672   5.264   5.340   3.183
 2591SOL    HW2 8673   5.285   5.423   3.044
 2592SOL     OW 8674   2.654   3.895   0.881
 2592SOL    HW1 8675   2.729   3.862   0.938
 2592SOL    HW2 8676   2.591   3.948   0.937
 2593SOL     OW 8677   3.635   4.627   0.438
 2593SOL    HW1 8678   3.662   4.545   0.387
 2593SOL    HW2 8679   3.717   4.670   0.477
 2594SOL     OW 8680   1.987   2.852   4.126
 2594SOL    HW1 8681   2.059   2.919   4.144
 2594SOL    HW2 8682   2.029   2.764   4.103
 2595SOL     OW 8683   2.166   1.539   2.961
 2595SOL    HW1 8684   2.139   1.624   2.915
 2595SOL    HW2 8685   2.227   1.487   2.902
 2596SOL     OW 8686   0.894   1.625   0.489
 2596SOL    HW1 8687   0.950   1.672   0.557
 2596SOL    HW2 8688   0.799   1.654   0.498
 2597SOL     OW 8689   6.455   6.747   0.082
 2597SOL    HW1 8690   6.505   6.823   0.039
 2597SOL    HW2 8691   6.381   6.784   0.137
 2598SOL     OW 8692   5.156   2.383   2.717
 2598SOL    HW1 8693   5.236   2.323   2.719
 2598SOL    HW2 8694   5.183   2.472   2.680
 2599SOL     OW 8695   2.505   5.852   2.476
 2599SOL    HW1 8696   2.569   5.811   2.411
 2599SOL    HW2 8697   2.426   5.792   2.488
 2600SOL     OW 8698   5.724   3.949   4.535
 2600SOL    HW1 8699   5.811   3.923   4.575
 2600SOL    HW2 8700   5.733   4.038   4.490
 2601SOL     OW 8701   6.673   1.516   3.997
 2601SOL    HW1 8702   6.655   1.500   4.094
 2601SOL    HW2 8703   6.714   1.606   3.986
 2602SOL     OW 8704   1.002   4.732   2.576
 2602SOL    HW1 8705   1.063   4.654   2.589
 2602SOL    HW2 8706   0.910   4.700   2.555
 2603SOL     OW 8707   2.387   6.215   2.739
 2603SOL    HW1 8708   2.426   6.190   2.650
 2603SOL    HW2 8709   2.430   6.300   2.771
 2604SOL     OW 8710   4.700   2.742   3.812
 2604SOL    HW1 8711   4.695   2.841   3.825
 2604SOL    HW2 8712   4.609   2.706   3.793
 2605SOL     OW 8713   1.375   3.817   1.979
 2605SOL    HW1 8714   1.388   3.725   1.940
 2605SOL    HW2 8715   1.314   3.870   1.920
 2606SOL     OW 8716   5.110   3.714   0.967
 2606SOL    HW1 8717   5.037   3.759   1.019
 2606SOL    HW2 8718   5.166   3.783   0.922
 2607SOL     OW 8719   2.702   3.020   1.411
 2607SOL    HW1 8720   2.722   3.118   1.411
 2607SOL    HW2 8721   2.624   3.002   1.350
 2608SOL     OW 8722   2.613   5.125   5.681
 2608SOL    HW1 8723   2.705   5.140   5.646
 2608SOL    HW2 8724   2.551   5.107   5.605
 2609SOL     OW 8725   0.798   2.496   1.156
 2609SOL    HW1 8726   0.749   2.472   1.072
 2609SOL    HW2 8727   0.743   2.472   1.235
 2610SOL     OW 8728   1.320   3.826   4.778
 2610SOL    HW1 8729   1.318   3.863   4.685
 2610SOL    HW2 8730   1.389   3.754   4.783
 2611SOL     OW 8731   5.147   0.241   6.157
 2611SOL    HW1 8732   5.223   0.256   6.094
 2611SOL    HW2 8733   5.077   0.310   6.142
 2612SOL     OW 8734   6.542   6.695   6.451
 2612SOL    HW1 8735   6.497   6.784   6.463
 2612SOL    HW2 8736   6.528   6.663   6.357
 2613SOL     OW 8737   0.962   6.945   6.876
 2613SOL    HW1 8738   1.008   6.888   6.807
 2613SOL    HW2 8739   1.000   6.924   6.967
 2614SOL     OW 8740   5.951   2.056   0.088
 2614SOL    HW1 8741   5.985   2.149   0.103
 2614SOL    HW2 8742   6.027   1.991   0.094
 2615SOL     OW 8743   0.152   3.339   6.895
 2615SOL    HW1 8744   0.132   3.382   6.983
 2615SOL    HW2 8745   0.251   3.332   6.884
 2616SOL     OW 8746   1.397   0.986   5.273
 2616SOL    HW1 8747   1.475   0.962   5.331
 2616SOL    HW2 8748   1.333   0.910   5.269
 2617SOL     OW 8749   5.068   0.085   1.867
 2617SOL    HW1 8750   5.036   7.020   1.889
 2617SOL    HW2 8751   5.015   0.152   1.920
 2618SOL     OW 8752   1.353   0.147   6.227
 2618SOL    HW1 8753   1.393   0.064   6.268
 2618SOL    HW2 8754   1.425   0.213   6.207
 2619SOL     OW 8755   5.076   1.046   3.059
 2619SOL    HW1 8756   5.064   1.011   3.151
 2619SOL    HW2 8757   5.106   1.141   3.063
 2620SOL     OW 8758   6.188   2.040   1.773
 2620SOL    HW1 8759   6.162   1.964   1.832
 2620SOL    HW2 8760   6.114   2.108   1.771
 2621SOL     OW 8761   2.328   6.448   1.395
 2621SOL    HW1 8762   2.262   6.455   1.469
 2621SOL    HW2 8763   2.420   6.440   1.432
 2622SOL     OW 8764   2.800   3.958   0.053
 2622SOL    HW1 8765   2.815   4.056   0.043
 2622SOL    HW2 8766   2.723   3.943   0.116
 2623SOL     OW 8767   7.008   0.130   3.712
 2623SOL    HW1 8768   0.022   0.206   3.761
 2623SOL    HW2 8769   6.985   0.159   3.619
 2624SOL     OW 8770   0.875   1.511   5.462
 2624SOL    HW1 8771   0.930   1.592   5.441
 2624SOL    HW2 8772   0.849   1.512   5.558
 2625SOL     OW 8773   2.640   5.496   6.165
 2625SOL    HW1 8774   2.555   5.520   6.210
 2625SOL    HW2 8775   2.650   5.396   6.163
 2626SOL     OW 8776   6.762   6.663   6.625
 2626SOL    HW1 8777   6.788   6.758   6.643
 2626SOL    HW2 8778   6.681   6.661   6.567
 2627SOL     OW 8779   2.332   0.854   5.893
 2627SOL    HW1 8780   2.243   0.846   5.850
 2627SOL    HW2 8781   2.373   0.943   5.869
 2628SOL     OW 8782   0.168   4.980   1.430
 2628SOL    HW1 8783   0.229   5.042   1.379
 2628SOL    HW2 8784   0.205   4.887   1.426
 2629SOL     OW 8785   3.396   3.747   2.610
 2629SOL    HW1 8786   3.359   3.763   2.518
 2629SOL    HW2 8787   3.440   3.830   2.643
 2630SOL     OW 8788   3.584   0.390   3.683
 2630SOL    HW1 8789   3.548   0.439   3.604
 2630SOL    HW2 8790   3.667   0.435   3.715
 2631SOL     OW 8791   5.702   6.464   6.866
 2631SOL    HW1 8792   5.682   6.376   6.910
 2631SOL    HW2 8793   5.639   6.533   6.899
 2632SOL     OW 8794   5.847   4.699   1.846
 2632SOL    HW1 8795   5.934   4.747   1.839
 2632SOL    HW2 8796   5.808   4.685   1.755
 2633SOL     OW 8797   0.033   3.294   5.984
 2633SOL    HW1 8798   0.103   3.236   6.026
 2633SOL    HW2 8799   6.987   3.236   5.947
 2634SOL     OW 8800   0.914   1.530   5.724
 2634SOL    HW1 8801   0.844   1.500   5.789
 2634SOL    HW2 8802   0.996   1.473   5.735
 2635SOL     OW 8803   3.995   5.140   3.308
 2635SOL    HW1 8804   4.047   5.129   3.223
 2635SOL    HW2 8805   4.058   5.145   3.385
 2636SOL     OW 8806   3.544   6.522   6.069
 2636SOL    HW1 8807   3.619   6.566   6.022
 2636SOL    HW2 8808   3.521   6.573   6.152
 2637SOL     OW 8809   0.388   0.664   2.777
 2637SOL    HW1 8810   0.376   0.708   2.866
 2637SOL    HW2 8811   0.305   0.676   2.723
 2638SOL     OW 8812   0.636   6.533   4.403
 2638SOL    HW1 8813   0.678   6.503   4.488
 2638SOL    HW2 8814   0.561   6.597   4.423
 2639SOL     OW 8815   5.166   4.935   4.599
 2639SOL    HW1 8816   5.159   4.978   4.689
 2639SOL    HW2 8817   5.199   4.841   4.609
 2640SOL     OW 8818   2.652   1.288   3.477
 2640SOL    HW1 8819   2.555   1.278   3.453
 2640SOL    HW2 8820   2.689   1.371   3.434
 2641SOL     OW 8821   4.999   2.398   0.246
 2641SOL    HW1 8822   4.901   2.384   0.236
 2641SOL    HW2 8823   5.018   2.494   0.268
 2642SOL     OW 8824   6.909   6.911   2.335
 2642SOL    HW1 8825   6.996   6.955   2.313
 2642SOL    HW2 8826   6.910   6.882   2.431
 2643SOL     OW 8827   1.325   4.763   4.079
 2643SOL    HW1 8828   1.346   4.779   4.175
 2643SOL    HW2 8829   1.314   4.852   4.033
 2644SOL     OW 8830   5.638   5.596   4.312
 2644SOL    HW1 8831   5.592   5.554   4.234
 2644SOL    HW2 8832   5.731   5.621   4.287
 2645SOL     OW 8833   5.215   5.689   3.249
 2645SOL    HW1 8834   5.261   5.601   3.233
 2645SOL    HW2 8835   5.271   5.746   3.310
 2646SOL     OW 8836   0.731   2.433   6.621
 2646SOL    HW1 8837   0.675   2.425   6.539
 2646SOL    HW2 8838   0.821   2.470   6.598
 2647SOL     OW 8839   4.248   6.568   2.858
 2647SOL    HW1 8840   4.216   6.571   2.764
 2647SOL    HW2 8841   4.344   6.543   2.860
 2648SOL     OW 8842   1.538   0.356   6.161
 2648SOL    HW1 8843   1.588   0.397   6.085
 2648SOL    HW2 8844   1.486   0.427   6.209
 2649SOL     OW 8845   5.362   1.821   3.579
 2649SOL    HW1 8846   5.268   1.843   3.605
 2649SOL    HW2 8847   5.363   1.786   3.485
 2650SOL     OW 8848   2.129   0.148   3.968
 2650SOL    HW1 8849   2.106   0.188   3.879
 2650SOL    HW2 8850   2.050   0.154   4.029
 2651SOL     OW 8851   4.390   2.023   4.233
 2651SOL    HW1 8852   4.316   1.961   4.204
 2651SOL    HW2 8853   4.443   1.980   4.305
 2652SOL     OW 8854   5.130   4.035   5.300
 2652SOL    HW1 8855   5.093   4.109   5.357
 2652SOL    HW2 8856   5.076   4.026   5.217
 2653SOL     OW 8857   2.236   6.388   6.816
 2653SOL    HW1 8858   2.215   6.300   6.860
 2653SOL    HW2 8859   2.311   6.376   6.752
 2654SOL     OW 8860   0.061   1.216   0.675
 2654SOL    HW1 8861   0.074   1.224   0.773
 2654SOL    HW2 8862   0.052   1.120   0.650
 2655SOL     OW 8863   5.636   5.965   2.785
 2655SOL    HW1 8864   5.645   6.012   2.697
 2655SOL    HW2 8865   5.583   6.022   2.848
 2656SOL     OW 8866   4.641   5.857   3.950
 2656SOL    HW1 8867   4.701   5.778   3.963
 2656SOL    HW2 8868   4.648   5.889   3.856
 2657SOL     OW 8869   1.381   3.263   6.629
 2657SOL    HW1 8870   1.403   3.231   6.537
 2657SOL    HW2 8871   1.455   3.320   6.664
 2658SOL     OW 8872   3.416   4.826   6.969
 2658SOL    HW1 8873   3.346   4.766   6.931
 2658SOL    HW2 8874   3.373   4.909   7.005
 2659SOL     OW 8875   0.080   1.795   5.454
 2659SOL    HW1 8876   0.015   1.760   5.521
 2659SOL    HW2 8877   0.171   1.801   5.495
 2660SOL     OW 8878   0.723   1.113   1.191
 2660SOL    HW1 8879   0.817   1.145   1.188
 2660SOL    HW2 8880   0.689   1.099   1.098
 2661SOL     OW 8881   1.835   0.892   1.419
 2661SOL    HW1 8882   1.768   0.823   1.395
 2661SOL    HW2 8883   1.918   0.848   1.454
 2662SOL     OW 8884   2.548   1.750   1.729
 2662SOL    HW1 8885   2.641   1.717   1.714
 2662SOL    HW2 8886   2.548   1.850   1.732
 2663SOL     OW 8887   3.553   0.391   0.680
 2663SOL    HW1 8888   3.592   0.483   0.683
 2663SOL    HW2 8889   3.465   0.393   0.634
 2664SOL     OW 8890   5.028   3.242   5.497
 2664SOL    HW1 8891   5.037   3.270   5.401
 2664SOL    HW2 8892   4.932   3.245   5.524
 2665SOL     OW 8893   1.719   2.980   3.787
 2665SOL    HW1 8894   1.710   3.060   3.727
 2665SOL    HW2 8895   1.811   2.978   3.826
 2666SOL     OW 8896   1.999   4.240   1.958
 2666SOL    HW1 8897   1.918   4.183   1.940
 2666SOL    HW2 8898   1.996   4.322   1.901
 2667SOL     OW 8899   6.656   2.786   4.854
 2667SOL    HW1 8900   6.703   2.794   4.942
 2667SOL    HW2 8901   6.633   2.878   4.820
 2668SOL     OW 8902   5.863   0.945   3.985
 2668SOL    HW1 8903   5.871   0.947   4.085
 2668SOL    HW2 8904   5.940   0.894   3.947
 2669SOL     OW 8905   2.635   0.936   1.573
 2669SOL    HW1 8906   2.605   1.003   1.504
 2669SOL    HW2 8907   2.578   0.854   1.565
 2670SOL     OW 8908   0.410   0.254   7.023
 2670SOL    HW1 8909   0.364   0.240   6.935
 2670SOL    HW2 8910   0.426   0.165   0.040
 2671SOL     OW 8911   5.284   4.665   5.797
 2671SOL    HW1 8912   5.356   4.711   5.746
 2671SOL    HW2 8913   5.265   4.576   5.756
 2672SOL     OW 8914   2.647   1.305   2.509
 2672SOL    HW1 8915   2.656   1.214   2.549
 2672SOL    HW2 8916   2.572   1.354   2.554
 2673SOL     OW 8917   3.564   6.864   2.766
 2673SOL    HW1 8918   3.570   6.884   2.863
 2673SOL    HW2 8919   3.647   6.894   2.719
 2674SOL     OW 8920   6.967   5.708   3.228
 2674SOL    HW1 8921   6.947   5.627   3.282
 2674SOL    HW2 8922   6.881   5.752   3.202
 2675SOL     OW 8923   4.629   0.804   4.901
 2675SOL    HW1 8924   4.632   0.740   4.824
 2675SOL    HW2 8925   4.579   0.763   4.977
 2676SOL     OW 8926   4.012   3.767   4.102
 2676SOL    HW1 8927   4.045   3.674   4.082
 2676SOL    HW2 8928   3.919   3.762   4.137
 2677SOL     OW 8929   2.016   6.193   0.106
 2677SOL    HW1 8930   1.940   6.247   0.140
 2677SOL    HW2 8931   2.000   6.169   0.010
 2678SOL     OW 8932   3.511   1.881   2.565
 2678SOL    HW1 8933   3.485   1.788   2.595
 2678SOL    HW2 8934   3.429   1.938   2.562
 2679SOL     OW 8935   1.709   3.675   2.459
 2679SOL    HW1 8936   1.670   3.688   2.550
 2679SOL    HW2 8937   1.635   3.658   2.393
 2680SOL     OW 8938   5.516   2.527   6.911
 2680SOL    HW1 8939   5.586   2.589   6.873
 2680SOL    HW2 8940   5.540   2.503   7.005
 2681SOL     OW 8941   2.552   1.998   3.779
 2681SOL    HW1 8942   2.626   1.954   3.831
 2681SOL    HW2 8943   2.482   1.929   3.757
 2682SOL     OW 8944   3.637   3.839   1.780
 2682SOL    HW1 8945   3.575   3.896   1.833
 2682SOL    HW2 8946   3.710   3.804   1.839
 2683SOL     OW 8947   2.227   4.094   1.640
 2683SOL    HW1 8948   2.309   4.132   1.685
 2683SOL    HW2 8949   2.225   3.995   1.653
 2684SOL     OW 8950   6.328   0.805   3.725
 2684SOL    HW1 8951   6.397   0.774   3.661
 2684SOL    HW2 8952   6.372   0.841   3.807
 2685SOL     OW 8953   1.011   6.713   5.869
 2685SOL    HW1 8954   1.104   6.712   5.833
 2685SOL    HW2 8955   0.946   6.717   5.793
 2686SOL     OW 8956   1.540   1.023   5.655
 2686SOL    HW1 8957   1.565   1.101   5.597
 2686SOL    HW2 8958   1.531   0.941   5.598
 2687SOL     OW 8959   4.499   1.724   1.398
 2687SOL    HW1 8960   4.399   1.732   1.404
 2687SOL    HW2 8961   4.535   1.807   1.355
 2688SOL     OW 8962   3.833   2.658   6.968
 2688SOL    HW1 8963   3.768   2.708   6.911
 2688SOL    HW2 8964   3.802   2.564   6.980
 2689SOL     OW 8965   0.366   3.948   2.815
 2689SOL    HW1 8966   0.450   3.991   2.850
 2689SOL    HW2 8967   0.390   3.866   2.764
 2690SOL     OW 8968   5.268   1.360   5.184
 2690SOL    HW1 8969   5.209   1.410   5.119
 2690SOL    HW2 8970   5.354   1.337   5.139
 2691SOL     OW 8971   0.238   3.733   5.080
 2691SOL    HW1 8972   0.210   3.664   5.146
 2691SOL    HW2 8973   0.180   3.814   5.089
 2692SOL     OW 8974   2.367   5.582   1.952
 2692SOL    HW1 8975   2.288   5.522   1.962
 2692SOL    HW2 8976   2.384   5.600   1.856
 2693SOL     OW 8977   1.131   5.241   2.503
 2693SOL    HW1 8978   1.103   5.269   2.595
 2693SOL    HW2 8979   1.130   5.141   2.498
 2694SOL     OW 8980   2.419   0.304   2.244
 2694SOL    HW1 8981   2.330   0.305   2.289
 2694SOL    HW2 8982   2.474   0.228   2.281
 2695SOL     OW 8983   6.883   4.893   3.173
 2695SOL    HW1 8984   6.855   4.966   3.236
 2695SOL    HW2 8985   6.804   4.865   3.118
 2696SOL     OW 8986   4.480   4.761   6.460
 2696SOL    HW1 8987   4.474   4.662   6.443
 2696SOL    HW2 8988   4.485   4.778   6.558
 2697SOL     OW 8989   3.789   2.112   0.208
 2697SOL    HW1 8990   3.716   2.155   0.154
 2697SOL    HW2 8991   3.798   2.016   0.182
 2698SOL     OW 8992   1.263   5.898   6.209
 2698SOL    HW1 8993   1.231   5.807   6.183
 2698SOL    HW2 8994   1.328   5.890   6.285
 2699SOL     OW 8995   2.765   6.810   2.325
 2699SOL    HW1 8996   2.709   6.771   2.397
 2699SOL    HW2 8997   2.761   6.752   2.244
 2700SOL     OW 8998   4.347   1.898   1.588
 2700SOL    HW1 8999   4.285   1.895   1.510
 2700SOL    HW2 9000   4.295   1.887   1.672
 2701SOL     OW 9001   5.193   3.950   5.617
 2701SOL    HW1 9002   5.269   3.993   5.667
 2701SOL    HW2 9003   5.165   4.010   5.542
 2702SOL     OW 9004   2.547   1.329   4.623
 2702SOL    HW1 9005   2.534   1.423   4.591
 2702SOL    HW2 9006   2.632   1.323   4.675
 2703SOL     OW 9007   2.138   6.255   2.874
 2703SOL    HW1 9008   2.224   6.230   2.829
 2703SOL    HW2 9009   2.154   6.263   2.973
 2704SOL     OW 9010   4.499   0.354   3.516
 2704SOL    HW1 9011   4.527   0.414   3.591
 2704SOL    HW2 9012   4.444   0.405   3.451
 2705SOL     OW 9013   1.759   0.275   5.265
 2705SOL    HW1 9014   1.702   0.197   5.240
 2705SOL    HW2 9015   1.783   0.327   5.182
 2706SOL     OW 9016   6.952   4.375   4.107
 2706SOL    HW1 9017   0.022   4.399   4.119
 2706SOL    HW2 9018   6.940   4.277   4.122
 2707SOL     OW 9019   4.596   1.158   3.526
 2707SOL    HW1 9020   4.694   1.144   3.512
 2707SOL    HW2 9021   4.577   1.255   3.539
 2708SOL     OW 9022   4.843   3.457   5.792
 2708SOL    HW1 9023   4.788   3.445   5.875
 2708SOL    HW2 9024   4.871   3.553   5.785
 2709SOL     OW 9025   5.088   1.456   5.606
 2709SOL    HW1 9026   5.026   1.512   5.662
 2709SOL    HW2 9027   5.107   1.505   5.520
 2710SOL     OW 9028   1.317   2.532   4.064
 2710SOL    HW1 9029   1.313   2.586   3.980
 2710SOL    HW2 9030   1.351   2.589   4.139
 2711SOL     OW 9031   4.407   0.568   1.843
 2711SOL    HW1 9032   4.358   0.484   1.864
 2711SOL    HW2 9033   4.454   0.558   1.755
 2712SOL     OW 9034   5.858   6.076   1.436
 2712SOL    HW1 9035   5.779   6.025   1.401
 2712SOL    HW2 9036   5.898   6.129   1.362
 2713SOL     OW 9037   3.954   5.221   5.796
 2713SOL    HW1 9038   4.035   5.166   5.817
 2713SOL    HW2 9039   3.883   5.162   5.759
 2714SOL     OW 9040   3.294   4.419   5.621
 2714SOL    HW1 9041   3.259   4.370   5.541
 2714SOL    HW2 9042   3.328   4.509   5.593
 2715SOL     OW 9043   4.782   6.401   6.808
 2715SOL    HW1 9044   4.844   6.360   6.875
 2715SOL    HW2 9045   4.789   6.350   6.722
 2716SOL     OW 9046   4.431   0.520   3.093
 2716SOL    HW1 9047   4.461   0.578   3.017
 2716SOL    HW2 9048   4.505   0.460   3.121
 2717SOL     OW 9049   1.133   2.181   2.378
 2717SOL    HW1 9050   1.117   2.247   2.304
 2717SOL    HW2 9051   1.048   2.135   2.401
 2718SOL     OW 9052   6.122   1.400   6.052
 2718SOL    HW1 9053   6.102   1.424   5.957
 2718SOL    HW2 9054   6.083   1.309   6.073
 2719SOL     OW 9055   1.596   4.801   3.673
 2719SOL    HW1 9056   1.526   4.871   3.683
 2719SOL    HW2 9057   1.614   4.758   3.762
 2720SOL     OW 9058   2.040   5.925   6.262
 2720SOL    HW1 9059   2.113   5.979   6.303
 2720SOL    HW2 9060   2.063   5.903   6.167
 2721SOL     OW 9061   2.145   6.822   2.366
 2721SOL    HW1 9062   2.206   6.867   2.431
 2721SOL    HW2 9063   2.113   6.888   2.298
 2722SOL     OW 9064   3.510   4.659   6.478
 2722SOL    HW1 9065   3.504   4.632   6.575
 2722SOL    HW2 9066   3.595   4.623   6.440
 2723SOL     OW 9067   4.263   5.791   6.353
 2723SOL    HW1 9068   4.173   5.756   6.330
 2723SOL    HW2 9069   4.311   5.819   6.270
 2724SOL     OW 9070   6.803   5.976   1.517
 2724SOL    HW1 9071   6.899   5.954   1.534
 2724SOL    HW2 9072   6.771   5.926   1.437
 2725SOL     OW 9073   5.697   4.744   3.288
 2725SOL    HW1 9074   5.731   4.711   3.200
 2725SOL    HW2 9075   5.757   4.710   3.361
 2726SOL     OW 9076   6.450   1.998   2.771
 2726SOL    HW1 9077   6.539   1.993   2.727
 2726SOL    HW2 9078   6.455   2.060   2.849
 2727SOL     OW 9079   1.521   5.503   3.402
 2727SOL    HW1 9080   1.535   5.417   3.352
 2727SOL    HW2 9081   1.431   5.540   3.381
 2728SOL     OW 9082   4.956   5.783   5.922
 2728SOL    HW1 9083   4.866   5.776   5.966
 2728SOL    HW2 9084   4.947   5.767   5.824
 2729SOL     OW 9085   6.451   0.203   0.250
 2729SOL    HW1 9086   6.526   0.143   0.221
 2729SOL    HW2 9087   6.469   0.296   0.219
 2730SOL     OW 9088   1.364   6.010   2.590
 2730SOL    HW1 9089   1.277   5.962   2.584
 2730SOL    HW2 9090   1.417   5.994   2.507
 2731SOL     OW 9091   3.481   4.126   4.876
 2731SOL    HW1 9092   3.450   4.105   4.969
 2731SOL    HW2 9093   3.403   4.149   4.819
 2732SOL     OW 9094   4.724   0.595   2.015
 2732SOL    HW1 9095   4.707   0.555   2.105
 2732SOL    HW2 9096   4.715   0.524   1.945
 2733SOL     OW 9097   0.854   6.857   0.329
 2733SOL    HW1 9098   0.776   6.801   0.302
 2733SOL    HW2 9099   0.910   6.876   0.248
 2734SOL     OW 9100   3.575   6.425   2.516
 2734SOL    HW1 9101   3.564   6.333   2.478
 2734SOL    HW2 9102   3.485   6.468   2.525
 2735SOL     OW 9103   0.914   2.010   2.216
 2735SOL    HW1 9104   1.003   1.967   2.199
 2735SOL    HW2 9105   0.867   1.962   2.290
 2736SOL     OW 9106   5.666   3.779   2.500
 2736SOL    HW1 9107   5.726   3.715   2.547
 2736SOL    HW2 9108   5.638   3.741   2.412
 2737SOL     OW 9109   2.934   0.705   5.366
 2737SOL    HW1 9110   2.888   0.655   5.439
 2737SOL    HW2 9111   2.879   0.786   5.342
 2738SOL     OW 9112   5.095   5.961   0.873
 2738SOL    HW1 9113   5.085   5.940   0.970
 2738SOL    HW2 9114   5.005   5.967   0.831
 2739SOL     OW 9115   6.961   5.723   1.305
 2739SOL    HW1 9116   7.009   5.725   1.393
 2739SOL    HW2 9117   6.885   5.658   1.310
 2740SOL     OW 9118   0.276   4.786   3.995
 2740SOL    HW1 9119   0.237   4.696   4.013
 2740SOL    HW2 9120   0.365   4.775   3.950
 2741SOL     OW 9121   1.375   6.605   6.077
 2741SOL    HW1 9122   1.426   6.540   6.021
 2741SOL    HW2 9123   1.393   6.698   6.045
 2742SOL     OW 9124   3.020   5.409   3.354
 2742SOL    HW1 9125   2.966   5.324   3.352
 2742SOL    HW2 9126   3.057   5.427   3.263
 2743SOL     OW 9127   5.148   1.778   2.891
 2743SOL    HW1 9128   5.093   1.787   2.974
 2743SOL    HW2 9129   5.131   1.688   2.850
 2744SOL     OW 9130   3.520   4.177   2.052
 2744SOL    HW1 9131   3.447   4.110   2.036
 2744SOL    HW2 9132   3.479   4.268   2.062
 2745SOL     OW 9133   0.860   5.837   0.190
 2745SOL    HW1 9134   0.789   5.773   0.161
 2745SOL    HW2 9135   0.942   5.785   0.215
 2746SOL     OW 9136   1.535   0.971   3.628
 2746SOL    HW1 9137   1.444   0.995   3.662
 2746SOL    HW2 9138   1.590   1.054   3.618
 2747SOL     OW 9139   4.352   4.762   0.324
 2747SOL    HW1 9140   4.317   4.771   0.231
 2747SOL    HW2 9141   4.278   4.735   0.385
 2748SOL     OW 9142   4.010   0.394   1.083
 2748SOL    HW1 9143   3.926   0.345   1.105
 2748SOL    HW2 9144   4.088   0.350   1.129
 2749SOL     OW 9145   3.518   1.273   0.716
 2749SOL    HW1 9146   3.478   1.342   0.777
 2749SOL    HW2 9147   3.552   1.318   0.633
 2750SOL     OW 9148   3.041   5.761   3.163
 2750SOL    HW1 9149   3.089   5.700   3.100
 2750SOL    HW2 9150   2.974   5.816   3.113
 2751SOL     OW 9151   5.993   4.554   1.272
 2751SOL    HW1 9152   5.936   4.549   1.190
 2751SOL    HW2 9153   6.002   4.649   1.300
 2752SOL     OW 9154   3.972   5.659   6.628
 2752SOL    HW1 9155   3.947   5.750   6.595
 2752SOL    HW2 9156   4.027   5.668   6.711
 2753SOL     OW 9157   5.525   5.714   5.738
 2753SOL    HW1 9158   5.533   5.763   5.651
 2753SOL    HW2 9159   5.519   5.779   5.813
 2754SOL     OW 9160   1.278   0.321   5.645
 2754SOL    HW1 9161   1.198   0.321   5.705
 2754SOL    HW2 9162   1.335   0.240   5.663
 2755SOL     OW 9163   3.393   0.114   2.368
 2755SOL    HW1 9164   3.446   0.196   2.390
 2755SOL    HW2 9165   3.333   0.133   2.290
 2756SOL     OW 9166   4.407   5.817   0.030
 2756SOL    HW1 9167   4.506   5.824   0.023
 2756SOL    HW2 9168   4.382   5.763   0.110
 2757SOL     OW 9169   0.676   5.017   0.700
 2757SOL    HW1 9170   0.714   4.934   0.661
 2757SOL    HW2 9171   0.749   5.082   0.718
 2758SOL     OW 9172   5.315   0.625   4.988
 2758SOL    HW1 9173   5.321   0.710   5.040
 2758SOL    HW2 9174   5.230   0.578   5.011
 2759SOL     OW 9175   4.752   5.082   3.999
 2759SOL    HW1 9176   4.841   5.051   4.032
 2759SOL    HW2 9177   4.680   5.039   4.053
 2760SOL     OW 9178   0.886   6.526   3.509
 2760SOL    HW1 9179   0.903   6.455   3.441
 2760SOL    HW2 9180   0.954   6.599   3.499
 2761SOL     OW 9181   2.374   4.942   4.152
 2761SOL    HW1 9182   2.421   4.878   4.213
 2761SOL    HW2 9183   2.304   4.992   4.203
 2762SOL     OW 9184   2.112   1.176   5.195
 2762SOL    HW1 9185   2.078   1.191   5.288
 2762SOL    HW2 9186   2.196   1.122   5.198
 2763SOL     OW 9187   5.329   1.273   2.368
 2763SOL    HW1 9188   5.248   1.324   2.397
 2763SOL    HW2 9189   5.369   1.227   2.448
 2764SOL     OW 9190   5.944   0.686   1.584
 2764SOL    HW1 9191   5.873   0.751   1.610
 2764SOL    HW2 9192   6.017   0.734   1.535
 2765SOL     OW 9193   5.065   2.433   3.100
 2765SOL    HW1 9194   5.061   2.347   3.048
 2765SOL    HW2 9195   5.047   2.415   3.197
 2766SOL     OW 9196   5.801   0.180   2.594
 2766SOL    HW1 9197   5.880   0.212   2.542
 2766SOL    HW2 9198   5.764   0.098   2.551
 2767SOL     OW 9199   6.386   4.299   5.889
 2767SOL    HW1 9200   6.455   4.365   5.919
 2767SOL    HW2 9201   6.407   4.269   5.796
 2768SOL     OW 9202   6.072   1.491   6.643
 2768SOL    HW1 9203   6.014   1.504   6.723
 2768SOL    HW2 9204   6.138   1.418   6.661
 2769SOL     OW 9205   0.821   4.530   1.008
 2769SOL    HW1 9206   0.727   4.523   0.976
 2769SOL    HW2 9207   0.825   4.507   1.105
 2770SOL     OW 9208   5.934   5.915   2.342
 2770SOL    HW1 9209   5.947   6.012   2.325
 2770SOL    HW2 9210   6.021   5.873   2.368
 2771SOL     OW 9211   4.793   0.946   1.417
 2771SOL    HW1 9212   4.759   0.986   1.502
 2771SOL    HW2 9213   4.797   0.846   1.426
 2772SOL     OW 9214   3.581   1.850   6.898
 2772SOL    HW1 9215   3.550   1.767   6.852
 2772SOL    HW2 9216   3.633   1.906   6.834
 2773SOL     OW 9217   2.877   5.037   0.898
 2773SOL    HW1 9218   2.840   4.997   0.814
 2773SOL    HW2 9219   2.833   4.995   0.978
 2774SOL     OW 9220   5.460   2.896   2.065
 2774SOL    HW1 9221   5.362   2.909   2.080
 2774SOL    HW2 9222   5.475   2.862   1.972
 2775SOL     OW 9223   0.009   0.180   1.964
 2775SOL    HW1 9224   6.980   0.134   1.895
 2775SOL    HW2 9225   0.034   0.271   1.930
 2776SOL     OW 9226   2.969   6.226   6.488
 2776SOL    HW1 9227   2.965   6.299   6.420
 2776SOL    HW2 9228   2.969   6.265   6.580
 2777SOL     OW 9229   2.129   1.974   3.787
 2777SOL    HW1 9230   2.179   1.898   3.828
 2777SOL    HW2 9231   2.175   2.060   3.808
 2778SOL     OW 9232   2.648   2.446   4.905
 2778SOL    HW1 9233   2.702   2.506   4.848
 2778SOL    HW2 9234   2.708   2.394   4.966
 2779SOL     OW 9235   6.401   1.528   1.255
 2779SOL    HW1 9236   6.392   1.516   1.354
 2779SOL    HW2 9237   6.373   1.621   1.230
 2780SOL     OW 9238   3.494   5.887   0.018
 2780SOL    HW1 9239   3.526   5.953   6.977
 2780SOL    HW2 9240   3.572   5.857   0.074
 2781SOL     OW 9241   4.818   4.250   6.506
 2781SOL    HW1 9242   4.856   4.306   6.580
 2781SOL    HW2 9243   4.841   4.154   6.521
 2782SOL     OW 9244   3.326   1.675   5.886
 2782SOL    HW1 9245   3.417   1.705   5.857
 2782SOL    HW2 9246   3.306   1.713   5.977
 2783SOL     OW 9247   0.233   3.962   5.985
 2783SOL    HW1 9248   0.291   3.970   6.065
 2783SOL    HW2 9249   0.244   4.043   5.927
 2784SOL     OW 9250   2.519   2.665   1.772
 2784SOL    HW1 9251   2.546   2.665   1.676
 2784SOL    HW2 9252   2.555   2.583   1.817
 2785SOL     OW 9253   6.108   1.121   1.836
 2785SOL    HW1 9254   6.041   1.168   1.779
 2785SOL    HW2 9255   6.199   1.157   1.817
 2786SOL     OW 9256   3.306   0.845   0.008
 2786SOL    HW1 9257   3.387   0.904   0.016
 2786SOL    HW2 9258   3.335   0.753   7.010
 2787SOL     OW 9259   1.912   3.610   6.032
 2787SOL    HW1 9260   1.906   3.626   6.130
 2787SOL    HW2 9261   1.924   3.697   5.984
 2788SOL     OW 9262   7.011   3.601   6.832
 2788SOL    HW1 9263   0.008   3.509   6.863
 2788SOL    HW2 9264   6.915   3.620   6.855
 2789SOL     OW 9265   0.406   2.750   4.221
 2789SOL    HW1 9266   0.365   2.771   4.310
 2789SOL    HW2 9267   0.496   2.709   4.234
 2790SOL     OW 9268   3.266   6.308   4.583
 2790SOL    HW1 9269   3.206   6.232   4.606
 2790SOL    HW2 9270   3.319   6.285   4.501
 2791SOL     OW 9271   1.766   3.772   2.912
 2791SOL    HW1 9272   1.732   3.865   2.920
 2791SOL    HW2 9273   1.707   3.711   2.966
 2792SOL     OW 9274   1.051   2.303   4.829
 2792SOL    HW1 9275   1.042   2.324   4.926
 2792SOL    HW2 9276   1.148   2.300   4.804
 2793SOL     OW 9277   4.661   0.485   4.447
 2793SOL    HW1 9278   4.723   0.412   4.417
 2793SOL    HW2 9279   4.567   0.451   4.445
 2794SOL     OW 9280   1.025   1.499   1.625
 2794SOL    HW1 9281   1.049   1.596   1.633
 2794SOL    HW2 9282   1.037   1.454   1.714
 2795SOL     OW 9283   1.496   4.154   1.559
 2795SOL    HW1 9284   1.562   4.081   1.539
 2795SOL    HW2 9285   1.464   4.193   1.473
 2796SOL     OW 9286   5.172   4.050   2.300
 2796SOL    HW1 9287   5.189   3.999   2.215
 2796SOL    HW2 9288   5.167   3.985   2.376
 2797SOL     OW 9289   4.585   4.480   4.791
 2797SOL    HW1 9290   4.521   4.549   4.757
 2797SOL    HW2 9291   4.574   4.470   4.890
 2798SOL     OW 9292   1.767   3.586   3.589
 2798SOL    HW1 9293   1.843   3.554   3.533
 2798SOL    HW2 9294   1.770   3.686   3.596
 2799SOL     OW 9295   6.530   5.891   5.801
 2799SOL    HW1 9296   6.583   5.884   5.886
 2799SOL    HW2 9297   6.561   5.821   5.737
 2800SOL     OW 9298   2.731   1.735   6.624
 2800SOL    HW1 9299   2.645   1.750   6.673
 2800SOL    HW2 9300   2.782   1.661   6.668
 2801SOL     OW 9301   3.940   5.576   2.688
 2801SOL    HW1 9302   3.933   5.497   2.748
 2801SOL    HW2 9303   3.971   5.655   2.741
 2802SOL     OW 9304   6.041   0.542   6.215
 2802SOL    HW1 9305   5.984   0.532   6.133
 2802SOL    HW2 9306   6.053   0.639   6.236
 2803SOL     OW 9307   2.367   5.973   5.832
 2803SOL    HW1 9308   2.309   5.930   5.763
 2803SOL    HW2 9309   2.459   5.986   5.794
 2804SOL     OW 9310   0.371   4.874   2.200
 2804SOL    HW1 9311   0.418   4.793   2.166
 2804SOL    HW2 9312   0.372   4.946   2.131
 2805SOL     OW 9313   5.308   3.603   6.664
 2805SOL    HW1 9314   5.209   3.611   6.675
 2805SOL    HW2 9315   5.349   3.693   6.670
 2806SOL     OW 9316   6.676   5.488   2.603
 2806SOL    HW1 9317   6.582   5.498   2.636
 2806SOL    HW2 9318   6.678   5.425   2.526
 2807SOL     OW 9319   4.069   4.803   4.033
 2807SOL    HW1 9320   4.102   4.828   4.124
 2807SOL    HW2 9321   3.970   4.817   4.028
 2808SOL     OW 9322   4.486   5.929   4.446
 2808SOL    HW1 9323   4.443   5.923   4.536
 2808SOL    HW2 9324   4.496   6.025   4.420
 2809SOL     OW 9325   5.452   3.053   0.356
 2809SOL    HW1 9326   5.517   3.011   0.420
 2809SOL    HW2 9327   5.359   3.045   0.393
 2810SOL     OW 9328   1.339   0.813   6.206
 2810SOL    HW1 9329   1.332   0.811   6.106
 2810SOL    HW2 9330   1.301   0.899   6.240
 2811SOL     OW 9331   0.151   0.842   3.844
 2811SOL    HW1 9332   0.124   0.859   3.939
 2811SOL    HW2 9333   0.173   0.929   3.800
 2812SOL     OW 9334   4.767   4.298   2.475
 2812SOL    HW1 9335   4.756   4.384   2.425
 2812SOL    HW2 9336   4.845   4.247   2.437
 2813SOL     OW 9337   6.110   1.870   6.259
 2813SOL    HW1 9338   6.180   1.872   6.331
 2813SOL    HW2 9339   6.118   1.785   6.207
 2814SOL     OW 9340   5.487   4.428   4.840
 2814SOL    HW1 9341   5.500   4.528   4.837
 2814SOL    HW2 9342   5.477   4.393   4.747
 2815SOL     OW 9343   0.019   0.988   4.584
 2815SOL    HW1 9344   7.017   0.918   4.649
 2815SOL    HW2 9345   0.016   1.078   4.627
 2816SOL     OW 9346   5.402   6.463   2.879
 2816SOL    HW1 9347   5.483   6.418   2.841
 2816SOL    HW2 9348   5.340   6.394   2.917
 2817SOL     OW 9349   1.438   1.672   1.409
 2817SOL    HW1 9350   1.367   1.733   1.375
 2817SOL    HW2 9351   1.402   1.616   1.483
 2818SOL     OW 9352   0.596   3.293   6.529
 2818SOL    HW1 9353   0.668   3.353   6.565
 2818SOL    HW2 9354   0.516   3.348   6.505
 2819SOL     OW 9355   6.215   3.309   1.158
 2819SOL    HW1 9356   6.160   3.254   1.095
 2819SOL    HW2 9357   6.157   3.342   1.232
 2820SOL     OW 9358   5.526   2.497   3.846
 2820SOL    HW1 9359   5.579   2.571   3.803
 2820SOL    HW2 9360   5.513   2.518   3.943
 2821SOL     OW 9361   1.750   3.468   3.851
 2821SOL    HW1 9362   1.667   3.417   3.875
 2821SOL    HW2 9363   1.736   3.515   3.764
 2822SOL     OW 9364   3.002   1.758   0.709
 2822SOL    HW1 9365   3.065   1.694   0.667
 2822SOL    HW2 9366   2.928   1.780   0.645
 2823SOL     OW 9367   2.046   6.667   3.796
 2823SOL    HW1 9368   1.961   6.719   3.797
 2823SOL    HW2 9369   2.070   6.645   3.701
 2824SOL     OW 9370   2.818   2.066   5.523
 2824SOL    HW1 9371   2.895   2.036   5.579
 2824SOL    HW2 9372   2.844   2.148   5.472
 2825SOL     OW 9373   6.603   6.320   1.094
 2825SOL    HW1 9374   6.648   6.251   1.038
 2825SOL    HW2 9375   6.599   6.289   1.189
 2826SOL     OW 9376   4.933   2.952   4.383
 2826SOL    HW1 9377   4.882   2.969   4.298
 2826SOL    HW2 9378   5.024   2.916   4.360
 2827SOL     OW 9379   6.482   0.477   0.159
 2827SOL    HW1 9380   6.498   0.575   0.144
 2827SOL    HW2 9381   6.569   0.432   0.177
 2828SOL     OW 9382   3.768   2.001   6.769
 2828SOL    HW1 9383   3.749   1.984   6.672
 2828SOL    HW2 9384   3.800   2.095   6.780
 2829SOL     OW 9385   2.966   0.560   6.720
 2829SOL    HW1 9386   2.919   0.511   6.794
 2829SOL    HW2 9387   2.965   0.658   6.739
 2830SOL     OW 9388   3.287   3.597   6.643
 2830SOL    HW1 9389   3.275   3.678   6.586
 2830SOL    HW2 9390   3.199   3.572   6.683
 2831SOL     OW 9391   6.720   5.990   3.792
 2831SOL    HW1 9392   6.757   5.923   3.728
 2831SOL    HW2 9393   6.671   5.943   3.866
 2832SOL     OW 9394   0.478   1.166   1.904
 2832SOL    HW1 9395   0.504   1.173   1.807
 2832SOL    HW2 9396   0.436   1.252   1.933
 2833SOL     OW 9397   6.487   3.516   2.686
 2833SOL    HW1 9398   6.565   3.575   2.702
 2833SOL    HW2 9399   6.497   3.432   2.740
 2834SOL     OW 9400   4.538   0.645   5.582
 2834SOL    HW1 9401   4.613   0.581   5.565
 2834SOL    HW2 9402   4.469   0.600   5.639
 2835SOL     OW 9403   6.928   6.126   3.482
 2835SOL    HW1 9404   6.987   6.047   3.464
 2835SOL    HW2 9405   6.926   6.143   3.581
 2836SOL     OW 9406   6.342   0.614   0.666
 2836SOL    HW1 9407   6.316   0.582   0.575
 2836SOL    HW2 9408   6.394   0.543   0.713
 2837SOL     OW 9409   6.313   2.897   3.648
 2837SOL    HW1 9410   6.214   2.899   3.632
 2837SOL    HW2 9411   6.332   2.843   3.731
 2838SOL     OW 9412   2.005   4.350   4.106
 2838SOL    HW1 9413   2.044   4.441   4.091
 2838SOL    HW2 9414   1.959   4.348   4.194
 2839SOL     OW 9415   4.596   2.610   0.680
 2839SOL    HW1 9416   4.654   2.551   0.737
 2839SOL    HW2 9417   4.532   2.660   0.739
 2840SOL     OW 9418   6.412   2.930   4.865
 2840SOL    HW1 9419   6.489   2.866   4.870
 2840SOL    HW2 9420   6.368   2.921   4.776
 2841SOL     OW 9421   0.489   6.493   1.172
 2841SOL    HW1 9422   0.398   6.453   1.167
 2841SOL    HW2 9423   0.550   6.430   1.221
 2842SOL     OW 9424   5.752   3.079   2.682
 2842SOL    HW1 9425   5.766   3.090   2.780
 2842SOL    HW2 9426   5.733   2.983   2.662
 2843SOL     OW 9427   4.225   1.140   4.520
 2843SOL    HW1 9428   4.218   1.101   4.611
 2843SOL    HW2 9429   4.287   1.084   4.464
 2844SOL     OW 9430   0.861   4.152   5.891
 2844SOL    HW1 9431   0.796   4.211   5.844
 2844SOL    HW2 9432   0.840   4.056   5.870
 2845SOL     OW 9433   0.049   4.286   6.158
 2845SOL    HW1 9434   0.007   4.199   6.132
 2845SOL    HW2 9435   0.099   4.323   6.079
 2846SOL     OW 9436   4.987   1.087   5.791
 2846SOL    HW1 9437   4.977   1.006   5.733
 2846SOL    HW2 9438   4.942   1.072   5.878
 2847SOL     OW 9439   4.477   4.878   4.406
 2847SOL    HW1 9440   4.414   4.866   4.483
 2847SOL    HW2 9441   4.553   4.814   4.416
 2848SOL     OW 9442   2.014   6.498   5.650
 2848SOL    HW1 9443   1.942   6.464   5.589
 2848SOL    HW2 9444   2.102   6.492   5.603
 2849SOL     OW 9445   2.088   2.888   1.564
 2849SOL    HW1 9446   2.106   2.792   1.584
 2849SOL    HW2 9447   2.143   2.945   1.625
 2850SOL     OW 9448   3.880   1.027   0.884
 2850SOL    HW1 9449   3.819   1.105   0.880
 2850SOL    HW2 9450   3.967   1.054   0.926
 2851SOL     OW 9451   2.641   5.217   6.191
 2851SOL    HW1 9452   2.675   5.219   6.285
 2851SOL    HW2 9453   2.541   5.209   6.192
 2852SOL     OW 9454   0.265   2.808   6.429
 2852SOL    HW1 9455   0.175   2.766   6.426
 2852SOL    HW2 9456   0.335   2.738   6.433
 2853SOL     OW 9457   3.658   2.477   1.407
 2853SOL    HW1 9458   3.653   2.490   1.506
 2853SOL    HW2 9459   3.591   2.409   1.379
 2854SOL     OW 9460   0.922   1.128   3.534
 2854SOL    HW1 9461   0.830   1.089   3.537
 2854SOL    HW2 9462   0.955   1.127   3.439
 2855SOL     OW 9463   2.869   1.292   5.247
 2855SOL    HW1 9464   2.960   1.265   5.277
 2855SOL    HW2 9465   2.837   1.230   5.176
 2856SOL     OW 9466   2.137   1.802   5.198
 2856SOL    HW1 9467   2.047   1.841   5.219
 2856SOL    HW2 9468   2.181   1.857   5.127
 2857SOL     OW 9469   3.501   3.535   3.134
 2857SOL    HW1 9470   3.450   3.616   3.162
 2857SOL    HW2 9471   3.530   3.544   3.039
 2858SOL     OW 9472   5.350   2.456   2.951
 2858SOL    HW1 9473   5.369   2.364   2.917
 2858SOL    HW2 9474   5.262   2.456   2.999
 2859SOL     OW 9475   5.469   6.498   0.226
 2859SOL    HW1 9476   5.430   6.549   0.303
 2859SOL    HW2 9477   5.566   6.480   0.245
 2860SOL     OW 9478   4.058   2.217   0.772
 2860SOL    HW1 9479   4.079   2.228   0.869
 2860SOL    HW2 9480   4.050   2.307   0.728
 2861SOL     OW 9481   4.194   5.400   6.136
 2861SOL    HW1 9482   4.198   5.471   6.066
 2861SOL    HW2 9483   4.260   5.328   6.115
 2862SOL     OW 9484   6.524   6.898   3.998
 2862SOL    HW1 9485   6.491   6.931   4.086
 2862SOL    HW2 9486   6.542   6.976   3.938
 2863SOL     OW 9487   6.940   1.424   0.068
 2863SOL    HW1 9488   6.855   1.417   0.016
 2863SOL    HW2 9489   6.944   1.351   0.136
 2864SOL     OW 9490   3.746   1.401   0.438
 2864SOL    HW1 9491   3.800   1.412   0.354
 2864SOL    HW2 9492   3.799   1.351   0.506
 2865SOL     OW 9493   4.776   4.937   5.389
 2865SOL    HW1 9494   4.719   5.011   5.353
 2865SOL    HW2 9495   4.813   4.884   5.313
 2866SOL     OW 9496   0.047   0.056   6.464
 2866SOL    HW1 9497   7.027   0.006   6.537
 2866SOL    HW2 9498   7.013   0.063   6.385
 2867SOL     OW 9499   6.553   4.368   3.355
 2867SOL    HW1 9500   6.508   4.298   3.299
 2867SOL    HW2 9501   6.571   4.449   3.298
 2868SOL     OW 9502   1.738   5.182   4.884
 2868SOL    HW1 9503   1.766   5.270   4.922
 2868SOL    HW2 9504   1.795   5.109   4.923
 2869SOL     OW 9505   6.113   0.879   1.957
 2869SOL    HW1 9506   6.115   0.971   1.918
 2869SOL    HW2 9507   6.068   0.882   2.047
 2870SOL     OW 9508   4.733   1.956   2.310
 2870SOL    HW1 9509   4.740   1.858   2.328
 2870SOL    HW2 9510   4.705   2.003   2.394
 2871SOL     OW 9511   1.701   1.824   6.098
 2871SOL    HW1 9512   1.756   1.755   6.052
 2871SOL    HW2 9513   1.604   1.800   6.091
 2872SOL     OW 9514   1.772   6.446   3.939
 2872SOL    HW1 9515   1.833   6.444   4.019
 2872SOL    HW2 9516   1.751   6.541   3.916
 2873SOL     OW 9517   0.163   5.771   1.915
 2873SOL    HW1 9518   0.156   5.729   2.005
 2873SOL    HW2 9519   0.102   5.851   1.911
 2874SOL     OW 9520   5.648   1.281   2.489
 2874SOL    HW1 9521   5.667   1.196   2.538
 2874SOL    HW2 9522   5.609   1.259   2.400
 2875SOL     OW 9523   2.634   4.976   1.534
 2875SOL    HW1 9524   2.683   5.059   1.562
 2875SOL    HW2 9525   2.590   4.992   1.445
 2876SOL     OW 9526   7.014   2.103   2.224
 2876SOL    HW1 9527   6.932   2.070   2.177
 2876SOL    HW2 9528   7.015   2.203   2.225
 2877SOL     OW 9529   2.370   4.227   5.866
 2877SOL    HW1 9530   2.443   4.164   5.842
 2877SOL    HW2 9531   2.399   4.321   5.846
 2878SOL     OW 9532   3.361   5.149   0.309
 2878SOL    HW1 9533   3.281   5.161   0.368
 2878SOL    HW2 9534   3.442   5.186   0.355
 2879SOL     OW 9535   4.551   4.431   0.172
 2879SOL    HW1 9536   4.460   4.389   0.180
 2879SOL    HW2 9537   4.606   4.380   0.106
 2880SOL     OW 9538   1.309   0.088   1.802
 2880SOL    HW1 9539   1.219   0.079   1.759
 2880SOL    HW2 9540   1.315   0.024   1.879
 2881SOL     OW 9541   0.322   0.396   6.430
 2881SOL    HW1 9542   0.234   0.438   6.450
 2881SOL    HW2 9543   0.338   0.320   6.494
 2882SOL     OW 9544   6.773   3.191   3.596
 2882SOL    HW1 9545   6.761   3.092   3.595
 2882SOL    HW2 9546   6.814   3.220   3.510
 2883SOL     OW 9547   4.720   6.022   2.402
 2883SOL    HW1 9548   4.727   5.952   2.332
 2883SOL    HW2 9549   4.631   6.068   2.394
 2884SOL     OW 9550   1.628   5.952   2.791
 2884SOL    HW1 9551   1.687   5.874   2.771
 2884SOL    HW2 9552   1.658   6.031   2.738
 2885SOL     OW 9553   0.794   2.506   4.152
 2885SOL    HW1 9554   0.742   2.581   4.191
 2885SOL    HW2 9555   0.874   2.542   4.103
 2886SOL     OW 9556   2.616   3.056   6.255
 2886SOL    HW1 9557   2.594   2.960   6.273
 2886SOL    HW2 9558   2.715   3.067   6.250
 2887SOL     OW 9559   2.730   1.830   4.998
 2887SOL    HW1 9560   2.717   1.904   5.064
 2887SOL    HW2 9561   2.828   1.819   4.979
 2888SOL     OW 9562   6.707   4.852   0.160
 2888SOL    HW1 9563   6.770   4.922   0.126
 2888SOL    HW2 9564   6.613   4.881   0.143
 2889SOL     OW 9565   0.633   6.838   0.839
 2889SOL    HW1 9566   0.536   6.824   0.860
 2889SOL    HW2 9567   0.644   6.925   0.791
 2890SOL     OW 9568   2.859   0.423   0.486
 2890SOL    HW1 9569   2.898   0.331   0.485
 2890SOL    HW2 9570   2.864   0.461   0.578
 2891SOL     OW 9571   2.821   4.751   4.622
 2891SOL    HW1 9572   2.877   4.733   4.541
 2891SOL    HW2 9573   2.733   4.705   4.613
 2892SOL     OW 9574   4.518   4.227   5.258
 2892SOL    HW1 9575   4.442   4.275   5.214
 2892SOL    HW2 9576   4.494   4.130   5.270
 2893SOL     OW 9577   3.247   1.231   5.988
 2893SOL    HW1 9578   3.259   1.331   5.981
 2893SOL    HW2 9579   3.155   1.211   6.021
 2894SOL     OW 9580   3.364   2.583   1.290
 2894SOL    HW1 9581   3.387   2.586   1.387
 2894SOL    HW2 9582   3.407   2.503   1.248
 2895SOL     OW 9583   3.225   3.297   6.818
 2895SOL    HW1 9584   3.308   3.244   6.836
 2895SOL    HW2 9585   3.229   3.385   6.866
 2896SOL     OW 9586   1.999   5.396   1.017
 2896SOL    HW1 9587   1.977   5.417   0.922
 2896SOL    HW2 9588   2.047   5.308   1.022
 2897SOL     OW 9589   1.286   6.716   3.406
 2897SOL    HW1 9590   1.186   6.720   3.400
 2897SOL    HW2 9591   1.313   6.719   3.503
 2898SOL     OW 9592   2.465   4.518   2.868
 2898SOL    HW1 9593   2.513   4.575   2.801
 2898SOL    HW2 9594   2.422   4.441   2.821
 2899SOL     OW 9595   6.071   1.309   0.475
 2899SOL    HW1 9596   6.000   1.380   0.473
 2899SOL    HW2 9597   6.030   1.220   0.458
 2900SOL     OW 9598   2.966   5.554   6.499
 2900SOL    HW1 9599   2.895   5.531   6.565
 2900SOL    HW2 9600   2.947   5.508   6.412
 2901SOL     OW 9601   2.736   0.150   1.066
 2901SOL    HW1 9602   2.798   0.078   1.096
 2901SOL    HW2 9603   2.671   0.112   1.000
 2902SOL     OW 9604   5.654   5.124   0.900
 2902SOL    HW1 9605   5.636   5.035   0.942
 2902SOL    HW2 9606   5.667   5.112   0.801
 2903SOL     OW 9607   2.904   2.545   1.630
 2903SOL    HW1 9608   2.862   2.632   1.656
 2903SOL    HW2 9609   2.920   2.490   1.712
 2904SOL     OW 9610   2.294   2.576   4.306
 2904SOL    HW1 9611   2.369   2.597   4.369
 2904SOL    HW2 9612   2.304   2.631   4.223
 2905SOL     OW 9613   1.736   2.244   1.967
 2905SOL    HW1 9614   1.781   2.321   1.922
 2905SOL    HW2 9615   1.643   2.233   1.930
 2906SOL     OW 9616   5.115   5.634   2.025
 2906SOL    HW1 9617   5.161   5.591   2.103
 2906SOL    HW2 9618   5.023   5.596   2.016
 2907SOL     OW 9619   6.311   0.478   4.444
 2907SOL    HW1 9620   6.367   0.505   4.522
 2907SOL    HW2 9621   6.214   0.485   4.469
 2908SOL     OW 9622   4.106   6.301   5.222
 2908SOL    HW1 9623   4.160   6.225   5.187
 2908SOL    HW2 9624   4.118   6.307   5.321
 2909SOL     OW 9625   1.685   5.936   5.323
 2909SOL    HW1 9626   1.740   6.017   5.347
 2909SOL    HW2 9627   1.655   5.891   5.406
 2910SOL     OW 9628   5.009   6.350   5.465
 2910SOL    HW1 9629   5.073   6.427   5.459
 2910SOL    HW2 9630   5.025   6.299   5.549
 2911SOL     OW 9631   2.256   4.144   3.787
 2911SOL    HW1 9632   2.301   4.155   3.876
 2911SOL    HW2 9633   2.291   4.212   3.723
 2912SOL     OW 9634   2.824   5.222   0.628
 2912SOL    HW1 9635   2.887   5.239   0.553
 2912SOL    HW2 9636   2.871   5.172   0.701
 2913SOL     OW 9637   1.135   3.524   2.360
 2913SOL    HW1 9638   1.050   3.488   2.398
 2913SOL    HW2 9639   1.162   3.469   2.281
 2914SOL     OW 9640   5.373   4.929   5.613
 2914SOL    HW1 9641   5.378   5.022   5.649
 2914SOL    HW2 9642   5.298   4.924   5.547
 2915SOL     OW 9643   4.040   1.327   4.411
 2915SOL    HW1 9644   4.051   1.355   4.316
 2915SOL    HW2 9645   4.118   1.270   4.438
 2916SOL     OW 9646   4.524   5.899   4.970
 2916SOL    HW1 9647   4.531   5.827   4.901
 2916SOL    HW2 9648   4.461   5.871   5.042
 2917SOL     OW 9649   4.336   0.542   2.160
 2917SOL    HW1 9650   4.347   0.560   2.062
 2917SOL    HW2 9651   4.271   0.608   2.198
 2918SOL     OW 9652   0.285   3.326   4.188
 2918SOL    HW1 9653   0.362   3.286   4.238
 2918SOL    HW2 9654   0.215   3.355   4.253
 2919SOL     OW 9655   5.983   6.204   0.523
 2919SOL    HW1 9656   6.015   6.200   0.429
 2919SOL    HW2 9657   6.061   6.217   0.584
 2920SOL     OW 9658   4.478   2.067   2.806
 2920SOL    HW1 9659   4.523   2.151   2.838
 2920SOL    HW2 9660   4.521   2.037   2.721
 2921SOL     OW 9661   6.664   0.086   1.523
 2921SOL    HW1 9662   6.649   0.156   1.592
 2921SOL    HW2 9663   6.701   0.128   1.440
 2922SOL     OW 9664   4.682   6.459   5.269
 2922SOL    HW1 9665   4.748   6.509   5.213
 2922SOL    HW2 9666   4.724   6.439   5.358
 2923SOL     OW 9667   6.962   4.522   0.349
 2923SOL    HW1 9668   6.938   4.619   0.355
 2923SOL    HW2 9669   6.961   4.494   0.253
 2924SOL     OW 9670   6.115   0.105   5.775
 2924SOL    HW1 9671   6.033   0.143   5.816
 2924SOL    HW2 9672   6.144   0.025   5.826
 2925SOL     OW 9673   5.791   3.427   1.171
 2925SOL    HW1 9674   5.777   3.379   1.258
 2925SOL    HW2 9675   5.711   3.484   1.151
 2926SOL     OW 9676   0.061   1.268   3.586
 2926SOL    HW1 9677   0.057   1.343   3.652
 2926SOL    HW2 9678   6.995   1.236   3.566
 2927SOL     OW 9679   1.067   3.209   2.365
 2927SOL    HW1 9680   0.993   3.265   2.402
 2927SOL    HW2 9681   1.041   3.175   2.275
 2928SOL     OW 9682   5.399   5.911   1.161
 2928SOL    HW1 9683   5.409   5.812   1.166
 2928SOL    HW2 9684   5.458   5.947   1.088
 2929SOL     OW 9685   0.799   0.460   6.103
 2929SOL    HW1 9686   0.793   0.557   6.129
 2929SOL    HW2 9687   0.778   0.403   6.182
 2930SOL     OW 9688   3.171   6.572   4.143
 2930SOL    HW1 9689   3.094   6.627   4.110
 2930SOL    HW2 9690   3.163   6.563   4.243
 2931SOL     OW 9691   3.922   4.753   6.766
 2931SOL    HW1 9692   3.905   4.813   6.689
 2931SOL    HW2 9693   3.848   4.686   6.774
 2932SOL     OW 9694   1.508   4.507   1.903
 2932SOL    HW1 9695   1.527   4.601   1.933
 2932SOL    HW2 9696   1.443   4.464   1.964
 2933SOL     OW 9697   4.932   2.105   3.325
 2933SOL    HW1 9698   4.871   2.129   3.251
 2933SOL    HW2 9699   4.880   2.060   3.398
 2934SOL     OW 9700   2.003   0.952   0.560
 2934SOL    HW1 9701   1.905   0.969   0.553
 2934SOL    HW2 9702   2.028   0.937   0.656
 2935SOL     OW 9703   6.733   1.712   1.383
 2935SOL    HW1 9704   6.735   1.612   1.395
 2935SOL    HW2 9705   6.816   1.741   1.336
 2936SOL     OW 9706   3.293   5.812   0.766
 2936SOL    HW1 9707   3.223   5.849   0.704
 2936SOL    HW2 9708   3.344   5.887   0.808
 2937SOL     OW 9709   2.647   4.482   0.134
 2937SOL    HW1 9710   2.728   4.469   0.191
 2937SOL    HW2 9711   2.612   4.393   0.106
 2938SOL     OW 9712   5.363   4.670   5.304
 2938SOL    HW1 9713   5.424   4.670   5.383
 2938SOL    HW2 9714   5.274   4.706   5.332
 2939SOL     OW 9715   0.131   6.755   6.201
 2939SOL    HW1 9716   0.230   6.740   6.201
 2939SOL    HW2 9717   0.092   6.718   6.284
 2940SOL     OW 9718   4.118   0.287   5.319
 2940SOL    HW1 9719   4.175   0.317   5.243
 2940SOL    HW2 9720   4.056   0.214   5.288
 2941SOL     OW 9721   3.292   1.620   5.290
 2941SOL    HW1 9722   3.335   1.552   5.229
 2941SOL    HW2 9723   3.202   1.587   5.318
 2942SOL     OW 9724   3.645   6.460   4.529
 2942SOL    HW1 9725   3.593   6.539   4.497
 2942SOL    HW2 9726   3.741   6.487   4.543
 2943SOL     OW 9727   5.083   3.868   2.547
 2943SOL    HW1 9728   5.137   3.792   2.512
 2943SOL    HW2 9729   4.995   3.872   2.500
 2944SOL     OW 9730   4.384   6.266   6.971
 2944SOL    HW1 9731   4.377   6.347   0.003
 2944SOL    HW2 9732   4.302   6.210   6.983
 2945SOL     OW 9733   3.036   3.971   3.085
 2945SOL    HW1 9734   3.130   4.004   3.100
 2945SOL    HW2 9735   2.973   4.024   3.141
 2946SOL     OW 9736   0.247   5.960   5.980
 2946SOL    HW1 9737   0.285   5.946   6.071
 2946SOL    HW2 9738   0.232   5.871   5.936
 2947SOL     OW 9739   0.356   5.271   0.232
 2947SOL    HW1 9740   0.263   5.234   0.235
 2947SOL    HW2 9741   0.421   5.197   0.215
 2948SOL     OW 9742   5.933   3.945   5.577
 2948SOL    HW1 9743   5.856   4.008   5.588
 2948SOL    HW2 9744   5.905   3.867   5.522
 2949SOL     OW 9745   0.845   5.988   0.736
 2949SOL    HW1 9746   0.750   5.967   0.758
 2949SOL    HW2 9747   0.873   6.072   0.783
 2950SOL     OW 9748   4.921   3.468   4.734
 2950SOL    HW1 9749   4.995   3.468   4.667
 2950SOL    HW2 9750   4.886   3.561   4.746
 2951SOL     OW 9751   5.936   0.773   1.030
 2951SOL    HW1 9752   5.964   0.704   1.096
 2951SOL    HW2 9753   5.860   0.827   1.067
 2952SOL     OW 9754   1.020   3.991   1.884
 2952SOL    HW1 9755   1.004   3.909   1.939
 2952SOL    HW2 9756   1.111   4.027   1.903
 2953SOL     OW 9757   5.548   0.862   2.440
 2953SOL    HW1 9758   5.648   0.862   2.435
 2953SOL    HW2 9759   5.517   0.938   2.498
 2954SOL     OW 9760   6.076   5.764   1.055
 2954SOL    HW1 9761   6.016   5.843   1.063
 2954SOL    HW2 9762   6.169   5.795   1.033
 2955SOL     OW 9763   6.628   2.442   0.509
 2955SOL    HW1 9764   6.544   2.418   0.558
 2955SOL    HW2 9765   6.657   2.364   0.452
 2956SOL     OW 9766   6.593   5.104   2.878
 2956SOL    HW1 9767   6.577   5.043   2.955
 2956SOL    HW2 9768   6.579   5.199   2.907
 2957SOL     OW 9769   0.804   5.246   1.416
 2957SOL    HW1 9770   0.763   5.298   1.341
 2957SOL    HW2 9771   0.870   5.181   1.379
 2958SOL     OW 9772   3.582   5.001   6.785
 2958SOL    HW1 9773   3.650   4.948   6.734
 2958SOL    HW2 9774   3.559   4.951   6.869
 2959SOL     OW 9775   4.217   5.714   0.526
 2959SOL    HW1 9776   4.129   5.679   0.493
 2959SOL    HW2 9777   4.288   5.691   0.460
 2960SOL     OW 9778   2.883   1.489   6.687
 2960SOL    HW1 9779   2.916   1.466   6.596
 2960SOL    HW2 9780   2.793   1.447   6.702
 2961SOL     OW 9781   5.953   1.781   4.245
 2961SOL    HW1 9782   5.940   1.767   4.147
 2961SOL    HW2 9783   5.988   1.873   4.261
 2962SOL     OW 9784   4.403   0.896   2.940
 2962SOL    HW1 9785   4.456   0.812   2.933
 2962SOL    HW2 9786   4.348   0.894   3.024
 2963SOL     OW 9787   2.151   3.462   5.160
 2963SOL    HW1 9788   2.159   3.487   5.063
 2963SOL    HW2 9789   2.227   3.503   5.211
 2964SOL     OW 9790   3.196   6.448   6.908
 2964SOL    HW1 9791   3.196   6.389   6.989
 2964SOL    HW2 9792   3.201   6.544   6.936
 2965SOL     OW 9793   0.344   2.498   5.968
 2965SOL    HW1 9794   0.402   2.465   5.894
 2965SOL    HW2 9795   0.397   2.557   6.028
 2966SOL     OW 9796   4.944   4.431   3.474
 2966SOL    HW1 9797   4.851   4.408   3.444
 2966SOL    HW2 9798   4.939   4.493   3.552
 2967SOL     OW 9799   5.966   2.528   3.626
 2967SOL    HW1 9800   5.943   2.431   3.622
 2967SOL    HW2 9801   5.947   2.570   3.537
 2968SOL     OW 9802   6.565   3.674   3.718
 2968SOL    HW1 9803   6.497   3.645   3.651
 2968SOL    HW2 9804   6.645   3.613   3.714
 2969SOL     OW 9805   4.380   0.938   4.434
 2969SOL    HW1 9806   4.364   0.848   4.475
 2969SOL    HW2 9807   4.467   0.974   4.465
 2970SOL     OW 9808   0.911   4.562   6.239
 2970SOL    HW1 9809   0.965   4.635   6.282
 2970SOL    HW2 9810   0.969   4.482   6.225
 2971SOL     OW 9811   5.185   3.566   2.825
 2971SOL    HW1 9812   5.090   3.581   2.799
 2971SOL    HW2 9813   5.192   3.567   2.925
 2972SOL     OW 9814   1.102   4.253   5.938
 2972SOL    HW1 9815   1.174   4.222   5.876
 2972SOL    HW2 9816   1.017   4.205   5.917
 2973SOL     OW 9817   5.798   7.010   4.442
 2973SOL    HW1 9818   5.780   0.039   4.361
 2973SOL    HW2 9819   5.808   6.914   4.414
 2974SOL     OW 9820   0.263   4.101   2.035
 2974SOL    HW1 9821   0.233   4.175   1.975
 2974SOL    HW2 9822   0.275   4.137   2.128
 2975SOL     OW 9823   0.265   1.525   3.961
 2975SOL    HW1 9824   0.359   1.492   3.954
 2975SOL    HW2 9825   0.246   1.552   4.055
 2976SOL     OW 9826   2.622   6.483   1.967
 2976SOL    HW1 9827   2.676   6.469   1.883
 2976SOL    HW2 9828   2.527   6.459   1.949
 2977SOL     OW 9829   3.435   6.189   3.794
 2977SOL    HW1 9830   3.451   6.161   3.699
 2977SOL    HW2 9831   3.338   6.180   3.816
 2978SOL     OW 9832   3.850   0.094   6.973
 2978SOL    HW1 9833   3.859   0.159   6.897
 2978SOL    HW2 9834   3.906   0.013   6.954
 2979SOL     OW 9835   3.577   1.276   3.356
 2979SOL    HW1 9836   3.623   1.319   3.278
 2979SOL    HW2 9837   3.478   1.289   3.348
 2980SOL     OW 9838   6.726   6.182   3.986
 2980SOL    HW1 9839   6.737   6.117   3.911
 2980SOL    HW2 9840   6.630   6.187   4.012
 2981SOL     OW 9841   1.823   1.734   5.605
 2981SOL    HW1 9842   1.908   1.681   5.602
 2981SOL    HW2 9843   1.845   1.832   5.603
 2982SOL     OW 9844   4.923   6.366   2.608
 2982SOL    HW1 9845   4.997   6.305   2.580
 2982SOL    HW2 9846   4.959   6.440   2.664
 2983SOL     OW 9847   6.809   0.056   2.809
 2983SOL    HW1 9848   6.752   0.074   2.728
 2983SOL    HW2 9849   6.872   0.132   2.823
 2984SOL     OW 9850   5.760   4.702   1.571
 2984SOL    HW1 9851   5.844   4.746   1.539
 2984SOL    HW2 9852   5.762   4.605   1.547
 2985SOL     OW 9853   6.553   1.826   3.149
 2985SOL    HW1 9854   6.480   1.758   3.145
 2985SOL    HW2 9855   6.548   1.885   3.068
 2986SOL     OW 9856   2.255   3.833   5.313
 2986SOL    HW1 9857   2.326   3.871   5.254
 2986SOL    HW2 9858   2.166   3.840   5.269
 2987SOL     OW 9859   4.692   1.320   5.061
 2987SOL    HW1 9860   4.779   1.310   5.012
 2987SOL    HW2 9861   4.668   1.417   5.066
 2988SOL     OW 9862   0.569   6.919   1.905
 2988SOL    HW1 9863   0.492   6.862   1.875
 2988SOL    HW2 9864   0.639   6.860   1.945
 2989SOL     OW 9865   6.252   5.867   0.667
 2989SOL    HW1 9866   6.315   5.941   0.690
 2989SOL    HW2 9867   6.197   5.894   0.588
 2990SOL     OW 9868   3.102   1.035   1.291
 2990SOL    HW1 9869   3.085   1.132   1.274
 2990SOL    HW2 9870   3.181   1.025   1.352
 2991SOL     OW 9871   6.086   4.808   0.143
 2991SOL    HW1 9872   6.080   4.905   0.170
 2991SOL    HW2 9873   5.996   4.766   0.152
 2992SOL     OW 9874   4.462   4.372   6.623
 2992SOL    HW1 9875   4.419   4.284   6.608
 2992SOL    HW2 9876   4.436   4.407   6.713
 2993SOL     OW 9877   2.074   4.952   0.174
 2993SOL    HW1 9878   2.068   4.853   0.186
 2993SOL    HW2 9879   2.008   4.980   0.104
 2994SOL     OW 9880   4.013   6.489   0.068
 2994SOL    HW1 9881   4.014   6.515   0.165
 2994SOL    HW2 9882   3.947   6.547   0.020
 2995SOL     OW 9883   2.580   1.257   5.294
 2995SOL    HW1 9884   2.676   1.273   5.319
 2995SOL    HW2 9885   2.520   1.294   5.365
 2996SOL     OW 9886   3.955   5.908   5.742
 2996SOL    HW1 9887   3.879   5.905   5.807
 2996SOL    HW2 9888   3.940   5.841   5.670
 2997SOL     OW 9889   4.631   6.008   0.575
 2997SOL    HW1 9890   4.578   5.978   0.495
 2997SOL    HW2 9891   4.683   6.090   0.552
 2998SOL     OW 9892   6.007   5.202   5.084
 2998SOL    HW1 9893   6.017   5.154   5.171
 2998SOL    HW2 9894   6.074   5.276   5.079
 2999SOL     OW 9895   2.993   0.220   2.356
 2999SOL    HW1 9896   2.929   0.243   2.283
 2999SOL    HW2 9897   3.026   0.126   2.344
 3000SOL     OW 9898   1.332   2.150   4.425
 3000SOL    HW1 9899   1.407   2.122   4.485
 3000SOL    HW2 9900   1.368   2.211   4.354
 3001SOL     OW 9901   4.718   6.752   5.813
 3001SOL    HW1 9902   4.707   6.783   5.719
 3001SOL    HW2 9903   4.722   6.831   5.874
 3002SOL     OW 9904   3.013   1.013   5.815
 3002SOL    HW1 9905   3.078   1.018   5.891
 3002SOL    HW2 9906   2.948   1.089   5.821
 3003SOL     OW 9907   2.622   0.227   6.042
 3003SOL    HW1 9908   2.712   0.242   6.083
 3003SOL    HW2 9909   2.593   0.133   6.057
 3004SOL     OW 9910   6.360   3.417   5.309
 3004SOL    HW1 9911   6.296   3.485   5.345
 3004SOL    HW2 9912   6.340   3.401   5.212
 3005SOL     OW 9913   4.388   2.515   0.947
 3005SOL    HW1 9914   4.427   2.431   0.910
 3005SOL    HW2 9915   4.454   2.558   1.008
 3006SOL     OW 9916   4.864   0.201   0.955
 3006SOL    HW1 9917   4.922   0.260   0.900
 3006SOL    HW2 9918   4.772   0.198   0.915
 3007SOL     OW 9919   6.398   5.347   1.811
 3007SOL    HW1 9920   6.383   5.417   1.742
 3007SOL    HW2 9921   6.328   5.355   1.882
 3008SOL     OW 9922   5.173   5.990   5.640
 3008SOL    HW1 9923   5.157   5.894   5.616
 3008SOL    HW2 9924   5.195   5.996   5.738
 3009SOL     OW 9925   1.500   0.947   2.364
 3009SOL    HW1 9926   1.463   1.039   2.357
 3009SOL    HW2 9927   1.492   0.915   2.458
 3010SOL     OW 9928   2.681   6.584   2.727
 3010SOL    HW1 9929   2.691   6.530   2.643
 3010SOL    HW2 9930   2.769   6.625   2.751
 3011SOL     OW 9931   5.747   0.478   6.978
 3011SOL    HW1 9932   5.822   0.523   6.931
 3011SOL    HW2 9933   5.758   0.378   6.971
 3012SOL     OW 9934   6.963   4.438   1.905
 3012SOL    HW1 9935   6.919   4.379   1.836
 3012SOL    HW2 9936   7.012   4.512   1.859
 3013SOL     OW 9937   6.321   3.773   2.147
 3013SOL    HW1 9938   6.397   3.736   2.093
 3013SOL    HW2 9939   6.351   3.855   2.195
 3014SOL     OW 9940   5.358   0.201   4.871
 3014SOL    HW1 9941   5.355   0.236   4.777
 3014SOL    HW2 9942   5.281   0.238   4.923
 3015SOL     OW 9943   3.254   1.587   7.010
 3015SOL    HW1 9944   3.230   1.490   7.006
 3015SOL    HW2 9945   3.313   1.604   0.062
 3016SOL     OW 9946   3.942   6.181   3.447
 3016SOL    HW1 9947   3.948   6.081   3.436
 3016SOL    HW2 9948   4.023   6.223   3.406
 3017SOL     OW 9949   6.934   6.161   1.149
 3017SOL    HW1 9950   6.901   6.234   1.209
 3017SOL    HW2 9951   6.871   6.151   1.072
 3018SOL     OW 9952   3.850   6.969   6.108
 3018SOL    HW1 9953   3.917   0.006   6.147
 3018SOL    HW2 9954   3.898   6.899   6.055
 3019SOL     OW 9955   5.205   6.775   2.023
 3019SOL    HW1 9956   5.126   6.837   2.022
 3019SOL    HW2 9957   5.188   6.699   1.961
 3020SOL     OW 9958   2.299   0.796   1.377
 3020SOL    HW1 9959   2.306   0.889   1.341
 3020SOL    HW2 9960   2.366   0.783   1.450
 3021SOL     OW 9961   4.277   0.782   6.289
 3021SOL    HW1 9962   4.202   0.813   6.348
 3021SOL    HW2 9963   4.363   0.821   6.321
 3022SOL     OW 9964   6.435   0.200   1.944
 3022SOL    HW1 9965   6.476   0.120   1.899
 3022SOL    HW2 9966   6.409   0.175   2.037
 3023SOL     OW 9967   5.682   0.095   1.558
 3023SOL    HW1 9968   5.700   0.070   1.462
 3023SOL    HW2 9969   5.765   0.135   1.597
 3024SOL     OW 9970   3.235   6.849   6.768
 3024SOL    HW1 9971   3.166   6.869   6.699
 3024SOL    HW2 9972   3.271   6.935   6.805
 3025SOL     OW 9973   2.095   2.532   2.052
 3025SOL    HW1 9974   2.193   2.526   2.071
 3025SOL    HW2 9975   2.058   2.613   2.096
 3026SOL     OW 9976   2.157   5.611   0.034
 3026SOL    HW1 9977   2.165   5.523   7.015
 3026SOL    HW2 9978   2.238   5.666   0.015
 3027SOL     OW 9979   1.418   1.688   3.892
 3027SOL    HW1 9980   1.372   1.610   3.849
 3027SOL    HW2 9981   1.494   1.718   3.835
 3028SOL     OW 9982   1.174   0.733   4.317
 3028SOL    HW1 9983   1.131   0.762   4.231
 3028SOL    HW2 9984   1.193   0.814   4.373
 3029SOL     OW 9985   5.436   5.137   6.155
 3029SOL    HW1 9986   5.479   5.048   6.145
 3029SOL    HW2 9987   5.460   5.194   6.076
 3030SOL     OW 9988   1.204   1.379   5.766
 3030SOL    HW1 9989   1.180   1.313   5.694
 3030SOL    HW2 9990   1.304   1.388   5.770
 3031SOL     OW 9991   0.777   5.156   6.958
 3031SOL    HW1 9992   0.686   5.197   6.965
 3031SOL    HW2 9993   0.772   5.075   6.899
 3032SOL     OW 9994   3.933   0.099   5.204
 3032SOL    HW1 9995   3.901   0.036   5.275
 3032SOL    HW2 9996   3.938   0.051   5.116
 3033SOL     OW 9997   5.619   5.005   5.755
 3033SOL    HW1 9998   5.570   4.970   5.676
 3033SOL    HW2 9999   5.645   5.100   5.740
 3034SOL     OW10000   2.628   0.013   4.283
 3034SOL    HW110001   2.654   0.108   4.297
 3034SOL    HW210002   2.702   6.980   4.314
 3035SOL     OW10003   6.546   6.874   6.709
 3035SOL    HW110004   6.549   6.774   6.707
 3035SOL    HW210005   6.529   6.904   6.803
 3036SOL     OW10006   0.775   4.766   5.701
 3036SOL    HW110007   0.835   4.764   5.781
 3036SOL    HW210008   0.741   4.859   5.687
 3037SOL     OW10009   6.323   6.856   5.683
 3037SOL    HW110010   6.360   6.780   5.630
 3037SOL    HW210011   6.279   6.921   5.621
 3038SOL     OW10012   5.869   6.584   5.838
 3038SOL    HW110013   5.956   6.539   5.816
 3038SOL    HW210014   5.804   6.567   5.765
 3039SOL     OW10015   0.190   4.713   0.045
 3039SOL    HW110016   0.129   4.719   6.994
 3039SOL    HW210017   0.156   4.771   0.119
 3040SOL     OW10018   2.400   1.733   0.103
 3040SOL    HW110019   2.405   1.828   0.072
 3040SOL    HW210020   2.380   1.731   0.201
 3041SOL     OW10021   1.361   2.273   5.921
 3041SOL    HW110022   1.423   2.240   5.850
 3041SOL    HW210023   1.311   2.352   5.887
 3042SOL     OW10024   5.457   6.767   1.765
 3042SOL    HW110025   5.431   6.765   1.669
 3042SOL    HW210026   5.454   6.674   1.802
 3043SOL     OW10027   6.372   5.063   6.925
 3043SOL    HW110028   6.299   5.132   6.928
 3043SOL    HW210029   6.416   5.058   7.015
 3044SOL     OW10030   3.122   3.278   5.780
 3044SOL    HW110031   3.046   3.331   5.742
 3044SOL    HW210032   3.194   3.269   5.710
 3045SOL     OW10033   5.234   2.105   4.440
 3045SOL    HW110034   5.227   2.137   4.534
 3045SOL    HW210035   5.324   2.129   4.403
 3046SOL     OW10036   2.047   2.417   6.102
 3046SOL    HW110037   2.128   2.359   6.100
 3046SOL    HW210038   2.048   2.479   6.023
 3047SOL     OW10039   0.051   4.645   1.743
 3047SOL    HW110040   0.109   4.724   1.762
 3047SOL    HW210041   6.999   4.674   1.688
 3048SOL     OW10042   3.127   2.626   1.735
 3048SOL    HW110043   3.062   2.584   1.671
 3048SOL    HW210044   3.101   2.602   1.829
 3049SOL     OW10045   0.789   0.411   1.232
 3049SOL    HW110046   0.747   0.327   1.265
 3049SOL    HW210047   0.729   0.489   1.254
 3050SOL     OW10048   2.229   6.688   4.047
 3050SOL    HW110049   2.260   6.595   4.061
 3050SOL    HW210050   2.163   6.690   3.972
 3051SOL     OW10051   2.723   4.355   5.616
 3051SOL    HW110052   2.693   4.270   5.659
 3051SOL    HW210053   2.659   4.429   5.638
 3052SOL     OW10054   5.051   6.587   2.746
 3052SOL    HW110055   5.062   6.534   2.830
 3052SOL    HW210056   5.004   6.673   2.767
 3053SOL     OW10057   4.808   6.817   1.642
 3053SOL    HW110058   4.781   6.843   1.735
 3053SOL    HW210059   4.863   6.734   1.645
 3054SOL     OW10060   2.019   4.269   5.443
 3054SOL    HW110061   2.078   4.234   5.370
 3054SOL    HW210062   1.980   4.193   5.495
 3055SOL     OW10063   5.693   6.310   2.824
 3055SOL    HW110064   5.688   6.297   2.725
 3055SOL    HW210065   5.779   6.354   2.847
 3056SOL     OW10066   6.204   0.493   1.347
 3056SOL    HW110067   6.245   0.449   1.268
 3056SOL    HW210068   6.274   0.544   1.398
 3057SOL     OW10069   6.622   6.045   2.593
 3057SOL    HW110070   6.540   5.988   2.595
 3057SOL    HW210071   6.638   6.083   2.685
 3058SOL     OW10072   6.359   5.470   1.417
 3058SOL    HW110073   6.351   5.370   1.421
 3058SOL    HW210074   6.284   5.508   1.363
 3059SOL     OW10075   2.163   2.585   5.176
 3059SOL    HW110076   2.220   2.647   5.122
 3059SOL    HW210077   2.169   2.609   5.272
 3060SOL     OW10078   7.019   6.473   0.444
 3060SOL    HW110079   0.066   6.472   0.377
 3060SOL    HW210080   7.018   6.561   0.492
 3061SOL     OW10081   0.504   0.713   5.792
 3061SOL    HW110082   0.414   0.705   5.750
 3061SOL    HW210083   0.574   0.680   5.729
 3062SOL     OW10084   3.150   5.551   6.108
 3062SOL    HW110085   3.223   5.536   6.174
 3062SOL    HW210086   3.067   5.503   6.138
 3063SOL     OW10087   2.112   5.721   0.349
 3063SOL    HW110088   2.122   5.813   0.313
 3063SOL    HW210089   2.019   5.689   0.332
 3064SOL     OW10090   6.926   4.579   3.618
 3064SOL    HW110091   6.885   4.557   3.706
 3064SOL    HW210092   6.855   4.605   3.553
 3065SOL     OW10093   2.829   1.031   1.061
 3065SOL    HW110094   2.894   0.989   0.997
 3065SOL    HW210095   2.853   1.127   1.073
 3066SOL     OW10096   5.498   5.846   0.694
 3066SOL    HW110097   5.568   5.914   0.721
 3066SOL    HW210098   5.538   5.754   0.699
 3067SOL     OW10099   4.666   6.827   3.195
 3067SOL    HW110100   4.690   6.799   3.102
 3067SOL    HW210101   4.651   6.926   3.197
 3068SOL     OW10102   5.613   4.721   0.359
 3068SOL    HW110103   5.521   4.748   0.330
 3068SOL    HW210104   5.614   4.623   0.379
 3069SOL     OW10105   0.637   5.155   3.731
 3069SOL    HW110106   0.636   5.086   3.803
 3069SOL    HW210107   0.601   5.116   3.646
 3070SOL     OW10108   3.709   1.571   4.715
 3070SOL    HW110109   3.683   1.665   4.695
 3070SOL    HW210110   3.800   1.570   4.758
 3071SOL     OW10111   5.520   0.023   4.244
 3071SOL    HW110112   5.421   0.005   4.246
 3071SOL    HW210113   5.566   6.972   4.201
 3072SOL     OW10114   1.033   0.695   1.917
 3072SOL    HW110115   1.067   0.787   1.934
 3072SOL    HW210116   0.969   0.696   1.840
 3073SOL     OW10117   1.927   2.520   4.419
 3073SOL    HW110118   1.951   2.474   4.504
 3073SOL    HW210119   1.987   2.489   4.346
 3074SOL     OW10120   4.725   3.409   6.052
 3074SOL    HW110121   4.630   3.419   6.023
 3074SOL    HW210122   4.768   3.499   6.059
 3075SOL     OW10123   6.854   6.004   0.911
 3075SOL    HW110124   6.897   6.024   0.823
 3075SOL    HW210125   6.912   5.941   0.964
 3076SOL     OW10126   0.895   0.815   5.221
 3076SOL    HW110127   0.878   0.794   5.125
 3076SOL    HW210128   0.874   0.735   5.277
 3077SOL     OW10129   5.278   4.331   4.003
 3077SOL    HW110130   5.185   4.326   3.965
 3077SOL    HW210131   5.287   4.414   4.058
 3078SOL     OW10132   2.272   3.121   0.525
 3078SOL    HW110133   2.277   3.074   0.613
 3078SOL    HW210134   2.346   3.089   0.466
 3079SOL     OW10135   5.407   2.835   6.464
 3079SOL    HW110136   5.347   2.755   6.461
 3079SOL    HW210137   5.371   2.906   6.404
 3080SOL     OW10138   6.204   6.092   0.914
 3080SOL    HW110139   6.245   6.004   0.939
 3080SOL    HW210140   6.208   6.105   0.815
 3081SOL     OW10141   6.871   4.662   6.098
 3081SOL    HW110142   6.776   4.685   6.074
 3081SOL    HW210143   6.877   4.645   6.196
 3082SOL     OW10144   2.382   0.085   2.000
 3082SOL    HW110145   2.460   0.025   1.987
 3082SOL    HW210146   2.380   0.154   1.928
 3083SOL     OW10147   3.484   0.403   2.125
 3083SOL    HW110148   3.401   0.404   2.068
 3083SOL    HW210149   3.515   0.497   2.141
 3084SOL     OW10150   4.529   6.602   4.006
 3084SOL    HW110151   4.462   6.676   4.012
 3084SOL    HW210152   4.486   6.522   3.965
 3085SOL     OW10153   1.100   5.609   1.800
 3085SOL    HW110154   1.194   5.643   1.801
 3085SOL    HW210155   1.055   5.637   1.715
 3086SOL     OW10156   5.827   1.709   3.995
 3086SOL    HW110157   5.746   1.684   4.048
 3086SOL    HW210158   5.821   1.805   3.967
 3087SOL     OW10159   5.602   3.494   1.974
 3087SOL    HW110160   5.542   3.428   1.928
 3087SOL    HW210161   5.608   3.577   1.918
 3088SOL     OW10162   2.978   3.772   6.239
 3088SOL    HW110163   2.991   3.738   6.146
 3088SOL    HW210164   3.020   3.709   6.304
 3089SOL     OW10165   2.757   2.073   0.778
 3089SOL    HW110166   2.680   2.122   0.817
 3089SOL    HW210167   2.839   2.129   0.784
 3090SOL     OW10168   0.159   1.694   1.108
 3090SOL    HW110169   0.182   1.676   1.204
 3090SOL    HW210170   0.185   1.787   1.083
 3091SOL     OW10171   2.464   6.728   0.260
 3091SOL    HW110172   2.405   6.659   0.217
 3091SOL    HW210173   2.416   6.769   0.337
 3092SOL     OW10174   4.014   6.464   0.638
 3092SOL    HW110175   4.037   6.435   0.545
 3092SOL    HW210176   4.072   6.414   0.703
 3093SOL     OW10177   4.989   5.949   3.669
 3093SOL    HW110178   4.956   5.997   3.751
 3093SOL    HW210179   5.087   5.932   3.678
 3094SOL     OW10180   3.325   5.448   5.653
 3094SOL    HW110181   3.392   5.488   5.715
 3094SOL    HW210182   3.342   5.479   5.559
 3095SOL     OW10183   2.386   4.958   4.840
 3095SOL    HW110184   2.340   4.895   4.777
 3095SOL    HW210185   2.459   4.910   4.889
 3096SOL     OW10186   6.993   0.836   5.592
 3096SOL    HW110187   7.000   0.742   5.559
 3096SOL    HW210188   6.953   0.836   5.683
 3097SOL     OW10189   1.920   2.307   0.299
 3097SOL    HW110190   1.858   2.318   0.377
 3097SOL    HW210191   1.881   2.355   0.220
 3098SOL     OW10192   3.899   2.239   0.445
 3098SOL    HW110193   3.872   2.201   0.356
 3098SOL    HW210194   3.824   2.292   0.483
 3099SOL     OW10195   0.974   5.729   5.267
 3099SOL    HW110196   0.974   5.826   5.245
 3099SOL    HW210197   1.034   5.712   5.345
 3100SOL     OW10198   5.951   6.218   6.654
 3100SOL    HW110199   5.987   6.303   6.616
 3100SOL    HW210200   6.022   6.174   6.709
 3101SOL     OW10201   4.368   7.014   1.196
 3101SOL    HW110202   4.333   6.926   1.229
 3101SOL    HW210203   4.311   0.018   1.119
 3102SOL     OW10204   0.594   5.892   0.524
 3102SOL    HW110205   0.542   5.924   0.444
 3102SOL    HW210206   0.620   5.797   0.510
 3103SOL     OW10207   4.201   3.748   1.755
 3103SOL    HW110208   4.139   3.819   1.719
 3103SOL    HW210209   4.285   3.746   1.701
 3104SOL     OW10210   6.271   5.605   3.887
 3104SOL    HW110211   6.320   5.543   3.948
 3104SOL    HW210212   6.243   5.687   3.937
 3105SOL     OW10213   5.925   5.757   3.294
 3105SOL    HW110214   5.918   5.668   3.248
 3105SOL    HW210215   5.900   5.830   3.230
 3106SOL     OW10216   7.026   3.043   4.586
 3106SOL    HW110217   0.063   3.017   4.513
 3106SOL    HW210218   0.039   3.018   4.675
 3107SOL     OW10219   2.997   6.567   3.698
 3107SOL    HW110220   2.908   6.595   3.661
 3107SOL    HW210221   3.026   6.633   3.767
 3108SOL     OW10222   3.311   1.042   2.871
 3108SOL    HW110223   3.297   1.091   2.957
 3108SOL    HW210224   3.390   1.081   2.823
 3109SOL     OW10225   5.015   5.969   3.239
 3109SOL    HW110226   4.939   6.004   3.183
 3109SOL    HW210227   4.986   5.887   3.289
 3110SOL     OW10228   1.380   3.013   1.998
 3110SOL    HW110229   1.449   2.956   1.953
 3110SOL    HW210230   1.423   3.092   2.039
 3111SOL     OW10231   6.695   4.756   2.911
 3111SOL    HW110232   6.603   4.779   2.941
 3111SOL    HW210233   6.737   4.835   2.866
 3112SOL     OW10234   2.746   3.812   6.370
 3112SOL    HW110235   2.729   3.727   6.420
 3112SOL    HW210236   2.833   3.806   6.322
 3113SOL     OW10237   4.075   6.426   4.492
 3113SOL    HW110238   4.132   6.348   4.518
 3113SOL    HW210239   4.133   6.496   4.449
 3114SOL     OW10240   5.797   5.843   0.877
 3114SOL    HW110241   5.722   5.826   0.941
 3114SOL    HW210242   5.847   5.925   0.904
 3115SOL     OW10243   2.566   3.317   1.702
 3115SOL    HW110244   2.641   3.359   1.754
 3115SOL    HW210245   2.495   3.385   1.684
 3116SOL     OW10246   0.483   1.744   0.004
 3116SOL    HW110247   0.531   1.824   6.994
 3116SOL    HW210248   0.483   1.671   6.963
 3117SOL     OW10249   3.704   4.196   5.686
 3117SOL    HW110250   3.637   4.250   5.736
 3117SOL    HW210251   3.735   4.246   5.606
 3118SOL     OW10252   5.757   5.225   6.868
 3118SOL    HW110253   5.783   5.133   6.838
 3118SOL    HW210254   5.800   5.245   6.956
 3119SOL     OW10255   2.382   5.318   6.339
 3119SOL    HW110256   2.314   5.383   6.304
 3119SOL    HW210257   2.372   5.230   6.293
 3120SOL     OW10258   2.547   5.800   5.722
 3120SOL    HW110259   2.535   5.703   5.701
 3120SOL    HW210260   2.613   5.840   5.658
 3121SOL     OW10261   0.406   6.089   3.266
 3121SOL    HW110262   0.409   6.147   3.347
 3121SOL    HW210263   0.427   5.994   3.291
 3122SOL     OW10264   2.884   5.612   0.712
 3122SOL    HW110265   2.795   5.571   0.691
 3122SOL    HW210266   2.923   5.652   0.629
 3123SOL     OW10267   3.490   6.711   4.467
 3123SOL    HW110268   3.478   6.675   4.374
 3123SOL    HW210269   3.426   6.786   4.483
 3124SOL     OW10270   4.026   0.641   6.173
 3124SOL    HW110271   4.101   0.589   6.213
 3124SOL    HW210272   3.967   0.578   6.121
 3125SOL     OW10273   7.004   1.968   5.897
 3125SOL    HW110274   0.061   2.017   5.873
 3125SOL    HW210275   6.939   2.030   5.940
 3126SOL     OW10276   3.585   6.547   0.343
 3126SOL    HW110277   3.566   6.524   0.438
 3126SOL    HW210278   3.681   6.574   0.334
 3127SOL     OW10279   1.323   1.232   3.470
 3127SOL    HW110280   1.276   1.280   3.396
 3127SOL    HW210281   1.330   1.292   3.549
 3128SOL     OW10282   1.348   0.775   0.828
 3128SOL    HW110283   1.311   0.865   0.851
 3128SOL    HW210284   1.335   0.758   0.731
 3129SOL     OW10285   1.999   2.987   3.832
 3129SOL    HW110286   2.049   2.901   3.823
 3129SOL    HW210287   2.063   3.063   3.835
 3130SOL     OW10288   2.179   5.902   3.520
 3130SOL    HW110289   2.142   5.971   3.581
 3130SOL    HW210290   2.162   5.811   3.558
 3131SOL     OW10291   0.761   3.507   4.237
 3131SOL    HW110292   0.699   3.454   4.295
 3131SOL    HW210293   0.782   3.594   4.282
 3132SOL     OW10294   5.209   5.699   5.093
 3132SOL    HW110295   5.266   5.740   5.022
 3132SOL    HW210296   5.123   5.668   5.054
 3133SOL     OW10297   2.563   1.950   3.203
 3133SOL    HW110298   2.571   1.886   3.280
 3133SOL    HW210299   2.467   1.970   3.186
 3134SOL     OW10300   5.533   2.951   1.752
 3134SOL    HW110301   5.455   2.909   1.704
 3134SOL    HW210302   5.512   3.047   1.771
 3135SOL     OW10303   2.560   1.748   3.411
 3135SOL    HW110304   2.626   1.674   3.399
 3135SOL    HW210305   2.471   1.709   3.434
 3136SOL     OW10306   6.307   0.117   5.088
 3136SOL    HW110307   6.339   0.045   5.149
 3136SOL    HW210308   6.385   0.166   5.050
 3137SOL     OW10309   7.017   1.347   5.035
 3137SOL    HW110310   0.075   1.297   5.020
 3137SOL    HW210311   6.947   1.314   4.972
 3138SOL     OW10312   5.512   2.071   4.625
 3138SOL    HW110313   5.519   1.983   4.577
 3138SOL    HW210314   5.506   2.145   4.558
 3139SOL     OW10315   4.936   5.957   5.213
 3139SOL    HW110316   4.948   6.018   5.134
 3139SOL    HW210317   5.024   5.918   5.239
 3140SOL     OW10318   6.680   5.885   6.409
 3140SOL    HW110319   6.705   5.906   6.504
 3140SOL    HW210320   6.746   5.820   6.371
 3141SOL     OW10321   0.874   5.401   1.007
 3141SOL    HW110322   0.831   5.322   0.962
 3141SOL    HW210323   0.907   5.465   0.937
 3142SOL     OW10324   3.569   0.067   6.939
 3142SOL    HW110325   3.662   0.101   6.953
 3142SOL    HW210326   3.521   0.065   7.027
 3143SOL     OW10327   0.424   1.436   1.037
 3143SOL    HW110328   0.422   1.387   1.123
 3143SOL    HW210329   0.394   1.531   1.051
 3144SOL     OW10330   1.616   3.323   6.774
 3144SOL    HW110331   1.584   3.258   6.844
 3144SOL    HW210332   1.618   3.415   6.813
 3145SOL     OW10333   3.038   5.341   3.738
 3145SOL    HW110334   2.944   5.328   3.770
 3145SOL    HW210335   3.092   5.260   3.760
 3146SOL     OW10336   2.168   0.425   3.708
 3146SOL    HW110337   2.250   0.368   3.714
 3146SOL    HW210338   2.187   0.516   3.745
 3147SOL     OW10339   3.433   4.743   0.576
 3147SOL    HW110340   3.507   4.688   0.537
 3147SOL    HW210341   3.401   4.808   0.507
 3148SOL     OW10342   3.495   5.884   4.956
 3148SOL    HW110343   3.412   5.842   4.993
 3148SOL    HW210344   3.491   5.983   4.969
 3149SOL     OW10345   2.970   6.306   5.893
 3149SOL    HW110346   3.064   6.272   5.906
 3149SOL    HW210347   2.964   6.399   5.927
 3150SOL     OW10348   0.253   0.279   4.125
 3150SOL    HW110349   0.276   0.234   4.039
 3150SOL    HW210350   0.177   0.230   4.168
 3151SOL     OW10351   4.214   6.742   0.898
 3151SOL    HW110352   4.184   6.749   0.803
 3151SOL    HW210353   4.134   6.724   0.956
 3152SOL     OW10354   1.729   4.494   6.715
 3152SOL    HW110355   1.796   4.535   6.777
 3152SOL    HW210356   1.769   4.484   6.624
 3153SOL     OW10357   6.970   4.591   2.713
 3153SOL    HW110358   6.932   4.609   2.622
 3153SOL    HW210359   6.982   4.492   2.725
 3154SOL     OW10360   5.588   2.258   6.541
 3154SOL    HW110361   5.604   2.245   6.444
 3154SOL    HW210362   5.667   2.224   6.592
 3155SOL     OW10363   4.081   6.366   0.386
 3155SOL    HW110364   4.013   6.297   0.360
 3155SOL    HW210365   4.165   6.321   0.417
 3156SOL     OW10366   3.427   3.332   2.834
 3156SOL    HW110367   3.396   3.321   2.929
 3156SOL    HW210368   3.358   3.382   2.782
 3157SOL     OW10369   1.960   3.043   5.044
 3157SOL    HW110370   2.018   3.075   4.968
 3157SOL    HW210371   2.017   2.995   5.111
 3158SOL     OW10372   4.696   6.285   1.359
 3158SOL    HW110373   4.748   6.370   1.348
 3158SOL    HW210374   4.723   6.220   1.288
 3159SOL     OW10375   5.212   4.624   0.464
 3159SOL    HW110376   5.310   4.632   0.485
 3159SOL    HW210377   5.181   4.532   0.487
 3160SOL     OW10378   5.662   4.816   0.643
 3160SOL    HW110379   5.581   4.783   0.595
 3160SOL    HW210380   5.744   4.786   0.595
 3161SOL     OW10381   0.827   1.494   3.002
 3161SOL    HW110382   0.903   1.445   3.043
 3161SOL    HW210383   0.859   1.582   2.966
 3162SOL     OW10384   6.400   0.179   6.051
 3162SOL    HW110385   6.402   0.265   6.000
 3162SOL    HW210386   6.361   0.194   6.142
 3163SOL     OW10387   2.223   4.629   5.662
 3163SOL    HW110388   2.306   4.595   5.618
 3163SOL    HW210389   2.143   4.589   5.616
 3164SOL     OW10390   6.231   5.314   6.174
 3164SOL    HW110391   6.154   5.250   6.178
 3164SOL    HW210392   6.234   5.356   6.083
 3165SOL     OW10393   0.392   2.468   1.712
 3165SOL    HW110394   0.384   2.417   1.626
 3165SOL    HW210395   0.350   2.415   1.786
 3166SOL     OW10396   4.618   3.061   6.119
 3166SOL    HW110397   4.564   2.979   6.139
 3166SOL    HW210398   4.633   3.112   6.204
 3167SOL     OW10399   0.186   3.875   1.703
 3167SOL    HW110400   0.160   3.882   1.606
 3167SOL    HW210401   0.129   3.937   1.757
 3168SOL     OW10402   5.371   3.126   0.736
 3168SOL    HW110403   5.394   3.180   0.655
 3168SOL    HW210404   5.454   3.080   0.769
 3169SOL     OW10405   1.900   2.252   4.889
 3169SOL    HW110406   1.885   2.311   4.969
 3169SOL    HW210407   1.957   2.174   4.916
 3170SOL     OW10408   4.210   0.473   5.537
 3170SOL    HW110409   4.243   0.415   5.611
 3170SOL    HW210410   4.187   0.417   5.458
 3171SOL     OW10411   6.614   6.870   3.215
 3171SOL    HW110412   6.515   6.870   3.229
 3171SOL    HW210413   6.634   6.866   3.117
 3172SOL     OW10414   5.711   0.052   5.579
 3172SOL    HW110415   5.716   0.014   5.671
 3172SOL    HW210416   5.727   0.151   5.582
 3173SOL     OW10417   2.435   1.125   1.453
 3173SOL    HW110418   2.350   1.105   1.503
 3173SOL    HW210419   2.478   1.207   1.492
 3174SOL     OW10420   2.086   3.328   6.650
 3174SOL    HW110421   2.023   3.275   6.594
 3174SOL    HW210422   2.179   3.319   6.612
 3175SOL     OW10423   6.428   6.154   0.281
 3175SOL    HW110424   6.446   6.183   0.187
 3175SOL    HW210425   6.462   6.223   0.345
 3176SOL     OW10426   0.963   5.789   6.308
 3176SOL    HW110427   0.947   5.873   6.360
 3176SOL    HW210428   1.017   5.726   6.364
 3177SOL     OW10429   1.148   6.996   4.072
 3177SOL    HW110430   1.199   0.001   4.152
 3177SOL    HW210431   1.114   0.048   4.021
 3178SOL     OW10432   2.495   3.867   0.091
 3178SOL    HW110433   2.565   3.840   0.157
 3178SOL    HW210434   2.419   3.909   0.140
 3179SOL     OW10435   1.069   2.371   3.786
 3179SOL    HW110436   0.984   2.320   3.796
 3179SOL    HW210437   1.137   2.313   3.740
 3180SOL     OW10438   5.856   1.357   6.196
 3180SOL    HW110439   5.902   1.421   6.258
 3180SOL    HW210440   5.813   1.284   6.249
 3181SOL     OW10441   0.808   1.539   2.639
 3181SOL    HW110442   0.751   1.566   2.561
 3181SOL    HW210443   0.843   1.621   2.685
 3182SOL     OW10444   1.512   4.819   5.588
 3182SOL    HW110445   1.569   4.898   5.563
 3182SOL    HW210446   1.541   4.739   5.535
 3183SOL     OW10447   4.803   2.927   1.408
 3183SOL    HW110448   4.716   2.968   1.379
 3183SOL    HW210449   4.785   2.855   1.475
 3184SOL     OW10450   0.888   2.119   3.777
 3184SOL    HW110451   0.967   2.107   3.716
 3184SOL    HW210452   0.913   2.091   3.870
 3185SOL     OW10453   0.440   6.239   6.892
 3185SOL    HW110454   0.457   6.141   6.882
 3185SOL    HW210455   0.518   6.282   6.939
 3186SOL     OW10456   3.369   0.642   1.813
 3186SOL    HW110457   3.305   0.661   1.738
 3186SOL    HW210458   3.376   0.722   1.871
 3187SOL     OW10459   2.806   4.219   0.035
 3187SOL    HW110460   2.896   4.214   7.018
 3187SOL    HW210461   2.808   4.286   0.109
 3188SOL     OW10462   4.141   6.943   3.121
 3188SOL    HW110463   4.216   6.977   3.177
 3188SOL    HW210464   4.132   7.000   3.039
 3189SOL     OW10465   6.435   6.741   2.278
 3189SOL    HW110466   6.437   6.703   2.186
 3189SOL    HW210467   6.394   6.675   2.341
 3190SOL     OW10468   0.807   6.984   1.060
 3190SOL    HW110469   0.758   6.929   0.992
 3190SOL    HW210470   0.855   6.923   1.123
 3191SOL     OW10471   3.146   0.506   0.360
 3191SOL    HW110472   3.140   0.594   0.313
 3191SOL    HW210473   3.055   0.464   0.362
 3192SOL     OW10474   5.845   2.223   3.581
 3192SOL    HW110475   5.840   2.124   3.568
 3192SOL    HW210476   5.804   2.269   3.503
 3193SOL     OW10477   5.015   4.375   1.148
 3193SOL    HW110478   4.953   4.354   1.223
 3193SOL    HW210479   5.093   4.427   1.183
 3194SOL     OW10480   1.704   5.019   5.140
 3194SOL    HW110481   1.653   5.105   5.137
 3194SOL    HW210482   1.776   5.025   5.209
 3195SOL     OW10483   0.341   4.111   3.583
 3195SOL    HW110484   0.414   4.048   3.560
 3195SOL    HW210485   0.325   4.174   3.507
 3196SOL     OW10486   0.195   6.700   5.667
 3196SOL    HW110487   0.290   6.676   5.648
 3196SOL    HW210488   0.192   6.783   5.724
 3197SOL     OW10489   0.293   4.130   4.257
 3197SOL    HW110490   0.231   4.200   4.293
 3197SOL    HW210491   0.241   4.065   4.203
 3198SOL     OW10492   5.692   6.667   0.351
 3198SOL    HW110493   5.704   6.753   0.400
 3198SOL    HW210494   5.734   6.592   0.402
 3199SOL     OW10495   3.539   1.729   3.524
 3199SOL    HW110496   3.598   1.758   3.599
 3199SOL    HW210497   3.537   1.629   3.520
 3200SOL     OW10498   6.770   2.252   0.359
 3200SOL    HW110499   6.751   2.299   0.273
 3200SOL    HW210500   6.777   2.153   0.342
 3201SOL     OW10501   4.574   4.806   3.405
 3201SOL    HW110502   4.505   4.853   3.350
 3201SOL    HW210503   4.545   4.712   3.424
 3202SOL     OW10504   1.154   6.003   1.478
 3202SOL    HW110505   1.226   6.011   1.546
 3202SOL    HW210506   1.187   6.038   1.390
 3203SOL     OW10507   5.011   0.208   1.211
 3203SOL    HW110508   5.103   0.194   1.174
 3203SOL    HW210509   4.944   0.205   1.136
 3204SOL     OW10510   6.404   5.988   2.151
 3204SOL    HW110511   6.379   6.077   2.189
 3204SOL    HW210512   6.343   5.966   2.075
 3205SOL     OW10513   0.883   3.796   3.591
 3205SOL    HW110514   0.923   3.761   3.676
 3205SOL    HW210515   0.952   3.795   3.519
 3206SOL     OW10516   1.579   6.952   0.504
 3206SOL    HW110517   1.537   6.988   0.588
 3206SOL    HW210518   1.518   6.968   0.427
 3207SOL     OW10519   1.289   1.923   2.612
 3207SOL    HW110520   1.353   1.968   2.550
 3207SOL    HW210521   1.280   1.976   2.696
 3208SOL     OW10522   6.276   0.130   4.467
 3208SOL    HW110523   6.355   0.160   4.521
 3208SOL    HW210524   6.193   0.173   4.504
 3209SOL     OW10525   2.248   0.487   3.016
 3209SOL    HW110526   2.269   0.572   3.063
 3209SOL    HW210527   2.156   0.457   3.042
 3210SOL     OW10528   0.623   4.914   2.040
 3210SOL    HW110529   0.541   4.964   2.014
 3210SOL    HW210530   0.638   4.922   2.139
 3211SOL     OW10531   0.457   4.260   2.821
 3211SOL    HW110532   0.438   4.344   2.770
 3211SOL    HW210533   0.431   4.272   2.916
 3212SOL     OW10534   5.247   3.032   5.546
 3212SOL    HW110535   5.179   3.104   5.536
 3212SOL    HW210536   5.219   2.952   5.492
 3213SOL     OW10537   5.094   0.013   1.587
 3213SOL    HW110538   5.090   0.042   1.683
 3213SOL    HW210539   5.142   6.953   1.580
 3214SOL     OW10540   4.055   4.213   6.487
 3214SOL    HW110541   3.974   4.161   6.514
 3214SOL    HW210542   4.067   4.207   6.388
 3215SOL     OW10543   6.137   1.519   0.253
 3215SOL    HW110544   6.189   1.492   0.333
 3215SOL    HW210545   6.163   1.463   0.175
 3216SOL     OW10546   5.355   6.847   4.598
 3216SOL    HW110547   5.341   6.805   4.687
 3216SOL    HW210548   5.407   6.932   4.610
 3217SOL     OW10549   6.516   4.172   0.205
 3217SOL    HW110550   6.421   4.203   0.212
 3217SOL    HW210551   6.578   4.246   0.229
 3218SOL     OW10552   3.683   1.658   1.935
 3218SOL    HW110553   3.727   1.742   1.903
 3218SOL    HW210554   3.583   1.670   1.931
 3219SOL     OW10555   0.376   0.171   3.905
 3219SOL    HW110556   0.294   0.112   3.906
 3219SOL    HW210557   0.401   0.192   3.811
 3220SOL     OW10558   6.222   3.173   6.614
 3220SOL    HW110559   6.319   3.185   6.634
 3220SOL    HW210560   6.199   3.076   6.615
 3221SOL     OW10561   3.874   0.533   2.354
 3221SOL    HW110562   3.855   0.475   2.433
 3221SOL    HW210563   3.869   0.629   2.381
 3222SOL     OW10564   6.593   4.031   2.057
 3222SOL    HW110565   6.635   4.120   2.072
 3222SOL    HW210566   6.605   3.974   2.137
 3223SOL     OW10567   2.188   4.154   4.176
 3223SOL    HW110568   2.111   4.204   4.135
 3223SOL    HW210569   2.273   4.186   4.135
 3224SOL     OW10570   2.868   6.259   1.565
 3224SOL    HW110571   2.953   6.214   1.537
 3224SOL    HW210572   2.804   6.259   1.488
 3225SOL     OW10573   1.876   2.590   1.116
 3225SOL    HW110574   1.794   2.634   1.151
 3225SOL    HW210575   1.891   2.616   1.021
 3226SOL     OW10576   0.157   0.518   4.033
 3226SOL    HW110577   0.067   0.533   3.991
 3226SOL    HW210578   0.153   0.436   4.090
 3227SOL     OW10579   2.011   2.350   5.709
 3227SOL    HW110580   2.090   2.326   5.652
 3227SOL    HW210581   1.973   2.437   5.679
 3228SOL     OW10582   4.897   3.365   4.989
 3228SOL    HW110583   4.854   3.452   5.013
 3228SOL    HW210584   4.927   3.368   4.893
 3229SOL     OW10585   4.658   1.427   5.354
 3229SOL    HW110586   4.622   1.499   5.295
 3229SOL    HW210587   4.697   1.354   5.297
 3230SOL     OW10588   1.511   0.149   3.869
 3230SOL    HW110589   1.523   0.210   3.948
 3230SOL    HW210590   1.443   0.187   3.807
 3231SOL     OW10591   4.790   4.574   0.773
 3231SOL    HW110592   4.785   4.596   0.871
 3231SOL    HW210593   4.880   4.600   0.739
 3232SOL     OW10594   1.351   4.164   2.698
 3232SOL    HW110595   1.421   4.182   2.768
 3232SOL    HW210596   1.367   4.224   2.620
 3233SOL     OW10597   2.006   4.448   0.957
 3233SOL    HW110598   1.980   4.425   0.864
 3233SOL    HW210599   2.003   4.548   0.969
 3234SOL     OW10600   6.725   2.448   4.957
 3234SOL    HW110601   6.796   2.513   4.982
 3234SOL    HW210602   6.765   2.357   4.945
 3235SOL     OW10603   5.364   0.694   2.306
 3235SOL    HW110604   5.433   0.752   2.348
 3235SOL    HW210605   5.380   0.689   2.207
 3236SOL     OW10606   0.225   2.651   1.247
 3236SOL    HW110607   0.295   2.599   1.197
 3236SOL    HW210608   0.258   2.670   1.339
 3237SOL     OW10609   3.060   6.099   4.773
 3237SOL    HW110610   2.977   6.093   4.718
 3237SOL    HW210611   3.125   6.029   4.744
 3238SOL     OW10612   6.776   6.367   6.484
 3238SOL    HW110613   6.852   6.418   6.524
 3238SOL    HW210614   6.811   6.282   6.443
 3239SOL     OW10615   0.859   6.391   5.299
 3239SOL    HW110616   0.775   6.423   5.256
 3239SOL    HW210617   0.928   6.463   5.296
 3240SOL     OW10618   0.713   2.360   4.668
 3240SOL    HW110619   0.798   2.404   4.639
 3240SOL    HW210620   0.731   2.264   4.690
 3241SOL     OW10621   4.236   6.799   5.038
 3241SOL    HW110622   4.192   6.858   5.105
 3241SOL    HW210623   4.335   6.802   5.051
 3242SOL     OW10624   3.341   0.080   0.611
 3242SOL    HW110625   3.344   0.168   0.563
 3242SOL    HW210626   3.433   0.042   0.617
 3243SOL     OW10627   3.337   4.874   1.266
 3243SOL    HW110628   3.428   4.844   1.238
 3243SOL    HW210629   3.284   4.898   1.184
 3244SOL     OW10630   0.823   6.688   5.656
 3244SOL    HW110631   0.843   6.717   5.562
 3244SOL    HW210632   0.780   6.598   5.654
 3245SOL     OW10633   3.372   2.059   5.924
 3245SOL    HW110634   3.430   2.138   5.945
 3245SOL    HW210635   3.282   2.091   5.893
 3246SOL     OW10636   5.262   6.069   3.477
 3246SOL    HW110637   5.173   6.081   3.522
 3246SOL    HW210638   5.260   6.115   3.388
 3247SOL     OW10639   6.323   3.085   5.821
 3247SOL    HW110640   6.308   3.015   5.891
 3247SOL    HW210641   6.243   3.145   5.817
 3248SOL     OW10642   4.808   4.009   2.961
 3248SOL    HW110643   4.859   4.062   2.893
 3248SOL    HW210644   4.789   4.066   3.041
 3249SOL     OW10645   3.424   4.719   5.805
 3249SOL    HW110646   3.460   4.673   5.724
 3249SOL    HW210647   3.362   4.657   5.853
 3250SOL     OW10648   4.813   5.124   1.345
 3250SOL    HW110649   4.719   5.090   1.340
 3250SOL    HW210650   4.866   5.067   1.408
 3251SOL     OW10651   3.431   0.692   3.754
 3251SOL    HW110652   3.369   0.625   3.796
 3251SOL    HW210653   3.385   0.736   3.677
 3252SOL     OW10654   3.743   2.076   3.522
 3252SOL    HW110655   3.742   2.076   3.622
 3252SOL    HW210656   3.649   2.076   3.488
 3253SOL     OW10657   4.835   4.329   1.372
 3253SOL    HW110658   4.885   4.345   1.457
 3253SOL    HW210659   4.757   4.269   1.391
 3254SOL     OW10660   6.561   4.171   2.646
 3254SOL    HW110661   6.484   4.138   2.700
 3254SOL    HW210662   6.647   4.148   2.691
 3255SOL     OW10663   3.469   5.066   0.744
 3255SOL    HW110664   3.382   5.024   0.719
 3255SOL    HW210665   3.453   5.159   0.776
 3256SOL     OW10666   6.786   6.509   5.284
 3256SOL    HW110667   6.688   6.519   5.268
 3256SOL    HW210668   6.836   6.581   5.235
 3257SOL     OW10669   2.758   1.348   1.161
 3257SOL    HW110670   2.740   1.429   1.104
 3257SOL    HW210671   2.726   1.365   1.254
 3258SOL     OW10672   5.054   6.472   1.036
 3258SOL    HW110673   5.042   6.410   0.958
 3258SOL    HW210674   5.146   6.510   1.035
 3259SOL     OW10675   5.945   5.896   3.633
 3259SOL    HW110676   5.992   5.841   3.565
 3259SOL    HW210677   5.847   5.876   3.631
 3260SOL     OW10678   2.281   1.582   1.339
 3260SOL    HW110679   2.267   1.634   1.422
 3260SOL    HW210680   2.195   1.577   1.287
 3261SOL     OW10681   4.938   6.446   4.074
 3261SOL    HW110682   5.022   6.396   4.097
 3261SOL    HW210683   4.874   6.383   4.029
 3262SOL     OW10684   4.145   1.922   4.104
 3262SOL    HW110685   4.138   1.823   4.114
 3262SOL    HW210686   4.095   1.966   4.179
 3263SOL     OW10687   3.125   4.903   3.181
 3263SOL    HW110688   3.056   4.850   3.230
 3263SOL    HW210689   3.204   4.918   3.241
 3264SOL     OW10690   5.629   4.926   6.135
 3264SOL    HW110691   5.628   4.838   6.088
 3264SOL    HW210692   5.631   4.911   6.234
 3265SOL     OW10693   5.520   0.242   5.667
 3265SOL    HW110694   5.513   0.338   5.694
 3265SOL    HW210695   5.446   0.219   5.604
 3266SOL     OW10696   1.387   2.540   6.404
 3266SOL    HW110697   1.447   2.489   6.466
 3266SOL    HW210698   1.443   2.589   6.337
 3267SOL     OW10699   5.180   3.000   2.062
 3267SOL    HW110700   5.176   2.948   2.147
 3267SOL    HW210701   5.102   3.062   2.057
 3268SOL     OW10702   1.828   5.299   6.528
 3268SOL    HW110703   1.830   5.399   6.527
 3268SOL    HW210704   1.749   5.267   6.475
 3269SOL     OW10705   4.241   3.417   0.985
 3269SOL    HW110706   4.206   3.350   1.050
 3269SOL    HW210707   4.339   3.402   0.971
 3270SOL     OW10708   6.619   5.276   3.539
 3270SOL    HW110709   6.687   5.262   3.611
 3270SOL    HW210710   6.540   5.217   3.556
 3271SOL     OW10711   4.775   0.080   1.356
 3271SOL    HW110712   4.721   0.079   1.272
 3271SOL    HW210713   4.870   0.103   1.334
 3272SOL     OW10714   4.953   5.622   6.591
 3272SOL    HW110715   4.900   5.691   6.542
 3272SOL    HW210716   5.035   5.600   6.539
 3273SOL     OW10717   1.006   0.863   3.047
 3273SOL    HW110718   0.956   0.914   2.976
 3273SOL    HW210719   1.104   0.877   3.035
 3274SOL     OW10720   2.625   1.420   6.761
 3274SOL    HW110721   2.617   1.475   6.844
 3274SOL    HW210722   2.536   1.380   6.739
 3275SOL     OW10723   4.700   0.637   6.863
 3275SOL    HW110724   4.800   0.639   6.856
 3275SOL    HW210725   4.671   0.707   6.928
 3276SOL     OW10726   1.818   6.481   6.810
 3276SOL    HW110727   1.852   6.394   6.774
 3276SOL    HW210728   1.888   6.522   6.868
 3277SOL     OW10729   0.068   5.961   6.718
 3277SOL    HW110730   0.050   5.901   6.795
 3277SOL    HW210731   0.027   6.051   6.736
 3278SOL     OW10732   1.104   0.744   6.978
 3278SOL    HW110733   1.128   0.786   6.891
 3278SOL    HW210734   1.176   0.680   7.005
 3279SOL     OW10735   2.048   6.905   1.349
 3279SOL    HW110736   2.103   6.981   1.316
 3279SOL    HW210737   2.023   6.846   1.272
 3280SOL     OW10738   2.867   6.241   4.067
 3280SOL    HW110739   2.844   6.172   4.135
 3280SOL    HW210740   2.963   6.268   4.078
 3281SOL     OW10741   1.775   6.626   0.381
 3281SOL    HW110742   1.765   6.662   0.289
 3281SOL    HW210743   1.769   6.700   0.448
 3282SOL     OW10744   2.278   5.033   2.494
 3282SOL    HW110745   2.226   4.950   2.515
 3282SOL    HW210746   2.216   5.111   2.488
 3283SOL     OW10747   2.075   0.111   3.281
 3283SOL    HW110748   2.004   0.043   3.299
 3283SOL    HW210749   2.040   0.202   3.301
 3284SOL     OW10750   1.436   5.229   5.395
 3284SOL    HW110751   1.500   5.173   5.448
 3284SOL    HW210752   1.367   5.267   5.457
 3285SOL     OW10753   0.409   2.902   3.963
 3285SOL    HW110754   0.343   2.977   3.967
 3285SOL    HW210755   0.412   2.855   4.051
 3286SOL     OW10756   4.726   4.565   6.343
 3286SOL    HW110757   4.786   4.597   6.416
 3286SOL    HW210758   4.736   4.624   6.263
 3287SOL     OW10759   6.937   2.987   1.808
 3287SOL    HW110760   6.867   2.977   1.737
 3287SOL    HW210761   6.898   3.034   1.887
 3288SOL     OW10762   0.778   0.116   6.841
 3288SOL    HW110763   0.775   0.204   6.887
 3288SOL    HW210764   0.852   0.061   6.879
 3289SOL     OW10765   1.157   6.735   4.003
 3289SOL    HW110766   1.065   6.707   4.028
 3289SOL    HW210767   1.172   6.831   4.028
 3290SOL     OW10768   0.484   4.740   3.608
 3290SOL    HW110769   0.404   4.787   3.645
 3290SOL    HW210770   0.454   4.663   3.551
 3291SOL     OW10771   1.803   1.464   2.074
 3291SOL    HW110772   1.886   1.410   2.086
 3291SOL    HW210773   1.826   1.561   2.067
 3292SOL     OW10774   0.394   6.079   4.730
 3292SOL    HW110775   0.417   5.983   4.748
 3292SOL    HW210776   0.477   6.129   4.704
 3293SOL     OW10777   6.059   0.765   3.325
 3293SOL    HW110778   6.104   0.685   3.365
 3293SOL    HW210779   6.024   0.742   3.234
 3294SOL     OW10780   6.871   6.793   0.953
 3294SOL    HW110781   6.918   6.878   0.931
 3294SOL    HW210782   6.822   6.760   0.873
 3295SOL     OW10783   1.844   3.145   6.014
 3295SOL    HW110784   1.935   3.135   6.055
 3295SOL    HW210785   1.852   3.144   5.915
 3296SOL     OW10786   0.996   6.570   2.458
 3296SOL    HW110787   1.091   6.542   2.472
 3296SOL    HW210788   0.993   6.637   2.383
 3297SOL     OW10789   3.566   1.208   5.725
 3297SOL    HW110790   3.529   1.253   5.644
 3297SOL    HW210791   3.633   1.269   5.769
 3298SOL     OW10792   0.418   4.494   2.667
 3298SOL    HW110793   0.370   4.544   2.740
 3298SOL    HW210794   0.354   4.478   2.592
 3299SOL     OW10795   0.838   1.224   4.374
 3299SOL    HW110796   0.806   1.219   4.468
 3299SOL    HW210797   0.932   1.258   4.372
 3300SOL     OW10798   6.917   0.193   5.077
 3300SOL    HW110799   6.932   0.235   4.987
 3300SOL    HW210800   6.983   0.119   5.090
 3301SOL     OW10801   6.654   3.783   2.649
 3301SOL    HW110802   6.729   3.768   2.714
 3301SOL    HW210803   6.666   3.725   2.569
 3302SOL     OW10804   0.773   6.118   5.334
 3302SOL    HW110805   0.811   6.207   5.361
 3302SOL    HW210806   0.674   6.125   5.325
 3303SOL     OW10807   2.882   3.490   4.017
 3303SOL    HW110808   2.917   3.558   3.953
 3303SOL    HW210809   2.807   3.439   3.974
 3304SOL     OW10810   1.455   0.725   3.546
 3304SOL    HW110811   1.459   0.815   3.587
 3304SOL    HW210812   1.432   0.733   3.449
 3305SOL     OW10813   1.007   3.019   0.462
 3305SOL    HW110814   1.028   2.989   0.556
 3305SOL    HW210815   0.987   3.117   0.462
 3306SOL     OW10816   1.320   2.719   1.901
 3306SOL    HW110817   1.337   2.622   1.917
 3306SOL    HW210818   1.407   2.766   1.887
 3307SOL     OW10819   0.817   0.357   7.002
 3307SOL    HW110820   0.879   0.281   7.020
 3307SOL    HW210821   0.862   0.443   0.001
 3308SOL     OW10822   4.753   6.059   1.170
 3308SOL    HW110823   4.660   6.072   1.136
 3308SOL    HW210824   4.759   5.971   1.218
 3309SOL     OW10825   1.617   4.870   1.609
 3309SOL    HW110826   1.609   4.968   1.628
 3309SOL    HW210827   1.679   4.828   1.675
 3310SOL     OW10828   1.712   6.909   2.173
 3310SOL    HW110829   1.793   6.965   2.154
 3310SOL    HW210830   1.680   6.928   2.266
 3311SOL     OW10831   4.163   5.572   0.765
 3311SOL    HW110832   4.186   5.476   0.746
 3311SOL    HW210833   4.225   5.631   0.714
 3312SOL     OW10834   1.413   2.772   5.983
 3312SOL    HW110835   1.422   2.688   6.037
 3312SOL    HW210836   1.317   2.796   5.974
 3313SOL     OW10837   5.976   6.661   4.492
 3313SOL    HW110838   6.016   6.669   4.400
 3313SOL    HW210839   5.973   6.751   4.534
 3314SOL     OW10840   0.407   4.633   6.495
 3314SOL    HW110841   0.342   4.647   6.421
 3314SOL    HW210842   0.422   4.720   6.543
 3315SOL     OW10843   6.815   2.930   3.577
 3315SOL    HW110844   6.757   2.877   3.639
 3315SOL    HW210845   6.909   2.896   3.582
 3316SOL     OW10846   4.422   0.838   6.878
 3316SOL    HW110847   4.486   0.873   6.947
 3316SOL    HW210848   4.385   0.914   6.825
 3317SOL     OW10849   4.322   2.401   1.214
 3317SOL    HW110850   4.313   2.464   1.137
 3317SOL    HW210851   4.412   2.411   1.255
 3318SOL     OW10852   3.128   5.210   5.958
 3318SOL    HW110853   3.189   5.271   6.008
 3318SOL    HW210854   3.075   5.155   6.022
 3319SOL     OW10855   0.054   6.409   6.472
 3319SOL    HW110856   0.110   6.466   6.412
 3319SOL    HW210857   0.111   6.338   6.513
 3320SOL     OW10858   0.848   0.811   0.949
 3320SOL    HW110859   0.920   0.881   0.941
 3320SOL    HW210860   0.774   0.846   1.005
 3321SOL     OW10861   3.750   3.825   4.365
 3321SOL    HW110862   3.756   3.747   4.303
 3321SOL    HW210863   3.842   3.857   4.388
 3322SOL     OW10864   4.635   2.272   2.352
 3322SOL    HW110865   4.550   2.271   2.406
 3322SOL    HW210866   4.698   2.339   2.391
 3323SOL     OW10867   1.666   4.803   0.538
 3323SOL    HW110868   1.715   4.735   0.591
 3323SOL    HW210869   1.571   4.775   0.528
 3324SOL     OW10870   6.325   3.160   1.647
 3324SOL    HW110871   6.238   3.176   1.692
 3324SOL    HW210872   6.312   3.155   1.548
 3325SOL     OW10873   0.990   4.986   5.592
 3325SOL    HW110874   1.075   5.011   5.639
 3325SOL    HW210875   0.997   4.892   5.558
 3326SOL     OW10876   5.554   0.296   2.496
 3326SOL    HW110877   5.500   0.237   2.437
 3326SOL    HW210878   5.630   0.245   2.536
 3327SOL     OW10879   4.980   6.079   1.971
 3327SOL    HW110880   4.883   6.068   1.996
 3327SOL    HW210881   5.026   6.133   2.042
 3328SOL     OW10882   6.463   6.474   4.263
 3328SOL    HW110883   6.408   6.425   4.195
 3328SOL    HW210884   6.511   6.550   4.219
 3329SOL     OW10885   5.337   0.684   5.910
 3329SOL    HW110886   5.267   0.744   5.950
 3329SOL    HW210887   5.391   0.643   5.983
 3330SOL     OW10888   6.422   0.044   2.846
 3330SOL    HW110889   6.477   0.003   2.773
 3330SOL    HW210890   6.340   0.084   2.806
 3331SOL     OW10891   1.387   3.928   2.570
 3331SOL    HW110892   1.480   3.952   2.543
 3331SOL    HW210893   1.358   3.986   2.646
 3332SOL     OW10894   4.249   5.040   0.369
 3332SOL    HW110895   4.273   4.993   0.284
 3332SOL    HW210896   4.160   5.008   0.401
 3333SOL     OW10897   1.814   3.956   0.940
 3333SOL    HW110898   1.834   3.902   0.858
 3333SOL    HW210899   1.829   4.053   0.920
 3334SOL     OW10900   1.490   2.322   2.379
 3334SOL    HW110901   1.416   2.255   2.382
 3334SOL    HW210902   1.576   2.276   2.359
 3335SOL     OW10903   3.923   4.328   5.938
 3335SOL    HW110904   3.915   4.266   5.860
 3335SOL    HW210905   3.985   4.289   6.005
 3336SOL     OW10906   3.723   5.879   5.944
 3336SOL    HW110907   3.760   5.902   6.034
 3336SOL    HW210908   3.644   5.939   5.924
 3337SOL     OW10909   3.272   3.124   3.607
 3337SOL    HW110910   3.203   3.126   3.679
 3337SOL    HW210911   3.341   3.194   3.625
 3338SOL     OW10912   2.769   3.295   1.475
 3338SOL    HW110913   2.685   3.312   1.527
 3338SOL    HW210914   2.809   3.383   1.448
 3339SOL     OW10915   1.027   6.771   6.637
 3339SOL    HW110916   1.038   6.742   6.542
 3339SOL    HW210917   0.981   6.860   6.639
 3340SOL     OW10918   4.916   1.137   6.076
 3340SOL    HW110919   5.012   1.151   6.102
 3340SOL    HW210920   4.868   1.224   6.079
 3341SOL     OW10921   1.424   4.345   1.304
 3341SOL    HW110922   1.414   4.435   1.347
 3341SOL    HW210923   1.405   4.353   1.206
 3342SOL     OW10924   5.923   6.957   1.783
 3342SOL    HW110925   5.824   6.956   1.798
 3342SOL    HW210926   5.966   6.890   1.844
 3343SOL     OW10927   3.250   5.556   0.844
 3343SOL    HW110928   3.317   5.542   0.917
 3343SOL    HW210929   3.268   5.642   0.798
 3344SOL     OW10930   1.202   3.563   1.393
 3344SOL    HW110931   1.217   3.662   1.387
 3344SOL    HW210932   1.291   3.516   1.391
 3345SOL     OW10933   5.341   5.226   0.990
 3345SOL    HW110934   5.432   5.203   1.025
 3345SOL    HW210935   5.278   5.151   1.010
 3346SOL     OW10936   1.118   0.954   6.798
 3346SOL    HW110937   1.046   1.011   6.757
 3346SOL    HW210938   1.157   1.001   6.877
 3347SOL     OW10939   0.766   4.031   5.585
 3347SOL    HW110940   0.770   4.116   5.532
 3347SOL    HW210941   0.821   3.961   5.539
 3348SOL     OW10942   3.466   4.305   5.813
 3348SOL    HW110943   3.461   4.341   5.906
 3348SOL    HW210944   3.396   4.349   5.757
 3349SOL     OW10945   1.698   5.848   1.737
 3349SOL    HW110946   1.647   5.841   1.651
 3349SOL    HW210947   1.635   5.843   1.814
 3350SOL     OW10948   2.557   5.282   5.387
 3350SOL    HW110949   2.473   5.248   5.431
 3350SOL    HW210950   2.614   5.204   5.360
 3351SOL     OW10951   5.447   6.628   1.430
 3351SOL    HW110952   5.408   6.685   1.357
 3351SOL    HW210953   5.513   6.681   1.482
 3352SOL     OW10954   5.532   1.483   6.937
 3352SOL    HW110955   5.480   1.563   6.965
 3352SOL    HW210956   5.612   1.471   6.997
 3353SOL     OW10957   4.112   0.630   6.544
 3353SOL    HW110958   4.208   0.605   6.557
 3353SOL    HW210959   4.095   0.719   6.585
 3354SOL     OW10960   2.300   2.555   0.221
 3354SOL    HW110961   2.275   2.474   0.274
 3354SOL    HW210962   2.217   2.599   0.186
 3355SOL     OW10963   1.508   1.101   5.054
 3355SOL    HW110964   1.450   1.181   5.040
 3355SOL    HW210965   1.463   1.038   5.118
 3356SOL     OW10966   3.459   1.078   5.919
 3356SOL    HW110967   3.380   1.132   5.947
 3356SOL    HW210968   3.487   1.105   5.827
 3357SOL     OW10969   2.991   3.853   3.427
 3357SOL    HW110970   2.987   3.759   3.390
 3357SOL    HW210971   2.971   3.851   3.524
 3358SOL     OW10972   0.146   2.004   1.528
 3358SOL    HW110973   0.070   1.950   1.493
 3358SOL    HW210974   0.185   2.059   1.454
 3359SOL     OW10975   1.066   0.165   3.879
 3359SOL    HW110976   1.113   0.113   3.807
 3359SOL    HW210977   1.044   0.256   3.845
 3360SOL     OW10978   1.360   5.489   4.846
 3360SOL    HW110979   1.446   5.513   4.891
 3360SOL    HW210980   1.379   5.430   4.767
 3361SOL     OW10981   0.392   6.683   4.322
 3361SOL    HW110982   0.354   6.772   4.296
 3361SOL    HW210983   0.427   6.637   4.240
 3362SOL     OW10984   3.742   0.444   4.273
 3362SOL    HW110985   3.777   0.494   4.194
 3362SOL    HW210986   3.808   0.450   4.348
 3363SOL     OW10987   4.809   3.480   0.703
 3363SOL    HW110988   4.786   3.406   0.639
 3363SOL    HW210989   4.734   3.491   0.768
 3364SOL     OW10990   1.810   3.586   1.484
 3364SOL    HW110991   1.777   3.547   1.398
 3364SOL    HW210992   1.734   3.633   1.529
 3365SOL     OW10993   1.111   2.885   3.087
 3365SOL    HW110994   1.210   2.869   3.085
 3365SOL    HW210995   1.088   2.963   3.029
 3366SOL     OW10996   5.847   3.086   4.355
 3366SOL    HW110997   5.837   3.155   4.283
 3366SOL    HW210998   5.894   3.127   4.433
 3367SOL     OW10999   3.401   2.880   3.789
 3367SOL    HW111000   3.406   2.878   3.689
 3367SOL    HW211001   3.320   2.932   3.817
 3368SOL     OW11002   2.448   1.101   3.610
 3368SOL    HW111003   2.509   1.030   3.572
 3368SOL    HW211004   2.450   1.181   3.551
 3369SOL     OW11005   4.994   2.492   1.400
 3369SOL    HW111006   5.027   2.399   1.380
 3369SOL    HW211007   5.063   2.558   1.370
 3370SOL     OW11008   0.716   5.573   2.957
 3370SOL    HW111009   0.618   5.579   2.976
 3370SOL    HW211010   0.766   5.636   3.017
 3371SOL     OW11011   2.565   2.786   1.276
 3371SOL    HW111012   2.468   2.810   1.281
 3371SOL    HW211013   2.606   2.830   1.197
 3372SOL     OW11014   5.673   2.682   3.387
 3372SOL    HW111015   5.669   2.782   3.396
 3372SOL    HW211016   5.622   2.654   3.306
 3373SOL     OW11017   6.839   4.312   0.692
 3373SOL    HW111018   6.923   4.340   0.740
 3373SOL    HW211019   6.807   4.388   0.635
 3374SOL     OW11020   1.119   5.640   4.037
 3374SOL    HW111021   1.065   5.600   3.963
 3374SOL    HW211022   1.079   5.728   4.063
 3375SOL     OW11023   0.191   6.141   5.447
 3375SOL    HW111024   0.166   6.187   5.361
 3375SOL    HW211025   0.260   6.194   5.495
 3376SOL     OW11026   3.274   3.751   4.978
 3376SOL    HW111027   3.257   3.821   5.048
 3376SOL    HW211028   3.221   3.772   4.896
 3377SOL     OW11029   0.155   5.695   3.913
 3377SOL    HW111030   0.102   5.699   3.998
 3377SOL    HW211031   0.092   5.704   3.835
 3378SOL     OW11032   1.444   5.688   0.156
 3378SOL    HW111033   1.500   5.623   0.207
 3378SOL    HW211034   1.349   5.654   0.153
 3379SOL     OW11035   5.790   4.442   4.313
 3379SOL    HW111036   5.869   4.491   4.276
 3379SOL    HW211037   5.728   4.507   4.356
 3380SOL     OW11038   1.867   5.535   1.965
 3380SOL    HW111039   1.912   5.604   1.908
 3380SOL    HW211040   1.854   5.570   2.057
 3381SOL     OW11041   3.142   4.003   6.248
 3381SOL    HW111042   3.093   3.917   6.234
 3381SOL    HW211043   3.078   4.076   6.268
 3382SOL     OW11044   0.188   3.757   6.726
 3382SOL    HW111045   0.169   3.848   6.763
 3382SOL    HW211046   0.135   3.689   6.777
 3383SOL     OW11047   3.127   5.951   0.574
 3383SOL    HW111048   3.092   6.043   0.591
 3383SOL    HW211049   3.063   5.901   0.515
 3384SOL     OW11050   2.792   2.889   6.666
 3384SOL    HW111051   2.869   2.828   6.687
 3384SOL    HW211052   2.780   2.893   6.566
 3385SOL     OW11053   5.552   2.646   4.841
 3385SOL    HW111054   5.537   2.547   4.847
 3385SOL    HW211055   5.477   2.687   4.790
 3386SOL     OW11056   0.014   5.194   5.253
 3386SOL    HW111057   0.011   5.229   5.159
 3386SOL    HW211058   6.949   5.194   5.291
 3387SOL     OW11059   6.063   0.318   2.471
 3387SOL    HW111060   6.152   0.363   2.469
 3387SOL    HW211061   6.013   0.348   2.553
 3388SOL     OW11062   0.807   4.070   0.212
 3388SOL    HW111063   0.769   4.052   0.122
 3388SOL    HW211064   0.815   3.983   0.262
 3389SOL     OW11065   6.538   5.010   5.997
 3389SOL    HW111066   6.451   5.046   5.963
 3389SOL    HW211067   6.541   5.018   6.097
 3390SOL     OW11068   2.988   5.452   0.921
 3390SOL    HW111069   3.084   5.477   0.916
 3390SOL    HW211070   2.936   5.505   0.853
 3391SOL     OW11071   5.710   4.125   5.661
 3391SOL    HW111072   5.615   4.095   5.660
 3391SOL    HW211073   5.714   4.225   5.653
 3392SOL     OW11074   5.100   6.313   5.736
 3392SOL    HW111075   5.179   6.372   5.722
 3392SOL    HW211076   5.110   6.263   5.821
 3393SOL     OW11077   3.727   0.332   0.870
 3393SOL    HW111078   3.699   0.377   0.785
 3393SOL    HW211079   3.655   0.342   0.939
 3394SOL     OW11080   2.657   6.117   1.797
 3394SOL    HW111081   2.611   6.039   1.840
 3394SOL    HW211082   2.682   6.093   1.703
 3395SOL     OW11083   2.056   6.561   3.257
 3395SOL    HW111084   1.972   6.534   3.210
 3395SOL    HW211085   2.074   6.658   3.240
 3396SOL     OW11086   4.324   0.517   4.313
 3396SOL    HW111087   4.262   0.485   4.242
 3396SOL    HW211088   4.358   0.439   4.365
 3397SOL     OW11089   2.152   6.391   0.980
 3397SOL    HW111090   2.070   6.429   0.937
 3397SOL    HW211091   2.192   6.457   1.042
 3398SOL     OW11092   6.479   1.152   6.985
 3398SOL    HW111093   6.440   1.098   0.033
 3398SOL    HW211094   6.541   1.220   7.024
 3399SOL     OW11095   0.332   5.688   2.425
 3399SOL    HW111096   0.327   5.787   2.415
 3399SOL    HW211097   0.252   5.655   2.473
 3400SOL     OW11098   3.758   3.123   5.723
 3400SOL    HW111099   3.693   3.127   5.799
 3400SOL    HW211100   3.848   3.153   5.755
 3401SOL     OW11101   6.732   3.134   4.194
 3401SOL    HW111102   6.743   3.035   4.189
 3401SOL    HW211103   6.818   3.178   4.167
 3402SOL     OW11104   5.222   3.394   0.045
 3402SOL    HW111105   5.182   3.356   6.989
 3402SOL    HW211106   5.286   3.329   0.085
 3403SOL     OW11107   5.443   6.747   4.339
 3403SOL    HW111108   5.436   6.822   4.405
 3403SOL    HW211109   5.538   6.720   4.329
 3404SOL     OW11110   5.294   4.867   3.088
 3404SOL    HW111111   5.346   4.813   3.154
 3404SOL    HW211112   5.323   4.843   2.995
 3405SOL     OW11113   4.419   5.908   1.357
 3405SOL    HW111114   4.378   5.950   1.438
 3405SOL    HW211115   4.393   5.811   1.353
 3406SOL     OW11116   4.354   5.281   1.399
 3406SOL    HW111117   4.370   5.379   1.414
 3406SOL    HW211118   4.257   5.265   1.385
 3407SOL     OW11119   1.714   2.596   0.377
 3407SOL    HW111120   1.673   2.564   0.292
 3407SOL    HW211121   1.754   2.519   0.427
 3408SOL     OW11122   3.619   6.387   3.762
 3408SOL    HW111123   3.564   6.306   3.779
 3408SOL    HW211124   3.559   6.464   3.738
 3409SOL     OW11125   4.577   1.742   6.864
 3409SOL    HW111126   4.523   1.717   6.944
 3409SOL    HW211127   4.551   1.834   6.834
 3410SOL     OW11128   6.947   0.542   2.187
 3410SOL    HW111129   6.945   0.554   2.286
 3410SOL    HW211130   0.015   0.541   2.155
 3411SOL     OW11131   5.828   3.426   6.297
 3411SOL    HW111132   5.791   3.512   6.263
 3411SOL    HW211133   5.876   3.442   6.383
 3412SOL     OW11134   5.194   3.134   3.479
 3412SOL    HW111135   5.145   3.210   3.523
 3412SOL    HW211136   5.292   3.149   3.488
 3413SOL     OW11137   0.510   2.609   1.186
 3413SOL    HW111138   0.508   2.580   1.090
 3413SOL    HW211139   0.573   2.551   1.237
 3414SOL     OW11140   3.801   2.991   1.947
 3414SOL    HW111141   3.874   3.038   1.896
 3414SOL    HW211142   3.727   3.056   1.965
 3415SOL     OW11143   2.615   1.118   6.316
 3415SOL    HW111144   2.684   1.130   6.387
 3415SOL    HW211145   2.531   1.083   6.357
 3416SOL     OW11146   5.323   6.512   5.751
 3416SOL    HW111147   5.360   6.580   5.687
 3416SOL    HW211148   5.397   6.451   5.780
 3417SOL     OW11149   5.821   0.761   2.430
 3417SOL    HW111150   5.793   0.666   2.419
 3417SOL    HW211151   5.902   0.778   2.374
 3418SOL     OW11152   4.054   5.776   0.910
 3418SOL    HW111153   4.086   5.695   0.861
 3418SOL    HW211154   4.026   5.750   1.002
 3419SOL     OW11155   3.230   4.511   5.303
 3419SOL    HW111156   3.137   4.512   5.265
 3419SOL    HW211157   3.236   4.443   5.375
 3420SOL     OW11158   4.198   0.701   1.665
 3420SOL    HW111159   4.147   0.778   1.625
 3420SOL    HW211160   4.296   0.717   1.651
 3421SOL     OW11161   0.399   1.254   4.486
 3421SOL    HW111162   0.333   1.198   4.436
 3421SOL    HW211163   0.350   1.319   4.544
 3422SOL     OW11164   3.474   5.602   1.692
 3422SOL    HW111165   3.374   5.597   1.697
 3422SOL    HW211166   3.514   5.525   1.742
 3423SOL     OW11167   2.182   4.847   6.235
 3423SOL    HW111168   2.236   4.804   6.162
 3423SOL    HW211169   2.240   4.858   6.317
 3424SOL     OW11170   5.528   6.871   2.300
 3424SOL    HW111171   5.461   6.923   2.247
 3424SOL    HW211172   5.521   6.774   2.277
 3425SOL     OW11173   5.338   3.230   6.360
 3425SOL    HW111174   5.417   3.253   6.303
 3425SOL    HW211175   5.298   3.144   6.327
 3426SOL     OW11176   6.798   5.357   6.517
 3426SOL    HW111177   6.832   5.425   6.581
 3426SOL    HW211178   6.731   5.299   6.563
 3427SOL     OW11179   1.983   1.502   6.842
 3427SOL    HW111180   1.899   1.524   6.890
 3427SOL    HW211181   1.961   1.466   6.751
 3428SOL     OW11182   4.586   0.145   4.052
 3428SOL    HW111183   4.627   0.079   4.116
 3428SOL    HW211184   4.629   0.235   4.065
 3429SOL     OW11185   4.311   5.908   0.934
 3429SOL    HW111186   4.219   5.869   0.940
 3429SOL    HW211187   4.336   5.920   0.838
 3430SOL     OW11188   2.510   4.538   6.746
 3430SOL    HW111189   2.586   4.476   6.765
 3430SOL    HW211190   2.487   4.534   6.648
 3431SOL     OW11191   1.034   4.479   2.791
 3431SOL    HW111192   0.951   4.430   2.819
 3431SOL    HW211193   1.025   4.575   2.818
 3432SOL     OW11194   0.242   5.213   6.756
 3432SOL    HW111195   0.183   5.222   6.836
 3432SOL    HW211196   0.300   5.132   6.768
 3433SOL     OW11197   0.818   0.566   0.642
 3433SOL    HW111198   0.722   0.542   0.627
 3433SOL    HW211199   0.844   0.543   0.736
 3434SOL     OW11200   4.374   2.226   2.488
 3434SOL    HW111201   4.323   2.197   2.407
 3434SOL    HW211202   4.310   2.255   2.559
 3435SOL     OW11203   2.171   2.988   1.077
 3435SOL    HW111204   2.184   3.087   1.069
 3435SOL    HW211205   2.154   2.949   0.987
 3436SOL     OW11206   4.213   5.953   5.462
 3436SOL    HW111207   4.182   5.880   5.523
 3436SOL    HW211208   4.136   5.988   5.409
 3437SOL     OW11209   1.573   6.773   0.217
 3437SOL    HW111210   1.644   6.815   0.161
 3437SOL    HW211211   1.508   6.844   0.246
 3438SOL     OW11212   2.169   4.393   0.167
 3438SOL    HW111213   2.099   4.360   0.104
 3438SOL    HW211214   2.258   4.358   0.139
 3439SOL     OW11215   2.695   6.098   1.301
 3439SOL    HW111216   2.600   6.068   1.299
 3439SOL    HW211217   2.734   6.092   1.209
 3440SOL     OW11218   3.917   4.081   5.781
 3440SOL    HW111219   3.823   4.097   5.751
 3440SOL    HW211220   3.945   3.989   5.756
 3441SOL     OW11221   6.648   5.188   4.684
 3441SOL    HW111222   6.573   5.125   4.665
 3441SOL    HW211223   6.621   5.251   4.757
 3442SOL     OW11224   1.035   1.829   0.645
 3442SOL    HW111225   1.081   1.894   0.584
 3442SOL    HW211226   0.939   1.855   0.655
 3443SOL     OW11227   7.022   5.361   2.442
 3443SOL    HW111228   6.923   5.344   2.446
 3443SOL    HW211229   0.020   5.428   2.512
 3444SOL     OW11230   0.902   4.243   6.668
 3444SOL    HW111231   0.964   4.252   6.591
 3444SOL    HW211232   0.840   4.165   6.652
 3445SOL     OW11233   5.829   5.343   4.340
 3445SOL    HW111234   5.799   5.435   4.364
 3445SOL    HW211235   5.858   5.295   4.423
 3446SOL     OW11236   4.849   1.416   0.352
 3446SOL    HW111237   4.841   1.516   0.349
 3446SOL    HW211238   4.868   1.388   0.446
 3447SOL     OW11239   5.533   1.465   5.928
 3447SOL    HW111240   5.466   1.412   5.980
 3447SOL    HW211241   5.532   1.560   5.959
 3448SOL     OW11242   0.684   5.012   5.065
 3448SOL    HW111243   0.663   4.926   5.018
 3448SOL    HW211244   0.749   4.994   5.139
 3449SOL     OW11245   1.780   3.731   4.992
 3449SOL    HW111246   1.824   3.753   4.905
 3449SOL    HW211247   1.800   3.636   5.016
 3450SOL     OW11248   2.520   6.536   2.360
 3450SOL    HW111249   2.510   6.443   2.325
 3450SOL    HW211250   2.439   6.559   2.414
 3451SOL     OW11251   1.836   2.030   0.823
 3451SOL    HW111252   1.753   1.983   0.792
 3451SOL    HW211253   1.827   2.052   0.920
 3452SOL     OW11254   4.600   1.177   5.834
 3452SOL    HW111255   4.666   1.243   5.798
 3452SOL    HW211256   4.546   1.139   5.759
 3453SOL     OW11257   4.334   6.191   5.557
 3453SOL    HW111258   4.291   6.105   5.532
 3453SOL    HW211259   4.425   6.196   5.517
 3454SOL     OW11260   1.213   3.085   3.371
 3454SOL    HW111261   1.250   3.033   3.448
 3454SOL    HW211262   1.162   3.163   3.405
 3455SOL     OW11263   1.131   4.286   6.481
 3455SOL    HW111264   1.220   4.242   6.493
 3455SOL    HW211265   1.138   4.383   6.505
 3456SOL     OW11266   4.407   5.470   3.080
 3456SOL    HW111267   4.484   5.478   3.143
 3456SOL    HW211268   4.370   5.377   3.084
 3457SOL     OW11269   4.093   4.197   6.899
 3457SOL    HW111270   4.048   4.278   6.861
 3457SOL    HW211271   4.027   4.147   6.956
 3458SOL     OW11272   4.555   2.023   0.738
 3458SOL    HW111273   4.563   1.950   0.669
 3458SOL    HW211274   4.531   1.982   0.826
 3459SOL     OW11275   6.930   6.621   2.557
 3459SOL    HW111276   7.008   6.560   2.575
 3459SOL    HW211277   6.894   6.602   2.465
 3460SOL     OW11278   4.348   0.993   5.276
 3460SOL    HW111279   4.384   1.073   5.229
 3460SOL    HW211280   4.281   1.021   5.345
 3461SOL     OW11281   4.669   4.329   3.503
 3461SOL    HW111282   4.664   4.344   3.602
 3461SOL    HW211283   4.689   4.233   3.484
 3462SOL     OW11284   1.281   4.608   6.431
 3462SOL    HW111285   1.358   4.615   6.494
 3462SOL    HW211286   1.196   4.597   6.483
 3463SOL     OW11287   5.575   3.983   0.182
 3463SOL    HW111288   5.549   3.887   0.193
 3463SOL    HW211289   5.628   3.995   0.098
 3464SOL     OW11290   0.151   4.569   3.704
 3464SOL    HW111291   0.056   4.579   3.672
 3464SOL    HW211292   0.199   4.655   3.692
 3465SOL     OW11293   0.746   2.944   1.373
 3465SOL    HW111294   0.733   2.911   1.466
 3465SOL    HW211295   0.789   3.034   1.376
 3466SOL     OW11296   5.947   3.837   3.377
 3466SOL    HW111297   5.877   3.831   3.448
 3466SOL    HW211298   6.036   3.858   3.419
 3467SOL     OW11299   1.608   2.550   5.681
 3467SOL    HW111300   1.648   2.528   5.592
 3467SOL    HW211301   1.631   2.477   5.746
 3468SOL     OW11302   4.837   5.642   1.782
 3468SOL    HW111303   4.743   5.673   1.774
 3468SOL    HW211304   4.850   5.597   1.870
 3469SOL     OW11305   4.995   4.111   0.281
 3469SOL    HW111306   5.020   4.169   0.204
 3469SOL    HW211307   5.004   4.014   0.255
 3470SOL     OW11308   6.578   5.349   0.723
 3470SOL    HW111309   6.607   5.265   0.768
 3470SOL    HW211310   6.489   5.377   0.758
 3471SOL     OW11311   4.424   6.610   4.726
 3471SOL    HW111312   4.354   6.682   4.725
 3471SOL    HW211313   4.437   6.576   4.633
 3472SOL     OW11314   3.978   0.073   4.772
 3472SOL    HW111315   3.923   0.156   4.782
 3472SOL    HW211316   4.072   0.092   4.798
 3473SOL     OW11317   4.403   6.383   3.909
 3473SOL    HW111318   4.371   6.315   3.974
 3473SOL    HW211319   4.342   6.385   3.829
 3474SOL     OW11320   4.193   4.890   0.076
 3474SOL    HW111321   4.097   4.896   0.103
 3474SOL    HW211322   4.207   4.942   7.019
 3475SOL     OW11323   1.228   5.307   5.555
 3475SOL    HW111324   1.135   5.309   5.520
 3475SOL    HW211325   1.227   5.278   5.651
 3476SOL     OW11326   4.142   1.548   3.504
 3476SOL    HW111327   4.058   1.536   3.451
 3476SOL    HW211328   4.173   1.642   3.498
 3477SOL     OW11329   4.665   5.635   2.292
 3477SOL    HW111330   4.596   5.569   2.260
 3477SOL    HW211331   4.694   5.609   2.384
 3478SOL     OW11332   3.545   4.204   0.504
 3478SOL    HW111333   3.450   4.177   0.520
 3478SOL    HW211334   3.603   4.165   0.575
 3479SOL     OW11335   1.858   0.498   0.189
 3479SOL    HW111336   1.884   0.585   0.148
 3479SOL    HW211337   1.940   0.450   0.220
 3480SOL     OW11338   1.300   6.339   4.386
 3480SOL    HW111339   1.395   6.308   4.391
 3480SOL    HW211340   1.250   6.303   4.464
 3481SOL     OW11341   2.330   5.483   0.340
 3481SOL    HW111342   2.397   5.548   0.305
 3481SOL    HW211343   2.239   5.508   0.308
 3482SOL     OW11344   0.234   2.232   1.358
 3482SOL    HW111345   0.195   2.220   1.267
 3482SOL    HW211346   0.180   2.300   1.408
 3483SOL     OW11347   3.920   0.866   1.174
 3483SOL    HW111348   3.967   0.782   1.150
 3483SOL    HW211349   3.823   0.858   1.153
 3484SOL     OW11350   4.012   3.833   3.047
 3484SOL    HW111351   4.063   3.752   3.020
 3484SOL    HW211352   4.029   3.853   3.144
 3485SOL     OW11353   6.223   1.907   4.914
 3485SOL    HW111354   6.294   1.972   4.939
 3485SOL    HW211355   6.241   1.872   4.822
 3486SOL     OW11356   5.744   1.278   3.446
 3486SOL    HW111357   5.749   1.218   3.525
 3486SOL    HW211358   5.753   1.224   3.362
 3487SOL     OW11359   1.317   0.222   0.834
 3487SOL    HW111360   1.332   0.210   0.932
 3487SOL    HW211361   1.226   0.261   0.819
 3488SOL     OW11362   6.360   3.747   5.155
 3488SOL    HW111363   6.413   3.689   5.093
 3488SOL    HW211364   6.269   3.763   5.117
 3489SOL     OW11365   3.356   5.430   6.740
 3489SOL    HW111366   3.424   5.501   6.724
 3489SOL    HW211367   3.327   5.391   6.652
 3490SOL     OW11368   4.675   3.659   0.088
 3490SOL    HW111369   4.652   3.752   0.115
 3490SOL    HW211370   4.684   3.602   0.170
 3491SOL     OW11371   5.372   2.718   5.084
 3491SOL    HW111372   5.432   2.706   5.006
 3491SOL    HW211373   5.277   2.722   5.053
 3492SOL     OW11374   6.513   4.402   6.472
 3492SOL    HW111375   6.489   4.318   6.521
 3492SOL    HW211376   6.564   4.379   6.389
 3493SOL     OW11377   6.309   4.401   1.122
 3493SOL    HW111378   6.233   4.418   1.060
 3493SOL    HW211379   6.356   4.317   1.095
 3494SOL     OW11380   3.527   6.603   1.366
 3494SOL    HW111381   3.524   6.617   1.267
 3494SOL    HW211382   3.437   6.625   1.405
 3495SOL     OW11383   6.160   4.526   6.278
 3495SOL    HW111384   6.123   4.555   6.367
 3495SOL    HW211385   6.090   4.536   6.208
 3496SOL     OW11386   0.433   6.297   0.913
 3496SOL    HW111387   0.425   6.388   0.873
 3496SOL    HW211388   0.343   6.252   0.911
 3497SOL     OW11389   3.080   0.371   5.298
 3497SOL    HW111390   3.173   0.383   5.264
 3497SOL    HW211391   3.083   0.319   5.383
 3498SOL     OW11392   0.766   1.612   0.149
 3498SOL    HW111393   0.727   1.670   0.078
 3498SOL    HW211394   0.766   1.663   0.236
 3499SOL     OW11395   6.600   3.889   4.276
 3499SOL    HW111396   6.620   3.836   4.359
 3499SOL    HW211397   6.636   3.982   4.287
 3500SOL     OW11398   6.060   2.928   0.895
 3500SOL    HW111399   6.108   2.847   0.927
 3500SOL    HW211400   6.006   2.905   0.813
 3501SOL     OW11401   0.383   4.659   3.231
 3501SOL    HW111402   0.345   4.612   3.311
 3501SOL    HW211403   0.366   4.757   3.239
 3502SOL     OW11404   1.034   5.821   0.868
 3502SOL    HW111405   0.977   5.885   0.817
 3502SOL    HW211406   1.000   5.728   0.853
 3503SOL     OW11407   3.267   6.800   3.597
 3503SOL    HW111408   3.346   6.835   3.548
 3503SOL    HW211409   3.191   6.786   3.533
 3504SOL     OW11410   2.191   3.173   2.759
 3504SOL    HW111411   2.264   3.168   2.827
 3504SOL    HW211412   2.121   3.237   2.792
 3505SOL     OW11413   4.375   6.413   4.903
 3505SOL    HW111414   4.381   6.489   4.838
 3505SOL    HW211415   4.455   6.354   4.893
 3506SOL     OW11416   6.983   4.594   2.204
 3506SOL    HW111417   6.993   4.524   2.134
 3506SOL    HW211418   6.914   4.566   2.271
 3507SOL     OW11419   6.788   0.365   6.021
 3507SOL    HW111420   6.775   0.366   6.120
 3507SOL    HW211421   6.737   0.290   5.981
 3508SOL     OW11422   6.498   4.270   6.861
 3508SOL    HW111423   6.480   4.171   6.854
 3508SOL    HW211424   6.585   4.291   6.817
 3509SOL     OW11425   5.203   6.758   6.848
 3509SOL    HW111426   5.135   6.685   6.842
 3509SOL    HW211427   5.222   6.794   6.757
 3510SOL     OW11428   2.297   1.403   2.100
 3510SOL    HW111429   2.373   1.350   2.063
 3510SOL    HW211430   2.330   1.462   2.174
 3511SOL     OW11431   1.263   0.970   4.460
 3511SOL    HW111432   1.359   0.979   4.431
 3511SOL    HW211433   1.234   1.055   4.504
 3512SOL     OW11434   3.897   2.959   1.320
 3512SOL    HW111435   3.974   2.957   1.383
 3512SOL    HW211436   3.842   2.877   1.330
 3513SOL     OW11437   6.412   4.462   1.382
 3513SOL    HW111438   6.418   4.464   1.283
 3513SOL    HW211439   6.455   4.378   1.416
 3514SOL     OW11440   2.618   5.869   2.752
 3514SOL    HW111441   2.563   5.846   2.672
 3514SOL    HW211442   2.575   5.943   2.802
 3515SOL     OW11443   3.837   5.744   3.283
 3515SOL    HW111444   3.842   5.647   3.258
 3515SOL    HW211445   3.758   5.786   3.239
 3516SOL     OW11446   1.484   1.335   0.442
 3516SOL    HW111447   1.508   1.431   0.460
 3516SOL    HW211448   1.385   1.324   0.446
 3517SOL     OW11449   0.240   0.618   6.763
 3517SOL    HW111450   0.218   0.557   6.839
 3517SOL    HW211451   0.252   0.564   6.680
 3518SOL     OW11452   4.070   3.557   6.159
 3518SOL    HW111453   4.055   3.475   6.214
 3518SOL    HW211454   3.990   3.572   6.100
 3519SOL     OW11455   3.398   0.301   0.452
 3519SOL    HW111456   3.485   0.337   0.419
 3519SOL    HW211457   3.324   0.332   0.392
 3520SOL     OW11458   3.675   4.917   1.509
 3520SOL    HW111459   3.753   4.944   1.452
 3520SOL    HW211460   3.590   4.949   1.467
 3521SOL     OW11461   6.771   1.989   5.672
 3521SOL    HW111462   6.869   1.991   5.652
 3521SOL    HW211463   6.723   2.055   5.614
 3522SOL     OW11464   2.445   0.693   0.626
 3522SOL    HW111465   2.460   0.706   0.724
 3522SOL    HW211466   2.487   0.769   0.575
 3523SOL     OW11467   2.336   4.449   5.008
 3523SOL    HW111468   2.315   4.357   4.976
 3523SOL    HW211469   2.295   4.463   5.098
 3524SOL     OW11470   2.872   1.624   3.865
 3524SOL    HW111471   2.899   1.529   3.878
 3524SOL    HW211472   2.918   1.682   3.932
 3525SOL     OW11473   1.713   3.200   3.607
 3525SOL    HW111474   1.806   3.166   3.588
 3525SOL    HW211475   1.674   3.237   3.523
 3526SOL     OW11476   3.521   6.189   3.314
 3526SOL    HW111477   3.479   6.162   3.227
 3526SOL    HW211478   3.614   6.221   3.296
 3527SOL     OW11479   5.726   3.479   0.006
 3527SOL    HW111480   5.676   3.552   6.986
 3527SOL    HW211481   5.773   3.423   6.966
 3528SOL     OW11482   1.425   0.003   4.493
 3528SOL    HW111483   1.506   0.052   4.525
 3528SOL    HW211484   1.366   7.009   4.570
 3529SOL     OW11485   3.875   5.523   0.272
 3529SOL    HW111486   3.907   5.592   0.337
 3529SOL    HW211487   3.947   5.456   0.256
 3530SOL     OW11488   1.846   5.972   3.187
 3530SOL    HW111489   1.788   6.033   3.133
 3530SOL    HW211490   1.792   5.928   3.258
 3531SOL     OW11491   4.794   4.630   6.930
 3531SOL    HW111492   4.876   4.603   6.880
 3531SOL    HW211493   4.718   4.643   6.866
 3532SOL     OW11494   2.660   6.547   0.826
 3532SOL    HW111495   2.613   6.633   0.847
 3532SOL    HW211496   2.732   6.564   0.759
 3533SOL     OW11497   1.915   1.041   3.112
 3533SOL    HW111498   1.965   1.126   3.094
 3533SOL    HW211499   1.885   1.000   3.026
 3534SOL     OW11500   5.250   7.011   4.211
 3534SOL    HW111501   5.212   6.939   4.269
 3534SOL    HW211502   5.185   0.061   4.208
 3535SOL     OW11503   4.669   5.717   0.449
 3535SOL    HW111504   4.708   5.806   0.426
 3535SOL    HW211505   4.740   5.647   0.445
 3536SOL     OW11506   1.536   3.392   2.771
 3536SOL    HW111507   1.616   3.332   2.767
 3536SOL    HW211508   1.462   3.347   2.820
 3537SOL     OW11509   3.150   4.829   2.307
 3537SOL    HW111510   3.162   4.815   2.209
 3537SOL    HW211511   3.079   4.767   2.341
 3538SOL     OW11512   3.962   0.426   3.539
 3538SOL    HW111513   3.909   0.491   3.594
 3538SOL    HW211514   3.964   0.337   3.585
 3539SOL     OW11515   5.019   5.341   5.135
 3539SOL    HW111516   4.978   5.255   5.105
 3539SOL    HW211517   4.998   5.357   5.231
 3540SOL     OW11518   4.466   4.503   6.384
 3540SOL    HW111519   4.453   4.434   6.455
 3540SOL    HW211520   4.563   4.509   6.361
 3541SOL     OW11521   0.447   2.968   2.437
 3541SOL    HW111522   0.515   2.923   2.379
 3541SOL    HW211523   0.494   3.022   2.508
 3542SOL     OW11524   5.758   1.768   6.993
 3542SOL    HW111525   5.669   1.809   7.014
 3542SOL    HW211526   5.786   1.709   0.041
 3543SOL     OW11527   6.923   3.116   3.862
 3543SOL    HW111528   6.857   3.145   3.792
 3543SOL    HW211529   6.926   3.016   3.866
 3544SOL     OW11530   3.045   4.620   6.113
 3544SOL    HW111531   2.946   4.621   6.096
 3544SOL    HW211532   3.063   4.660   6.203
 3545SOL     OW11533   3.220   6.540   1.064
 3545SOL    HW111534   3.182   6.631   1.080
 3545SOL    HW211535   3.152   6.471   1.089
 3546SOL     OW11536   6.395   4.717   1.464
 3546SOL    HW111537   6.493   4.737   1.469
 3546SOL    HW211538   6.381   4.620   1.445
 3547SOL     OW11539   1.082   3.452   4.495
 3547SOL    HW111540   1.043   3.401   4.572
 3547SOL    HW211541   1.138   3.528   4.529
 3548SOL     OW11542   6.357   0.462   5.800
 3548SOL    HW111543   6.289   0.398   5.764
 3548SOL    HW211544   6.434   0.468   5.737
 3549SOL     OW11545   2.398   0.017   6.879
 3549SOL    HW111546   2.376   0.014   6.781
 3549SOL    HW211547   2.379   6.955   6.920
 3550SOL     OW11548   5.651   1.804   5.709
 3550SOL    HW111549   5.710   1.844   5.779
 3550SOL    HW211550   5.698   1.808   5.621
 3551SOL     OW11551   5.922   1.346   4.857
 3551SOL    HW111552   5.913   1.303   4.947
 3551SOL    HW211553   5.860   1.424   4.851
 3552SOL     OW11554   6.867   0.656   3.109
 3552SOL    HW111555   6.954   0.608   3.111
 3552SOL    HW211556   6.845   0.690   3.201
 3553SOL     OW11557   5.726   6.301   6.396
 3553SOL    HW111558   5.810   6.317   6.448
 3553SOL    HW211559   5.647   6.309   6.457
 3554SOL     OW11560   5.259   4.305   6.072
 3554SOL    HW111561   5.336   4.369   6.065
 3554SOL    HW211562   5.292   4.213   6.089
 3555SOL     OW11563   2.598   1.453   5.554
 3555SOL    HW111564   2.648   1.524   5.603
 3555SOL    HW211565   2.563   1.490   5.468
 3556SOL     OW11566   5.875   1.522   0.555
 3556SOL    HW111567   5.898   1.467   0.635
 3556SOL    HW211568   5.792   1.575   0.574
 3557SOL     OW11569   4.827   6.373   1.615
 3557SOL    HW111570   4.903   6.308   1.612
 3557SOL    HW211571   4.751   6.337   1.561
 3558SOL     OW11572   4.328   5.697   2.305
 3558SOL    HW111573   4.312   5.682   2.208
 3558SOL    HW211574   4.318   5.610   2.354
 3559SOL     OW11575   4.100   6.422   5.996
 3559SOL    HW111576   4.008   6.412   5.958
 3559SOL    HW211577   4.109   6.364   6.077
 3560SOL     OW11578   2.004   5.946   4.646
 3560SOL    HW111579   2.073   5.942   4.719
 3560SOL    HW211580   2.023   5.874   4.579
 3561SOL     OW11581   3.811   3.176   6.103
 3561SOL    HW111582   3.852   3.267   6.095
 3561SOL    HW211583   3.879   3.106   6.080
 3562SOL     OW11584   3.109   1.073   0.677
 3562SOL    HW111585   3.088   1.005   0.607
 3562SOL    HW211586   3.205   1.064   0.705
 3563SOL     OW11587   0.207   2.251   0.034
 3563SOL    HW111588   0.286   2.291   7.014
 3563SOL    HW211589   0.199   2.291   0.125
 3564SOL     OW11590   6.254   3.505   3.183
 3564SOL    HW111591   6.154   3.503   3.176
 3564SOL    HW211592   6.293   3.521   3.092
 3565SOL     OW11593   5.013   6.645   4.777
 3565SOL    HW111594   5.010   6.742   4.752
 3565SOL    HW211595   4.921   6.615   4.803
 3566SOL     OW11596   0.762   1.120   5.790
 3566SOL    HW111597   0.830   1.168   5.735
 3566SOL    HW211598   0.806   1.080   5.871
 3567SOL     OW11599   0.425   4.793   6.943
 3567SOL    HW111600   0.339   4.751   6.970
 3567SOL    HW211601   0.493   4.721   6.924
 3568SOL     OW11602   3.702   4.443   5.393
 3568SOL    HW111603   3.762   4.399   5.326
 3568SOL    HW211604   3.728   4.539   5.401
 3569SOL     OW11605   1.782   0.643   3.055
 3569SOL    HW111606   1.812   0.720   2.999
 3569SOL    HW211607   1.812   0.558   3.013
 3570SOL     OW11608   6.558   1.767   4.366
 3570SOL    HW111609   6.615   1.795   4.288
 3570SOL    HW211610   6.541   1.845   4.424
 3571SOL     OW11611   6.444   5.452   4.303
 3571SOL    HW111612   6.521   5.504   4.342
 3571SOL    HW211613   6.449   5.357   4.334
 3572SOL     OW11614   5.828   6.847   5.474
 3572SOL    HW111615   5.780   6.888   5.551
 3572SOL    HW211616   5.902   6.789   5.508
 3573SOL     OW11617   0.477   2.308   1.476
 3573SOL    HW111618   0.495   2.223   1.526
 3573SOL    HW211619   0.382   2.307   1.443
 3574SOL     OW11620   6.476   3.629   0.289
 3574SOL    HW111621   6.523   3.671   0.367
 3574SOL    HW211622   6.439   3.540   0.316
 3575SOL     OW11623   6.321   0.278   2.213
 3575SOL    HW111624   6.381   0.212   2.259
 3575SOL    HW211625   6.227   0.245   2.218
 3576SOL     OW11626   0.419   0.904   0.451
 3576SOL    HW111627   0.345   0.863   0.503
 3576SOL    HW211628   0.439   0.849   0.370
 3577SOL     OW11629   2.431   4.598   6.986
 3577SOL    HW111630   2.467   4.517   0.004
 3577SOL    HW211631   2.474   4.608   6.896
 3578SOL     OW11632   3.373   4.495   1.654
 3578SOL    HW111633   3.445   4.549   1.700
 3578SOL    HW211634   3.287   4.505   1.704
 3579SOL     OW11635   1.632   3.609   5.547
 3579SOL    HW111636   1.623   3.701   5.510
 3579SOL    HW211637   1.601   3.608   5.643
 3580SOL     OW11638   5.848   2.077   1.030
 3580SOL    HW111639   5.873   1.980   1.028
 3580SOL    HW211640   5.783   2.096   0.957
 3581SOL     OW11641   0.005   0.981   2.843
 3581SOL    HW111642   6.979   0.951   2.764
 3581SOL    HW211643   6.995   1.067   2.877
 3582SOL     OW11644   0.447   6.958   5.839
 3582SOL    HW111645   0.352   6.929   5.839
 3582SOL    HW211646   0.507   6.878   5.837
 3583SOL     OW11647   1.002   5.842   1.618
 3583SOL    HW111648   1.049   5.911   1.562
 3583SOL    HW211649   0.972   5.883   1.704
 3584SOL     OW11650   5.619   0.605   5.029
 3584SOL    HW111651   5.521   0.622   5.038
 3584SOL    HW211652   5.636   0.507   5.028
 3585SOL     OW11653   2.539   4.673   3.634
 3585SOL    HW111654   2.491   4.754   3.667
 3585SOL    HW211655   2.520   4.596   3.694
 3586SOL     OW11656   1.124   1.179   6.467
 3586SOL    HW111657   1.187   1.180   6.545
 3586SOL    HW211658   1.116   1.086   6.432
 3587SOL     OW11659   3.635   6.699   6.297
 3587SOL    HW111660   3.663   6.785   6.338
 3587SOL    HW211661   3.535   6.698   6.287
 3588SOL     OW11662   2.661   2.507   5.574
 3588SOL    HW111663   2.615   2.457   5.501
 3588SOL    HW211664   2.594   2.561   5.624
 3589SOL     OW11665   3.092   6.320   4.986
 3589SOL    HW111666   3.043   6.407   4.975
 3589SOL    HW211667   3.087   6.269   4.900
 3590SOL     OW11668   1.550   5.382   6.834
 3590SOL    HW111669   1.475   5.358   6.772
 3590SOL    HW211670   1.610   5.302   6.846
 3591SOL     OW11671   5.124   1.082   5.375
 3591SOL    HW111672   5.169   1.165   5.343
 3591SOL    HW211673   5.053   1.056   5.310
 3592SOL     OW11674   5.761   1.898   2.050
 3592SOL    HW111675   5.774   1.919   2.147
 3592SOL    HW211676   5.727   1.805   2.041
 3593SOL     OW11677   1.010   5.431   4.193
 3593SOL    HW111678   1.058   5.507   4.148
 3593SOL    HW211679   0.985   5.458   4.286
 3594SOL     OW11680   4.016   1.397   4.155
 3594SOL    HW111681   4.102   1.397   4.104
 3594SOL    HW211682   3.940   1.393   4.090
 3595SOL     OW11683   2.397   6.609   6.119
 3595SOL    HW111684   2.370   6.564   6.034
 3595SOL    HW211685   2.315   6.630   6.173
 3596SOL     OW11686   0.017   3.650   3.239
 3596SOL    HW111687   0.110   3.679   3.218
 3596SOL    HW211688   7.016   3.577   3.176
 3597SOL     OW11689   4.022   0.096   4.395
 3597SOL    HW111690   3.932   0.062   4.422
 3597SOL    HW211691   4.092   0.027   4.414
 3598SOL     OW11692   1.673   0.320   0.033
 3598SOL    HW111693   1.728   0.246   7.022
 3598SOL    HW211694   1.732   0.383   0.084
 3599SOL     OW11695   0.232   1.766   4.680
 3599SOL    HW111696   0.167   1.692   4.700
 3599SOL    HW211697   0.308   1.763   4.745
 3600SOL     OW11698   6.404   6.784   1.093
 3600SOL    HW111699   6.368   6.746   1.179
 3600SOL    HW211700   6.459   6.714   1.047
 3601SOL     OW11701   6.752   3.718   6.175
 3601SOL    HW111702   6.769   3.814   6.201
 3601SOL    HW211703   6.840   3.673   6.159
 3602SOL     OW11704   3.170   2.221   0.990
 3602SOL    HW111705   3.172   2.307   1.042
 3602SOL    HW211706   3.262   2.181   0.989
 3603SOL     OW11707   3.679   5.056   4.731
 3603SOL    HW111708   3.759   5.015   4.687
 3603SOL    HW211709   3.598   5.039   4.675
 3604SOL     OW11710   6.182   4.003   3.253
 3604SOL    HW111711   6.123   4.028   3.176
 3604SOL    HW211712   6.152   4.050   3.335
 3605SOL     OW11713   6.192   1.740   6.526
 3605SOL    HW111714   6.124   1.693   6.584
 3605SOL    HW211715   6.199   1.692   6.439
 3606SOL     OW11716   2.209   4.167   2.903
 3606SOL    HW111717   2.165   4.082   2.875
 3606SOL    HW211718   2.230   4.162   3.001
 3607SOL     OW11719   4.514   6.960   6.116
 3607SOL    HW111720   4.493   6.865   6.090
 3607SOL    HW211721   4.519   6.967   6.216
 3608SOL     OW11722   0.691   2.992   3.102
 3608SOL    HW111723   0.641   3.012   3.186
 3608SOL    HW211724   0.789   3.008   3.116
 3609SOL     OW11725   0.082   0.360   3.753
 3609SOL    HW111726   0.173   0.358   3.794
 3609SOL    HW211727   0.034   0.442   3.785
 3610SOL     OW11728   1.455   5.267   5.764
 3610SOL    HW111729   1.551   5.246   5.745
 3610SOL    HW211730   1.421   5.333   5.697
 3611SOL     OW11731   5.219   5.591   5.704
 3611SOL    HW111732   5.316   5.603   5.681
 3611SOL    HW211733   5.162   5.624   5.629
 3612SOL     OW11734   2.258   5.949   0.734
 3612SOL    HW111735   2.181   6.010   0.753
 3612SOL    HW211736   2.224   5.858   0.711
 3613SOL     OW11737   5.323   5.237   6.505
 3613SOL    HW111738   5.398   5.184   6.466
 3613SOL    HW211739   5.236   5.196   6.481
 3614SOL     OW11740   3.616   3.033   4.215
 3614SOL    HW111741   3.579   2.962   4.155
 3614SOL    HW211742   3.548   3.105   4.229
 3615SOL     OW11743   5.086   6.855   5.805
 3615SOL    HW111744   5.161   6.837   5.869
 3615SOL    HW211745   5.032   6.773   5.793
 3616SOL     OW11746   6.239   0.773   4.608
 3616SOL    HW111747   6.204   0.700   4.666
 3616SOL    HW211748   6.317   0.817   4.652
 3617SOL     OW11749   0.197   1.113   0.428
 3617SOL    HW111750   0.262   1.041   0.406
 3617SOL    HW211751   0.239   1.203   0.411
 3618SOL     OW11752   3.248   6.300   6.449
 3618SOL    HW111753   3.148   6.295   6.440
 3618SOL    HW211754   3.283   6.371   6.387
 3619SOL     OW11755   5.291   3.683   3.642
 3619SOL    HW111756   5.280   3.584   3.655
 3619SOL    HW211757   5.210   3.719   3.595
 3620SOL     OW11758   6.033   1.641   5.124
 3620SOL    HW111759   6.013   1.615   5.030
 3620SOL    HW211760   6.038   1.559   5.181
 3621SOL     OW11761   1.420   2.521   5.415
 3621SOL    HW111762   1.452   2.614   5.437
 3621SOL    HW211763   1.448   2.498   5.322
 3622SOL     OW11764   0.802   4.002   0.836
 3622SOL    HW111765   0.856   3.976   0.916
 3622SOL    HW211766   0.713   3.956   0.839
 3623SOL     OW11767   6.500   4.883   4.285
 3623SOL    HW111768   6.585   4.893   4.336
 3623SOL    HW211769   6.496   4.792   4.244
 3624SOL     OW11770   2.338   0.529   1.298
 3624SOL    HW111771   2.289   0.614   1.310
 3624SOL    HW211772   2.435   0.542   1.320
 3625SOL     OW11773   1.045   2.685   4.262
 3625SOL    HW111774   1.037   2.606   4.201
 3625SOL    HW211775   1.141   2.703   4.281
 3626SOL     OW11776   2.612   4.127   5.743
 3626SOL    HW111777   2.618   4.039   5.695
 3626SOL    HW211778   2.668   4.124   5.826
 3627SOL     OW11779   3.560   3.268   3.865
 3627SOL    HW111780   3.527   3.308   3.951
 3627SOL    HW211781   3.580   3.171   3.879
 3628SOL     OW11782   2.211   6.080   4.143
 3628SOL    HW111783   2.114   6.056   4.137
 3628SOL    HW211784   2.223   6.154   4.210
 3629SOL     OW11785   5.904   3.335   5.319
 3629SOL    HW111786   5.940   3.242   5.316
 3629SOL    HW211787   5.818   3.338   5.268
 3630SOL     OW11788   5.441   1.206   5.031
 3630SOL    HW111789   5.478   1.143   4.962
 3630SOL    HW211790   5.511   1.270   5.060
 3631SOL     OW11791   2.157   0.883   4.065
 3631SOL    HW111792   2.196   0.974   4.055
 3631SOL    HW211793   2.060   0.891   4.087
 3632SOL     OW11794   4.638   6.519   6.178
 3632SOL    HW111795   4.606   6.473   6.095
 3632SOL    HW211796   4.700   6.458   6.227
 3633SOL     OW11797   1.226   2.330   5.414
 3633SOL    HW111798   1.230   2.237   5.451
 3633SOL    HW211799   1.308   2.380   5.441
 3634SOL     OW11800   3.204   4.939   5.988
 3634SOL    HW111801   3.215   5.038   5.991
 3634SOL    HW211802   3.182   4.911   5.894
 3635SOL     OW11803   2.299   1.664   4.901
 3635SOL    HW111804   2.263   1.627   4.987
 3635SOL    HW211805   2.280   1.600   4.826
 3636SOL     OW11806   1.491   6.299   1.018
 3636SOL    HW111807   1.437   6.369   1.065
 3636SOL    HW211808   1.436   6.217   1.004
 3637SOL     OW11809   4.720   0.856   1.873
 3637SOL    HW111810   4.756   0.769   1.908
 3637SOL    HW211811   4.782   0.930   1.900
 3638SOL     OW11812   6.285   4.883   3.427
 3638SOL    HW111813   6.195   4.886   3.385
 3638SOL    HW211814   6.344   4.952   3.385
 3639SOL     OW11815   2.909   6.596   0.204
 3639SOL    HW111816   2.986   6.651   0.172
 3639SOL    HW211817   2.823   6.640   0.179
 3640SOL     OW11818   2.335   0.253   1.793
 3640SOL    HW111819   2.410   0.308   1.757
 3640SOL    HW211820   2.299   0.195   1.721
 3641SOL     OW11821   2.178   0.652   4.806
 3641SOL    HW111822   2.151   0.604   4.890
 3641SOL    HW211823   2.097   0.686   4.759
 3642SOL     OW11824   6.142   6.705   2.108
 3642SOL    HW111825   6.044   6.684   2.109
 3642SOL    HW211826   6.175   6.704   2.014
 3643SOL     OW11827   3.805   6.008   4.751
 3643SOL    HW111828   3.819   5.925   4.805
 3643SOL    HW211829   3.869   6.079   4.781
 3644SOL     OW11830   6.342   0.019   1.601
 3644SOL    HW111831   6.311   0.013   1.506
 3644SOL    HW211832   6.304   0.101   1.643
 3645SOL     OW11833   4.565   5.836   2.995
 3645SOL    HW111834   4.552   5.809   2.899
 3645SOL    HW211835   4.523   5.925   3.010
 3646SOL     OW11836   0.291   5.216   4.885
 3646SOL    HW111837   0.373   5.231   4.941
 3646SOL    HW211838   0.290   5.121   4.852
 3647SOL     OW11839   2.936   2.925   1.061
 3647SOL    HW111840   2.960   2.952   1.154
 3647SOL    HW211841   2.840   2.895   1.059
 3648SOL     OW11842   2.877   0.017   3.155
 3648SOL    HW111843   2.948   7.005   3.214
 3648SOL    HW211844   2.805   0.057   3.210
 3649SOL     OW11845   3.129   3.030   1.912
 3649SOL    HW111846   3.045   3.080   1.888
 3649SOL    HW211847   3.130   3.013   2.010
 3650SOL     OW11848   5.714   6.939   1.323
 3650SOL    HW111849   5.643   6.961   1.256
 3650SOL    HW211850   5.803   6.932   1.276
 3651SOL     OW11851   1.539   6.346   2.321
 3651SOL    HW111852   1.518   6.331   2.418
 3651SOL    HW211853   1.483   6.422   2.287
 3652SOL     OW11854   4.777   5.347   2.811
 3652SOL    HW111855   4.774   5.253   2.775
 3652SOL    HW211856   4.865   5.362   2.856
 3653SOL     OW11857   6.481   2.658   4.684
 3653SOL    HW111858   6.573   2.689   4.708
 3653SOL    HW211859   6.443   2.718   4.614
 3654SOL     OW11860   1.883   0.113   1.966
 3654SOL    HW111861   1.810   0.181   1.960
 3654SOL    HW211862   1.926   0.101   1.876
 3655SOL     OW11863   6.488   1.545   3.439
 3655SOL    HW111864   6.432   1.464   3.425
 3655SOL    HW211865   6.567   1.542   3.379
 3656SOL     OW11866   2.450   1.761   2.938
 3656SOL    HW111867   2.422   1.806   3.023
 3656SOL    HW211868   2.529   1.703   2.955
 3657SOL     OW11869   4.484   5.454   2.173
 3657SOL    HW111870   4.408   5.480   2.231
 3657SOL    HW211871   4.455   5.382   2.109
 3658SOL     OW11872   2.325   5.398   5.786
 3658SOL    HW111873   2.307   5.363   5.694
 3658SOL    HW211874   2.275   5.344   5.853
 3659SOL     OW11875   1.271   3.672   0.239
 3659SOL    HW111876   1.285   3.597   0.175
 3659SOL    HW211877   1.176   3.671   0.271
 3660SOL     OW11878   4.018   4.555   1.048
 3660SOL    HW111879   4.037   4.639   1.099
 3660SOL    HW211880   4.045   4.568   0.952
 3661SOL     OW11881   5.554   1.691   1.288
 3661SOL    HW111882   5.465   1.664   1.324
 3661SOL    HW211883   5.563   1.791   1.294
 3662SOL     OW11884   1.535   6.048   4.629
 3662SOL    HW111885   1.524   6.089   4.538
 3662SOL    HW211886   1.571   6.117   4.692
 3663SOL     OW11887   1.328   3.353   5.667
 3663SOL    HW111888   1.393   3.406   5.722
 3663SOL    HW211889   1.362   3.346   5.573
 3664SOL     OW11890   3.594   6.853   2.354
 3664SOL    HW111891   3.623   6.784   2.287
 3664SOL    HW211892   3.498   6.838   2.378
 3665SOL     OW11893   1.832   1.348   5.619
 3665SOL    HW111894   1.829   1.413   5.695
 3665SOL    HW211895   1.769   1.379   5.547
 3666SOL     OW11896   1.324   4.604   3.770
 3666SOL    HW111897   1.329   4.703   3.757
 3666SOL    HW211898   1.233   4.572   3.742
 3667SOL     OW11899   0.785   1.447   6.721
 3667SOL    HW111900   0.750   1.507   6.650
 3667SOL    HW211901   0.879   1.472   6.744
 3668SOL     OW11902   2.046   6.940   2.069
 3668SOL    HW111903   1.989   6.860   2.086
 3668SOL    HW211904   2.005   6.996   1.997
 3669SOL     OW11905   5.348   1.686   4.189
 3669SOL    HW111906   5.319   1.681   4.094
 3669SOL    HW211907   5.280   1.738   4.242
 3670SOL     OW11908   2.477   5.649   6.358
 3670SOL    HW111909   2.563   5.701   6.355
 3670SOL    HW211910   2.478   5.588   6.437
 3671SOL     OW11911   2.289   0.658   3.749
 3671SOL    HW111912   2.273   0.757   3.747
 3671SOL    HW211913   2.384   0.639   3.723
 3672SOL     OW11914   6.386   0.096   0.491
 3672SOL    HW111915   6.402   0.169   0.424
 3672SOL    HW211916   6.449   0.020   0.473
 3673SOL     OW11917   4.539   0.055   6.414
 3673SOL    HW111918   4.495   0.128   6.465
 3673SOL    HW211919   4.476   7.005   6.405
 3674SOL     OW11920   1.002   6.068   0.507
 3674SOL    HW111921   0.957   6.021   0.583
 3674SOL    HW211922   1.040   6.154   0.539
 3675SOL     OW11923   2.285   2.293   4.315
 3675SOL    HW111924   2.303   2.391   4.304
 3675SOL    HW211925   2.265   2.274   4.412
 3676SOL     OW11926   1.381   4.822   2.599
 3676SOL    HW111927   1.478   4.800   2.606
 3676SOL    HW211928   1.338   4.815   2.690
 3677SOL     OW11929   6.116   0.282   3.770
 3677SOL    HW111930   6.037   0.304   3.827
 3677SOL    HW211931   6.089   0.284   3.674
 3678SOL     OW11932   1.159   1.867   3.863
 3678SOL    HW111933   1.256   1.890   3.858
 3678SOL    HW211934   1.142   1.816   3.948
 3679SOL     OW11935   6.938   0.582   1.606
 3679SOL    HW111936   6.855   0.569   1.658
 3679SOL    HW211937   7.012   0.612   1.667
 3680SOL     OW11938   5.854   4.300   4.818
 3680SOL    HW111939   5.833   4.370   4.886
 3680SOL    HW211940   5.776   4.288   4.757
 3681SOL     OW11941   5.298   6.280   4.438
 3681SOL    HW111942   5.342   6.318   4.357
 3681SOL    HW211943   5.345   6.196   4.466
 3682SOL     OW11944   0.688   2.535   6.862
 3682SOL    HW111945   0.594   2.569   6.852
 3682SOL    HW211946   0.722   2.506   6.772
 3683SOL     OW11947   5.272   6.433   3.345
 3683SOL    HW111948   5.248   6.342   3.311
 3683SOL    HW211949   5.365   6.456   3.315
 3684SOL     OW11950   1.921   3.476   1.034
 3684SOL    HW111951   1.957   3.536   0.963
 3684SOL    HW211952   1.918   3.382   1.000
 3685SOL     OW11953   5.568   6.961   6.404
 3685SOL    HW111954   5.488   7.001   6.450
 3685SOL    HW211955   5.554   6.863   6.392
 3686SOL     OW11956   6.999   4.285   1.113
 3686SOL    HW111957   6.973   4.219   1.042
 3686SOL    HW211958   7.015   4.374   1.071
 3687SOL     OW11959   3.914   1.462   0.222
 3687SOL    HW111960   3.984   1.399   0.256
 3687SOL    HW211961   3.950   1.514   0.145
 3688SOL     OW11962   6.739   3.455   0.200
 3688SOL    HW111963   6.695   3.371   0.169
 3688SOL    HW211964   6.670   3.523   0.223
 3689SOL     OW11965   2.093   6.813   3.512
 3689SOL    HW111966   2.009   6.850   3.471
 3689SOL    HW211967   2.079   6.715   3.530
 3690SOL     OW11968   4.552   5.542   4.861
 3690SOL    HW111969   4.597   5.618   4.813
 3690SOL    HW211970   4.465   5.521   4.815
 3691SOL     OW11971   3.169   3.050   6.222
 3691SOL    HW111972   3.228   2.976   6.255
 3691SOL    HW211973   3.076   3.034   6.255
 3692SOL     OW11974   0.138   6.927   5.855
 3692SOL    HW111975   0.066   6.921   5.924
 3692SOL    HW211976   0.165   7.023   5.844
 3693SOL     OW11977   1.819   1.317   3.444
 3693SOL    HW111978   1.902   1.356   3.404
 3693SOL    HW211979   1.821   1.331   3.543
 3694SOL     OW11980   2.043   5.577   3.078
 3694SOL    HW111981   2.017   5.665   3.037
 3694SOL    HW211982   2.034   5.583   3.177
 3695SOL     OW11983   1.606   2.229   1.092
 3695SOL    HW111984   1.694   2.182   1.091
 3695SOL    HW211985   1.532   2.161   1.090
 3696SOL     OW11986   3.086   6.328   5.639
 3696SOL    HW111987   3.025   6.333   5.718
 3696SOL    HW211988   3.180   6.315   5.671
 3697SOL     OW11989   5.145   0.507   3.969
 3697SOL    HW111990   5.083   0.473   3.898
 3697SOL    HW211991   5.182   0.430   4.020
 3698SOL     OW11992   3.804   0.285   6.730
 3698SOL    HW111993   3.743   0.360   6.703
 3698SOL    HW211994   3.896   0.322   6.747
 3699SOL     OW11995   0.830   4.964   1.556
 3699SOL    HW111996   0.838   5.063   1.551
 3699SOL    HW211997   0.856   4.933   1.648
 3700SOL     OW11998   6.974   0.577   3.826
 3700SOL    HW111999   0.012   0.651   3.806
 3700SOL    HW212000   6.891   0.590   3.773
 3701SOL     OW12001   5.437   0.586   3.952
 3701SOL    HW112002   5.422   0.586   3.854
 3701SOL    HW212003   5.349   0.597   3.999
 3702SOL     OW12004   5.216   0.981   6.309
 3702SOL    HW112005   5.122   0.993   6.343
 3702SOL    HW212006   5.236   1.054   6.243
 3703SOL     OW12007   3.442   4.706   0.872
 3703SOL    HW112008   3.349   4.689   0.905
 3703SOL    HW212009   3.442   4.707   0.772
 3704SOL     OW12010   3.058   6.610   1.678
 3704SOL    HW112011   3.141   6.657   1.710
 3704SOL    HW212012   3.046   6.627   1.580
 3705SOL     OW12013   6.632   1.392   4.230
 3705SOL    HW112014   6.574   1.331   4.176
 3705SOL    HW212015   6.634   1.361   4.325
 3706SOL     OW12016   3.123   2.149   3.246
 3706SOL    HW112017   3.181   2.072   3.220
 3706SOL    HW212018   3.093   2.137   3.341
 3707SOL     OW12019   4.276   2.408   5.484
 3707SOL    HW112020   4.243   2.449   5.569
 3707SOL    HW212021   4.201   2.358   5.440
 3708SOL     OW12022   6.738   0.262   6.689
 3708SOL    HW112023   6.794   0.186   6.658
 3708SOL    HW212024   6.770   0.347   6.646
 3709SOL     OW12025   6.200   0.134   0.169
 3709SOL    HW112026   6.186   0.102   0.075
 3709SOL    HW212027   6.287   0.184   0.174
 3710SOL     OW12028   0.272   4.552   0.243
 3710SOL    HW112029   0.260   4.604   0.159
 3710SOL    HW212030   0.268   4.454   0.224
 3711SOL     OW12031   6.743   5.283   2.401
 3711SOL    HW112032   6.748   5.231   2.315
 3711SOL    HW212033   6.728   5.220   2.477
 3712SOL     OW12034   1.466   0.530   6.700
 3712SOL    HW112035   1.465   0.434   6.730
 3712SOL    HW212036   1.520   0.584   6.765
 3713SOL     OW12037   4.138   4.842   5.770
 3713SOL    HW112038   4.213   4.778   5.786
 3713SOL    HW212039   4.167   4.935   5.792
 3714SOL     OW12040   4.559   1.606   5.177
 3714SOL    HW112041   4.572   1.704   5.194
 3714SOL    HW212042   4.478   1.593   5.119
 3715SOL     OW12043   5.336   4.055   4.109
 3715SOL    HW112044   5.343   4.148   4.073
 3715SOL    HW212045   5.255   4.011   4.070
 3716SOL     OW12046   0.529   1.422   4.290
 3716SOL    HW112047   0.505   1.415   4.193
 3716SOL    HW212048   0.471   1.361   4.344
 3717SOL     OW12049   5.956   0.811   6.994
 3717SOL    HW112050   5.911   0.761   6.920
 3717SOL    HW212051   5.992   0.897   6.959
 3718SOL     OW12052   0.536   5.674   6.761
 3718SOL    HW112053   0.450   5.659   6.811
 3718SOL    HW212054   0.562   5.591   6.714
 3719SOL     OW12055   3.301   4.890   0.397
 3719SOL    HW112056   3.220   4.913   0.342
 3719SOL    HW212057   3.369   4.962   0.387
 3720SOL     OW12058   0.067   1.180   5.705
 3720SOL    HW112059   0.032   1.195   5.798
 3720SOL    HW212060   0.151   1.126   5.710
 3721SOL     OW12061   4.791   3.417   0.323
 3721SOL    HW112062   4.883   3.387   0.348
 3721SOL    HW212063   4.764   3.494   0.381
 3722SOL     OW12064   5.660   5.994   1.287
 3722SOL    HW112065   5.611   6.066   1.237
 3722SOL    HW212066   5.635   5.905   1.250
 3723SOL     OW12067   4.962   0.892   0.317
 3723SOL    HW112068   4.880   0.948   0.301
 3723SOL    HW212069   4.951   0.804   0.272
 3724SOL     OW12070   0.377   4.598   5.697
 3724SOL    HW112071   0.304   4.666   5.702
 3724SOL    HW212072   0.457   4.633   5.746
 3725SOL     OW12073   5.863   6.103   0.763
 3725SOL    HW112074   5.780   6.056   0.731
 3725SOL    HW212075   5.919   6.128   0.685
 3726SOL     OW12076   6.359   2.597   1.349
 3726SOL    HW112077   6.430   2.661   1.379
 3726SOL    HW212078   6.293   2.583   1.423
 3727SOL     OW12079   2.584   2.839   5.388
 3727SOL    HW112080   2.553   2.914   5.329
 3727SOL    HW212081   2.682   2.850   5.406
 3728SOL     OW12082   0.539   3.496   0.060
 3728SOL    HW112083   0.601   3.496   0.138
 3728SOL    HW212084   0.579   3.553   7.014
 3729SOL     OW12085   0.583   3.111   3.959
 3729SOL    HW112086   0.633   3.127   3.874
 3729SOL    HW212087   0.535   3.024   3.954
 3730SOL     OW12088   1.936   0.392   0.752
 3730SOL    HW112089   1.973   0.425   0.665
 3730SOL    HW212090   2.011   0.365   0.812
 3731SOL     OW12091   3.170   5.365   6.524
 3731SOL    HW112092   3.089   5.424   6.520
 3731SOL    HW212093   3.147   5.281   6.572
 3732SOL     OW12094   2.074   3.563   4.563
 3732SOL    HW112095   2.107   3.573   4.469
 3732SOL    HW212096   2.074   3.652   4.609
 3733SOL     OW12097   3.269   3.685   1.020
 3733SOL    HW112098   3.293   3.591   1.043
 3733SOL    HW212099   3.295   3.704   0.925
 3734SOL     OW12100   4.724   0.074   3.788
 3734SOL    HW112101   4.674   0.109   3.867
 3734SOL    HW212102   4.720   7.000   3.789
 3735SOL     OW12103   3.478   2.026   1.925
 3735SOL    HW112104   3.414   2.037   2.002
 3735SOL    HW212105   3.557   2.087   1.938
 3736SOL     OW12106   4.951   0.827   5.714
 3736SOL    HW112107   5.037   0.813   5.665
 3736SOL    HW212108   4.951   0.774   5.798
 3737SOL     OW12109   3.721   6.611   4.159
 3737SOL    HW112110   3.767   6.567   4.082
 3737SOL    HW212111   3.643   6.554   4.187
 3738SOL     OW12112   6.986   0.171   4.541
 3738SOL    HW112113   0.036   0.194   4.483
 3738SOL    HW212114   6.904   0.221   4.510
 3739SOL     OW12115   0.849   3.240   1.349
 3739SOL    HW112116   0.889   3.307   1.412
 3739SOL    HW212117   0.845   3.279   1.257
 3740SOL     OW12118   5.641   0.242   6.806
 3740SOL    HW112119   5.739   0.224   6.814
 3740SOL    HW212120   5.592   0.187   6.873
 3741SOL     OW12121   3.140   2.161   6.747
 3741SOL    HW112122   3.054   2.149   6.797
 3741SOL    HW212123   3.213   2.113   6.794
 3742SOL     OW12124   3.443   3.522   5.655
 3742SOL    HW112125   3.404   3.597   5.709
 3742SOL    HW212126   3.370   3.459   5.627
 3743SOL     OW12127   1.024   5.871   6.019
 3743SOL    HW112128   1.122   5.864   5.997
 3743SOL    HW212129   1.006   5.827   6.106
 3744SOL     OW12130   6.479   5.598   3.035
 3744SOL    HW112131   6.558   5.650   3.003
 3744SOL    HW212132   6.473   5.512   2.985
 3745SOL     OW12133   5.163   5.095   1.886
 3745SOL    HW112134   5.205   5.123   1.973
 3745SOL    HW212135   5.087   5.155   1.865
 3746SOL     OW12136   4.286   1.300   1.698
 3746SOL    HW112137   4.295   1.222   1.760
 3746SOL    HW212138   4.354   1.293   1.626
 3747SOL     OW12139   2.934   0.529   0.745
 3747SOL    HW112140   2.915   0.623   0.770
 3747SOL    HW212141   3.024   0.502   0.779
 3748SOL     OW12142   5.070   0.494   1.632
 3748SOL    HW112143   5.086   0.417   1.571
 3748SOL    HW212144   5.153   0.550   1.637
 3749SOL     OW12145   1.523   1.071   4.082
 3749SOL    HW112146   1.475   1.041   4.000
 3749SOL    HW212147   1.519   1.171   4.089
 3750SOL     OW12148   0.126   4.071   6.377
 3750SOL    HW112149   0.221   4.100   6.391
 3750SOL    HW212150   0.097   4.095   6.285
 3751SOL     OW12151   1.776   4.918   1.251
 3751SOL    HW112152   1.714   4.966   1.314
 3751SOL    HW212153   1.807   4.982   1.181
 3752SOL     OW12154   5.028   5.710   6.870
 3752SOL    HW112155   4.951   5.670   6.920
 3752SOL    HW212156   5.016   5.696   6.772
 3753SOL     OW12157   0.134   0.194   3.235
 3753SOL    HW112158   0.150   0.114   3.293
 3753SOL    HW212159   0.215   0.213   3.181
 3754SOL     OW12160   3.000   1.133   1.540
 3754SOL    HW112161   2.936   1.187   1.595
 3754SOL    HW212162   3.085   1.184   1.528
 3755SOL     OW12163   2.273   5.855   4.332
 3755SOL    HW112164   2.296   5.926   4.266
 3755SOL    HW212165   2.337   5.859   4.409
 3756SOL     OW12166   1.433   6.985   0.759
 3756SOL    HW112167   1.381   0.043   0.763
 3756SOL    HW212168   1.378   6.910   0.797
 3757SOL     OW12169   0.242   4.274   0.464
 3757SOL    HW112170   0.253   4.174   0.466
 3757SOL    HW212171   0.197   4.301   0.379
 3758SOL     OW12172   1.540   6.931   4.039
 3758SOL    HW112173   1.572   7.021   4.010
 3758SOL    HW212174   1.449   6.914   4.000
 3759SOL     OW12175   4.981   0.374   3.758
 3759SOL    HW112176   5.014   0.280   3.768
 3759SOL    HW212177   4.977   0.399   3.662
 3760SOL     OW12178   1.019   1.044   3.247
 3760SOL    HW112179   0.989   0.978   3.177
 3760SOL    HW212180   1.115   1.026   3.270
 3761SOL     OW12181   4.838   1.569   5.506
 3761SOL    HW112182   4.823   1.661   5.543
 3761SOL    HW212183   4.753   1.534   5.468
 3762SOL     OW12184   0.658   2.282   4.034
 3762SOL    HW112185   0.706   2.366   4.057
 3762SOL    HW212186   0.620   2.240   4.117
 3763SOL     OW12187   0.581   5.467   6.583
 3763SOL    HW112188   0.486   5.485   6.561
 3763SOL    HW212189   0.637   5.480   6.501
 3764SOL     OW12190   3.021   1.229   2.845
 3764SOL    HW112191   3.094   1.255   2.908
 3764SOL    HW212192   3.031   1.283   2.760
 3765SOL     OW12193   5.293   2.748   2.853
 3765SOL    HW112194   5.338   2.835   2.868
 3765SOL    HW212195   5.261   2.710   2.940
 3766SOL     OW12196   1.215   2.830   2.189
 3766SOL    HW112197   1.265   2.758   2.237
 3766SOL    HW212198   1.276   2.874   2.123
 3767SOL     OW12199   1.813   6.180   5.863
 3767SOL    HW112200   1.905   6.152   5.836
 3767SOL    HW212201   1.759   6.201   5.781
 3768SOL     OW12202   1.631   6.821   2.679
 3768SOL    HW112203   1.714   6.765   2.682
 3768SOL    HW212204   1.551   6.762   2.686
 3769SOL     OW12205   5.138   5.086   4.842
 3769SOL    HW112206   5.148   5.082   4.942
 3769SOL    HW212207   5.222   5.123   4.802
 3770SOL     OW12208   3.297   0.201   1.358
 3770SOL    HW112209   3.199   0.182   1.358
 3770SOL    HW212210   3.342   0.145   1.428
 3771SOL     OW12211   6.793   5.827   5.521
 3771SOL    HW112212   6.736   5.765   5.575
 3771SOL    HW212213   6.885   5.831   5.560
 3772SOL     OW12214   2.216   6.422   1.883
 3772SOL    HW112215   2.161   6.448   1.962
 3772SOL    HW212216   2.305   6.388   1.914
 3773SOL     OW12217   4.545   4.813   7.013
 3773SOL    HW112218   4.620   4.797   0.050
 3773SOL    HW212219   4.581   4.824   6.920
 3774SOL     OW12220   6.714   4.637   1.742
 3774SOL    HW112221   6.713   4.700   1.665
 3774SOL    HW212222   6.765   4.555   1.717
 3775SOL     OW12223   5.403   5.511   4.719
 3775SOL    HW112224   5.477   5.579   4.725
 3775SOL    HW212225   5.441   5.419   4.730
 3776SOL     OW12226   4.263   3.031   6.262
 3776SOL    HW112227   4.273   2.997   6.168
 3776SOL    HW212228   4.304   2.965   6.325
 3777SOL     OW12229   2.923   5.116   4.161
 3777SOL    HW112230   2.832   5.108   4.120
 3777SOL    HW212231   2.991   5.076   4.100
 3778SOL     OW12232   2.904   4.839   6.761
 3778SOL    HW112233   2.902   4.749   6.805
 3778SOL    HW212234   2.962   4.834   6.680
 3779SOL     OW12235   6.889   4.731   6.581
 3779SOL    HW112236   6.844   4.812   6.545
 3779SOL    HW212237   6.878   4.655   6.518
 3780SOL     OW12238   6.005   3.044   2.104
 3780SOL    HW112239   5.958   2.982   2.041
 3780SOL    HW212240   5.944   3.066   2.180
 3781SOL     OW12241   1.588   6.849   5.772
 3781SOL    HW112242   1.506   6.858   5.829
 3781SOL    HW212243   1.564   6.801   5.688
 3782SOL     OW12244   3.759   5.253   0.133
 3782SOL    HW112245   3.841   5.308   0.147
 3782SOL    HW212246   3.769   5.165   0.179
 3783SOL     OW12247   4.657   4.874   5.060
 3783SOL    HW112248   4.560   4.900   5.053
 3783SOL    HW212249   4.700   4.880   4.971
 3784SOL     OW12250   5.995   3.084   5.294
 3784SOL    HW112251   5.958   3.084   5.387
 3784SOL    HW212252   6.033   2.993   5.274
 3785SOL     OW12253   1.317   2.626   2.667
 3785SOL    HW112254   1.360   2.561   2.729
 3785SOL    HW212255   1.217   2.617   2.674
 3786SOL     OW12256   1.981   2.813   5.286
 3786SOL    HW112257   2.021   2.762   5.362
 3786SOL    HW212258   2.054   2.853   5.230
 3787SOL     OW12259   4.925   5.842   4.347
 3787SOL    HW112260   4.970   5.814   4.263
 3787SOL    HW212261   4.825   5.835   4.336
 3788SOL     OW12262   5.730   3.064   5.925
 3788SOL    HW112263   5.682   3.001   5.986
 3788SOL    HW212264   5.766   3.141   5.977
 3789SOL     OW12265   2.128   3.189   1.376
 3789SOL    HW112266   2.082   3.276   1.360
 3789SOL    HW212267   2.064   3.114   1.364
 3790SOL     OW12268   1.184   6.739   1.480
 3790SOL    HW112269   1.234   6.818   1.443
 3790SOL    HW212270   1.229   6.708   1.564
 3791SOL     OW12271   4.803   0.479   4.740
 3791SOL    HW112272   4.749   0.538   4.680
 3791SOL    HW212273   4.783   0.502   4.836
 3792SOL     OW12274   6.287   6.703   3.825
 3792SOL    HW112275   6.237   6.625   3.864
 3792SOL    HW212276   6.260   6.787   3.872
 3793SOL     OW12277   4.652   4.073   0.359
 3793SOL    HW112278   4.727   4.124   0.402
 3793SOL    HW212279   4.568   4.086   0.411
 3794SOL     OW12280   1.343   5.327   6.679
 3794SOL    HW112281   1.274   5.255   6.680
 3794SOL    HW212282   1.335   5.380   6.594
 3795SOL     OW12283   3.282   6.047   1.020
 3795SOL    HW112284   3.315   6.098   1.100
 3795SOL    HW212285   3.358   5.993   0.982
 3796SOL     OW12286   5.549   0.716   6.781
 3796SOL    HW112287   5.511   0.780   6.714
 3796SOL    HW212288   5.569   0.764   6.866
 3797SOL     OW12289   0.230   3.093   1.200
 3797SOL    HW112290   0.203   3.008   1.155
 3797SOL    HW212291   0.197   3.171   1.148
 3798SOL     OW12292   1.096   5.208   3.499
 3798SOL    HW112293   1.169   5.216   3.566
 3798SOL    HW212294   1.126   5.152   3.422
 3799SOL     OW12295   6.443   1.387   3.125
 3799SOL    HW112296   6.454   1.464   3.061
 3799SOL    HW212297   6.525   1.330   3.123
 3800SOL     OW12298   5.569   2.556   2.813
 3800SOL    HW112299   5.511   2.502   2.873
 3800SOL    HW212300   5.513   2.606   2.748
 3801SOL     OW12301   6.184   1.617   0.845
 3801SOL    HW112302   6.137   1.681   0.906
 3801SOL    HW212303   6.251   1.564   0.896
 3802SOL     OW12304   6.472   3.588   2.432
 3802SOL    HW112305   6.443   3.683   2.441
 3802SOL    HW212306   6.461   3.542   2.520
 3803SOL     OW12307   4.389   4.095   5.545
 3803SOL    HW112308   4.304   4.138   5.515
 3803SOL    HW212309   4.407   4.119   5.640
 3804SOL     OW12310   3.738   6.340   3.205
 3804SOL    HW112311   3.718   6.388   3.290
 3804SOL    HW212312   3.788   6.402   3.143
 3805SOL     OW12313   2.499   2.008   0.107
 3805SOL    HW112314   2.508   2.030   0.009
 3805SOL    HW212315   2.587   2.022   0.152
 3806SOL     OW12316   2.265   4.594   1.669
 3806SOL    HW112317   2.244   4.674   1.726
 3806SOL    HW212318   2.181   4.566   1.621
 3807SOL     OW12319   0.637   4.432   3.592
 3807SOL    HW112320   0.550   4.423   3.639
 3807SOL    HW212321   0.712   4.426   3.658
 3808SOL     OW12322   2.957   0.079   5.863
 3808SOL    HW112323   2.980   0.046   5.772
 3808SOL    HW212324   2.867   0.045   5.890
 3809SOL     OW12325   5.349   1.111   1.907
 3809SOL    HW112326   5.438   1.156   1.901
 3809SOL    HW212327   5.357   1.031   1.967
 3810SOL     OW12328   5.223   2.173   3.069
 3810SOL    HW112329   5.220   2.109   2.992
 3810SOL    HW212330   5.242   2.122   3.153
 3811SOL     OW12331   0.045   6.032   5.654
 3811SOL    HW112332   0.089   6.082   5.579
 3811SOL    HW212333   7.008   6.093   5.701
 3812SOL     OW12334   3.883   5.658   0.006
 3812SOL    HW112335   3.973   5.662   6.988
 3812SOL    HW212336   3.882   5.582   0.070
 3813SOL     OW12337   5.701   3.442   0.274
 3813SOL    HW112338   5.688   3.405   0.182
 3813SOL    HW212339   5.762   3.383   0.326
 3814SOL     OW12340   0.579   0.420   5.079
 3814SOL    HW112341   0.605   0.506   5.124
 3814SOL    HW212342   0.509   0.438   5.011
 3815SOL     OW12343   5.038   2.603   6.195
 3815SOL    HW112344   5.125   2.553   6.185
 3815SOL    HW212345   5.056   2.692   6.235
 3816SOL     OW12346   6.612   6.586   1.012
 3816SOL    HW112347   6.594   6.488   1.018
 3816SOL    HW212348   6.646   6.620   1.100
 3817SOL     OW12349   3.943   3.660   1.596
 3817SOL    HW112350   4.025   3.603   1.592
 3817SOL    HW212351   3.864   3.603   1.618
 3818SOL     OW12352   4.984   5.802   2.226
 3818SOL    HW112353   5.070   5.801   2.176
 3818SOL    HW212354   4.913   5.844   2.170
 3819SOL     OW12355   6.516   3.408   3.224
 3819SOL    HW112356   6.532   3.318   3.263
 3819SOL    HW212357   6.417   3.422   3.211
 3820SOL     OW12358   3.206   6.749   5.893
 3820SOL    HW112359   3.146   6.747   5.973
 3820SOL    HW212360   3.153   6.728   5.811
 3821SOL     OW12361   2.037   6.976   0.297
 3821SOL    HW112362   2.066   6.938   0.209
 3821SOL    HW212363   1.939   6.997   0.293
 3822SOL     OW12364   5.395   7.009   2.071
 3822SOL    HW112365   5.368   6.925   2.025
 3822SOL    HW212366   5.406   0.055   2.003
 3823SOL     OW12367   5.337   5.877   4.910
 3823SOL    HW112368   5.310   5.973   4.921
 3823SOL    HW212369   5.436   5.870   4.918
 3824SOL     OW12370   2.230   2.802   0.900
 3824SOL    HW112371   2.220   2.747   0.983
 3824SOL    HW212372   2.212   2.745   0.820
 3825SOL     OW12373   0.611   4.946   5.609
 3825SOL    HW112374   0.543   4.920   5.541
 3825SOL    HW212375   0.683   5.001   5.566
 3826SOL     OW12376   5.016   3.711   3.500
 3826SOL    HW112377   5.005   3.795   3.445
 3826SOL    HW212378   5.002   3.631   3.441
 3827SOL     OW12379   0.306   1.857   6.789
 3827SOL    HW112380   0.244   1.920   6.837
 3827SOL    HW212381   0.270   1.764   6.795
 3828SOL     OW12382   3.861   2.968   4.350
 3828SOL    HW112383   3.769   2.989   4.320
 3828SOL    HW212384   3.900   2.896   4.292
 3829SOL     OW12385   0.557   3.320   1.414
 3829SOL    HW112386   0.646   3.277   1.399
 3829SOL    HW212387   0.570   3.414   1.446
 3830SOL     OW12388   5.755   0.134   3.718
 3830SOL    HW112389   5.815   0.098   3.790
 3830SOL    HW212390   5.679   0.184   3.759
 3831SOL     OW12391   5.008   2.318   3.741
 3831SOL    HW112392   5.035   2.391   3.679
 3831SOL    HW212393   5.030   2.343   3.835
 3832SOL     OW12394   6.444   1.164   3.792
 3832SOL    HW112395   6.497   1.136   3.873
 3832SOL    HW212396   6.426   1.262   3.797
 3833SOL     OW12397   1.714   2.869   5.299
 3833SOL    HW112398   1.728   2.950   5.357
 3833SOL    HW212399   1.799   2.817   5.294
 3834SOL     OW12400   5.215   4.508   1.267
 3834SOL    HW112401   5.169   4.596   1.283
 3834SOL    HW212402   5.245   4.471   1.354
 3835SOL     OW12403   4.375   5.681   5.387
 3835SOL    HW112404   4.288   5.634   5.401
 3835SOL    HW212405   4.427   5.634   5.315
 3836SOL     OW12406   6.963   6.975   4.695
 3836SOL    HW112407   6.970   0.023   4.628
 3836SOL    HW212408   0.028   6.947   4.722
 3837SOL     OW12409   4.772   4.425   5.840
 3837SOL    HW112410   4.842   4.372   5.887
 3837SOL    HW212411   4.798   4.522   5.839
 3838SOL     OW12412   6.651   0.511   4.232
 3838SOL    HW112413   6.565   0.460   4.231
 3838SOL    HW212414   6.667   0.549   4.141
 3839SOL     OW12415   4.970   0.374   3.492
 3839SOL    HW112416   4.886   0.323   3.512
 3839SOL    HW212417   4.948   0.451   3.432
 3840SOL     OW12418   3.956   1.474   6.500
 3840SOL    HW112419   3.961   1.427   6.412
 3840SOL    HW212420   4.031   1.445   6.559
 3841SOL     OW12421   5.875   4.081   3.590
 3841SOL    HW112422   5.858   4.120   3.680
 3841SOL    HW212423   5.839   3.988   3.586
 3842SOL     OW12424   1.921   4.470   5.843
 3842SOL    HW112425   2.003   4.522   5.865
 3842SOL    HW212426   1.944   4.396   5.779
 3843SOL     OW12427   5.840   2.377   6.482
 3843SOL    HW112428   5.746   2.353   6.506
 3843SOL    HW212429   5.892   2.397   6.565
 3844SOL     OW12430   6.707   0.137   0.834
 3844SOL    HW112431   6.715   0.138   0.933
 3844SOL    HW212432   6.663   0.052   0.805
 3845SOL     OW12433   2.141   5.961   0.214
 3845SOL    HW112434   2.237   5.949   0.187
 3845SOL    HW212435   2.106   6.045   0.172
 3846SOL     OW12436   0.143   3.018   2.753
 3846SOL    HW112437   0.154   3.104   2.702
 3846SOL    HW212438   0.111   2.946   2.691
 3847SOL     OW12439   0.624   1.941   6.893
 3847SOL    HW112440   0.657   1.893   6.811
 3847SOL    HW212441   0.587   2.031   6.867
 3848SOL     OW12442   6.420   4.530   2.334
 3848SOL    HW112443   6.459   4.470   2.264
 3848SOL    HW212444   6.395   4.475   2.414
 3849SOL     OW12445   0.442   4.343   6.220
 3849SOL    HW112446   0.516   4.299   6.168
 3849SOL    HW212447   0.409   4.422   6.170
 3850SOL     OW12448   3.175   2.448   1.144
 3850SOL    HW112449   3.122   2.513   1.089
 3850SOL    HW212450   3.235   2.499   1.205
 3851SOL     OW12451   0.654   6.076   3.096
 3851SOL    HW112452   0.686   5.986   3.127
 3851SOL    HW212453   0.568   6.098   3.141
 3852SOL     OW12454   1.716   0.688   4.991
 3852SOL    HW112455   1.626   0.661   4.957
 3852SOL    HW212456   1.770   0.726   4.916
 3853SOL     OW12457   2.975   0.917   3.399
 3853SOL    HW112458   3.075   0.914   3.396
 3853SOL    HW212459   2.939   0.824   3.400
 3854SOL     OW12460   0.473   1.953   2.354
 3854SOL    HW112461   0.374   1.939   2.342
 3854SOL    HW212462   0.510   2.000   2.274
 3855SOL     OW12463   3.622   6.480   6.717
 3855SOL    HW112464   3.674   6.480   6.632
 3855SOL    HW212465   3.530   6.515   6.700
 3856SOL     OW12466   0.013   2.411   6.325
 3856SOL    HW112467   0.071   2.349   6.379
 3856SOL    HW212468   6.962   2.440   6.381
 3857SOL     OW12469   2.741   0.716   6.033
 3857SOL    HW112470   2.658   0.705   5.978
 3857SOL    HW212471   2.821   0.691   5.977
 3858SOL     OW12472   4.560   0.917   4.213
 3858SOL    HW112473   4.475   0.923   4.266
 3858SOL    HW212474   4.564   0.993   4.148
 3859SOL     OW12475   6.121   6.727   1.654
 3859SOL    HW112476   6.101   6.798   1.586
 3859SOL    HW212477   6.205   6.752   1.704
 3860SOL     OW12478   1.426   6.852   4.292
 3860SOL    HW112479   1.413   6.911   4.371
 3860SOL    HW212480   1.492   6.893   4.230
 3861SOL     OW12481   2.831   5.651   1.963
 3861SOL    HW112482   2.751   5.628   2.019
 3861SOL    HW212483   2.804   5.659   1.867
 3862SOL     OW12484   1.644   0.920   4.300
 3862SOL    HW112485   1.611   0.990   4.236
 3862SOL    HW212486   1.685   0.965   4.379
 3863SOL     OW12487   3.386   0.599   0.456
 3863SOL    HW112488   3.301   0.550   0.434
 3863SOL    HW212489   3.462   0.559   0.404
 3864SOL     OW12490   1.332   0.310   4.644
 3864SOL    HW112491   1.387   0.236   4.605
 3864SOL    HW212492   1.383   0.396   4.637
 3865SOL     OW12493   5.200   1.339   0.682
 3865SOL    HW112494   5.252   1.268   0.635
 3865SOL    HW212495   5.236   1.429   0.656
 3866SOL     OW12496   3.265   1.577   6.532
 3866SOL    HW112497   3.222   1.587   6.442
 3866SOL    HW212498   3.343   1.516   6.525
 3867SOL     OW12499   0.322   3.134   2.254
 3867SOL    HW112500   0.344   3.050   2.304
 3867SOL    HW212501   0.336   3.118   2.156
 3868SOL     OW12502   4.348   0.556   0.147
 3868SOL    HW112503   4.323   0.652   0.163
 3868SOL    HW212504   4.446   0.545   0.157
 3869SOL     OW12505   4.627   1.206   4.332
 3869SOL    HW112506   4.709   1.214   4.276
 3869SOL    HW212507   4.555   1.264   4.293
 3870SOL     OW12508   0.166   0.578   5.967
 3870SOL    HW112509   0.166   0.677   5.958
 3870SOL    HW212510   0.251   0.548   6.012
 3871SOL     OW12511   2.447   5.550   4.490
 3871SOL    HW112512   2.452   5.643   4.453
 3871SOL    HW212513   2.490   5.548   4.580
 3872SOL     OW12514   2.859   3.292   5.113
 3872SOL    HW112515   2.825   3.304   5.020
 3872SOL    HW212516   2.958   3.278   5.111
 3873SOL     OW12517   4.182   1.980   0.344
 3873SOL    HW112518   4.153   2.042   0.271
 3873SOL    HW212519   4.127   1.998   0.426
 3874SOL     OW12520   2.199   1.302   0.779
 3874SOL    HW112521   2.117   1.303   0.722
 3874SOL    HW212522   2.240   1.210   0.777
 3875SOL     OW12523   0.871   2.107   6.411
 3875SOL    HW112524   0.943   2.173   6.392
 3875SOL    HW212525   0.788   2.132   6.359
 3876SOL     OW12526   3.324   5.352   2.494
 3876SOL    HW112527   3.364   5.364   2.585
 3876SOL    HW212528   3.347   5.431   2.438
 3877SOL     OW12529   0.332   1.785   6.037
 3877SOL    HW112530   0.387   1.867   6.022
 3877SOL    HW212531   0.355   1.745   6.126
 3878SOL     OW12532   5.113   1.181   4.563
 3878SOL    HW112533   5.075   1.141   4.647
 3878SOL    HW212534   5.175   1.115   4.521
 3879SOL     OW12535   5.135   6.048   0.245
 3879SOL    HW112536   5.214   5.987   0.243
 3879SOL    HW212537   5.162   6.138   0.209
 3880SOL     OW12538   4.683   4.699   4.034
 3880SOL    HW112539   4.586   4.686   4.053
 3880SOL    HW212540   4.733   4.707   4.120
 3881SOL     OW12541   1.375   3.155   0.415
 3881SOL    HW112542   1.431   3.082   0.376
 3881SOL    HW212543   1.348   3.130   0.508
 3882SOL     OW12544   0.295   1.840   5.641
 3882SOL    HW112545   0.389   1.805   5.648
 3882SOL    HW212546   0.231   1.771   5.674
 3883SOL     OW12547   4.528   5.977   3.711
 3883SOL    HW112548   4.608   5.949   3.657
 3883SOL    HW212549   4.512   6.075   3.700
 3884SOL     OW12550   0.335   3.655   2.079
 3884SOL    HW112551   0.377   3.746   2.072
 3884SOL    HW212552   0.321   3.618   1.987
 3885SOL     OW12553   4.438   5.875   2.546
 3885SOL    HW112554   4.414   5.818   2.467
 3885SOL    HW212555   4.472   5.963   2.514
 3886SOL     OW12556   2.663   6.101   5.757
 3886SOL    HW112557   2.712   6.050   5.828
 3886SOL    HW212558   2.698   6.074   5.667
 3887SOL     OW12559   1.924   6.001   1.888
 3887SOL    HW112560   1.870   5.951   1.820
 3887SOL    HW212561   1.884   5.987   1.979
 3888SOL     OW12562   5.930   5.007   4.040
 3888SOL    HW112563   5.851   4.967   3.995
 3888SOL    HW212564   5.908   5.100   4.070
 3889SOL     OW12565   5.631   4.449   0.405
 3889SOL    HW112566   5.730   4.444   0.420
 3889SOL    HW212567   5.603   4.375   0.344
 3890SOL     OW12568   5.381   2.912   4.150
 3890SOL    HW112569   5.428   2.957   4.226
 3890SOL    HW212570   5.347   2.981   4.086
 3891SOL     OW12571   4.950   5.718   3.322
 3891SOL    HW112572   5.047   5.726   3.301
 3891SOL    HW212573   4.933   5.634   3.374
 3892SOL     OW12574   6.934   2.151   1.846
 3892SOL    HW112575   6.844   2.137   1.887
 3892SOL    HW212576   6.924   2.179   1.751
 3893SOL     OW12577   4.139   3.488   2.647
 3893SOL    HW112578   4.200   3.560   2.682
 3893SOL    HW212579   4.141   3.488   2.547
 3894SOL     OW12580   4.419   0.497   5.822
 3894SOL    HW112581   4.507   0.463   5.855
 3894SOL    HW212582   4.377   0.556   5.890
 3895SOL     OW12583   0.681   0.524   4.335
 3895SOL    HW112584   0.694   0.429   4.307
 3895SOL    HW212585   0.732   0.584   4.274
 3896SOL     OW12586   1.794   1.471   6.184
 3896SOL    HW112587   1.818   1.376   6.202
 3896SOL    HW212588   1.710   1.494   6.235
 3897SOL     OW12589   4.065   5.921   1.343
 3897SOL    HW112590   4.001   5.997   1.344
 3897SOL    HW212591   4.058   5.871   1.257
 3898SOL     OW12592   3.726   3.173   1.322
 3898SOL    HW112593   3.773   3.085   1.316
 3898SOL    HW212594   3.791   3.244   1.348
 3899SOL     OW12595   3.672   0.486   5.692
 3899SOL    HW112596   3.721   0.520   5.612
 3899SOL    HW212597   3.630   0.398   5.670
 3900SOL     OW12598   4.800   4.192   3.216
 3900SOL    HW112599   4.740   4.272   3.209
 3900SOL    HW212600   4.786   4.147   3.304
 3901SOL     OW12601   2.952   0.828   6.753
 3901SOL    HW112602   3.013   0.863   6.824
 3901SOL    HW212603   2.893   0.903   6.720
 3902SOL     OW12604   5.246   3.060   2.521
 3902SOL    HW112605   5.339   3.075   2.490
 3902SOL    HW212606   5.241   3.073   2.620
 3903SOL     OW12607   2.995   4.348   6.096
 3903SOL    HW112608   3.024   4.441   6.117
 3903SOL    HW212609   3.053   4.311   6.023
 3904SOL     OW12610   1.582   0.455   1.095
 3904SOL    HW112611   1.613   0.500   1.011
 3904SOL    HW212612   1.657   0.402   1.134
 3905SOL     OW12613   6.721   6.316   4.978
 3905SOL    HW112614   6.804   6.358   5.015
 3905SOL    HW212615   6.655   6.387   4.954
 3906SOL     OW12616   6.595   6.646   4.775
 3906SOL    HW112617   6.682   6.695   4.783
 3906SOL    HW212618   6.532   6.700   4.719
 3907SOL     OW12619   6.271   2.501   3.609
 3907SOL    HW112620   6.198   2.554   3.651
 3907SOL    HW212621   6.291   2.538   3.518
 3908SOL     OW12622   2.782   4.177   6.098
 3908SOL    HW112623   2.862   4.233   6.076
 3908SOL    HW212624   2.708   4.235   6.132
 3909SOL     OW12625   5.850   5.807   3.891
 3909SOL    HW112626   5.929   5.832   3.835
 3909SOL    HW212627   5.818   5.716   3.864
 3910SOL     OW12628   3.791   3.320   2.668
 3910SOL    HW112629   3.881   3.278   2.662
 3910SOL    HW212630   3.799   3.418   2.649
 3911SOL     OW12631   6.509   2.498   5.259
 3911SOL    HW112632   6.538   2.546   5.176
 3911SOL    HW212633   6.560   2.413   5.267
 3912SOL     OW12634   4.949   2.772   5.913
 3912SOL    HW112635   4.965   2.714   5.993
 3912SOL    HW212636   4.909   2.859   5.942
 3913SOL     OW12637   1.135   6.424   1.329
 3913SOL    HW112638   1.038   6.411   1.348
 3913SOL    HW212639   1.157   6.522   1.335
 3914SOL     OW12640   3.158   5.747   5.589
 3914SOL    HW112641   3.155   5.846   5.607
 3914SOL    HW212642   3.089   5.701   5.644
 3915SOL     OW12643   6.652   6.127   1.774
 3915SOL    HW112644   6.695   6.169   1.694
 3915SOL    HW212645   6.579   6.065   1.745
 3916SOL     OW12646   0.894   0.284   3.173
 3916SOL    HW112647   0.863   0.351   3.105
 3916SOL    HW212648   0.815   0.236   3.211
 3917SOL     OW12649   2.127   0.409   0.231
 3917SOL    HW112650   2.172   0.325   0.262
 3917SOL    HW212651   2.178   0.449   0.155
 3918SOL     OW12652   5.391   3.172   0.117
 3918SOL    HW112653   5.410   3.132   0.206
 3918SOL    HW212654   5.474   3.171   0.061
 3919SOL     OW12655   3.267   6.920   0.799
 3919SOL    HW112656   3.281   6.997   0.737
 3919SOL    HW212657   3.331   6.927   0.876
 3920SOL     OW12658   2.129   1.764   6.852
 3920SOL    HW112659   2.062   1.691   6.864
 3920SOL    HW212660   2.098   1.847   6.898
 3921SOL     OW12661   0.912   3.717   1.712
 3921SOL    HW112662   0.820   3.745   1.685
 3921SOL    HW212663   0.962   3.795   1.747
 3922SOL     OW12664   1.538   5.056   1.395
 3922SOL    HW112665   1.524   5.155   1.402
 3922SOL    HW212666   1.514   5.013   1.482
 3923SOL     OW12667   6.639   0.612   0.980
 3923SOL    HW112668   6.669   0.705   0.962
 3923SOL    HW212669   6.687   0.549   0.919
 3924SOL     OW12670   6.406   5.173   4.292
 3924SOL    HW112671   6.418   5.110   4.215
 3924SOL    HW212672   6.462   5.143   4.369
 3925SOL     OW12673   1.782   5.334   1.618
 3925SOL    HW112674   1.779   5.376   1.527
 3925SOL    HW212675   1.875   5.300   1.636
 3926SOL     OW12676   3.637   5.378   2.767
 3926SOL    HW112677   3.652   5.343   2.860
 3926SOL    HW212678   3.617   5.476   2.772
 3927SOL     OW12679   0.786   3.483   6.582
 3927SOL    HW112680   0.859   3.549   6.597
 3927SOL    HW212681   0.775   3.468   6.483
 3928SOL     OW12682   6.114   5.411   6.685
 3928SOL    HW112683   6.081   5.476   6.617
 3928SOL    HW212684   6.213   5.423   6.698
 3929SOL     OW12685   0.589   1.572   4.504
 3929SOL    HW112686   0.502   1.570   4.553
 3929SOL    HW212687   0.585   1.511   4.425
 3930SOL     OW12688   3.072   1.817   3.927
 3930SOL    HW112689   3.129   1.743   3.963
 3930SOL    HW212690   3.128   1.878   3.872
 3931SOL     OW12691   5.242   0.234   2.557
 3931SOL    HW112692   5.290   0.317   2.588
 3931SOL    HW212693   5.261   0.160   2.621
 3932SOL     OW12694   1.586   1.743   4.130
 3932SOL    HW112695   1.551   1.702   4.045
 3932SOL    HW212696   1.627   1.832   4.110
 3933SOL     OW12697   1.198   0.059   5.944
 3933SOL    HW112698   1.142   0.052   6.026
 3933SOL    HW212699   1.212   0.155   5.921
 3934SOL     OW12700   5.088   6.240   6.684
 3934SOL    HW112701   5.126   6.330   6.705
 3934SOL    HW212702   5.012   6.220   6.747
 3935SOL     OW12703   4.873   6.847   1.173
 3935SOL    HW112704   4.849   6.770   1.113
 3935SOL    HW212705   4.800   6.915   1.169
 3936SOL     OW12706   0.836   4.578   2.427
 3936SOL    HW112707   0.889   4.537   2.353
 3936SOL    HW212708   0.803   4.506   2.488
 3937SOL     OW12709   0.206   1.544   2.690
 3937SOL    HW112710   0.294   1.497   2.686
 3937SOL    HW212711   0.137   1.492   2.639
 3938SOL     OW12712   0.596   2.451   3.015
 3938SOL    HW112713   0.625   2.402   3.097
 3938SOL    HW212714   0.666   2.442   2.944
 3939SOL     OW12715   2.485   2.244   1.459
 3939SOL    HW112716   2.568   2.222   1.510
 3939SOL    HW212717   2.492   2.208   1.366
 3940SOL     OW12718   4.197   3.541   1.473
 3940SOL    HW112719   4.297   3.548   1.472
 3940SOL    HW212720   4.160   3.572   1.385
 3941SOL     OW12721   4.516   3.105   6.757
 3941SOL    HW112722   4.423   3.140   6.767
 3941SOL    HW212723   4.581   3.171   6.795
 3942SOL     OW12724   6.919   0.477   0.076
 3942SOL    HW112725   6.994   0.539   0.099
 3942SOL    HW212726   6.894   0.489   7.007
 3943SOL     OW12727   0.328   3.148   5.232
 3943SOL    HW112728   0.238   3.149   5.276
 3943SOL    HW212729   0.336   3.230   5.174
 3944SOL     OW12730   5.356   1.351   4.778
 3944SOL    HW112731   5.267   1.374   4.737
 3944SOL    HW212732   5.341   1.294   4.859
 3945SOL     OW12733   0.045   0.953   0.700
 3945SOL    HW112734   0.100   0.887   0.650
 3945SOL    HW212735   0.049   0.933   0.798
 3946SOL     OW12736   4.095   4.816   3.243
 3946SOL    HW112737   4.141   4.792   3.329
 3946SOL    HW212738   3.999   4.840   3.263
 3947SOL     OW12739   6.395   4.631   6.248
 3947SOL    HW112740   6.307   4.584   6.236
 3947SOL    HW212741   6.407   4.654   6.345
 3948SOL     OW12742   6.111   3.659   0.892
 3948SOL    HW112743   6.069   3.625   0.976
 3948SOL    HW212744   6.197   3.611   0.876
 3949SOL     OW12745   5.537   6.478   3.309
 3949SOL    HW112746   5.605   6.547   3.334
 3949SOL    HW212747   5.573   6.421   3.235
 3950SOL     OW12748   2.131   6.313   0.574
 3950SOL    HW112749   2.202   6.358   0.629
 3950SOL    HW212750   2.089   6.240   0.628
 3951SOL     OW12751   5.651   6.762   1.567
 3951SOL    HW112752   5.690   6.847   1.531
 3951SOL    HW212753   5.624   6.776   1.662
 3952SOL     OW12754   5.737   2.106   6.945
 3952SOL    HW112755   5.670   2.152   7.004
 3952SOL    HW212756   5.797   2.049   7.001
 3953SOL     OW12757   3.914   3.870   2.699
 3953SOL    HW112758   3.914   3.778   2.739
 3953SOL    HW212759   3.913   3.937   2.773
 3954SOL     OW12760   4.388   5.025   5.569
 3954SOL    HW112761   4.325   4.989   5.500
 3954SOL    HW212762   4.408   4.953   5.636
 3955SOL     OW12763   4.046   0.947   4.462
 3955SOL    HW112764   4.081   0.860   4.429
 3955SOL    HW212765   4.122   1.011   4.475
 3956SOL     OW12766   2.507   1.075   1.791
 3956SOL    HW112767   2.482   1.143   1.722
 3956SOL    HW212768   2.598   1.040   1.772
 3957SOL     OW12769   3.660   0.816   4.354
 3957SOL    HW112770   3.701   0.845   4.268
 3957SOL    HW212771   3.650   0.896   4.414
 3958SOL     OW12772   5.568   0.092   5.345
 3958SOL    HW112773   5.610   0.058   5.429
 3958SOL    HW212774   5.582   0.026   5.271
 3959SOL     OW12775   4.787   5.081   0.281
 3959SOL    HW112776   4.726   5.002   0.288
 3959SOL    HW212777   4.786   5.115   0.187
 3960SOL     OW12778   6.029   1.634   4.849
 3960SOL    HW112779   6.068   1.714   4.804
 3960SOL    HW212780   5.945   1.606   4.802
 3961SOL     OW12781   5.668   6.239   4.064
 3961SOL    HW112782   5.720   6.156   4.046
 3961SOL    HW212783   5.731   6.316   4.078
 3962SOL     OW12784   6.904   5.516   5.286
 3962SOL    HW112785   6.898   5.614   5.266
 3962SOL    HW212786   7.000   5.490   5.300
 3963SOL     OW12787   4.388   6.617   2.061
 3963SOL    HW112788   4.293   6.615   2.093
 3963SOL    HW212789   4.449   6.599   2.139
 3964SOL     OW12790   5.702   2.996   3.524
 3964SOL    HW112791   5.656   2.976   3.438
 3964SOL    HW212792   5.635   3.032   3.590
 3965SOL     OW12793   4.833   4.068   4.333
 3965SOL    HW112794   4.896   4.116   4.394
 3965SOL    HW212795   4.744   4.114   4.333
 3966SOL     OW12796   2.601   6.691   6.554
 3966SOL    HW112797   2.589   6.674   6.456
 3966SOL    HW212798   2.698   6.690   6.577
 3967SOL     OW12799   2.354   4.325   3.601
 3967SOL    HW112800   2.358   4.343   3.503
 3967SOL    HW212801   2.299   4.396   3.646
 3968SOL     OW12802   3.601   6.962   0.602
 3968SOL    HW112803   3.568   6.885   0.656
 3968SOL    HW212804   3.700   6.971   0.615
 3969SOL     OW12805   0.756   5.259   3.051
 3969SOL    HW112806   0.824   5.275   3.123
 3969SOL    HW212807   0.764   5.332   2.982
 3970SOL     OW12808   5.080   6.364   2.095
 3970SOL    HW112809   4.988   6.384   2.126
 3970SOL    HW212810   5.096   6.409   2.007
 3971SOL     OW12811   2.124   6.301   3.644
 3971SOL    HW112812   2.212   6.255   3.647
 3971SOL    HW212813   2.052   6.235   3.624
 3972SOL     OW12814   1.322   3.795   6.853
 3972SOL    HW112815   1.233   3.835   6.877
 3972SOL    HW212816   1.391   3.867   6.850
 3973SOL     OW12817   1.673   5.433   1.149
 3973SOL    HW112818   1.611   5.391   1.083
 3973SOL    HW212819   1.731   5.362   1.190
 3974SOL     OW12820   2.380   1.484   5.378
 3974SOL    HW112821   2.338   1.408   5.428
 3974SOL    HW212822   2.322   1.565   5.384
 3975SOL     OW12823   6.351   2.815   6.362
 3975SOL    HW112824   6.391   2.746   6.422
 3975SOL    HW212825   6.421   2.851   6.300
 3976SOL     OW12826   2.019   4.685   2.403
 3976SOL    HW112827   2.110   4.659   2.371
 3976SOL    HW212828   2.005   4.653   2.497
 3977SOL     OW12829   0.840   3.268   6.841
 3977SOL    HW112830   0.830   3.332   6.765
 3977SOL    HW212831   0.887   3.185   6.809
 3978SOL     OW12832   6.140   4.043   3.880
 3978SOL    HW112833   6.215   4.080   3.935
 3978SOL    HW212834   6.171   3.961   3.832
 3979SOL     OW12835   4.110   6.498   6.442
 3979SOL    HW112836   4.098   6.436   6.364
 3979SOL    HW212837   4.201   6.540   6.438
 3980SOL     OW12838   5.531   5.832   6.182
 3980SOL    HW112839   5.624   5.854   6.151
 3980SOL    HW212840   5.477   5.916   6.186
 3981SOL     OW12841   4.442   5.958   0.392
 3981SOL    HW112842   4.440   5.860   0.371
 3981SOL    HW212843   4.375   6.005   0.334
 3982SOL     OW12844   2.986   6.140   3.505
 3982SOL    HW112845   3.080   6.109   3.491
 3982SOL    HW212846   2.983   6.240   3.506
 3983SOL     OW12847   3.583   5.846   4.421
 3983SOL    HW112848   3.536   5.838   4.333
 3983SOL    HW212849   3.680   5.828   4.409
 3984SOL     OW12850   6.650   2.558   3.406
 3984SOL    HW112851   6.728   2.578   3.465
 3984SOL    HW212852   6.665   2.470   3.359
 3985SOL     OW12853   4.253   4.883   6.442
 3985SOL    HW112854   4.192   4.810   6.474
 3985SOL    HW212855   4.347   4.849   6.440
 3986SOL     OW12856   5.578   0.618   3.059
 3986SOL    HW112857   5.554   0.675   3.137
 3986SOL    HW212858   5.512   0.633   2.985
 3987SOL     OW12859   3.438   5.466   4.941
 3987SOL    HW112860   3.513   5.400   4.940
 3987SOL    HW212861   3.476   5.558   4.956
 3988SOL     OW12862   3.761   5.859   0.991
 3988SOL    HW112863   3.832   5.924   0.966
 3988SOL    HW212864   3.796   5.766   0.979
 3989SOL     OW12865   5.450   1.957   0.693
 3989SOL    HW112866   5.384   2.005   0.636
 3989SOL    HW212867   5.402   1.891   0.752
 3990SOL     OW12868   6.487   1.779   2.460
 3990SOL    HW112869   6.551   1.785   2.383
 3990SOL    HW212870   6.435   1.864   2.467
 3991SOL     OW12871   6.138   0.442   3.098
 3991SOL    HW112872   6.172   0.518   3.043
 3991SOL    HW212873   6.216   0.394   3.140
 3992SOL     OW12874   3.406   2.007   0.968
 3992SOL    HW112875   3.345   1.980   1.043
 3992SOL    HW212876   3.388   1.949   0.888
 3993SOL     OW12877   0.865   3.130   2.175
 3993SOL    HW112878   0.802   3.204   2.198
 3993SOL    HW212879   0.931   3.162   2.107
 3994SOL     OW12880   2.476   5.899   4.507
 3994SOL    HW112881   2.566   5.912   4.465
 3994SOL    HW212882   2.471   5.954   4.591
 3995SOL     OW12883   1.853   1.770   4.462
 3995SOL    HW112884   1.906   1.784   4.378
 3995SOL    HW212885   1.757   1.755   4.438
 3996SOL     OW12886   6.820   6.432   4.376
 3996SOL    HW112887   6.777   6.502   4.320
 3996SOL    HW212888   6.819   6.345   4.327
 3997SOL     OW12889   4.301   0.689   4.527
 3997SOL    HW112890   4.358   0.630   4.470
 3997SOL    HW212891   4.326   0.678   4.623
 3998SOL     OW12892   4.793   1.773   3.347
 3998SOL    HW112893   4.744   1.724   3.274
 3998SOL    HW212894   4.729   1.832   3.396
 3999SOL     OW12895   5.019   2.042   4.712
 3999SOL    HW112896   5.051   1.966   4.655
 3999SOL    HW212897   5.075   2.123   4.694
 4000SOL     OW12898   4.389   6.472   4.234
 4000SOL    HW112899   4.299   6.513   4.223
 4000SOL    HW212900   4.451   6.507   4.164
 4001SOL     OW12901   1.408   2.306   4.221
 4001SOL    HW112902   1.376   2.374   4.156
 4001SOL    HW212903   1.430   2.221   4.173
 4002SOL     OW12904   2.316   4.313   1.890
 4002SOL    HW112905   2.237   4.254   1.909
 4002SOL    HW212906   2.285   4.407   1.878
 4003SOL     OW12907   3.818   1.918   5.213
 4003SOL    HW112908   3.751   1.914   5.288
 4003SOL    HW212909   3.847   2.013   5.200
 4004SOL     OW12910   6.591   1.830   5.157
 4004SOL    HW112911   6.516   1.771   5.126
 4004SOL    HW212912   6.639   1.867   5.077
 4005SOL     OW12913   5.906   4.671   5.315
 4005SOL    HW112914   5.843   4.648   5.241
 4005SOL    HW212915   5.973   4.597   5.326
 4006SOL     OW12916   3.478   5.586   2.844
 4006SOL    HW112917   3.414   5.653   2.808
 4006SOL    HW212918   3.568   5.629   2.857
 4007SOL     OW12919   6.782   1.670   6.434
 4007SOL    HW112920   6.750   1.629   6.349
 4007SOL    HW212921   6.848   1.743   6.413
 4008SOL     OW12922   2.790   2.022   5.169
 4008SOL    HW112923   2.794   2.112   5.127
 4008SOL    HW212924   2.883   1.993   5.194
 4009SOL     OW12925   3.197   3.436   2.678
 4009SOL    HW112926   3.247   3.415   2.594
 4009SOL    HW212927   3.104   3.399   2.672
 4010SOL     OW12928   1.437   2.833   6.863
 4010SOL    HW112929   1.520   2.827   6.807
 4010SOL    HW212930   1.384   2.913   6.835
 4011SOL     OW12931   0.861   2.805   0.895
 4011SOL    HW112932   0.882   2.772   0.987
 4011SOL    HW212933   0.789   2.749   0.855
 4012SOL     OW12934   5.632   3.115   3.891
 4012SOL    HW112935   5.608   3.201   3.844
 4012SOL    HW212936   5.571   3.042   3.859
 4013SOL     OW12937   4.490   2.546   3.524
 4013SOL    HW112938   4.562   2.604   3.486
 4013SOL    HW212939   4.462   2.581   3.613
 4014SOL     OW12940   5.689   6.083   2.521
 4014SOL    HW112941   5.725   6.165   2.476
 4014SOL    HW212942   5.667   6.014   2.452
 4015SOL     OW12943   4.342   3.535   6.870
 4015SOL    HW112944   4.429   3.571   6.837
 4015SOL    HW212945   4.341   3.436   6.861
 4016SOL     OW12946   3.420   6.046   5.327
 4016SOL    HW112947   3.338   6.097   5.353
 4016SOL    HW212948   3.499   6.108   5.331
 4017SOL     OW12949   6.245   6.748   6.841
 4017SOL    HW112950   6.240   6.734   6.940
 4017SOL    HW212951   6.275   6.663   6.797
 4018SOL     OW12952   1.532   6.620   6.858
 4018SOL    HW112953   1.536   6.538   6.801
 4018SOL    HW212954   1.503   6.594   6.951
 4019SOL     OW12955   4.892   5.239   3.211
 4019SOL    HW112956   4.934   5.267   3.297
 4019SOL    HW212957   4.961   5.243   3.138
 4020SOL     OW12958   5.537   1.834   5.047
 4020SOL    HW112959   5.528   1.806   5.143
 4020SOL    HW212960   5.465   1.899   5.024
 4021SOL     OW12961   4.576   4.171   7.005
 4021SOL    HW112962   4.493   4.196   6.956
 4021SOL    HW212963   4.644   4.244   6.995
 4022SOL     OW12964   5.402   0.112   0.846
 4022SOL    HW112965   5.389   0.196   0.794
 4022SOL    HW212966   5.500   0.092   0.853
 4023SOL     OW12967   6.653   0.044   5.466
 4023SOL    HW112968   6.751   0.042   5.485
 4023SOL    HW212969   6.602   0.036   5.552
 4024SOL     OW12970   4.390   4.665   4.744
 4024SOL    HW112971   4.339   4.746   4.717
 4024SOL    HW212972   4.365   4.639   4.837
 4025SOL     OW12973   1.304   4.008   3.548
 4025SOL    HW112974   1.269   4.015   3.455
 4025SOL    HW212975   1.237   4.047   3.612
 4026SOL     OW12976   4.929   6.794   5.022
 4026SOL    HW112977   4.993   6.859   4.981
 4026SOL    HW212978   4.867   6.842   5.084
 4027SOL     OW12979   3.314   4.993   2.750
 4027SOL    HW112980   3.333   5.091   2.761
 4027SOL    HW212981   3.356   4.960   2.665
 4028SOL     OW12982   2.571   6.006   3.537
 4028SOL    HW112983   2.613   6.000   3.447
 4028SOL    HW212984   2.640   6.036   3.604
 4029SOL     OW12985   2.107   3.864   3.818
 4029SOL    HW112986   2.059   3.870   3.906
 4029SOL    HW212987   2.131   3.956   3.786
 4030SOL     OW12988   1.335   1.535   6.483
 4030SOL    HW112989   1.395   1.505   6.409
 4030SOL    HW212990   1.389   1.582   6.552
 4031SOL     OW12991   5.988   5.903   4.230
 4031SOL    HW112992   5.922   5.979   4.230
 4031SOL    HW212993   6.062   5.923   4.294
 4032SOL     OW12994   3.877   6.967   4.968
 4032SOL    HW112995   3.921   7.013   4.891
 4032SOL    HW212996   3.856   6.872   4.942
 4033SOL     OW12997   3.607   3.969   6.139
 4033SOL    HW112998   3.550   4.039   6.181
 4033SOL    HW212999   3.641   3.907   6.210
 4034SOL     OW13000   5.710   3.024   5.132
 4034SOL    HW113001   5.678   3.110   5.173
 4034SOL    HW213002   5.760   3.045   5.048
 4035SOL     OW13003   0.377   5.843   1.493
 4035SOL    HW113004   0.318   5.772   1.531
 4035SOL    HW213005   0.437   5.879   1.565
 4036SOL     OW13006   0.064   5.979   2.450
 4036SOL    HW113007   6.996   5.962   2.425
 4036SOL    HW213008   0.068   6.022   2.541
 4037SOL     OW13009   0.299   3.917   5.544
 4037SOL    HW113010   0.355   3.950   5.620
 4037SOL    HW213011   0.251   3.993   5.502
 4038SOL     OW13012   5.949   5.279   3.300
 4038SOL    HW113013   5.921   5.214   3.370
 4038SOL    HW213014   6.030   5.329   3.330
 4039SOL     OW13015   2.805   5.830   1.146
 4039SOL    HW113016   2.738   5.881   1.091
 4039SOL    HW213017   2.897   5.863   1.126
 4040SOL     OW13018   3.290   6.692   0.539
 4040SOL    HW113019   3.330   6.706   0.629
 4040SOL    HW213020   3.273   6.594   0.525
 4041SOL     OW13021   0.944   6.128   3.091
 4041SOL    HW113022   0.846   6.115   3.078
 4041SOL    HW213023   0.994   6.091   3.012
 4042SOL     OW13024   5.906   6.004   2.670
 4042SOL    HW113025   5.830   6.041   2.616
 4042SOL    HW213026   5.940   5.921   2.627
 4043SOL     OW13027   6.544   3.668   1.432
 4043SOL    HW113028   6.494   3.680   1.346
 4043SOL    HW213029   6.490   3.611   1.494
 4044SOL     OW13030   5.934   5.161   2.583
 4044SOL    HW113031   5.900   5.121   2.498
 4044SOL    HW213032   6.029   5.133   2.598
 4045SOL     OW13033   2.488   4.755   5.800
 4045SOL    HW113034   2.437   4.807   5.731
 4045SOL    HW213035   2.575   4.724   5.761
 4046SOL     OW13036   6.965   3.216   0.661
 4046SOL    HW113037   6.915   3.164   0.730
 4046SOL    HW213038   6.991   3.305   0.699
 4047SOL     OW13039   3.034   3.761   2.619
 4047SOL    HW113040   3.124   3.738   2.583
 4047SOL    HW213041   3.044   3.814   2.703
 4048SOL     OW13042   4.578   2.442   0.453
 4048SOL    HW113043   4.583   2.503   0.532
 4048SOL    HW213044   4.483   2.440   0.419
 4049SOL     OW13045   6.805   0.931   6.592
 4049SOL    HW113046   6.871   0.935   6.517
 4049SOL    HW213047   6.853   0.940   6.680
 4050SOL     OW13048   3.336   0.784   2.589
 4050SOL    HW113049   3.424   0.772   2.543
 4050SOL    HW213050   3.346   0.760   2.686
 4051SOL     OW13051   1.446   4.244   1.042
 4051SOL    HW113052   1.467   4.167   1.102
 4051SOL    HW213053   1.490   4.230   0.954
 4052SOL     OW13054   1.503   6.707   1.583
 4052SOL    HW113055   1.464   6.734   1.495
 4052SOL    HW213056   1.529   6.611   1.580
 4053SOL     OW13057   2.787   5.178   3.302
 4053SOL    HW113058   2.709   5.173   3.364
 4053SOL    HW213059   2.764   5.133   3.216
 4054SOL     OW13060   5.244   1.557   6.745
 4054SOL    HW113061   5.262   1.460   6.757
 4054SOL    HW213062   5.179   1.570   6.671
 4055SOL     OW13063   4.861   3.114   0.175
 4055SOL    HW113064   4.771   3.119   0.134
 4055SOL    HW213065   4.882   3.199   0.222
 4056SOL     OW13066   4.397   2.986   0.202
 4056SOL    HW113067   4.378   3.084   0.203
 4056SOL    HW213068   4.311   2.935   0.201
 4057SOL     OW13069   6.047   2.587   0.515
 4057SOL    HW113070   6.031   2.519   0.587
 4057SOL    HW213071   5.963   2.637   0.498
 4058SOL     OW13072   0.820   1.726   3.565
 4058SOL    HW113073   0.786   1.697   3.654
 4058SOL    HW213074   0.909   1.770   3.575
 4059SOL     OW13075   7.007   2.065   5.529
 4059SOL    HW113076   0.072   2.026   5.535
 4059SOL    HW213077   6.956   2.018   5.457
 4060SOL     OW13078   3.440   6.023   5.631
 4060SOL    HW113079   3.369   5.960   5.599
 4060SOL    HW213080   3.407   6.117   5.622
 4061SOL     OW13081   2.298   2.831   1.278
 4061SOL    HW113082   2.238   2.858   1.353
 4061SOL    HW213083   2.270   2.879   1.195
 4062SOL     OW13084   3.006   6.446   2.733
 4062SOL    HW113085   3.054   6.383   2.670
 4062SOL    HW213086   2.924   6.401   2.768
 4063SOL     OW13087   2.744   5.517   6.668
 4063SOL    HW113088   2.734   5.601   6.722
 4063SOL    HW213089   2.660   5.500   6.617
 4064SOL     OW13090   6.900   6.999   4.232
 4064SOL    HW113091   6.839   0.043   4.199
 4064SOL    HW213092   6.888   6.988   4.331
 4065SOL     OW13093   0.384   4.537   6.054
 4065SOL    HW113094   0.333   4.596   6.117
 4065SOL    HW213095   0.323   4.505   5.982
 4066SOL     OW13096   5.052   5.462   1.259
 4066SOL    HW113097   5.033   5.550   1.303
 4066SOL    HW213098   4.977   5.399   1.277
 4067SOL     OW13099   5.610   0.935   1.370
 4067SOL    HW113100   5.677   0.979   1.430
 4067SOL    HW213101   5.538   0.893   1.425
 4068SOL     OW13102   5.443   0.993   4.309
 4068SOL    HW113103   5.497   0.918   4.348
 4068SOL    HW213104   5.460   1.077   4.360
 4069SOL     OW13105   6.745   6.240   0.854
 4069SOL    HW113106   6.801   6.158   0.843
 4069SOL    HW213107   6.796   6.319   0.821
 4070SOL     OW13108   6.875   3.831   3.151
 4070SOL    HW113109   6.934   3.769   3.203
 4070SOL    HW213110   6.779   3.809   3.171
 4071SOL     OW13111   2.859   0.463   4.176
 4071SOL    HW113112   2.786   0.413   4.130
 4071SOL    HW213113   2.942   0.406   4.179
 4072SOL     OW13114   1.002   0.197   4.326
 4072SOL    HW113115   0.981   0.259   4.402
 4072SOL    HW213116   0.949   0.224   4.246
 4073SOL     OW13117   2.445   5.232   2.132
 4073SOL    HW113118   2.543   5.246   2.116
 4073SOL    HW213119   2.432   5.150   2.189
 4074SOL     OW13120   0.187   3.170   0.575
 4074SOL    HW113121   0.106   3.217   0.610
 4074SOL    HW213122   0.269   3.206   0.621
 4075SOL     OW13123   5.567   0.336   3.791
 4075SOL    HW113124   5.567   0.436   3.784
 4075SOL    HW213125   5.556   0.309   3.886
 4076SOL     OW13126   1.617   2.688   3.014
 4076SOL    HW113127   1.620   2.787   3.009
 4076SOL    HW213128   1.671   2.657   3.093
 4077SOL     OW13129   3.992   0.479   0.786
 4077SOL    HW113130   3.958   0.434   0.869
 4077SOL    HW213131   4.068   0.425   0.748
 4078SOL     OW13132   4.826   4.693   3.330
 4078SOL    HW113133   4.903   4.747   3.364
 4078SOL    HW213134   4.743   4.721   3.378
 4079SOL     OW13135   5.300   0.353   4.150
 4079SOL    HW113136   5.230   0.283   4.164
 4079SOL    HW213137   5.326   0.394   4.237
 4080SOL     OW13138   2.899   3.439   3.599
 4080SOL    HW113139   2.948   3.382   3.534
 4080SOL    HW213140   2.824   3.486   3.553
 4081SOL     OW13141   2.605   1.539   0.006
 4081SOL    HW113142   2.656   1.625   0.012
 4081SOL    HW213143   2.507   1.557   0.013
 4082SOL     OW13144   1.075   1.746   6.029
 4082SOL    HW113145   1.022   1.664   6.050
 4082SOL    HW213146   1.078   1.760   5.930
 4083SOL     OW13147   6.297   5.277   2.364
 4083SOL    HW113148   6.379   5.265   2.309
 4083SOL    HW213149   6.270   5.188   2.403
 4084SOL     OW13150   4.863   6.679   1.920
 4084SOL    HW113151   4.881   6.614   1.994
 4084SOL    HW213152   4.773   6.660   1.881
 4085SOL     OW13153   2.390   4.282   2.732
 4085SOL    HW113154   2.479   4.245   2.757
 4085SOL    HW213155   2.318   4.219   2.761
 4086SOL     OW13156   5.691   5.209   5.011
 4086SOL    HW113157   5.648   5.272   5.075
 4086SOL    HW213158   5.791   5.219   5.016
 4087SOL     OW13159   2.138   0.770   2.301
 4087SOL    HW113160   2.069   0.729   2.241
 4087SOL    HW213161   2.093   0.819   2.375
 4088SOL     OW13162   0.205   1.459   5.525
 4088SOL    HW113163   0.305   1.451   5.522
 4088SOL    HW213164   0.165   1.400   5.455
 4089SOL     OW13165   1.460   0.752   2.977
 4089SOL    HW113166   1.412   0.839   2.961
 4089SOL    HW213167   1.525   0.736   2.902
 4090SOL     OW13168   3.060   2.289   5.634
 4090SOL    HW113169   3.037   2.367   5.691
 4090SOL    HW213170   3.038   2.310   5.538
 4091SOL     OW13171   3.355   5.885   2.312
 4091SOL    HW113172   3.258   5.882   2.338
 4091SOL    HW213173   3.411   5.857   2.390
 4092SOL     OW13174   5.122   1.858   6.095
 4092SOL    HW113175   5.037   1.905   6.070
 4092SOL    HW213176   5.191   1.877   6.025
 4093SOL     OW13177   5.590   3.750   2.779
 4093SOL    HW113178   5.611   3.810   2.857
 4093SOL    HW213179   5.588   3.804   2.695
 4094SOL     OW13180   6.907   6.773   0.340
 4094SOL    HW113181   6.854   6.724   0.270
 4094SOL    HW213182   7.003   6.776   0.313
 4095SOL     OW13183   1.922   5.319   0.775
 4095SOL    HW113184   1.873   5.380   0.713
 4095SOL    HW213185   1.879   5.228   0.773
 4096SOL     OW13186   0.671   0.044   6.113
 4096SOL    HW113187   0.714   6.980   6.118
 4096SOL    HW213188   0.571   0.033   6.111
 4097SOL     OW13189   1.042   3.960   5.430
 4097SOL    HW113190   0.977   4.033   5.408
 4097SOL    HW213191   1.130   3.979   5.387
 4098SOL     OW13192   1.464   6.082   2.128
 4098SOL    HW113193   1.554   6.124   2.119
 4098SOL    HW213194   1.451   6.050   2.222
 4099SOL     OW13195   6.831   3.153   5.413
 4099SOL    HW113196   6.847   3.056   5.397
 4099SOL    HW213197   6.779   3.164   5.498
 4100SOL     OW13198   2.487   0.433   3.383
 4100SOL    HW113199   2.401   0.397   3.347
 4100SOL    HW213200   2.552   0.444   3.307
 4101SOL     OW13201   6.467   6.291   5.976
 4101SOL    HW113202   6.495   6.339   5.893
 4101SOL    HW213203   6.373   6.257   5.964
 4102SOL     OW13204   1.715   5.876   0.447
 4102SOL    HW113205   1.800   5.928   0.436
 4102SOL    HW213206   1.735   5.779   0.433
 4103SOL     OW13207   2.510   5.063   2.897
 4103SOL    HW113208   2.465   5.146   2.929
 4103SOL    HW213209   2.495   5.053   2.798
 4104SOL     OW13210   1.497   6.091   5.104
 4104SOL    HW113211   1.421   6.050   5.054
 4104SOL    HW213212   1.472   6.101   5.200
 4105SOL     OW13213   3.468   6.532   1.818
 4105SOL    HW113214   3.503   6.450   1.772
 4105SOL    HW213215   3.536   6.565   1.883
 4106SOL     OW13216   1.787   0.401   2.655
 4106SOL    HW113217   1.688   0.397   2.666
 4106SOL    HW213218   1.825   0.309   2.658
 4107SOL     OW13219   1.471   1.742   0.851
 4107SOL    HW113220   1.535   1.797   0.903
 4107SOL    HW213221   1.377   1.768   0.874
 4108SOL     OW13222   6.865   6.646   5.039
 4108SOL    HW113223   6.831   6.732   5.002
 4108SOL    HW213224   6.925   6.602   4.971
 4109SOL     OW13225   4.728   6.578   4.756
 4109SOL    HW113226   4.753   6.481   4.750
 4109SOL    HW213227   4.630   6.588   4.737
 4110SOL     OW13228   4.021   3.470   0.438
 4110SOL    HW113229   4.084   3.500   0.367
 4110SOL    HW213230   4.061   3.489   0.528
 4111SOL     OW13231   5.820   4.735   3.873
 4111SOL    HW113232   5.881   4.789   3.815
 4111SOL    HW213233   5.843   4.638   3.863
 4112SOL     OW13234   3.986   6.079   5.339
 4112SOL    HW113235   4.003   6.032   5.253
 4112SOL    HW213236   4.009   6.176   5.330
 4113SOL     OW13237   5.032   5.353   5.402
 4113SOL    HW113238   4.972   5.398   5.468
 4113SOL    HW213239   5.115   5.407   5.390
 4114SOL     OW13240   6.796   1.121   2.676
 4114SOL    HW113241   6.732   1.191   2.644
 4114SOL    HW213242   6.797   1.120   2.776
 4115SOL     OW13243   4.086   6.080   4.617
 4115SOL    HW113244   4.009   6.054   4.558
 4115SOL    HW213245   4.157   6.010   4.612
 4116SOL     OW13246   6.317   3.126   4.243
 4116SOL    HW113247   6.353   3.043   4.286
 4116SOL    HW213248   6.320   3.116   4.144
 4117SOL     OW13249   0.334   1.457   2.951
 4117SOL    HW113250   0.296   1.536   2.902
 4117SOL    HW213251   0.299   1.373   2.911
 4118SOL     OW13252   1.193   0.307   1.507
 4118SOL    HW113253   1.182   0.382   1.572
 4118SOL    HW213254   1.155   0.334   1.418
 4119SOL     OW13255   0.088   0.948   5.104
 4119SOL    HW113256   0.112   0.932   5.200
 4119SOL    HW213257   7.021   0.918   5.088
 4120SOL     OW13258   1.814   0.791   6.263
 4120SOL    HW113259   1.809   0.773   6.164
 4120SOL    HW213260   1.909   0.781   6.294
 4121SOL     OW13261   6.595   1.012   1.273
 4121SOL    HW113262   6.540   1.095   1.262
 4121SOL    HW213263   6.577   0.950   1.196
 4122SOL     OW13264   0.933   4.976   3.121
 4122SOL    HW113265   0.865   4.904   3.132
 4122SOL    HW213266   0.887   5.065   3.121
 4123SOL     OW13267   5.800   4.401   1.584
 4123SOL    HW113268   5.875   4.371   1.642
 4123SOL    HW213269   5.798   4.346   1.500
 4124SOL     OW13270   6.297   6.860   0.274
 4124SOL    HW113271   6.386   6.865   0.320
 4124SOL    HW213272   6.244   6.942   0.296
 4125SOL     OW13273   0.006   2.711   6.459
 4125SOL    HW113274   6.987   2.638   6.408
 4125SOL    HW213275   7.010   2.702   6.556
 4126SOL     OW13276   1.321   4.052   4.051
 4126SOL    HW113277   1.396   4.116   4.032
 4126SOL    HW213278   1.254   4.056   3.977
 4127SOL     OW13279   5.204   2.111   3.634
 4127SOL    HW113280   5.169   2.040   3.695
 4127SOL    HW213281   5.141   2.189   3.634
 4128SOL     OW13282   6.638   2.260   5.876
 4128SOL    HW113283   6.571   2.294   5.810
 4128SOL    HW213284   6.594   2.248   5.965
 4129SOL     OW13285   3.639   0.665   1.717
 4129SOL    HW113286   3.568   0.644   1.783
 4129SOL    HW213287   3.624   0.610   1.634
 4130SOL     OW13288   5.208   2.534   6.894
 4130SOL    HW113289   5.170   2.589   6.969
 4130SOL    HW213290   5.302   2.562   6.876
 4131SOL     OW13291   4.932   6.031   3.929
 4131SOL    HW113292   4.972   6.045   4.019
 4131SOL    HW213293   4.849   6.085   3.920
 4132SOL     OW13294   6.540   4.065   2.931
 4132SOL    HW113295   6.522   3.968   2.916
 4132SOL    HW213296   6.607   4.075   3.005
 4133SOL     OW13297   5.436   6.160   3.903
 4133SOL    HW113298   5.502   6.201   3.966
 4133SOL    HW213299   5.367   6.229   3.877
 4134SOL     OW13300   1.243   3.647   1.080
 4134SOL    HW113301   1.341   3.652   1.099
 4134SOL    HW213302   1.198   3.590   1.149
 4135SOL     OW13303   5.945   1.416   0.813
 4135SOL    HW113304   5.941   1.333   0.869
 4135SOL    HW213305   6.031   1.464   0.832
 4136SOL     OW13306   0.718   4.760   0.215
 4136SOL    HW113307   0.635   4.815   0.223
 4136SOL    HW213308   0.750   4.761   0.121
 4137SOL     OW13309   0.089   2.692   5.762
 4137SOL    HW113310   0.092   2.764   5.831
 4137SOL    HW213311   7.021   2.679   5.732
 4138SOL     OW13312   5.152   6.991   6.188
 4138SOL    HW113313   5.193   6.960   6.273
 4138SOL    HW213314   5.156   0.064   6.183
 4139SOL     OW13315   1.414   4.576   2.439
 4139SOL    HW113316   1.491   4.587   2.376
 4139SOL    HW213317   1.397   4.661   2.488
 4140SOL     OW13318   2.611   0.213   6.849
 4140SOL    HW113319   2.549   0.139   6.875
 4140SOL    HW213320   2.571   0.265   6.774
 4141SOL     OW13321   4.976   0.321   5.824
 4141SOL    HW113322   4.922   0.366   5.895
 4141SOL    HW213323   5.054   0.379   5.801
 4142SOL     OW13324   6.608   6.452   1.449
 4142SOL    HW113325   6.668   6.372   1.460
 4142SOL    HW213326   6.588   6.491   1.539
 4143SOL     OW13327   6.692   4.038   6.880
 4143SOL    HW113328   6.758   4.095   6.831
 4143SOL    HW213329   6.686   3.948   6.835
 4144SOL     OW13330   4.189   0.459   1.509
 4144SOL    HW113331   4.164   0.526   1.579
 4144SOL    HW213332   4.166   0.367   1.541
 4145SOL     OW13333   5.740   0.581   0.907
 4145SOL    HW113334   5.818   0.541   0.955
 4145SOL    HW213335   5.731   0.677   0.933
 4146SOL     OW13336   4.304   0.253   2.829
 4146SOL    HW113337   4.238   0.201   2.885
 4146SOL    HW213338   4.260   0.281   2.744
 4147SOL     OW13339   4.665   4.552   6.642
 4147SOL    HW113340   4.619   4.638   6.663
 4147SOL    HW213341   4.596   4.481   6.625
 4148SOL     OW13342   2.591   1.452   5.997
 4148SOL    HW113343   2.685   1.482   5.982
 4148SOL    HW213344   2.587   1.353   5.998
 4149SOL     OW13345   1.699   3.376   6.431
 4149SOL    HW113346   1.718   3.346   6.524
 4149SOL    HW213347   1.695   3.297   6.370
 4150SOL     OW13348   6.138   1.628   0.571
 4150SOL    HW113349   6.055   1.578   0.545
 4150SOL    HW213350   6.173   1.592   0.657
 4151SOL     OW13351   2.685   5.982   4.854
 4151SOL    HW113352   2.741   5.909   4.816
 4151SOL    HW213353   2.744   6.056   4.887
 4152SOL     OW13354   3.136   4.289   1.206
 4152SOL    HW113355   3.079   4.328   1.134
 4152SOL    HW213356   3.101   4.198   1.231
 4153SOL     OW13357   6.744   6.226   1.532
 4153SOL    HW113358   6.774   6.133   1.549
 4153SOL    HW213359   6.804   6.290   1.580
 4154SOL     OW13360   0.210   6.407   4.587
 4154SOL    HW113361   0.159   6.423   4.502
 4154SOL    HW213362   0.280   6.479   4.597
 4155SOL     OW13363   5.664   1.182   1.640
 4155SOL    HW113364   5.731   1.176   1.566
 4155SOL    HW213365   5.619   1.271   1.637
 4156SOL     OW13366   0.702   4.443   5.753
 4156SOL    HW113367   0.711   4.469   5.657
 4156SOL    HW213368   0.774   4.488   5.807
 4157SOL     OW13369   5.267   5.985   0.660
 4157SOL    HW113370   5.357   5.943   0.663
 4157SOL    HW213371   5.222   5.975   0.748
 4158SOL     OW13372   0.044   2.349   0.763
 4158SOL    HW113373   7.000   2.375   0.829
 4158SOL    HW213374   0.005   2.352   0.670
 4159SOL     OW13375   3.262   0.807   4.646
 4159SOL    HW113376   3.307   0.819   4.558
 4159SOL    HW213377   3.330   0.808   4.719
 4160SOL     OW13378   1.871   0.196   5.804
 4160SOL    HW113379   1.875   0.223   5.708
 4160SOL    HW213380   1.886   0.277   5.862
 4161SOL     OW13381   3.438   2.879   3.517
 4161SOL    HW113382   3.471   2.799   3.467
 4161SOL    HW213383   3.374   2.930   3.459
 4162SOL     OW13384   5.460   5.944   1.532
 4162SOL    HW113385   5.410   5.863   1.501
 4162SOL    HW213386   5.490   5.997   1.452
 4163SOL     OW13387   3.633   5.611   1.206
 4163SOL    HW113388   3.673   5.695   1.243
 4163SOL    HW213389   3.543   5.597   1.248
 4164SOL     OW13390   5.324   1.917   6.895
 4164SOL    HW113391   5.390   1.950   6.828
 4164SOL    HW213392   5.313   1.818   6.885
 4165SOL     OW13393   3.613   1.866   4.193
 4165SOL    HW113394   3.676   1.834   4.122
 4165SOL    HW213395   3.643   1.954   4.228
 4166SOL     OW13396   6.164   2.085   2.265
 4166SOL    HW113397   6.110   2.159   2.306
 4166SOL    HW213398   6.138   1.998   2.308
 4167SOL     OW13399   3.899   5.522   4.700
 4167SOL    HW113400   3.917   5.614   4.734
 4167SOL    HW213401   3.804   5.517   4.668
 4168SOL     OW13402   5.263   4.024   6.668
 4168SOL    HW113403   5.224   4.097   6.723
 4168SOL    HW213404   5.361   4.039   6.657
 4169SOL     OW13405   4.876   3.224   6.909
 4169SOL    HW113406   4.939   3.181   6.974
 4169SOL    HW213407   4.928   3.280   6.844
 4170SOL     OW13408   1.052   3.216   5.211
 4170SOL    HW113409   1.092   3.161   5.284
 4170SOL    HW213410   1.103   3.203   5.126
 4171SOL     OW13411   0.288   1.295   6.247
 4171SOL    HW113412   0.360   1.361   6.223
 4171SOL    HW213413   0.293   1.217   6.185
 4172SOL     OW13414   2.546   2.621   6.295
 4172SOL    HW113415   2.546   2.626   6.395
 4172SOL    HW213416   2.559   2.527   6.266
 4173SOL     OW13417   5.194   1.527   5.364
 4173SOL    HW113418   5.256   1.470   5.311
 4173SOL    HW213419   5.115   1.552   5.308
 4174SOL     OW13420   3.606   6.840   4.139
 4174SOL    HW113421   3.669   6.764   4.153
 4174SOL    HW213422   3.623   6.882   4.050
 4175SOL     OW13423   1.125   4.918   6.828
 4175SOL    HW113424   1.178   4.888   6.908
 4175SOL    HW213425   1.073   4.840   6.793
 4176SOL     OW13426   4.818   0.011   5.408
 4176SOL    HW113427   4.862   0.071   5.475
 4176SOL    HW213428   4.735   0.055   5.374
 4177SOL     OW13429   3.967   5.391   2.894
 4177SOL    HW113430   3.970   5.303   2.941
 4177SOL    HW213431   4.059   5.416   2.865
 4178SOL     OW13432   3.675   6.096   1.271
 4178SOL    HW113433   3.614   6.032   1.225
 4178SOL    HW213434   3.679   6.182   1.220
 4179SOL     OW13435   4.633   2.072   6.923
 4179SOL    HW113436   4.720   2.022   6.921
 4179SOL    HW213437   4.606   2.088   7.018
 4180SOL     OW13438   3.742   4.180   0.137
 4180SOL    HW113439   3.656   4.155   0.180
 4180SOL    HW213440   3.729   4.187   0.038
 4181SOL     OW13441   5.752   6.326   5.923
 4181SOL    HW113442   5.719   6.301   6.015
 4181SOL    HW213443   5.677   6.369   5.872
 4182SOL     OW13444   0.402   5.852   5.541
 4182SOL    HW113445   0.373   5.940   5.504
 4182SOL    HW213446   0.334   5.818   5.606
 4183SOL     OW13447   4.767   2.109   0.237
 4183SOL    HW113448   4.852   2.114   0.185
 4183SOL    HW213449   4.786   2.126   0.334
 4184SOL     OW13450   3.313   5.449   3.443
 4184SOL    HW113451   3.215   5.439   3.432
 4184SOL    HW213452   3.352   5.492   3.361
 4185SOL     OW13453   4.799   4.075   3.459
 4185SOL    HW113454   4.785   4.068   3.558
 4185SOL    HW213455   4.861   4.002   3.429
 4186SOL     OW13456   2.546   5.254   6.850
 4186SOL    HW113457   2.517   5.186   6.917
 4186SOL    HW213458   2.468   5.281   6.794
 4187SOL     OW13459   2.506   4.403   6.159
 4187SOL    HW113460   2.493   4.399   6.258
 4187SOL    HW213461   2.417   4.404   6.114
 4188SOL     OW13462   5.373   0.509   6.461
 4188SOL    HW113463   5.435   0.509   6.540
 4188SOL    HW213464   5.311   0.431   6.468
 4189SOL     OW13465   5.065   5.060   3.007
 4189SOL    HW113466   4.982   5.005   3.004
 4189SOL    HW213467   5.143   5.004   2.977
 4190SOL     OW13468   6.334   6.712   1.894
 4190SOL    HW113469   6.398   6.640   1.920
 4190SOL    HW213470   6.373   6.801   1.917
 4191SOL     OW13471   4.248   2.593   6.424
 4191SOL    HW113472   4.322   2.528   6.442
 4191SOL    HW213473   4.285   2.686   6.422
 4192SOL     OW13474   1.655   3.926   6.190
 4192SOL    HW113475   1.564   3.931   6.147
 4192SOL    HW213476   1.647   3.879   6.278
 4193SOL     OW13477   6.682   0.655   0.417
 4193SOL    HW113478   6.694   0.557   0.433
 4193SOL    HW213479   6.611   0.690   0.479
 4194SOL     OW13480   5.903   0.660   6.523
 4194SOL    HW113481   5.911   0.560   6.525
 4194SOL    HW213482   5.844   0.687   6.448
 4195SOL     OW13483   2.596   6.275   0.918
 4195SOL    HW113484   2.682   6.235   0.951
 4195SOL    HW213485   2.612   6.369   0.888
 4196SOL     OW13486   0.498   2.742   3.448
 4196SOL    HW113487   0.530   2.651   3.424
 4196SOL    HW213488   0.404   2.737   3.481
 4197SOL     OW13489   3.919   0.936   0.225
 4197SOL    HW113490   3.850   0.891   0.168
 4197SOL    HW213491   3.982   0.987   0.167
 4198SOL     OW13492   0.059   2.367   2.232
 4198SOL    HW113493   0.052   2.462   2.262
 4198SOL    HW213494   0.076   2.364   2.134
 4199SOL     OW13495   0.610   3.641   6.866
 4199SOL    HW113496   0.691   3.643   6.807
 4199SOL    HW213497   0.528   3.655   6.811
 4200SOL     OW13498   4.950   1.820   3.594
 4200SOL    HW113499   4.873   1.864   3.641
 4200SOL    HW213500   4.919   1.783   3.506
 4201SOL     OW13501   5.646   0.185   4.588
 4201SOL    HW113502   5.546   0.191   4.593
 4201SOL    HW213503   5.672   0.114   4.523
 4202SOL     OW13504   4.595   4.064   1.677
 4202SOL    HW113505   4.585   4.094   1.582
 4202SOL    HW213506   4.559   4.134   1.738
 4203SOL     OW13507   6.176   4.072   5.503
 4203SOL    HW113508   6.097   4.031   5.547
 4203SOL    HW213509   6.236   4.000   5.467
 4204SOL     OW13510   1.550   4.252   6.278
 4204SOL    HW113511   1.634   4.211   6.243
 4204SOL    HW213512   1.555   4.351   6.269
 4205SOL     OW13513   5.052   6.212   6.413
 4205SOL    HW113514   5.119   6.284   6.434
 4205SOL    HW213515   4.994   6.196   6.492
 4206SOL     OW13516   2.611   1.915   4.406
 4206SOL    HW113517   2.692   1.930   4.350
 4206SOL    HW213518   2.619   1.828   4.455
 4207SOL     OW13519   1.881   2.462   1.896
 4207SOL    HW113520   1.911   2.390   1.833
 4207SOL    HW213521   1.957   2.486   1.957
 4208SOL     OW13522   2.676   2.465   3.626
 4208SOL    HW113523   2.732   2.408   3.566
 4208SOL    HW213524   2.718   2.470   3.716
 4209SOL     OW13525   6.423   5.745   2.391
 4209SOL    HW113526   6.507   5.795   2.413
 4209SOL    HW213527   6.422   5.724   2.293
 4210SOL     OW13528   2.969   4.342   5.358
 4210SOL    HW113529   2.961   4.412   5.287
 4210SOL    HW213530   2.972   4.386   5.448
 4211SOL     OW13531   3.803   2.852   5.704
 4211SOL    HW113532   3.794   2.951   5.698
 4211SOL    HW213533   3.858   2.818   5.628
 4212SOL     OW13534   0.980   2.359   3.318
 4212SOL    HW113535   0.918   2.283   3.339
 4212SOL    HW213536   0.980   2.424   3.393
 4213SOL     OW13537   3.540   0.310   4.158
 4213SOL    HW113538   3.564   0.222   4.199
 4213SOL    HW213539   3.585   0.384   4.208
 4214SOL     OW13540   6.659   6.208   3.396
 4214SOL    HW113541   6.597   6.186   3.321
 4214SOL    HW213542   6.745   6.243   3.358
 4215SOL     OW13543   5.914   0.081   5.372
 4215SOL    HW113544   5.840   0.014   5.375
 4215SOL    HW213545   5.881   0.168   5.410
 4216SOL     OW13546   2.528   5.372   2.382
 4216SOL    HW113547   2.486   5.374   2.473
 4216SOL    HW213548   2.472   5.316   2.320
 4217SOL     OW13549   1.699   0.541   3.292
 4217SOL    HW113550   1.730   0.571   3.202
 4217SOL    HW213551   1.600   0.556   3.300
 4218SOL     OW13552   3.344   0.800   2.032
 4218SOL    HW113553   3.366   0.796   2.130
 4218SOL    HW213554   3.393   0.877   1.990
 4219SOL     OW13555   3.899   5.165   3.665
 4219SOL    HW113556   3.909   5.067   3.646
 4219SOL    HW213557   3.851   5.177   3.752
 4220SOL     OW13558   6.146   2.169   1.219
 4220SOL    HW113559   6.175   2.178   1.315
 4220SOL    HW213560   6.052   2.202   1.210
 4221SOL     OW13561   0.444   6.309   0.528
 4221SOL    HW113562   0.521   6.249   0.508
 4221SOL    HW213563   0.385   6.316   0.448
 4222SOL     OW13564   4.869   3.243   4.606
 4222SOL    HW113565   4.866   3.314   4.675
 4222SOL    HW213566   4.936   3.174   4.631
 4223SOL     OW13567   3.341   4.078   2.288
 4223SOL    HW113568   3.368   4.072   2.384
 4223SOL    HW213569   3.242   4.093   2.281
 4224SOL     OW13570   4.786   4.596   4.666
 4224SOL    HW113571   4.714   4.568   4.729
 4224SOL    HW213572   4.867   4.540   4.680
 4225SOL     OW13573   1.029   2.249   6.041
 4225SOL    HW113574   0.938   2.281   6.013
 4225SOL    HW213575   1.090   2.327   6.053
 4226SOL     OW13576   6.501   4.765   4.556
 4226SOL    HW113577   6.485   4.817   4.472
 4226SOL    HW213578   6.527   4.828   4.629
 4227SOL     OW13579   5.039   5.236   1.573
 4227SOL    HW113580   5.022   5.139   1.555
 4227SOL    HW213581   4.956   5.278   1.608
 4228SOL     OW13582   1.811   4.295   3.492
 4228SOL    HW113583   1.880   4.367   3.490
 4228SOL    HW213584   1.758   4.298   3.407
 4229SOL     OW13585   5.844   6.249   5.345
 4229SOL    HW113586   5.904   6.267   5.423
 4229SOL    HW213587   5.897   6.209   5.271
 4230SOL     OW13588   0.337   0.969   2.040
 4230SOL    HW113589   0.334   1.020   2.126
 4230SOL    HW213590   0.376   1.027   1.968
 4231SOL     OW13591   0.843   0.520   6.702
 4231SOL    HW113592   0.902   0.475   6.768
 4231SOL    HW213593   0.789   0.451   6.654
 4232SOL     OW13594   1.774   4.693   3.861
 4232SOL    HW113595   1.813   4.761   3.923
 4232SOL    HW213596   1.696   4.648   3.906
 4233SOL     OW13597   4.322   5.416   2.397
 4233SOL    HW113598   4.241   5.363   2.371
 4233SOL    HW213599   4.355   5.384   2.486
 4234SOL     OW13600   3.256   5.824   6.025
 4234SOL    HW113601   3.297   5.880   6.097
 4234SOL    HW213602   3.267   5.727   6.047
 4235SOL     OW13603   7.000   5.831   6.491
 4235SOL    HW113604   6.955   5.862   6.574
 4235SOL    HW213605   0.053   5.888   6.473
 4236SOL     OW13606   0.562   5.025   3.178
 4236SOL    HW113607   0.608   5.112   3.160
 4236SOL    HW213608   0.550   4.975   3.093
 4237SOL     OW13609   6.691   4.741   3.468
 4237SOL    HW113610   6.641   4.707   3.548
 4237SOL    HW213611   6.734   4.829   3.491
 4238SOL     OW13612   2.924   5.656   2.801
 4238SOL    HW113613   2.863   5.687   2.874
 4238SOL    HW213614   2.972   5.735   2.762
 4239SOL     OW13615   4.012   1.104   3.476
 4239SOL    HW113616   3.994   1.014   3.516
 4239SOL    HW213617   4.001   1.099   3.377
 4240SOL     OW13618   5.881   6.692   2.064
 4240SOL    HW113619   5.784   6.716   2.067
 4240SOL    HW213620   5.902   6.648   1.976
 4241SOL     OW13621   6.673   4.464   0.520
 4241SOL    HW113622   6.703   4.546   0.470
 4241SOL    HW213623   6.574   4.467   0.531
 4242SOL     OW13624   3.493   2.055   3.395
 4242SOL    HW113625   3.395   2.038   3.384
 4242SOL    HW213626   3.533   2.079   3.306
 4243SOL     OW13627   3.797   1.956   2.915
 4243SOL    HW113628   3.801   2.037   2.856
 4243SOL    HW213629   3.769   1.877   2.860
 4244SOL     OW13630   3.294   3.061   4.722
 4244SOL    HW113631   3.217   3.073   4.784
 4244SOL    HW213632   3.356   2.992   4.758
 4245SOL     OW13633   6.388   0.372   6.756
 4245SOL    HW113634   6.446   0.442   6.799
 4245SOL    HW213635   6.385   0.388   6.657
 4246SOL     OW13636   0.057   4.453   6.364
 4246SOL    HW113637   0.101   4.412   6.444
 4246SOL    HW213638   0.073   4.395   6.284
 4247SOL     OW13639   0.160   6.080   5.049
 4247SOL    HW113640   0.170   6.139   4.969
 4247SOL    HW213641   0.251   6.057   5.084
 4248SOL     OW13642   2.235   4.068   6.501
 4248SOL    HW113643   2.164   4.104   6.561
 4248SOL    HW213644   2.293   4.005   6.552
 4249SOL     OW13645   5.450   3.835   5.906
 4249SOL    HW113646   5.533   3.780   5.915
 4249SOL    HW213647   5.369   3.777   5.916
 4250SOL     OW13648   0.678   3.970   3.595
 4250SOL    HW113649   0.592   3.922   3.577
 4250SOL    HW213650   0.752   3.904   3.609
 4251SOL     OW13651   5.546   4.772   6.889
 4251SOL    HW113652   5.610   4.700   6.914
 4251SOL    HW213653   5.596   4.848   6.846
 4252SOL     OW13654   6.375   5.467   4.896
 4252SOL    HW113655   6.361   5.519   4.811
 4252SOL    HW213656   6.471   5.471   4.922
 4253SOL     OW13657   3.619   5.857   3.147
 4253SOL    HW113658   3.536   5.909   3.167
 4253SOL    HW213659   3.639   5.862   3.049
 4254SOL     OW13660   2.847   3.653   1.514
 4254SOL    HW113661   2.749   3.665   1.525
 4254SOL    HW213662   2.896   3.705   1.585
 4255SOL     OW13663   0.585   2.193   4.304
 4255SOL    HW113664   0.526   2.252   4.359
 4255SOL    HW213665   0.677   2.190   4.345
 4256SOL     OW13666   2.194   1.004   2.156
 4256SOL    HW113667   2.172   0.910   2.182
 4256SOL    HW213668   2.235   1.005   2.064
 4257SOL     OW13669   4.307   2.267   5.215
 4257SOL    HW113670   4.243   2.303   5.147
 4257SOL    HW213671   4.295   2.168   5.222
 4258SOL     OW13672   5.003   6.074   2.886
 4258SOL    HW113673   5.060   6.019   2.823
 4258SOL    HW213674   4.925   6.019   2.916
 4259SOL     OW13675   1.886   3.187   1.076
 4259SOL    HW113676   1.934   3.120   1.021
 4259SOL    HW213677   1.893   3.163   1.173
 4260SOL     OW13678   3.681   5.565   4.340
 4260SOL    HW113679   3.627   5.580   4.423
 4260SOL    HW213680   3.758   5.629   4.339
 4261SOL     OW13681   0.848   1.760   2.932
 4261SOL    HW113682   0.897   1.771   3.019
 4261SOL    HW213683   0.869   1.838   2.872
 4262SOL     OW13684   0.279   6.535   6.364
 4262SOL    HW113685   0.361   6.550   6.419
 4262SOL    HW213686   0.303   6.483   6.282
 4263SOL     OW13687   4.698   4.961   6.398
 4263SOL    HW113688   4.664   4.867   6.401
 4263SOL    HW213689   4.672   5.009   6.481
 4264SOL     OW13690   0.385   0.461   1.219
 4264SOL    HW113691   0.442   0.516   1.279
 4264SOL    HW213692   0.311   0.418   1.272
 4265SOL     OW13693   1.541   1.858   0.105
 4265SOL    HW113694   1.538   1.955   0.130
 4265SOL    HW213695   1.513   1.803   0.184
 4266SOL     OW13696   3.579   4.731   1.237
 4266SOL    HW113697   3.649   4.683   1.185
 4266SOL    HW213698   3.525   4.664   1.290
 4267SOL     OW13699   1.204   4.501   5.609
 4267SOL    HW113700   1.252   4.564   5.548
 4267SOL    HW213701   1.259   4.419   5.623
 4268SOL     OW13702   1.892   0.950   0.881
 4268SOL    HW113703   1.899   0.959   0.980
 4268SOL    HW213704   1.795   0.942   0.855
 4269SOL     OW13705   2.449   4.316   0.675
 4269SOL    HW113706   2.407   4.313   0.584
 4269SOL    HW213707   2.381   4.291   0.744
 4270SOL     OW13708   3.555   2.881   6.452
 4270SOL    HW113709   3.547   2.946   6.376
 4270SOL    HW213710   3.646   2.889   6.493
 4271SOL     OW13711   1.133   0.589   0.759
 4271SOL    HW113712   1.195   0.628   0.827
 4271SOL    HW213713   1.102   0.499   0.790
 4272SOL     OW13714   0.100   3.818   3.852
 4272SOL    HW113715   0.095   3.842   3.755
 4272SOL    HW213716   0.160   3.739   3.863
 4273SOL     OW13717   5.877   6.833   3.870
 4273SOL    HW113718   5.908   6.808   3.778
 4273SOL    HW213719   5.813   6.763   3.904
 4274SOL     OW13720   2.288   0.470   4.004
 4274SOL    HW113721   2.269   0.375   4.029
 4274SOL    HW213722   2.334   0.473   3.916
 4275SOL     OW13723   0.631   0.131   5.761
 4275SOL    HW113724   0.682   0.195   5.818
 4275SOL    HW213725   0.555   0.093   5.813
 4276SOL     OW13726   2.087   4.343   2.302
 4276SOL    HW113727   2.159   4.310   2.241
 4276SOL    HW213728   2.118   4.333   2.397
 4277SOL     OW13729   0.628   5.275   5.767
 4277SOL    HW113730   0.584   5.303   5.681
 4277SOL    HW213731   0.579   5.315   5.844
 4278SOL     OW13732   1.513   6.998   6.384
 4278SOL    HW113733   1.543   6.908   6.352
 4278SOL    HW213734   1.588   0.036   6.379
 4279SOL     OW13735   3.188   5.917   4.109
 4279SOL    HW113736   3.114   5.949   4.049
 4279SOL    HW213737   3.212   5.991   4.172
 4280SOL     OW13738   5.150   2.900   3.647
 4280SOL    HW113739   5.160   2.819   3.589
 4280SOL    HW213740   5.140   2.981   3.589
 4281SOL     OW13741   2.370   4.142   5.310
 4281SOL    HW113742   2.438   4.210   5.281
 4281SOL    HW213743   2.399   4.051   5.281
 4282SOL     OW13744   0.417   2.936   0.674
 4282SOL    HW113745   0.389   2.995   0.749
 4282SOL    HW213746   0.363   2.959   0.592
 4283SOL     OW13747   2.761   0.741   4.626
 4283SOL    HW113748   2.783   0.658   4.575
 4283SOL    HW213749   2.669   0.771   4.602
 4284SOL     OW13750   0.213   1.898   3.130
 4284SOL    HW113751   0.302   1.852   3.134
 4284SOL    HW213752   0.178   1.912   3.223
 4285SOL     OW13753   0.909   5.784   4.888
 4285SOL    HW113754   0.901   5.822   4.980
 4285SOL    HW213755   0.990   5.727   4.882
 4286SOL     OW13756   4.761   5.772   6.464
 4286SOL    HW113757   4.791   5.826   6.386
 4286SOL    HW213758   4.665   5.793   6.484
 4287SOL     OW13759   3.838   6.352   5.869
 4287SOL    HW113760   3.789   6.438   5.855
 4287SOL    HW213761   3.855   6.308   5.781
 4288SOL     OW13762   0.945   5.905   3.320
 4288SOL    HW113763   1.038   5.869   3.329
 4288SOL    HW213764   0.945   5.985   3.260
 4289SOL     OW13765   6.609   3.739   0.062
 4289SOL    HW113766   6.519   3.742   0.018
 4289SOL    HW213767   6.598   3.722   0.160
 4290SOL     OW13768   2.169   1.699   3.237
 4290SOL    HW113769   2.115   1.764   3.183
 4290SOL    HW213770   2.183   1.615   3.184
 4291SOL     OW13771   6.610   4.391   1.115
 4291SOL    HW113772   6.513   4.388   1.136
 4291SOL    HW213773   6.651   4.302   1.131
 4292SOL     OW13774   5.994   5.174   6.204
 4292SOL    HW113775   5.945   5.146   6.287
 4292SOL    HW213776   5.934   5.229   6.147
 4293SOL     OW13777   0.172   2.214   6.440
 4293SOL    HW113778   0.244   2.249   6.500
 4293SOL    HW213779   0.102   2.169   6.494
 4294SOL     OW13780   4.886   2.011   6.069
 4294SOL    HW113781   4.844   2.003   6.160
 4294SOL    HW213782   4.877   2.106   6.038
 4295SOL     OW13783   3.474   6.030   5.922
 4295SOL    HW113784   3.498   6.127   5.913
 4295SOL    HW213785   3.439   5.996   5.835
 4296SOL     OW13786   2.764   1.156   2.803
 4296SOL    HW113787   2.735   1.115   2.716
 4296SOL    HW213788   2.855   1.197   2.791
 4297SOL     OW13789   5.575   0.507   0.158
 4297SOL    HW113790   5.623   0.484   0.073
 4297SOL    HW213791   5.569   0.606   0.167
 4298SOL     OW13792   2.163   5.530   1.699
 4298SOL    HW113793   2.094   5.582   1.749
 4298SOL    HW213794   2.248   5.581   1.697
 4299SOL     OW13795   0.968   4.743   5.506
 4299SOL    HW113796   0.903   4.744   5.582
 4299SOL    HW213797   1.058   4.717   5.540
 4300SOL     OW13798   6.046   6.635   5.460
 4300SOL    HW113799   6.025   6.603   5.552
 4300SOL    HW213800   6.087   6.561   5.407
 4301SOL     OW13801   2.723   0.985   0.225
 4301SOL    HW113802   2.631   0.945   0.236
 4301SOL    HW213803   2.724   1.045   0.145
 4302SOL     OW13804   0.992   0.110   6.448
 4302SOL    HW113805   0.914   0.060   6.488
 4302SOL    HW213806   1.067   0.111   6.514
 4303SOL     OW13807   6.692   4.082   1.587
 4303SOL    HW113808   6.646   4.029   1.659
 4303SOL    HW213809   6.743   4.020   1.527
 4304SOL     OW13810   3.108   3.118   4.921
 4304SOL    HW113811   3.094   3.061   5.002
 4304SOL    HW213812   3.021   3.159   4.894
 4305SOL     OW13813   6.739   1.128   5.138
 4305SOL    HW113814   6.805   1.162   5.205
 4305SOL    HW213815   6.756   1.170   5.049
 4306SOL     OW13816   6.322   6.095   6.217
 4306SOL    HW113817   6.238   6.116   6.266
 4306SOL    HW213818   6.309   6.110   6.119
 4307SOL     OW13819   5.038   3.279   0.403
 4307SOL    HW113820   5.136   3.294   0.401
 4307SOL    HW213821   5.015   3.217   0.479
 4308SOL     OW13822   3.765   6.624   5.228
 4308SOL    HW113823   3.849   6.572   5.213
 4308SOL    HW213824   3.714   6.630   5.142
 4309SOL     OW13825   1.917   0.563   1.311
 4309SOL    HW113826   1.992   0.614   1.353
 4309SOL    HW213827   1.910   0.588   1.214
 4310SOL     OW13828   1.635   0.701   2.774
 4310SOL    HW113829   1.733   0.702   2.753
 4310SOL    HW213830   1.596   0.613   2.747
 4311SOL     OW13831   1.091   5.659   4.518
 4311SOL    HW113832   1.045   5.574   4.492
 4311SOL    HW213833   1.056   5.689   4.607
 4312SOL     OW13834   1.555   6.149   1.577
 4312SOL    HW113835   1.514   6.138   1.486
 4312SOL    HW213836   1.651   6.122   1.572
 4313SOL     OW13837   5.049   0.822   1.754
 4313SOL    HW113838   4.969   0.787   1.706
 4313SOL    HW213839   5.022   0.902   1.808
 4314SOL     OW13840   5.741   3.332   2.167
 4314SOL    HW113841   5.700   3.401   2.107
 4314SOL    HW213842   5.835   3.359   2.188
 4315SOL     OW13843   2.438   1.447   2.583
 4315SOL    HW113844   2.427   1.544   2.606
 4315SOL    HW213845   2.362   1.395   2.621
 4316SOL     OW13846   0.766   0.867   2.450
 4316SOL    HW113847   0.728   0.867   2.357
 4316SOL    HW213848   0.700   0.824   2.512
 4317SOL     OW13849   3.969   0.181   3.645
 4317SOL    HW113850   4.025   0.156   3.566
 4317SOL    HW213851   3.998   0.128   3.724
 4318SOL     OW13852   6.334   2.290   4.860
 4318SOL    HW113853   6.239   2.296   4.891
 4318SOL    HW213854   6.345   2.346   4.778
 4319SOL     OW13855   3.056   3.095   5.976
 4319SOL    HW113856   3.123   3.089   6.051
 4319SOL    HW213857   3.091   3.156   5.905
 4320SOL     OW13858   0.590   5.722   3.490
 4320SOL    HW113859   0.527   5.672   3.549
 4320SOL    HW213860   0.538   5.772   3.421
 4321SOL     OW13861   0.749   0.240   4.853
 4321SOL    HW113862   0.711   0.229   4.761
 4321SOL    HW213863   0.705   0.318   4.897
 4322SOL     OW13864   5.711   1.479   1.188
 4322SOL    HW113865   5.680   1.454   1.097
 4322SOL    HW213866   5.655   1.554   1.223
 4323SOL     OW13867   0.253   2.138   3.871
 4323SOL    HW113868   0.287   2.230   3.887
 4323SOL    HW213869   0.292   2.102   3.786
 4324SOL     OW13870   5.646   2.761   6.335
 4324SOL    HW113871   5.560   2.791   6.375
 4324SOL    HW213872   5.714   2.749   6.407
 4325SOL     OW13873   1.630   2.113   6.169
 4325SOL    HW113874   1.602   2.100   6.074
 4325SOL    HW213875   1.575   2.054   6.229
 4326SOL     OW13876   6.458   2.546   4.949
 4326SOL    HW113877   6.537   2.484   4.950
 4326SOL    HW213878   6.452   2.592   4.861
 4327SOL     OW13879   5.463   0.727   3.324
 4327SOL    HW113880   5.471   0.824   3.303
 4327SOL    HW213881   5.482   0.711   3.421
 4328SOL     OW13882   5.531   5.098   0.146
 4328SOL    HW113883   5.593   5.108   0.224
 4328SOL    HW213884   5.530   5.182   0.092
 4329SOL     OW13885   4.905   1.307   6.673
 4329SOL    HW113886   4.893   1.213   6.703
 4329SOL    HW213887   4.877   1.316   6.577
 4330SOL     OW13888   1.068   0.920   6.361
 4330SOL    HW113889   1.004   0.885   6.429
 4330SOL    HW213890   1.049   0.877   6.272
 4331SOL     OW13891   5.384   2.361   6.667
 4331SOL    HW113892   5.466   2.328   6.620
 4331SOL    HW213893   5.411   2.415   6.747
 4332SOL     OW13894   5.519   3.252   1.833
 4332SOL    HW113895   5.457   3.278   1.759
 4332SOL    HW213896   5.466   3.229   1.914
 4333SOL     OW13897   6.381   1.370   5.548
 4333SOL    HW113898   6.476   1.354   5.576
 4333SOL    HW213899   6.338   1.434   5.611
 4334SOL     OW13900   4.445   0.237   1.620
 4334SOL    HW113901   4.381   0.252   1.696
 4334SOL    HW213902   4.412   0.161   1.564
 4335SOL     OW13903   3.784   4.535   5.710
 4335SOL    HW113904   3.813   4.486   5.793
 4335SOL    HW213905   3.862   4.543   5.647
 4336SOL     OW13906   1.073   6.390   5.558
 4336SOL    HW113907   0.992   6.413   5.504
 4336SOL    HW213908   1.052   6.314   5.619
 4337SOL     OW13909   0.373   5.753   0.150
 4337SOL    HW113910   0.420   5.835   0.184
 4337SOL    HW213911   0.308   5.721   0.218
 4338SOL     OW13912   6.028   6.117   3.796
 4338SOL    HW113913   5.995   6.033   3.753
 4338SOL    HW213914   5.969   6.193   3.769
 4339SOL     OW13915   6.800   1.276   6.744
 4339SOL    HW113916   6.736   1.347   6.717
 4339SOL    HW213917   6.890   1.293   6.703
 4340SOL     OW13918   4.585   3.385   1.730
 4340SOL    HW113919   4.578   3.292   1.692
 4340SOL    HW213920   4.676   3.397   1.769
 4341SOL     OW13921   0.793   3.828   0.375
 4341SOL    HW113922   0.743   3.800   0.458
 4341SOL    HW213923   0.748   3.790   0.295
 4342SOL     OW13924   6.967   1.976   3.022
 4342SOL    HW113925   6.912   1.947   3.101
 4342SOL    HW213926   0.031   1.935   3.027
 4343SOL     OW13927   2.656   1.982   1.430
 4343SOL    HW113928   2.616   1.917   1.366
 4343SOL    HW213929   2.705   2.053   1.380
 4344SOL     OW13930   1.981   3.685   2.449
 4344SOL    HW113931   1.979   3.592   2.412
 4344SOL    HW213932   1.888   3.717   2.465
 4345SOL     OW13933   2.365   1.634   5.766
 4345SOL    HW113934   2.458   1.616   5.734
 4345SOL    HW213935   2.302   1.570   5.722
 4346SOL     OW13936   6.737   3.459   0.998
 4346SOL    HW113937   6.638   3.459   1.013
 4346SOL    HW213938   6.783   3.429   1.082
 4347SOL     OW13939   5.399   5.757   2.471
 4347SOL    HW113940   5.447   5.695   2.409
 4347SOL    HW213941   5.342   5.821   2.418
 4348SOL     OW13942   1.284   4.179   0.047
 4348SOL    HW113943   1.218   4.157   7.002
 4348SOL    HW213944   1.268   4.120   0.126
 4349SOL     OW13945   6.701   1.115   1.686
 4349SOL    HW113946   6.643   1.084   1.762
 4349SOL    HW213947   6.677   1.210   1.663
 4350SOL     OW13948   4.759   0.216   3.542
 4350SOL    HW113949   4.664   0.244   3.531
 4350SOL    HW213950   4.768   0.159   3.623
 4351SOL     OW13951   2.924   6.959   0.339
 4351SOL    HW113952   2.905   7.007   0.253
 4351SOL    HW213953   2.993   6.889   0.323
 4352SOL     OW13954   6.074   1.574   2.693
 4352SOL    HW113955   6.005   1.505   2.716
 4352SOL    HW213956   6.030   1.662   2.680
 4353SOL     OW13957   3.043   5.697   1.733
 4353SOL    HW113958   2.960   5.686   1.787
 4353SOL    HW213959   3.109   5.626   1.759
 4354SOL     OW13960   2.612   0.609   1.361
 4354SOL    HW113961   2.595   0.686   1.299
 4354SOL    HW213962   2.702   0.571   1.343
 4355SOL     OW13963   4.843   0.214   0.629
 4355SOL    HW113964   4.855   0.140   0.695
 4355SOL    HW213965   4.854   0.178   0.536
 4356SOL     OW13966   3.479   4.088   0.164
 4356SOL    HW113967   3.462   4.010   0.225
 4356SOL    HW213968   3.450   4.172   0.208
 4357SOL     OW13969   6.142   1.082   6.958
 4357SOL    HW113970   6.227   1.104   7.007
 4357SOL    HW213971   6.160   1.075   6.860
 4358SOL     OW13972   6.120   0.971   0.932
 4358SOL    HW113973   6.050   0.926   0.988
 4358SOL    HW213974   6.087   0.981   0.838
 4359SOL     OW13975   5.740   2.838   4.361
 4359SOL    HW113976   5.793   2.922   4.349
 4359SOL    HW213977   5.771   2.769   4.295
 4360SOL     OW13978   2.043   3.561   0.801
 4360SOL    HW113979   2.042   3.468   0.764
 4360SOL    HW213980   2.137   3.589   0.819
 4361SOL     OW13981   5.826   1.880   2.320
 4361SOL    HW113982   5.923   1.885   2.343
 4361SOL    HW213983   5.790   1.791   2.349
 4362SOL     OW13984   5.021   3.869   3.038
 4362SOL    HW113985   5.101   3.928   3.026
 4362SOL    HW213986   4.938   3.923   3.024
 4363SOL     OW13987   5.452   0.634   6.155
 4363SOL    HW113988   5.462   0.699   6.230
 4363SOL    HW213989   5.478   0.543   6.185
 4364SOL     OW13990   3.572   3.788   4.593
 4364SOL    HW113991   3.599   3.860   4.657
 4364SOL    HW213992   3.636   3.785   4.516
 4365SOL     OW13993   4.290   1.301   1.070
 4365SOL    HW113994   4.199   1.260   1.066
 4365SOL    HW213995   4.294   1.365   1.147
 4366SOL     OW13996   5.389   4.755   0.734
 4366SOL    HW113997   5.365   4.689   0.805
 4366SOL    HW213998   5.403   4.845   0.775
 4367SOL     OW13999   6.997   0.034   0.879
 4367SOL    HW114000   0.037   0.100   0.912
 4367SOL    HW214001   6.950   0.072   0.799
 4368SOL     OW14002   4.393   4.584   2.016
 4368SOL    HW114003   4.358   4.607   1.925
 4368SOL    HW214004   4.438   4.495   2.013
 4369SOL     OW14005   2.935   5.519   1.319
 4369SOL    HW114006   2.879   5.479   1.247
 4369SOL    HW214007   2.952   5.616   1.297
 4370SOL     OW14008   5.678   4.322   2.533
 4370SOL    HW114009   5.658   4.354   2.440
 4370SOL    HW214010   5.770   4.352   2.559
 4371SOL     OW14011   0.569   2.153   2.521
 4371SOL    HW114012   0.541   2.078   2.461
 4371SOL    HW214013   0.520   2.147   2.608
 4372SOL     OW14014   5.130   0.136   3.310
 4372SOL    HW114015   5.215   0.158   3.262
 4372SOL    HW214016   5.151   0.106   3.403
 4373SOL     OW14017   6.358   1.949   6.375
 4373SOL    HW114018   6.366   1.876   6.307
 4373SOL    HW214019   6.449   1.987   6.394
 4374SOL     OW14020   3.769   1.575   1.359
 4374SOL    HW114021   3.764   1.624   1.272
 4374SOL    HW214022   3.863   1.575   1.393
 4375SOL     OW14023   3.492   6.115   4.230
 4375SOL    HW114024   3.560   6.114   4.304
 4375SOL    HW214025   3.536   6.086   4.145
 4376SOL     OW14026   6.938   2.094   4.574
 4376SOL    HW114027   6.994   2.016   4.545
 4376SOL    HW214028   6.982   2.179   4.546
 4377SOL     OW14029   0.014   5.246   5.995
 4377SOL    HW114030   0.048   5.205   5.910
 4377SOL    HW214031   7.000   5.175   6.052
 4378SOL     OW14032   3.272   1.679   4.031
 4378SOL    HW114033   3.340   1.634   3.973
 4378SOL    HW214034   3.272   1.635   4.121
 4379SOL     OW14035   3.565   2.261   6.154
 4379SOL    HW114036   3.603   2.172   6.176
 4379SOL    HW214037   3.477   2.274   6.200
 4380SOL     OW14038   0.537   2.039   3.085
 4380SOL    HW114039   0.451   2.083   3.113
 4380SOL    HW214040   0.520   1.943   3.066
 4381SOL     OW14041   1.529   6.002   6.945
 4381SOL    HW114042   1.493   5.940   6.875
 4381SOL    HW214043   1.500   5.970   0.009
 4382SOL     OW14044   0.758   5.088   4.355
 4382SOL    HW114045   0.761   5.147   4.274
 4382SOL    HW214046   0.748   4.993   4.326
 4383SOL     OW14047   6.504   3.742   0.746
 4383SOL    HW114048   6.591   3.695   0.754
 4383SOL    HW214049   6.469   3.764   0.837
 4384SOL     OW14050   5.285   6.726   3.801
 4384SOL    HW114051   5.332   6.770   3.725
 4384SOL    HW214052   5.344   6.656   3.841
 4385SOL     OW14053   4.726   1.649   5.923
 4385SOL    HW114054   4.793   1.722   5.914
 4385SOL    HW214055   4.713   1.604   5.835
 4386SOL     OW14056   1.775   3.397   4.657
 4386SOL    HW114057   1.855   3.349   4.691
 4386SOL    HW214058   1.723   3.434   4.734
 4387SOL     OW14059   5.672   2.114   0.842
 4387SOL    HW114060   5.598   2.047   0.843
 4387SOL    HW214061   5.635   2.203   0.814
 4388SOL     OW14062   4.891   3.733   6.972
 4388SOL    HW114063   4.812   3.693   7.018
 4388SOL    HW214064   4.866   3.823   6.936
 4389SOL     OW14065   1.660   2.141   7.010
 4389SOL    HW114066   1.740   2.196   6.988
 4389SOL    HW214067   1.662   2.056   6.957
 4390SOL     OW14068   0.102   1.581   0.864
 4390SOL    HW114069   0.134   1.486   0.869
 4390SOL    HW214070   0.130   1.631   0.946
 4391SOL     OW14071   0.610   5.568   0.654
 4391SOL    HW114072   0.635   5.583   0.558
 4391SOL    HW214073   0.583   5.473   0.666
 4392SOL     OW14074   1.054   3.302   5.932
 4392SOL    HW114075   1.042   3.336   5.839
 4392SOL    HW214076   1.101   3.370   5.987
 4393SOL     OW14077   5.899   0.234   1.799
 4393SOL    HW114078   5.879   0.196   1.890
 4393SOL    HW214079   5.998   0.242   1.788
 4394SOL     OW14080   0.492   0.260   2.483
 4394SOL    HW114081   0.458   0.353   2.492
 4394SOL    HW214082   0.436   0.210   2.418
 4395SOL     OW14083   1.930   4.537   2.141
 4395SOL    HW114084   1.976   4.474   2.205
 4395SOL    HW214085   1.831   4.523   2.147
 4396SOL     OW14086   3.076   0.945   2.761
 4396SOL    HW114087   3.169   0.911   2.776
 4396SOL    HW214088   3.061   1.027   2.817
 4397SOL     OW14089   3.538   1.222   4.716
 4397SOL    HW114090   3.473   1.153   4.748
 4397SOL    HW214091   3.504   1.313   4.739
 4398SOL     OW14092   1.930   3.233   5.662
 4398SOL    HW114093   1.943   3.320   5.711
 4398SOL    HW214094   1.974   3.239   5.572
 4399SOL     OW14095   2.796   6.490   1.727
 4399SOL    HW114096   2.819   6.415   1.664
 4399SOL    HW214097   2.881   6.532   1.761
 4400SOL     OW14098   1.747   5.914   4.723
 4400SOL    HW114099   1.682   5.945   4.653
 4400SOL    HW214100   1.838   5.950   4.701
 4401SOL     OW14101   2.884   0.011   6.282
 4401SOL    HW114102   2.871   0.106   6.312
 4401SOL    HW214103   2.795   6.998   6.258
 4402SOL     OW14104   2.242   0.943   2.631
 4402SOL    HW114105   2.260   0.919   2.726
 4402SOL    HW214106   2.308   0.896   2.572
 4403SOL     OW14107   0.589   5.165   1.779
 4403SOL    HW114108   0.554   5.208   1.695
 4403SOL    HW214109   0.685   5.188   1.790
 4404SOL     OW14110   0.678   6.674   6.116
 4404SOL    HW114111   0.681   6.626   6.203
 4404SOL    HW214112   0.763   6.726   6.103
 4405SOL     OW14113   2.089   5.205   2.562
 4405SOL    HW114114   2.030   5.125   2.550
 4405SOL    HW214115   2.054   5.261   2.637
 4406SOL     OW14116   6.230   4.068   2.393
 4406SOL    HW114117   6.225   4.126   2.312
 4406SOL    HW214118   6.140   4.027   2.411
 4407SOL     OW14119   5.869   6.822   1.080
 4407SOL    HW114120   5.930   6.858   1.009
 4407SOL    HW214121   5.823   6.741   1.046
 4408SOL     OW14122   4.025   0.757   0.705
 4408SOL    HW114123   4.051   0.662   0.724
 4408SOL    HW214124   4.022   0.808   0.791
 4409SOL     OW14125   3.147   0.677   3.595
 4409SOL    HW114126   3.051   0.701   3.581
 4409SOL    HW214127   3.159   0.641   3.688
 4410SOL     OW14128   0.540   0.279   0.815
 4410SOL    HW114129   0.569   0.364   0.861
 4410SOL    HW214130   0.468   0.236   0.869
 4411SOL     OW14131   4.574   4.486   5.385
 4411SOL    HW114132   4.544   4.391   5.388
 4411SOL    HW214133   4.579   4.522   5.478
 4412SOL     OW14134   4.507   6.130   1.850
 4412SOL    HW114135   4.592   6.178   1.872
 4412SOL    HW214136   4.429   6.188   1.873
 4413SOL     OW14137   4.245   5.926   3.847
 4413SOL    HW114138   4.202   5.897   3.762
 4413SOL    HW214139   4.344   5.931   3.834
 4414SOL     OW14140   5.171   3.662   1.434
 4414SOL    HW114141   5.205   3.657   1.527
 4414SOL    HW214142   5.242   3.634   1.370
 4415SOL     OW14143   1.576   3.855   1.022
 4415SOL    HW114144   1.661   3.904   1.002
 4415SOL    HW214145   1.511   3.919   1.063
 4416SOL     OW14146   4.906   2.814   4.125
 4416SOL    HW114147   4.860   2.739   4.078
 4416SOL    HW214148   4.994   2.783   4.160
 4417SOL     OW14149   0.087   4.212   1.645
 4417SOL    HW114150   0.076   4.262   1.559
 4417SOL    HW214151   0.003   4.220   1.699
 4418SOL     OW14152   6.271   0.662   5.966
 4418SOL    HW114153   6.321   0.595   5.912
 4418SOL    HW214154   6.335   0.714   6.022
 4419SOL     OW14155   6.768   5.933   6.690
 4419SOL    HW114156   6.847   5.980   6.728
 4419SOL    HW214157   6.689   5.947   6.749
 4420SOL     OW14158   4.197   1.931   0.957
 4420SOL    HW114159   4.099   1.933   0.975
 4420SOL    HW214160   4.241   2.008   1.003
 4421SOL     OW14161   2.004   2.961   0.392
 4421SOL    HW114162   2.093   3.002   0.374
 4421SOL    HW214163   1.996   2.874   0.342
 4422SOL     OW14164   0.125   2.886   5.965
 4422SOL    HW114165   0.151   2.941   5.886
 4422SOL    HW214166   0.171   2.920   6.047
 4423SOL     OW14167   6.375   4.573   4.695
 4423SOL    HW114168   6.426   4.487   4.696
 4423SOL    HW214169   6.427   4.641   4.643
 4424SOL     OW14170   4.732   5.820   2.726
 4424SOL    HW114171   4.723   5.732   2.772
 4424SOL    HW214172   4.656   5.833   2.663
 4425SOL     OW14173   0.547   5.859   1.287
 4425SOL    HW114174   0.490   5.842   1.367
 4425SOL    HW214175   0.489   5.864   1.205
 4426SOL     OW14176   0.154   0.514   4.357
 4426SOL    HW114177   0.089   0.564   4.299
 4426SOL    HW214178   0.155   0.418   4.329
 4427SOL     OW14179   2.192   5.833   2.508
 4427SOL    HW114180   2.215   5.867   2.599
 4427SOL    HW214181   2.161   5.738   2.514
 4428SOL     OW14182   6.925   5.440   3.351
 4428SOL    HW114183   6.832   5.440   3.315
 4428SOL    HW214184   6.923   5.452   3.450
 4429SOL     OW14185   2.841   6.383   3.069
 4429SOL    HW114186   2.921   6.403   3.125
 4429SOL    HW214187   2.772   6.455   3.081
 4430SOL     OW14188   6.067   3.536   5.226
 4430SOL    HW114189   6.015   3.577   5.151
 4430SOL    HW214190   6.020   3.454   5.258
 4431SOL     OW14191   4.153   6.752   4.769
 4431SOL    HW114192   4.060   6.721   4.750
 4431SOL    HW214193   4.161   6.777   4.866
 4432SOL     OW14194   0.896   3.634   5.969
 4432SOL    HW114195   0.868   3.545   6.007
 4432SOL    HW214196   0.828   3.703   5.994
 4433SOL     OW14197   0.836   0.664   4.153
 4433SOL    HW114198   0.906   0.729   4.182
 4433SOL    HW214199   0.771   0.709   4.093
 4434SOL     OW14200   0.002   0.812   1.747
 4434SOL    HW114201   6.995   0.905   1.734
 4434SOL    HW214202   0.003   0.790   1.845
 4435SOL     OW14203   2.223   4.054   0.581
 4435SOL    HW114204   2.277   3.972   0.562
 4435SOL    HW214205   2.264   4.133   0.534
 4436SOL     OW14206   4.464   2.179   1.733
 4436SOL    HW114207   4.525   2.100   1.723
 4436SOL    HW214208   4.373   2.149   1.761
 4437SOL     OW14209   6.431   4.435   0.018
 4437SOL    HW114210   6.386   4.392   0.096
 4437SOL    HW214211   6.443   4.367   6.972
 4438SOL     OW14212   4.284   1.116   4.823
 4438SOL    HW114213   4.383   1.114   4.841
 4438SOL    HW214214   4.237   1.055   4.886
 4439SOL     OW14215   2.261   5.857   3.122
 4439SOL    HW114216   2.166   5.848   3.092
 4439SOL    HW214217   2.281   5.954   3.140
 4440SOL     OW14218   1.296   4.608   5.216
 4440SOL    HW114219   1.320   4.527   5.162
 4440SOL    HW214220   1.362   4.681   5.198
 4441SOL     OW14221   6.932   1.826   1.161
 4441SOL    HW114222   7.006   1.773   1.204
 4441SOL    HW214223   6.882   1.767   1.097
 4442SOL     OW14224   2.105   4.864   1.090
 4442SOL    HW114225   2.121   4.767   1.112
 4442SOL    HW214226   2.029   4.898   1.145
 4443SOL     OW14227   0.391   5.867   6.215
 4443SOL    HW114228   0.371   5.790   6.276
 4443SOL    HW214229   0.404   5.950   6.269
 4444SOL     OW14230   5.765   5.382   0.542
 4444SOL    HW114231   5.854   5.340   0.561
 4444SOL    HW214232   5.759   5.408   0.446
 4445SOL     OW14233   1.928   4.207   0.057
 4445SOL    HW114234   1.935   4.121   0.109
 4445SOL    HW214235   1.877   4.191   7.000
 4446SOL     OW14236   4.340   1.660   2.050
 4446SOL    HW114237   4.253   1.709   2.058
 4446SOL    HW214238   4.414   1.726   2.037
 4447SOL     OW14239   4.119   5.616   5.418
 4447SOL    HW114240   4.043   5.673   5.448
 4447SOL    HW214241   4.099   5.520   5.437
 4448SOL     OW14242   3.409   6.653   2.231
 4448SOL    HW114243   3.478   6.583   2.213
 4448SOL    HW214244   3.348   6.622   2.304
 4449SOL     OW14245   3.740   2.009   5.861
 4449SOL    HW114246   3.730   2.076   5.787
 4449SOL    HW214247   3.681   1.930   5.843
 4450SOL     OW14248   2.194   6.601   0.161
 4450SOL    HW114249   2.161   6.612   0.255
 4450SOL    HW214250   2.274   6.541   0.160
 4451SOL     OW14251   4.657   5.402   3.210
 4451SOL    HW114252   4.670   5.499   3.189
 4451SOL    HW214253   4.746   5.361   3.230
 4452SOL     OW14254   5.047   5.208   3.739
 4452SOL    HW114255   4.996   5.250   3.814
 4452SOL    HW214256   5.044   5.109   3.748
 4453SOL     OW14257   0.554   4.480   0.975
 4453SOL    HW114258   0.504   4.504   1.058
 4453SOL    HW214259   0.491   4.481   0.897
 4454SOL     OW14260   1.128   2.176   0.645
 4454SOL    HW114261   1.078   2.228   0.715
 4454SOL    HW214262   1.204   2.231   0.610
 4455SOL     OW14263   1.465   0.548   4.584
 4455SOL    HW114264   1.434   0.544   4.489
 4455SOL    HW214265   1.475   0.644   4.611
 4456SOL     OW14266   1.888   6.302   4.258
 4456SOL    HW114267   1.807   6.351   4.288
 4456SOL    HW214268   1.865   6.245   4.179
 4457SOL     OW14269   1.076   1.382   4.365
 4457SOL    HW114270   1.110   1.415   4.454
 4457SOL    HW214271   1.143   1.319   4.325
 4458SOL     OW14272   1.332   3.214   6.342
 4458SOL    HW114273   1.359   3.305   6.311
 4458SOL    HW214274   1.253   3.221   6.403
 4459SOL     OW14275   0.704   3.867   3.273
 4459SOL    HW114276   0.683   3.857   3.370
 4459SOL    HW214277   0.673   3.957   3.241
 4460SOL     OW14278   0.464   2.712   5.260
 4460SOL    HW114279   0.533   2.770   5.216
 4460SOL    HW214280   0.455   2.739   5.356
 4461SOL     OW14281   2.150   0.861   0.807
 4461SOL    HW114282   2.077   0.927   0.825
 4461SOL    HW214283   2.194   0.836   0.894
 4462SOL     OW14284   6.433   3.870   2.387
 4462SOL    HW114285   6.381   3.956   2.382
 4462SOL    HW214286   6.526   3.885   2.355
 4463SOL     OW14287   5.391   1.671   0.032
 4463SOL    HW114288   5.406   1.749   0.094
 4463SOL    HW214289   5.297   1.639   0.042
 4464SOL     OW14290   0.570   3.596   1.499
 4464SOL    HW114291   0.603   3.600   1.593
 4464SOL    HW214292   0.488   3.652   1.489
 4465SOL     OW14293   4.242   5.660   2.032
 4465SOL    HW114294   4.304   5.610   1.971
 4465SOL    HW214295   4.148   5.643   2.004
 4466SOL     OW14296   0.656   3.318   2.517
 4466SOL    HW114297   0.596   3.242   2.541
 4466SOL    HW214298   0.699   3.354   2.600
 4467SOL     OW14299   5.223   4.848   1.833
 4467SOL    HW114300   5.227   4.818   1.738
 4467SOL    HW214301   5.190   4.942   1.837
 4468SOL     OW14302   1.759   2.858   1.158
 4468SOL    HW114303   1.779   2.863   1.256
 4468SOL    HW214304   1.742   2.950   1.123
 4469SOL     OW14305   2.249   6.210   1.272
 4469SOL    HW114306   2.298   6.188   1.188
 4469SOL    HW214307   2.277   6.300   1.305
 4470SOL     OW14308   0.427   7.022   2.811
 4470SOL    HW114309   0.506   7.010   2.871
 4470SOL    HW214310   0.344   7.027   2.867
 4471SOL     OW14311   0.796   0.797   6.800
 4471SOL    HW114312   0.873   0.843   6.843
 4471SOL    HW214313   0.813   0.698   6.798
 4472SOL     OW14314   1.181   2.800   1.146
 4472SOL    HW114315   1.092   2.845   1.133
 4472SOL    HW214316   1.203   2.746   1.065
 4473SOL     OW14317   0.203   2.831   4.798
 4473SOL    HW114318   0.153   2.746   4.780
 4473SOL    HW214319   0.147   2.892   4.852
 4474SOL     OW14320   2.484   6.208   0.663
 4474SOL    HW114321   2.427   6.127   0.652
 4474SOL    HW214322   2.545   6.197   0.741
 4475SOL     OW14323   0.648   3.775   0.148
 4475SOL    HW114324   0.576   3.819   0.094
 4475SOL    HW214325   0.633   3.676   0.148
 4476SOL     OW14326   5.111   1.031   3.714
 4476SOL    HW114327   5.106   0.964   3.640
 4476SOL    HW214328   5.130   0.985   3.801
 4477SOL     OW14329   0.065   1.322   4.203
 4477SOL    HW114330   0.120   1.406   4.196
 4477SOL    HW214331   0.107   1.261   4.271
 4478SOL     OW14332   1.849   0.931   1.993
 4478SOL    HW114333   1.913   0.861   2.022
 4478SOL    HW214334   1.787   0.953   2.069
 4479SOL     OW14335   2.222   2.694   6.244
 4479SOL    HW114336   2.251   2.666   6.152
 4479SOL    HW214337   2.122   2.705   6.245
 4480SOL     OW14338   6.959   6.942   3.474
 4480SOL    HW114339   6.872   6.988   3.456
 4480SOL    HW214340   6.979   6.945   3.572
 4481SOL     OW14341   2.116   3.893   5.877
 4481SOL    HW114342   2.022   3.888   5.908
 4481SOL    HW214343   2.118   3.914   5.779
 4482SOL     OW14344   2.463   0.412   1.060
 4482SOL    HW114345   2.547   0.417   1.006
 4482SOL    HW214346   2.486   0.390   1.155
 4483SOL     OW14347   1.046   3.694   0.381
 4483SOL    HW114348   1.101   3.723   0.460
 4483SOL    HW214349   0.957   3.739   0.385
 4484SOL     OW14350   3.079   0.961   6.942
 4484SOL    HW114351   3.166   0.928   6.980
 4484SOL    HW214352   3.044   1.035   6.999
 4485SOL     OW14353   0.526   3.622   5.090
 4485SOL    HW114354   0.582   3.672   5.155
 4485SOL    HW214355   0.437   3.669   5.080
 4486SOL     OW14356   5.041   4.243   3.719
 4486SOL    HW114357   4.954   4.195   3.709
 4486SOL    HW214358   5.056   4.301   3.639
 4487SOL     OW14359   0.265   3.086   6.517
 4487SOL    HW114360   0.335   3.079   6.587
 4487SOL    HW214361   0.260   3.000   6.466
 4488SOL     OW14362   6.811   4.104   3.554
 4488SOL    HW114363   6.761   4.019   3.536
 4488SOL    HW214364   6.757   4.162   3.614
 4489SOL     OW14365   3.662   5.754   6.581
 4489SOL    HW114366   3.749   5.803   6.578
 4489SOL    HW214367   3.613   5.778   6.665
 4490SOL     OW14368   5.777   1.611   2.082
 4490SOL    HW114369   5.763   1.605   2.181
 4490SOL    HW214370   5.707   1.557   2.036
 4491SOL     OW14371   0.518   4.107   3.186
 4491SOL    HW114372   0.548   4.148   3.272
 4491SOL    HW214373   0.446   4.163   3.146
 4492SOL     OW14374   5.994   1.364   2.453
 4492SOL    HW114375   6.032   1.300   2.520
 4492SOL    HW214376   5.926   1.422   2.497
 4493SOL     OW14377   5.108   1.885   5.668
 4493SOL    HW114378   5.205   1.863   5.653
 4493SOL    HW214379   5.074   1.937   5.590
 4494SOL     OW14380   1.759   0.977   2.265
 4494SOL    HW114381   1.661   0.985   2.284
 4494SOL    HW214382   1.811   1.026   2.336
 4495SOL     OW14383   4.869   6.512   0.652
 4495SOL    HW114384   4.777   6.515   0.690
 4495SOL    HW214385   4.863   6.499   0.553
 4496SOL     OW14386   2.426   6.210   6.189
 4496SOL    HW114387   2.508   6.159   6.163
 4496SOL    HW214388   2.359   6.205   6.115
 4497SOL     OW14389   4.016   0.233   5.728
 4497SOL    HW114390   3.976   0.318   5.762
 4497SOL    HW214391   4.116   0.238   5.735
 4498SOL     OW14392   0.991   4.936   4.161
 4498SOL    HW114393   1.041   5.016   4.195
 4498SOL    HW214394   0.981   4.869   4.235
 4499SOL     OW14395   6.102   1.251   2.093
 4499SOL    HW114396   6.136   1.300   2.013
 4499SOL    HW214397   6.012   1.213   2.073
 4500SOL     OW14398   3.190   6.723   0.234
 4500SOL    HW114399   3.189   6.696   0.330
 4500SOL    HW214400   3.276   6.696   0.192
 4501SOL     OW14401   6.501   6.932   2.466
 4501SOL    HW114402   6.459   7.008   2.415
 4501SOL    HW214403   6.497   6.850   2.410
 4502SOL     OW14404   1.443   4.206   6.529
 4502SOL    HW114405   1.513   4.205   6.600
 4502SOL    HW214406   1.482   4.239   6.443
 4503SOL     OW14407   3.906   1.612   2.401
 4503SOL    HW114408   3.857   1.546   2.344
 4503SOL    HW214409   4.001   1.582   2.411
 4504SOL     OW14410   1.495   2.353   3.851
 4504SOL    HW114411   1.558   2.339   3.775
 4504SOL    HW214412   1.500   2.275   3.914
 4505SOL     OW14413   6.542   3.152   3.310
 4505SOL    HW114414   6.482   3.073   3.296
 4505SOL    HW214415   6.561   3.163   3.408
 4506SOL     OW14416   3.995   4.049   0.104
 4506SOL    HW114417   3.926   4.103   0.153
 4506SOL    HW214418   4.083   4.056   0.152
 4507SOL     OW14419   6.005   2.463   2.965
 4507SOL    HW114420   6.066   2.396   2.922
 4507SOL    HW214421   6.056   2.516   3.032
 4508SOL     OW14422   6.302   4.918   0.712
 4508SOL    HW114423   6.269   4.998   0.662
 4508SOL    HW214424   6.353   4.947   0.792
 4509SOL     OW14425   5.255   1.808   2.050
 4509SOL    HW114426   5.282   1.898   2.084
 4509SOL    HW214427   5.161   1.812   2.016
 4510SOL     OW14428   4.837   1.438   4.742
 4510SOL    HW114429   4.823   1.532   4.710
 4510SOL    HW214430   4.751   1.403   4.779
 4511SOL     OW14431   0.120   4.812   6.707
 4511SOL    HW114432   0.166   4.895   6.675
 4511SOL    HW214433   0.042   4.791   6.647
 4512SOL     OW14434   3.286   3.241   5.511
 4512SOL    HW114435   3.340   3.240   5.427
 4512SOL    HW214436   3.267   3.147   5.539
 4513SOL     OW14437   0.143   0.246   0.823
 4513SOL    HW114438   0.134   0.346   0.821
 4513SOL    HW214439   0.156   0.212   0.730
 4514SOL     OW14440   4.924   4.844   6.566
 4514SOL    HW114441   4.891   4.910   6.499
 4514SOL    HW214442   4.956   4.892   6.647
 4515SOL     OW14443   4.083   0.087   6.461
 4515SOL    HW114444   4.141   0.008   6.480
 4515SOL    HW214445   4.111   0.130   6.375
 4516SOL     OW14446   3.697   2.157   5.647
 4516SOL    HW114447   3.768   2.225   5.626
 4516SOL    HW214448   3.607   2.194   5.623
 4517SOL     OW14449   3.526   0.300   4.751
 4517SOL    HW114450   3.475   0.260   4.827
 4517SOL    HW214451   3.490   0.391   4.730
 4518SOL     OW14452   0.202   0.118   0.588
 4518SOL    HW114453   0.163   0.129   0.496
 4518SOL    HW214454   0.301   0.128   0.584
 4519SOL     OW14455   5.032   0.004   6.688
 4519SOL    HW114456   5.089   0.023   6.768
 4519SOL    HW214457   4.950   6.981   6.716
 4520SOL     OW14458   4.926   4.937   5.615
 4520SOL    HW114459   4.987   5.016   5.620
 4520SOL    HW214460   4.846   4.961   5.561
 4521SOL     OW14461   4.782   2.355   4.638
 4521SOL    HW114462   4.712   2.427   4.638
 4521SOL    HW214463   4.807   2.333   4.544
 4522SOL     OW14464   5.958   3.314   3.355
 4522SOL    HW114465   5.993   3.391   3.301
 4522SOL    HW214466   5.996   3.319   3.448
 4523SOL     OW14467   6.770   3.249   6.656
 4523SOL    HW114468   6.820   3.264   6.742
 4523SOL    HW214469   6.690   3.309   6.653
 4524SOL     OW14470   1.819   3.796   2.053
 4524SOL    HW114471   1.915   3.786   2.027
 4524SOL    HW214472   1.777   3.706   2.061
 4525SOL     OW14473   3.862   2.167   6.035
 4525SOL    HW114474   3.815   2.118   5.962
 4525SOL    HW214475   3.854   2.115   6.121
 4526SOL     OW14476   1.952   0.346   5.501
 4526SOL    HW114477   1.940   0.446   5.494
 4526SOL    HW214478   1.902   0.302   5.426
 4527SOL     OW14479   0.473   1.995   2.761
 4527SOL    HW114480   0.531   1.966   2.837
 4527SOL    HW214481   0.411   1.920   2.737
 4528SOL     OW14482   5.155   0.840   4.711
 4528SOL    HW114483   5.242   0.797   4.736
 4528SOL    HW214484   5.080   0.774   4.724
 4529SOL     OW14485   2.221   1.775   3.950
 4529SOL    HW114486   2.256   1.806   4.039
 4529SOL    HW214487   2.296   1.734   3.897
 4530SOL     OW14488   4.038   4.715   6.486
 4530SOL    HW114489   3.951   4.697   6.441
 4530SOL    HW214490   4.078   4.629   6.517
 4531SOL     OW14491   2.211   0.029   5.340
 4531SOL    HW114492   2.185   0.047   5.435
 4531SOL    HW214493   2.154   0.083   5.278
 4532SOL     OW14494   5.621   1.196   2.226
 4532SOL    HW114495   5.625   1.260   2.149
 4532SOL    HW214496   5.714   1.176   2.257
 4533SOL     OW14497   2.794   6.371   1.284
 4533SOL    HW114498   2.729   6.297   1.300
 4533SOL    HW214499   2.747   6.450   1.246
 4534SOL     OW14500   5.699   1.370   4.319
 4534SOL    HW114501   5.789   1.387   4.361
 4534SOL    HW214502   5.706   1.384   4.221
 4535SOL     OW14503   1.630   0.932   6.849
 4535SOL    HW114504   1.689   1.012   6.836
 4535SOL    HW214505   1.594   0.903   6.760
 4536SOL     OW14506   3.893   1.167   5.704
 4536SOL    HW114507   3.802   1.208   5.692
 4536SOL    HW214508   3.944   1.174   5.618
 4537SOL     OW14509   3.288   3.277   3.086
 4537SOL    HW114510   3.311   3.281   3.183
 4537SOL    HW214511   3.239   3.360   3.060
 4538SOL     OW14512   0.899   2.563   0.550
 4538SOL    HW114513   0.851   2.486   0.507
 4538SOL    HW214514   0.892   2.643   0.491
 4539SOL     OW14515   0.997   5.148   4.483
 4539SOL    HW114516   0.899   5.136   4.465
 4539SOL    HW214517   1.048   5.126   4.400
 4540SOL     OW14518   1.675   1.886   0.655
 4540SOL    HW114519   1.647   1.804   0.705
 4540SOL    HW214520   1.594   1.929   0.614
 4541SOL     OW14521   3.750   3.068   6.967
 4541SOL    HW114522   3.795   3.068   0.030
 4541SOL    HW214523   3.770   3.154   6.920
 4542SOL     OW14524   0.327   1.727   0.240
 4542SOL    HW114525   0.392   1.735   0.165
 4542SOL    HW214526   0.240   1.691   0.204
 4543SOL     OW14527   4.648   1.471   1.252
 4543SOL    HW114528   4.619   1.505   1.341
 4543SOL    HW214529   4.600   1.521   1.180
 4544SOL     OW14530   4.880   6.083   0.743
 4544SOL    HW114531   4.794   6.056   0.786
 4544SOL    HW214532   4.875   6.066   0.645
 4545SOL     OW14533   2.746   2.831   5.723
 4545SOL    HW114534   2.665   2.784   5.686
 4545SOL    HW214535   2.759   2.803   5.819
 4546SOL     OW14536   4.369   6.848   6.402
 4546SOL    HW114537   4.408   6.779   6.341
 4546SOL    HW214538   4.271   6.857   6.384
 4547SOL     OW14539   0.338   0.523   0.463
 4547SOL    HW114540   0.342   0.436   0.413
 4547SOL    HW214541   0.243   0.542   0.489
 4548SOL     OW14542   3.550   1.111   2.261
 4548SOL    HW114543   3.575   1.116   2.357
 4548SOL    HW214544   3.492   1.031   2.246
 4549SOL     OW14545   6.408   3.680   3.946
 4549SOL    HW114546   6.466   3.639   4.016
 4549SOL    HW214547   6.463   3.702   3.865
 4550SOL     OW14548   2.472   5.760   6.034
 4550SOL    HW114549   2.508   5.786   6.124
 4550SOL    HW214550   2.500   5.829   5.967
 4551SOL     OW14551   3.317   2.831   6.268
 4551SOL    HW114552   3.410   2.826   6.304
 4551SOL    HW214553   3.277   2.740   6.265
 4552SOL     OW14554   5.190   0.687   6.702
 4552SOL    HW114555   5.228   0.660   6.791
 4552SOL    HW214556   5.262   0.726   6.645
 4553SOL     OW14557   0.253   6.455   0.293
 4553SOL    HW114558   0.275   6.541   0.339
 4553SOL    HW214559   0.296   6.455   0.203
 4554SOL     OW14560   5.872   6.535   3.392
 4554SOL    HW114561   5.829   6.454   3.350
 4554SOL    HW214562   5.842   6.617   3.344
 4555SOL     OW14563   0.449   0.339   2.093
 4555SOL    HW114564   0.439   0.267   2.024
 4555SOL    HW214565   0.546   0.351   2.115
 4556SOL     OW14566   5.497   4.683   4.299
 4556SOL    HW114567   5.569   4.659   4.364
 4556SOL    HW214568   5.537   4.705   4.210
 4557SOL     OW14569   6.731   4.938   4.413
 4557SOL    HW114570   6.786   4.897   4.486
 4557SOL    HW214571   6.791   4.990   4.352
 4558SOL     OW14572   0.885   4.425   4.311
 4558SOL    HW114573   0.917   4.419   4.217
 4558SOL    HW214574   0.906   4.339   4.359
 4559SOL     OW14575   0.222   2.482   4.186
 4559SOL    HW114576   0.303   2.522   4.227
 4559SOL    HW214577   0.147   2.548   4.188
 4560SOL     OW14578   6.069   4.815   3.268
 4560SOL    HW114579   6.022   4.841   3.184
 4560SOL    HW214580   6.123   4.732   3.251
 4561SOL     OW14581   4.759   2.652   4.450
 4561SOL    HW114582   4.763   2.568   4.396
 4561SOL    HW214583   4.760   2.731   4.389
 4562SOL     OW14584   4.440   0.976   0.826
 4562SOL    HW114585   4.385   1.048   0.783
 4562SOL    HW214586   4.390   0.890   0.823
 4563SOL     OW14587   1.125   4.226   1.542
 4563SOL    HW114588   1.065   4.171   1.599
 4563SOL    HW214589   1.161   4.303   1.595
 4564SOL     OW14590   1.698   4.304   2.418
 4564SOL    HW114591   1.734   4.242   2.348
 4564SOL    HW214592   1.599   4.308   2.411
 4565SOL     OW14593   2.281   0.505   5.628
 4565SOL    HW114594   2.334   0.520   5.544
 4565SOL    HW214595   2.281   0.408   5.651
 4566SOL     OW14596   0.017   4.685   2.993
 4566SOL    HW114597   0.020   4.653   2.899
 4566SOL    HW214598   6.951   4.677   3.029
 4567SOL     OW14599   0.124   0.272   0.107
 4567SOL    HW114600   0.064   0.350   0.091
 4567SOL    HW214601   0.220   0.301   0.100
 4568SOL     OW14602   0.990   4.689   3.446
 4568SOL    HW114603   0.965   4.783   3.422
 4568SOL    HW214604   0.926   4.625   3.404
 4569SOL     OW14605   1.304   2.524   3.280
 4569SOL    HW114606   1.347   2.501   3.367
 4569SOL    HW214607   1.309   2.446   3.218
 4570SOL     OW14608   5.580   5.671   0.982
 4570SOL    HW114609   5.492   5.658   0.937
 4570SOL    HW214610   5.646   5.605   0.946
 4571SOL     OW14611   1.632   3.969   5.500
 4571SOL    HW114612   1.615   4.032   5.424
 4571SOL    HW214613   1.549   3.916   5.518
 4572SOL     OW14614   4.514   3.136   1.658
 4572SOL    HW114615   4.506   3.071   1.582
 4572SOL    HW214616   4.535   3.086   1.742
 4573SOL     OW14617   2.006   4.762   0.782
 4573SOL    HW114618   2.054   4.848   0.800
 4573SOL    HW214619   1.944   4.743   0.857
 4574SOL     OW14620   4.781   0.156   2.038
 4574SOL    HW114621   4.819   0.241   2.072
 4574SOL    HW214622   4.753   0.168   1.942
 4575SOL     OW14623   6.945   1.098   5.347
 4575SOL    HW114624   6.884   1.067   5.419
 4575SOL    HW214625   0.001   1.042   5.347
 4576SOL     OW14626   3.351   3.832   6.813
 4576SOL    HW114627   3.428   3.790   6.862
 4576SOL    HW214628   3.311   3.766   6.750
 4577SOL     OW14629   0.591   1.690   1.815
 4577SOL    HW114630   0.527   1.615   1.798
 4577SOL    HW214631   0.649   1.667   1.894
 4578SOL     OW14632   1.675   1.188   3.121
 4578SOL    HW114633   1.685   1.240   3.205
 4578SOL    HW214634   1.624   1.104   3.139
 4579SOL     OW14635   4.529   0.726   3.428
 4579SOL    HW114636   4.475   0.777   3.495
 4579SOL    HW214637   4.482   0.640   3.407
 4580SOL     OW14638   1.188   1.013   1.389
 4580SOL    HW114639   1.257   0.944   1.413
 4580SOL    HW214640   1.157   1.058   1.472
 4581SOL     OW14641   2.964   0.320   0.971
 4581SOL    HW114642   2.927   0.398   1.021
 4581SOL    HW214643   2.897   0.245   0.970
 4582SOL     OW14644   6.747   0.930   3.868
 4582SOL    HW114645   6.787   0.972   3.787
 4582SOL    HW214646   6.773   0.834   3.873
 4583SOL     OW14647   1.742   6.901   0.058
 4583SOL    HW114648   1.747   6.989   0.104
 4583SOL    HW214649   1.763   6.914   6.988
 4584SOL     OW14650   0.364   1.672   3.748
 4584SOL    HW114651   0.330   1.690   3.841
 4584SOL    HW214652   0.287   1.655   3.687
 4585SOL     OW14653   1.453   3.013   2.869
 4585SOL    HW114654   1.513   2.995   2.947
 4585SOL    HW214655   1.370   3.058   2.899
 4586SOL     OW14656   6.361   5.013   5.511
 4586SOL    HW114657   6.398   5.106   5.518
 4586SOL    HW214658   6.386   4.974   5.422
 4587SOL     OW14659   4.611   3.904   5.995
 4587SOL    HW114660   4.628   3.916   6.092
 4587SOL    HW214661   4.661   3.823   5.962
 4588SOL     OW14662   2.975   4.235   6.351
 4588SOL    HW114663   2.962   4.281   6.263
 4588SOL    HW214664   2.890   4.240   6.404
 4589SOL     OW14665   5.499   6.100   2.039
 4589SOL    HW114666   5.425   6.151   2.084
 4589SOL    HW214667   5.467   6.066   1.951
 4590SOL     OW14668   2.368   5.687   1.426
 4590SOL    HW114669   2.348   5.737   1.341
 4590SOL    HW214670   2.398   5.594   1.404
 4591SOL     OW14671   2.231   0.998   4.865
 4591SOL    HW114672   2.136   0.969   4.878
 4591SOL    HW214673   2.242   1.038   4.774
 4592SOL     OW14674   2.936   2.259   3.937
 4592SOL    HW114675   2.916   2.164   3.913
 4592SOL    HW214676   3.017   2.290   3.887
 4593SOL     OW14677   1.344   5.632   4.553
 4593SOL    HW114678   1.248   5.639   4.529
 4593SOL    HW214679   1.367   5.703   4.620
 4594SOL     OW14680   2.031   6.444   4.088
 4594SOL    HW114681   2.110   6.404   4.041
 4594SOL    HW214682   1.999   6.381   4.159
 4595SOL     OW14683   5.856   2.006   6.440
 4595SOL    HW114684   5.877   2.054   6.355
 4595SOL    HW214685   5.851   2.072   6.515
 4596SOL     OW14686   1.204   1.818   2.194
 4596SOL    HW114687   1.222   1.739   2.253
 4596SOL    HW214688   1.170   1.787   2.106
 4597SOL     OW14689   2.379   6.258   0.403
 4597SOL    HW114690   2.282   6.256   0.428
 4597SOL    HW214691   2.435   6.255   0.485
 4598SOL     OW14692   0.712   3.157   0.053
 4598SOL    HW114693   0.717   3.212   6.997
 4598SOL    HW214694   0.718   3.060   0.029
 4599SOL     OW14695   3.318   6.532   2.542
 4599SOL    HW114696   3.227   6.501   2.515
 4599SOL    HW214697   3.309   6.614   2.599
 4600SOL     OW14698   0.253   6.253   6.602
 4600SOL    HW114699   0.280   6.328   6.662
 4600SOL    HW214700   0.262   6.166   6.651
 4601SOL     OW14701   1.482   0.741   5.548
 4601SOL    HW114702   1.401   0.683   5.539
 4601SOL    HW214703   1.563   0.688   5.525
 4602SOL     OW14704   4.182   1.400   6.686
 4602SOL    HW114705   4.208   1.487   6.729
 4602SOL    HW214706   4.261   1.362   6.638
 4603SOL     OW14707   3.968   6.717   1.051
 4603SOL    HW114708   3.906   6.643   1.027
 4603SOL    HW214709   3.929   6.771   1.126
 4604SOL     OW14710   0.354   6.978   3.600
 4604SOL    HW114711   0.318   6.956   3.510
 4604SOL    HW214712   0.328   0.045   3.624
 4605SOL     OW14713   4.422   0.841   1.497
 4605SOL    HW114714   4.418   0.910   1.425
 4605SOL    HW214715   4.473   0.876   1.575
 4606SOL     OW14716   6.722   7.026   5.078
 4606SOL    HW114717   6.792   0.068   5.098
 4606SOL    HW214718   6.641   0.017   5.134
 4607SOL     OW14719   3.239   1.536   1.295
 4607SOL    HW114720   3.186   1.538   1.210
 4607SOL    HW214721   3.204   1.604   1.358
 4608SOL     OW14722   0.263   2.474   5.172
 4608SOL    HW114723   0.282   2.572   5.167
 4608SOL    HW214724   0.256   2.446   5.268
 4609SOL     OW14725   5.838   5.124   6.398
 4609SOL    HW114726   5.785   5.040   6.413
 4609SOL    HW214727   5.777   5.199   6.373
 4610SOL     OW14728   5.188   5.084   6.709
 4610SOL    HW114729   5.268   5.118   6.660
 4610SOL    HW214730   5.217   5.025   6.784
 4611SOL     OW14731   0.089   1.251   6.940
 4611SOL    HW114732   0.183   1.217   6.933
 4611SOL    HW214733   0.045   1.243   6.851
 4612SOL     OW14734   2.745   1.316   3.197
 4612SOL    HW114735   2.706   1.278   3.113
 4612SOL    HW214736   2.708   1.268   3.276
 4613SOL     OW14737   1.432   5.282   2.295
 4613SOL    HW114738   1.365   5.356   2.296
 4613SOL    HW214739   1.524   5.321   2.289
 4614SOL     OW14740   0.268   4.575   2.902
 4614SOL    HW114741   0.193   4.606   2.960
 4614SOL    HW214742   0.338   4.531   2.958
 4615SOL     OW14743   1.250   4.486   6.754
 4615SOL    HW114744   1.164   4.483   6.702
 4615SOL    HW214745   1.237   4.439   6.841
 4616SOL     OW14746   1.035   3.864   6.735
 4616SOL    HW114747   0.939   3.891   6.733
 4616SOL    HW214748   1.076   3.878   6.645
 4617SOL     OW14749   0.361   3.642   3.622
 4617SOL    HW114750   0.311   3.614   3.540
 4617SOL    HW214751   0.322   3.597   3.702
 4618SOL     OW14752   2.344   4.268   5.571
 4618SOL    HW114753   2.378   4.222   5.653
 4618SOL    HW214754   2.346   4.205   5.494
 4619SOL     OW14755   4.503   5.733   6.554
 4619SOL    HW114756   4.429   5.773   6.499
 4619SOL    HW214757   4.463   5.672   6.622
 4620SOL     OW14758   1.107   4.566   1.424
 4620SOL    HW114759   1.148   4.644   1.376
 4620SOL    HW214760   1.179   4.511   1.466
 4621SOL     OW14761   3.244   0.238   3.042
 4621SOL    HW114762   3.187   0.177   2.988
 4621SOL    HW214763   3.332   0.252   2.996
 4622SOL     OW14764   5.609   6.981   0.414
 4622SOL    HW114765   5.628   0.051   0.430
 4622SOL    HW214766   5.545   6.947   0.483
 4623SOL     OW14767   2.967   4.838   2.965
 4623SOL    HW114768   2.887   4.795   3.005
 4623SOL    HW214769   3.040   4.844   3.033
 4624SOL     OW14770   4.959   1.950   1.163
 4624SOL    HW114771   5.032   1.968   1.229
 4624SOL    HW214772   4.933   1.853   1.168
 4625SOL     OW14773   1.491   6.895   1.787
 4625SOL    HW114774   1.489   6.822   1.719
 4625SOL    HW214775   1.446   6.976   1.751
 4626SOL     OW14776   4.184   3.230   1.974
 4626SOL    HW114777   4.261   3.168   1.964
 4626SOL    HW214778   4.188   3.300   1.903
 4627SOL     OW14779   6.075   6.825   4.896
 4627SOL    HW114780   6.150   6.799   4.957
 4627SOL    HW214781   6.022   6.899   4.938
 4628SOL     OW14782   6.754   4.490   2.891
 4628SOL    HW114783   6.733   4.587   2.906
 4628SOL    HW214784   6.670   4.436   2.901
 4629SOL     OW14785   1.634   5.303   0.504
 4629SOL    HW114786   1.678   5.241   0.439
 4629SOL    HW214787   1.574   5.251   0.565
 4630SOL     OW14788   1.886   3.858   1.392
 4630SOL    HW114789   1.931   3.769   1.390
 4630SOL    HW214790   1.910   3.909   1.309
 4631SOL     OW14791   6.270   1.434   2.606
 4631SOL    HW114792   6.185   1.485   2.619
 4631SOL    HW214793   6.263   1.378   2.523
 4632SOL     OW14794   2.803   4.720   3.788
 4632SOL    HW114795   2.754   4.649   3.739
 4632SOL    HW214796   2.782   4.714   3.886
 4633SOL     OW14797   5.796   3.285   4.175
 4633SOL    HW114798   5.741   3.280   4.091
 4633SOL    HW214799   5.789   3.377   4.214
 4634SOL     OW14800   3.615   3.087   4.551
 4634SOL    HW114801   3.555   3.007   4.538
 4634SOL    HW214802   3.675   3.071   4.630
 4635SOL     OW14803   4.522   6.447   2.268
 4635SOL    HW114804   4.542   6.459   2.365
 4635SOL    HW214805   4.467   6.364   2.255
 4636SOL     OW14806   1.413   5.954   6.452
 4636SOL    HW114807   1.371   6.035   6.493
 4636SOL    HW214808   1.446   5.894   6.525
 4637SOL     OW14809   2.349   2.204   2.983
 4637SOL    HW114810   2.312   2.253   2.905
 4637SOL    HW214811   2.439   2.166   2.958
 4638SOL     OW14812   3.736   4.623   1.069
 4638SOL    HW114813   3.834   4.607   1.061
 4638SOL    HW214814   3.707   4.688   0.999
 4639SOL     OW14815   3.897   2.151   2.159
 4639SOL    HW114816   3.843   2.206   2.095
 4639SOL    HW214817   3.994   2.168   2.143
 4640SOL     OW14818   6.286   2.556   1.080
 4640SOL    HW114819   6.335   2.534   1.165
 4640SOL    HW214820   6.189   2.568   1.100
 4641SOL     OW14821   0.944   5.969   5.159
 4641SOL    HW114822   0.892   6.046   5.196
 4641SOL    HW214823   1.040   5.994   5.150
 4642SOL     OW14824   6.098   1.457   5.767
 4642SOL    HW114825   6.060   1.367   5.747
 4642SOL    HW214826   6.039   1.528   5.727
 4643SOL     OW14827   0.591   1.670   0.570
 4643SOL    HW114828   0.575   1.648   0.474
 4643SOL    HW214829   0.508   1.649   0.623
 4644SOL     OW14830   1.183   0.978   0.935
 4644SOL    HW114831   1.114   1.011   0.871
 4644SOL    HW214832   1.207   1.050   0.999
 4645SOL     OW14833   5.974   2.193   4.735
 4645SOL    HW114834   5.931   2.171   4.647
 4645SOL    HW214835   6.033   2.117   4.763
 4646SOL     OW14836   1.324   4.337   2.464
 4646SOL    HW114837   1.261   4.324   2.388
 4646SOL    HW214838   1.358   4.432   2.463
 4647SOL     OW14839   1.947   6.685   2.525
 4647SOL    HW114840   1.938   6.720   2.618
 4647SOL    HW214841   2.013   6.740   2.475
 4648SOL     OW14842   2.945   1.018   4.498
 4648SOL    HW114843   2.942   0.966   4.583
 4648SOL    HW214844   3.017   0.981   4.439
 4649SOL     OW14845   5.104   1.749   0.670
 4649SOL    HW114846   5.019   1.712   0.633
 4649SOL    HW214847   5.181   1.694   0.637
 4650SOL     OW14848   4.104   5.251   0.895
 4650SOL    HW114849   4.189   5.200   0.906
 4650SOL    HW214850   4.031   5.206   0.947
 4651SOL     OW14851   0.458   4.033   6.752
 4651SOL    HW114852   0.443   3.967   6.679
 4651SOL    HW214853   0.485   4.121   6.712
 4652SOL     OW14854   6.636   0.267   5.337
 4652SOL    HW114855   6.729   0.288   5.310
 4652SOL    HW214856   6.636   0.185   5.395
 4653SOL     OW14857   6.733   5.963   0.503
 4653SOL    HW114858   6.734   5.959   0.403
 4653SOL    HW214859   6.681   6.042   0.533
 4654SOL     OW14860   0.455   1.262   5.881
 4654SOL    HW114861   0.468   1.180   5.935
 4654SOL    HW214862   0.367   1.304   5.904
 4655SOL     OW14863   4.964   4.163   2.812
 4655SOL    HW114864   4.999   4.161   2.719
 4655SOL    HW214865   5.025   4.219   2.869
 4656SOL     OW14866   5.154   0.941   1.474
 4656SOL    HW114867   5.103   0.922   1.558
 4656SOL    HW214868   5.115   0.889   1.398
 4657SOL     OW14869   3.982   1.251   2.610
 4657SOL    HW114870   4.066   1.262   2.557
 4657SOL    HW214871   3.905   1.287   2.557
 4658SOL     OW14872   1.485   1.662   6.660
 4658SOL    HW114873   1.504   1.741   6.602
 4658SOL    HW214874   1.476   1.691   6.755
 4659SOL     OW14875   2.298   4.269   0.428
 4659SOL    HW114876   2.347   4.260   0.341
 4659SOL    HW214877   2.208   4.308   0.411
 4660SOL     OW14878   0.013   4.755   4.259
 4660SOL    HW114879   7.021   4.698   4.339
 4660SOL    HW214880   6.954   4.779   4.214
 4661SOL     OW14881   0.675   1.460   5.851
 4661SOL    HW114882   0.587   1.507   5.853
 4661SOL    HW214883   0.663   1.365   5.882
 4662SOL     OW14884   2.962   0.590   5.912
 4662SOL    HW114885   2.924   0.521   5.850
 4662SOL    HW214886   3.062   0.589   5.906
 4663SOL     OW14887   0.490   0.095   0.526
 4663SOL    HW114888   0.505   0.011   0.474
 4663SOL    HW214889   0.556   0.100   0.601
 4664SOL     OW14890   6.042   6.347   5.998
 4664SOL    HW114891   5.963   6.288   5.981
 4664SOL    HW214892   6.024   6.404   6.078
 4665SOL     OW14893   6.896   0.870   2.641
 4665SOL    HW114894   6.887   0.829   2.550
 4665SOL    HW214895   6.841   0.954   2.645
 4666SOL     OW14896   1.602   2.824   5.767
 4666SOL    HW114897   1.607   2.739   5.716
 4666SOL    HW214898   1.532   2.816   5.839
 4667SOL     OW14899   6.202   2.836   1.295
 4667SOL    HW114900   6.256   2.751   1.297
 4667SOL    HW214901   6.252   2.908   1.342
 4668SOL     OW14902   4.370   1.963   5.176
 4668SOL    HW114903   4.350   1.882   5.230
 4668SOL    HW214904   4.466   1.963   5.149
 4669SOL     OW14905   5.288   6.831   6.013
 4669SOL    HW114906   5.235   6.893   6.070
 4669SOL    HW214907   5.272   6.737   6.042
 4670SOL     OW14908   0.018   3.382   6.439
 4670SOL    HW114909   0.012   3.352   6.534
 4670SOL    HW214910   6.953   3.386   6.399
 4671SOL     OW14911   6.979   2.853   2.174
 4671SOL    HW114912   0.025   2.868   2.107
 4671SOL    HW214913   6.890   2.854   2.129
 4672SOL     OW14914   3.061   3.647   6.780
 4672SOL    HW114915   3.117   3.610   6.855
 4672SOL    HW214916   2.995   3.712   6.817
 4673SOL     OW14917   5.669   0.820   1.115
 4673SOL    HW114918   5.647   0.878   1.194
 4673SOL    HW214919   5.594   0.758   1.097
 4674SOL     OW14920   1.041   2.943   0.730
 4674SOL    HW114921   1.118   2.964   0.790
 4674SOL    HW214922   0.972   2.891   0.781
 4675SOL     OW14923   1.828   6.272   6.603
 4675SOL    HW114924   1.851   6.185   6.560
 4675SOL    HW214925   1.731   6.291   6.592
 4676SOL     OW14926   0.639   5.630   4.532
 4676SOL    HW114927   0.675   5.695   4.600
 4676SOL    HW214928   0.588   5.558   4.579
 4677SOL     OW14929   4.005   6.878   0.015
 4677SOL    HW114930   3.944   6.807   0.047
 4677SOL    HW214931   4.057   6.915   0.092
 4678SOL     OW14932   2.204   4.667   6.840
 4678SOL    HW114933   2.230   4.632   6.751
 4678SOL    HW214934   2.274   4.643   6.907
 4679SOL     OW14935   2.407   6.791   5.498
 4679SOL    HW114936   2.451   6.864   5.549
 4679SOL    HW214937   2.476   6.743   5.443
 4680SOL     OW14938   0.780   5.114   0.240
 4680SOL    HW114939   0.691   5.068   0.240
 4680SOL    HW214940   0.818   5.113   0.148
 4681SOL     OW14941   6.595   5.863   4.683
 4681SOL    HW114942   6.548   5.879   4.770
 4681SOL    HW214943   6.678   5.810   4.699
 4682SOL     OW14944   2.537   0.426   0.608
 4682SOL    HW114945   2.516   0.521   0.629
 4682SOL    HW214946   2.604   0.421   0.535
 4683SOL     OW14947   0.912   4.671   3.001
 4683SOL    HW114948   0.844   4.721   3.054
 4683SOL    HW214949   0.952   4.732   2.932
 4684SOL     OW14950   1.763   1.208   4.971
 4684SOL    HW114951   1.844   1.153   4.989
 4684SOL    HW214952   1.693   1.189   5.041
 4685SOL     OW14953   5.248   4.689   4.669
 4685SOL    HW114954   5.328   4.699   4.727
 4685SOL    HW214955   5.252   4.601   4.621
 4686SOL     OW14956   4.667   5.854   0.129
 4686SOL    HW114957   4.641   5.950   0.144
 4686SOL    HW214958   4.761   5.840   0.162
 4687SOL     OW14959   4.788   6.669   4.504
 4687SOL    HW114960   4.789   6.648   4.602
 4687SOL    HW214961   4.818   6.764   4.490
 4688SOL     OW14962   0.052   1.754   0.478
 4688SOL    HW114963   0.053   1.854   0.478
 4688SOL    HW214964   0.031   1.720   0.387
 4689SOL     OW14965   1.740   5.176   4.604
 4689SOL    HW114966   1.665   5.147   4.545
 4689SOL    HW214967   1.704   5.198   4.695
 4690SOL     OW14968   2.403   1.733   0.803
 4690SOL    HW114969   2.401   1.643   0.760
 4690SOL    HW214970   2.354   1.798   0.746
 4691SOL     OW14971   3.412   4.342   0.256
 4691SOL    HW114972   3.479   4.334   0.329
 4691SOL    HW214973   3.363   4.429   0.264
 4692SOL     OW14974   0.906   5.787   3.611
 4692SOL    HW114975   0.831   5.736   3.569
 4692SOL    HW214976   0.909   5.879   3.571
 4693SOL     OW14977   1.037   0.868   2.491
 4693SOL    HW114978   0.937   0.864   2.488
 4693SOL    HW214979   1.072   0.787   2.538
 4694SOL     OW14980   1.090   0.757   5.496
 4694SOL    HW114981   1.111   0.838   5.440
 4694SOL    HW214982   1.154   0.684   5.474
 4695SOL     OW14983   3.072   3.017   2.455
 4695SOL    HW114984   3.012   3.069   2.394
 4695SOL    HW214985   3.063   3.052   2.548
 4696SOL     OW14986   6.368   3.242   0.841
 4696SOL    HW114987   6.415   3.281   0.920
 4696SOL    HW214988   6.269   3.250   0.854
 4697SOL     OW14989   0.989   5.965   6.688
 4697SOL    HW114990   0.901   5.959   6.736
 4697SOL    HW214991   1.054   5.902   6.729
 4698SOL     OW14992   6.286   3.300   2.375
 4698SOL    HW114993   6.287   3.393   2.340
 4698SOL    HW214994   6.217   3.292   2.447
 4699SOL     OW14995   6.923   6.299   3.254
 4699SOL    HW114996   6.971   6.272   3.337
 4699SOL    HW214997   6.986   6.296   3.177
 4700SOL     OW14998   5.075   6.526   0.269
 4700SOL    HW114999   5.021   6.599   0.227
 4700SOL    HW215000   5.164   6.520   0.224
 4701SOL     OW15001   1.217   0.326   6.989
 4701SOL    HW115002   1.261   0.237   7.003
 4701SOL    HW215003   1.159   0.323   6.908
 4702SOL     OW15004   2.401   3.484   0.292
 4702SOL    HW115005   2.496   3.470   0.263
 4702SOL    HW215006   2.339   3.459   0.218
 4703SOL     OW15007   0.806   0.316   2.065
 4703SOL    HW115008   0.902   0.343   2.069
 4703SOL    HW215009   0.781   0.297   1.970
 4704SOL     OW15010   4.782   6.917   6.786
 4704SOL    HW115011   4.724   6.987   6.827
 4704SOL    HW215012   4.779   6.834   6.843
 4705SOL     OW15013   4.113   3.705   4.353
 4705SOL    HW115014   4.088   3.793   4.393
 4705SOL    HW215015   4.123   3.714   4.254
 4706SOL     OW15016   5.282   4.501   6.853
 4706SOL    HW115017   5.353   4.566   6.880
 4706SOL    HW215018   5.312   4.408   6.873
 4707SOL     OW15019   2.807   5.358   1.123
 4707SOL    HW115020   2.736   5.408   1.073
 4707SOL    HW215021   2.888   5.348   1.066
 4708SOL     OW15022   1.490   3.342   2.441
 4708SOL    HW115023   1.588   3.323   2.446
 4708SOL    HW215024   1.474   3.439   2.453
 4709SOL     OW15025   2.943   4.285   0.698
 4709SOL    HW115026   2.916   4.189   0.691
 4709SOL    HW215027   2.953   4.324   0.606
 4710SOL     OW15028   5.145   2.976   1.020
 4710SOL    HW115029   5.141   3.073   0.997
 4710SOL    HW215030   5.088   2.958   1.101
 4711SOL     OW15031   2.664   0.118   3.280
 4711SOL    HW115032   2.655   0.144   3.376
 4711SOL    HW215033   2.600   0.171   3.224
 4712SOL     OW15034   1.720   3.935   6.657
 4712SOL    HW115035   1.708   3.853   6.713
 4712SOL    HW215036   1.804   3.927   6.603
 4713SOL     OW15037   1.668   5.484   0.712
 4713SOL    HW115038   1.658   5.583   0.701
 4713SOL    HW215039   1.664   5.440   0.623
 4714SOL     OW15040   3.845   2.306   1.254
 4714SOL    HW115041   3.828   2.218   1.298
 4714SOL    HW215042   3.778   2.373   1.285
 4715SOL     OW15043   4.877   3.738   4.808
 4715SOL    HW115044   4.890   3.836   4.820
 4715SOL    HW215045   4.846   3.698   4.894
 4716SOL     OW15046   2.797   5.254   6.787
 4716SOL    HW115047   2.787   5.326   6.719
 4716SOL    HW215048   2.709   5.239   6.833
 4717SOL     OW15049   2.246   5.091   4.320
 4717SOL    HW115050   2.274   5.188   4.319
 4717SOL    HW215051   2.225   5.064   4.413
 4718SOL     OW15052   5.307   0.643   6.971
 4718SOL    HW115053   5.321   0.589   0.027
 4718SOL    HW215054   5.366   0.725   6.975
 4719SOL     OW15055   4.508   2.816   1.698
 4719SOL    HW115056   4.413   2.813   1.667
 4719SOL    HW215057   4.522   2.897   1.756
 4720SOL     OW15058   3.085   1.375   3.476
 4720SOL    HW115059   3.013   1.310   3.451
 4720SOL    HW215060   3.046   1.467   3.481
 4721SOL     OW15061   1.656   1.608   1.250
 4721SOL    HW115062   1.742   1.626   1.298
 4721SOL    HW215063   1.579   1.633   1.308
 4722SOL     OW15064   3.623   0.308   2.389
 4722SOL    HW115065   3.694   0.240   2.366
 4722SOL    HW215066   3.607   0.367   2.310
 4723SOL     OW15067   2.873   0.242   5.149
 4723SOL    HW115068   2.861   0.146   5.125
 4723SOL    HW215069   2.953   0.252   5.207
 4724SOL     OW15070   4.826   4.809   1.239
 4724SOL    HW115071   4.744   4.865   1.253
 4724SOL    HW215072   4.809   4.744   1.165
 4725SOL     OW15073   6.270   5.532   2.528
 4725SOL    HW115074   6.256   5.452   2.470
 4725SOL    HW215075   6.324   5.600   2.479
 4726SOL     OW15076   0.177   6.852   4.632
 4726SOL    HW115077   0.123   6.828   4.551
 4726SOL    HW215078   0.259   6.902   4.603
 4727SOL     OW15079   6.405   6.397   1.273
 4727SOL    HW115080   6.477   6.412   1.340
 4727SOL    HW215081   6.444   6.357   1.190
 4728SOL     OW15082   6.338   0.765   7.020
 4728SOL    HW115083   6.327   0.836   0.063
 4728SOL    HW215084   6.434   0.736   7.017
 4729SOL     OW15085   2.903   0.754   0.902
 4729SOL    HW115086   2.854   0.817   0.843
 4729SOL    HW215087   2.988   0.797   0.933
 4730SOL     OW15088   2.056   0.597   5.750
 4730SOL    HW115089   2.065   0.690   5.786
 4730SOL    HW215090   2.147   0.561   5.727
 4731SOL     OW15091   5.038   1.752   6.824
 4731SOL    HW115092   5.138   1.758   6.823
 4731SOL    HW215093   5.008   1.678   6.763
 4732SOL     OW15094   0.594   0.679   6.965
 4732SOL    HW115095   0.635   0.612   0.000
 4732SOL    HW215096   0.667   0.733   6.923
 4733SOL     OW15097   6.994   3.496   3.636
 4733SOL    HW115098   6.930   3.487   3.560
 4733SOL    HW215099   6.957   3.558   3.705
 4734SOL     OW15100   5.695   4.481   5.792
 4734SOL    HW115101   5.738   4.394   5.818
 4734SOL    HW215102   5.598   4.467   5.775
 4735SOL     OW15103   0.154   4.132   3.839
 4735SOL    HW115104   0.178   4.107   3.745
 4735SOL    HW215105   0.055   4.125   3.851
 4736SOL     OW15106   1.715   0.190   1.654
 4736SOL    HW115107   1.702   0.146   1.565
 4736SOL    HW215108   1.770   0.131   1.713
 4737SOL     OW15109   3.316   5.200   1.795
 4737SOL    HW115110   3.232   5.206   1.849
 4737SOL    HW215111   3.319   5.111   1.749
 4738SOL     OW15112   0.393   6.389   2.475
 4738SOL    HW115113   0.321   6.357   2.412
 4738SOL    HW215114   0.454   6.452   2.427
 4739SOL     OW15115   4.185   6.717   1.666
 4739SOL    HW115116   4.124   6.748   1.739
 4739SOL    HW215117   4.131   6.689   1.587
 4740SOL     OW15118   0.532   1.983   3.964
 4740SOL    HW115119   0.571   1.996   3.873
 4740SOL    HW215120   0.458   2.048   3.978
 4741SOL     OW15121   3.879   3.751   1.875
 4741SOL    HW115122   3.889   3.714   1.783
 4741SOL    HW215123   3.962   3.733   1.928
 4742SOL     OW15124   4.577   0.630   1.408
 4742SOL    HW115125   4.610   0.571   1.482
 4742SOL    HW215126   4.510   0.694   1.445
 4743SOL     OW15127   1.527   5.871   0.920
 4743SOL    HW115128   1.451   5.918   0.965
 4743SOL    HW215129   1.557   5.794   0.976
 4744SOL     OW15130   1.809   6.053   1.559
 4744SOL    HW115131   1.797   5.965   1.604
 4744SOL    HW215132   1.891   6.051   1.503
 4745SOL     OW15133   1.572   3.342   0.419
 4745SOL    HW115134   1.484   3.305   0.451
 4745SOL    HW215135   1.612   3.399   0.491
 4746SOL     OW15136   4.951   5.469   4.279
 4746SOL    HW115137   4.999   5.382   4.270
 4746SOL    HW215138   5.002   5.541   4.231
 4747SOL     OW15139   3.719   0.568   0.054
 4747SOL    HW115140   3.662   0.488   0.072
 4747SOL    HW215141   3.816   0.542   0.057
 4748SOL     OW15142   2.134   0.066   2.689
 4748SOL    HW115143   2.151   6.994   2.689
 4748SOL    HW215144   2.181   0.108   2.767
 4749SOL     OW15145   2.206   1.339   1.068
 4749SOL    HW115146   2.198   1.354   0.970
 4749SOL    HW215147   2.291   1.291   1.088
 4750SOL     OW15148   4.474   3.322   6.307
 4750SOL    HW115149   4.398   3.325   6.243
 4750SOL    HW215150   4.559   3.349   6.261
 4751SOL     OW15151   4.392   1.029   2.308
 4751SOL    HW115152   4.417   0.996   2.217
 4751SOL    HW215153   4.474   1.052   2.359
 4752SOL     OW15154   5.827   1.574   6.773
 4752SOL    HW115155   5.774   1.545   6.694
 4752SOL    HW215156   5.775   1.643   6.825
 4753SOL     OW15157   2.464   6.494   4.942
 4753SOL    HW115158   2.473   6.452   5.033
 4753SOL    HW215159   2.452   6.592   4.951
 4754SOL     OW15160   5.053   4.343   0.062
 4754SOL    HW115161   5.146   4.309   0.078
 4754SOL    HW215162   5.036   4.422   0.120
 4755SOL     OW15163   0.995   1.405   0.962
 4755SOL    HW115164   1.087   1.401   0.924
 4755SOL    HW215165   0.949   1.488   0.931
 4756SOL     OW15166   0.032   3.646   5.605
 4756SOL    HW115167   0.098   3.666   5.677
 4756SOL    HW215168   6.971   3.621   5.646
 4757SOL     OW15169   1.804   3.137   0.353
 4757SOL    HW115170   1.896   3.105   0.376
 4757SOL    HW215171   1.749   3.144   0.436
 4758SOL     OW15172   2.502   4.986   2.640
 4758SOL    HW115173   2.431   5.023   2.579
 4758SOL    HW215174   2.590   4.990   2.595
 4759SOL     OW15175   0.783   6.107   2.447
 4759SOL    HW115176   0.686   6.129   2.434
 4759SOL    HW215177   0.838   6.163   2.385
 4760SOL     OW15178   1.732   6.610   1.452
 4760SOL    HW115179   1.744   6.705   1.482
 4760SOL    HW215180   1.739   6.549   1.531
 4761SOL     OW15181   4.993   6.586   1.588
 4761SOL    HW115182   5.058   6.547   1.523
 4761SOL    HW215183   4.927   6.516   1.615
 4762SOL     OW15184   1.307   0.506   2.925
 4762SOL    HW115185   1.346   0.594   2.953
 4762SOL    HW215186   1.211   0.518   2.900
 4763SOL     OW15187   5.508   5.139   2.174
 4763SOL    HW115188   5.504   5.045   2.142
 4763SOL    HW215189   5.535   5.141   2.270
 4764SOL     OW15190   4.744   2.763   6.656
 4764SOL    HW115191   4.787   2.853   6.664
 4764SOL    HW215192   4.790   2.698   6.716
 4765SOL     OW15193   4.171   1.682   5.961
 4765SOL    HW115194   4.264   1.706   5.935
 4765SOL    HW215195   4.111   1.760   5.946
 4766SOL     OW15196   0.930   0.788   4.749
 4766SOL    HW115197   0.885   0.718   4.692
 4766SOL    HW215198   1.017   0.813   4.708
 4767SOL     OW15199   2.178   4.530   3.676
 4767SOL    HW115200   2.080   4.537   3.657
 4767SOL    HW215201   2.224   4.615   3.648
 4768SOL     OW15202   4.515   2.069   6.319
 4768SOL    HW115203   4.420   2.090   6.341
 4768SOL    HW215204   4.535   2.101   6.226
 4769SOL     OW15205   1.917   2.987   0.872
 4769SOL    HW115206   1.936   2.942   0.785
 4769SOL    HW215207   1.848   2.935   0.922
 4770SOL     OW15208   0.011   1.511   3.296
 4770SOL    HW115209   0.032   1.455   3.215
 4770SOL    HW215210   0.087   1.573   3.314
 4771SOL     OW15211   2.346   0.218   4.109
 4771SOL    HW115212   2.301   0.183   4.027
 4771SOL    HW215213   2.319   0.164   4.188
 4772SOL     OW15214   2.494   4.542   3.174
 4772SOL    HW115215   2.589   4.568   3.189
 4772SOL    HW215216   2.485   4.502   3.082
 4773SOL     OW15217   2.702   5.359   4.937
 4773SOL    HW115218   2.790   5.403   4.951
 4773SOL    HW215219   2.702   5.311   4.850
 4774SOL     OW15220   0.903   4.330   0.790
 4774SOL    HW115221   0.891   4.230   0.796
 4774SOL    HW215222   0.889   4.370   0.881
 4775SOL     OW15223   5.629   5.226   4.730
 4775SOL    HW115224   5.624   5.315   4.683
 4775SOL    HW215225   5.663   5.240   4.823
 4776SOL     OW15226   6.969   1.909   5.014
 4776SOL    HW115227   7.011   1.862   5.092
 4776SOL    HW215228   6.872   1.925   5.033
 4777SOL     OW15229   1.506   6.739   3.010
 4777SOL    HW115230   1.471   6.750   2.917
 4777SOL    HW215231   1.438   6.691   3.066
 4778SOL     OW15232   1.799   0.106   6.950
 4778SOL    HW115233   1.898   0.091   6.955
 4778SOL    HW215234   1.760   0.050   6.877
 4779SOL     OW15235   4.850   0.930   4.716
 4779SOL    HW115236   4.840   0.859   4.645
 4779SOL    HW215237   4.774   0.923   4.781
 4780SOL     OW15238   4.774   2.983   4.600
 4780SOL    HW115239   4.844   2.947   4.539
 4780SOL    HW215240   4.789   3.080   4.616
 4781SOL     OW15241   1.661   5.347   1.962
 4781SOL    HW115242   1.745   5.399   1.946
 4781SOL    HW215243   1.684   5.250   1.973
 4782SOL     OW15244   1.202   6.050   3.198
 4782SOL    HW115245   1.180   6.133   3.148
 4782SOL    HW215246   1.269   6.071   3.270
 4783SOL     OW15247   0.404   3.465   6.468
 4783SOL    HW115248   0.311   3.484   6.438
 4783SOL    HW215249   0.469   3.511   6.408
 4784SOL     OW15250   5.307   2.843   0.089
 4784SOL    HW115251   5.270   2.873   0.001
 4784SOL    HW215252   5.263   2.757   0.115
 4785SOL     OW15253   0.644   0.137   4.025
 4785SOL    HW115254   0.567   0.142   3.961
 4785SOL    HW215255   0.715   0.078   3.987
 4786SOL     OW15256   0.959   5.432   0.592
 4786SOL    HW115257   0.974   5.528   0.570
 4786SOL    HW215258   0.899   5.391   0.523
 4787SOL     OW15259   4.917   1.064   5.210
 4787SOL    HW115260   4.918   1.139   5.145
 4787SOL    HW215261   4.828   1.018   5.208
 4788SOL     OW15262   6.581   5.701   1.010
 4788SOL    HW115263   6.657   5.661   1.060
 4788SOL    HW215264   6.516   5.630   0.984
 4789SOL     OW15265   6.234   0.799   2.902
 4789SOL    HW115266   6.312   0.813   2.963
 4789SOL    HW215267   6.151   0.836   2.944
 4790SOL     OW15268   6.555   2.140   4.719
 4790SOL    HW115269   6.476   2.179   4.767
 4790SOL    HW215270   6.639   2.185   4.752
 4791SOL     OW15271   0.510   0.607   6.386
 4791SOL    HW115272   0.462   0.533   6.434
 4791SOL    HW215273   0.605   0.579   6.368
 4792SOL     OW15274   0.676   3.846   1.637
 4792SOL    HW115275   0.596   3.815   1.688
 4792SOL    HW215276   0.648   3.886   1.550
 4793SOL     OW15277   0.682   3.747   5.259
 4793SOL    HW115278   0.661   3.674   5.323
 4793SOL    HW215279   0.632   3.830   5.285
 4794SOL     OW15280   5.097   1.603   5.941
 4794SOL    HW115281   5.161   1.643   5.875
 4794SOL    HW215282   5.067   1.674   6.005
 4795SOL     OW15283   0.091   1.065   6.619
 4795SOL    HW115284   0.178   1.017   6.631
 4795SOL    HW215285   0.027   1.035   6.689
 4796SOL     OW15286   5.404   1.136   5.884
 4796SOL    HW115287   5.357   1.183   5.809
 4796SOL    HW215288   5.421   1.041   5.858
 4797SOL     OW15289   2.541   5.538   5.672
 4797SOL    HW115290   2.467   5.506   5.731
 4797SOL    HW215291   2.505   5.559   5.581
 4798SOL     OW15292   3.034   6.323   0.325
 4798SOL    HW115293   2.976   6.400   0.350
 4798SOL    HW215294   3.056   6.327   0.228
 4799SOL     OW15295   3.303   3.186   0.334
 4799SOL    HW115296   3.265   3.277   0.345
 4799SOL    HW215297   3.403   3.191   0.333
 4800SOL     OW15298   0.996   4.888   0.415
 4800SOL    HW115299   1.092   4.892   0.389
 4800SOL    HW215300   0.948   4.965   0.373
 4801SOL     OW15301   4.600   2.633   3.211
 4801SOL    HW115302   4.529   2.577   3.169
 4801SOL    HW215303   4.689   2.609   3.173
 4802SOL     OW15304   7.011   0.793   4.795
 4802SOL    HW115305   6.940   0.833   4.852
 4802SOL    HW215306   0.067   0.779   4.849
 4803SOL     OW15307   4.965   3.872   5.760
 4803SOL    HW115308   4.893   3.820   5.714
 4803SOL    HW215309   5.042   3.885   5.698
 4804SOL     OW15310   4.964   2.421   0.536
 4804SOL    HW115311   4.963   2.368   0.621
 4804SOL    HW215312   4.902   2.378   0.470
 4805SOL     OW15313   5.519   1.284   6.319
 4805SOL    HW115314   5.428   1.324   6.327
 4805SOL    HW215315   5.533   1.252   6.225
 4806SOL     OW15316   0.955   2.541   3.556
 4806SOL    HW115317   1.026   2.541   3.627
 4806SOL    HW215318   0.965   2.624   3.500
 4807SOL     OW15319   0.491   4.347   6.909
 4807SOL    HW115320   0.563   4.369   6.975
 4807SOL    HW215321   0.417   4.297   6.955
 4808SOL     OW15322   3.786   5.877   2.473
 4808SOL    HW115323   3.838   5.882   2.558
 4808SOL    HW215324   3.837   5.922   2.400
 4809SOL     OW15325   2.835   3.569   0.874
 4809SOL    HW115326   2.903   3.495   0.872
 4809SOL    HW215327   2.744   3.530   0.860
 4810SOL     OW15328   1.633   5.637   4.635
 4810SOL    HW115329   1.534   5.648   4.624
 4810SOL    HW215330   1.664   5.692   4.712
 4811SOL     OW15331   3.316   3.404   4.608
 4811SOL    HW115332   3.248   3.369   4.544
 4811SOL    HW215333   3.314   3.504   4.608
 4812SOL     OW15334   2.297   6.593   2.526
 4812SOL    HW115335   2.253   6.682   2.510
 4812SOL    HW215336   2.228   6.526   2.552
 4813SOL     OW15337   0.620   2.676   4.573
 4813SOL    HW115338   0.705   2.644   4.616
 4813SOL    HW215339   0.560   2.713   4.644
 4814SOL     OW15340   6.568   2.434   0.994
 4814SOL    HW115341   6.470   2.415   0.981
 4814SOL    HW215342   6.581   2.483   1.080
 4815SOL     OW15343   6.207   4.234   2.178
 4815SOL    HW115344   6.149   4.314   2.190
 4815SOL    HW215345   6.222   4.218   2.080
 4816SOL     OW15346   2.762   0.541   2.432
 4816SOL    HW115347   2.770   0.482   2.351
 4816SOL    HW215348   2.736   0.633   2.403
 4817SOL     OW15349   3.927   2.555   0.490
 4817SOL    HW115350   3.888   2.576   0.580
 4817SOL    HW215351   4.018   2.516   0.502
 4818SOL     OW15352   4.811   6.283   4.799
 4818SOL    HW115353   4.851   6.226   4.728
 4818SOL    HW215354   4.726   6.242   4.831
 4819SOL     OW15355   3.182   1.122   0.244
 4819SOL    HW115356   3.130   1.142   0.161
 4819SOL    HW215357   3.129   1.149   0.324
 4820SOL     OW15358   6.371   4.257   1.891
 4820SOL    HW115359   6.317   4.339   1.912
 4820SOL    HW215360   6.362   4.235   1.794
 4821SOL     OW15361   0.020   5.873   1.539
 4821SOL    HW115362   0.024   5.803   1.611
 4821SOL    HW215363   0.100   5.932   1.545
 4822SOL     OW15364   0.526   3.758   1.185
 4822SOL    HW115365   0.506   3.793   1.094
 4822SOL    HW215366   0.625   3.746   1.195
 4823SOL     OW15367   0.325   1.396   3.219
 4823SOL    HW115368   0.353   1.428   3.129
 4823SOL    HW215369   0.281   1.471   3.269
 4824SOL     OW15370   5.382   1.490   2.615
 4824SOL    HW115371   5.448   1.427   2.656
 4824SOL    HW215372   5.430   1.571   2.580
 4825SOL     OW15373   1.101   3.196   4.356
 4825SOL    HW115374   1.016   3.151   4.385
 4825SOL    HW215375   1.099   3.292   4.385
 4826SOL     OW15376   6.682   0.054   0.169
 4826SOL    HW115377   6.733   0.052   0.255
 4826SOL    HW215378   6.715   0.128   0.112
 4827SOL     OW15379   4.821   1.680   7.002
 4827SOL    HW115380   4.772   1.755   6.956
 4827SOL    HW215381   4.917   1.682   6.975
 4828SOL     OW15382   5.026   3.341   6.677
 4828SOL    HW115383   4.963   3.405   6.633
 4828SOL    HW215384   5.020   3.252   6.632
 4829SOL     OW15385   3.333   0.506   5.299
 4829SOL    HW115386   3.253   0.526   5.356
 4829SOL    HW215387   3.412   0.556   5.334
 4830SOL     OW15388   4.894   5.123   4.721
 4830SOL    HW115389   4.851   5.205   4.758
 4830SOL    HW215390   4.988   5.116   4.757
 4831SOL     OW15391   6.038   2.213   6.659
 4831SOL    HW115392   6.089   2.293   6.627
 4831SOL    HW215393   6.092   2.131   6.646
 4832SOL     OW15394   1.546   2.811   6.455
 4832SOL    HW115395   1.464   2.781   6.502
 4832SOL    HW215396   1.521   2.871   6.379
 4833SOL     OW15397   6.453   2.037   3.340
 4833SOL    HW115398   6.485   1.975   3.268
 4833SOL    HW215399   6.353   2.042   3.336
 4834SOL     OW15400   6.060   0.158   3.020
 4834SOL    HW115401   6.064   0.257   3.034
 4834SOL    HW215402   6.144   0.115   3.052
 4835SOL     OW15403   1.575   1.508   6.336
 4835SOL    HW115404   1.607   1.501   6.430
 4835SOL    HW215405   1.559   1.417   6.299
 4836SOL     OW15406   5.512   3.093   2.504
 4836SOL    HW115407   5.597   3.085   2.556
 4836SOL    HW215408   5.533   3.105   2.407
 4837SOL     OW15409   0.606   5.056   1.309
 4837SOL    HW115410   0.656   5.114   1.372
 4837SOL    HW215411   0.670   5.011   1.246
 4838SOL     OW15412   2.241   5.927   2.739
 4838SOL    HW115413   2.306   5.924   2.815
 4838SOL    HW215414   2.151   5.955   2.773
 4839SOL     OW15415   0.759   0.239   6.347
 4839SOL    HW115416   0.727   0.177   6.276
 4839SOL    HW215417   0.854   0.217   6.371
 4840SOL     OW15418   6.730   6.156   5.983
 4840SOL    HW115419   6.635   6.186   5.993
 4840SOL    HW215420   6.750   6.087   6.053
 4841SOL     OW15421   2.063   6.158   0.807
 4841SOL    HW115422   1.964   6.151   0.816
 4841SOL    HW215423   2.095   6.241   0.852
 4842SOL     OW15424   3.115   6.784   1.177
 4842SOL    HW115425   3.126   6.883   1.187
 4842SOL    HW215426   3.044   6.766   1.109
 4843SOL     OW15427   1.487   3.569   6.822
 4843SOL    HW115428   1.474   3.528   6.912
 4843SOL    HW215429   1.423   3.645   6.810
 4844SOL     OW15430   1.311   1.336   5.130
 4844SOL    HW115431   1.340   1.423   5.090
 4844SOL    HW215432   1.228   1.304   5.083
 4845SOL     OW15433   5.858   6.046   3.993
 4845SOL    HW115434   5.926   6.083   3.930
 4845SOL    HW215435   5.840   5.950   3.971
 4846SOL     OW15436   0.481   5.264   6.392
 4846SOL    HW115437   0.391   5.306   6.376
 4846SOL    HW215438   0.500   5.263   6.490
 4847SOL     OW15439   4.642   2.756   4.679
 4847SOL    HW115440   4.677   2.684   4.620
 4847SOL    HW215441   4.668   2.845   4.642
 4848SOL     OW15442   2.737   3.007   1.726
 4848SOL    HW115443   2.728   2.927   1.668
 4848SOL    HW215444   2.695   3.087   1.681
 4849SOL     OW15445   2.217   6.754   5.900
 4849SOL    HW115446   2.305   6.766   5.854
 4849SOL    HW215447   2.143   6.787   5.841
 4850SOL     OW15448   3.758   6.809   3.425
 4850SOL    HW115449   3.854   6.838   3.426
 4850SOL    HW215450   3.753   6.716   3.389
 4851SOL     OW15451   4.772   1.386   5.755
 4851SOL    HW115452   4.692   1.418   5.705
 4851SOL    HW215453   4.836   1.343   5.692
 4852SOL     OW15454   2.086   1.534   1.670
 4852SOL    HW115455   2.033   1.449   1.662
 4852SOL    HW215456   2.024   1.612   1.667
 4853SOL     OW15457   3.604   1.572   2.424
 4853SOL    HW115458   3.704   1.569   2.429
 4853SOL    HW215459   3.576   1.654   2.374
 4854SOL     OW15460   3.560   0.169   6.422
 4854SOL    HW115461   3.482   0.180   6.484
 4854SOL    HW215462   3.644   0.159   6.476
 4855SOL     OW15463   6.961   2.568   2.612
 4855SOL    HW115464   6.971   2.643   2.677
 4855SOL    HW215465   0.007   2.501   2.627
 4856SOL     OW15466   0.622   4.322   2.068
 4856SOL    HW115467   0.574   4.371   2.141
 4856SOL    HW215468   0.576   4.338   1.981
 4857SOL     OW15469   0.262   0.975   5.728
 4857SOL    HW115470   0.292   0.966   5.634
 4857SOL    HW215471   0.340   0.998   5.786
 4858SOL     OW15472   1.574   0.447   3.588
 4858SOL    HW115473   1.668   0.438   3.620
 4858SOL    HW215474   1.569   0.518   3.518
 4859SOL     OW15475   3.382   6.049   6.164
 4859SOL    HW115476   3.420   6.029   6.074
 4859SOL    HW215477   3.448   6.100   6.218
 4860SOL     OW15478   3.230   4.539   0.623
 4860SOL    HW115479   3.134   4.568   0.623
 4860SOL    HW215480   3.286   4.611   0.583
 4861SOL     OW15481   4.308   4.146   6.600
 4861SOL    HW115482   4.325   4.088   6.519
 4861SOL    HW215483   4.222   4.196   6.587
 4862SOL     OW15484   0.811   6.665   0.640
 4862SOL    HW115485   0.766   6.705   0.720
 4862SOL    HW215486   0.743   6.616   0.585
 4863SOL     OW15487   5.378   3.868   6.324
 4863SOL    HW115488   5.375   3.923   6.240
 4863SOL    HW215489   5.467   3.822   6.330
 4864SOL     OW15490   3.496   1.283   4.304
 4864SOL    HW115491   3.448   1.333   4.231
 4864SOL    HW215492   3.588   1.260   4.273
 4865SOL     OW15493   1.503   6.435   4.940
 4865SOL    HW115494   1.507   6.427   4.841
 4865SOL    HW215495   1.559   6.364   4.982
 4866SOL     OW15496   6.729   4.339   6.266
 4866SOL    HW115497   6.692   4.250   6.242
 4866SOL    HW215498   6.806   4.361   6.207
 4867SOL     OW15499   4.686   0.935   2.826
 4867SOL    HW115500   4.625   1.009   2.796
 4867SOL    HW215501   4.781   0.959   2.806
 4868SOL     OW15502   6.714   4.697   0.368
 4868SOL    HW115503   6.650   4.747   0.426
 4868SOL    HW215504   6.731   4.750   0.285
 4869SOL     OW15505   0.745   1.828   1.148
 4869SOL    HW115506   0.795   1.912   1.126
 4869SOL    HW215507   0.657   1.828   1.100
 4870SOL     OW15508   0.212   6.995   1.118
 4870SOL    HW115509   0.269   0.048   1.102
 4870SOL    HW215510   0.269   6.914   1.129
 4871SOL     OW15511   1.004   1.949   3.106
 4871SOL    HW115512   0.922   2.001   3.130
 4871SOL    HW215513   1.022   1.881   3.178
 4872SOL     OW15514   6.003   0.361   3.329
 4872SOL    HW115515   6.056   0.376   3.246
 4872SOL    HW215516   5.909   0.390   3.315
 4873SOL     OW15517   0.044   5.469   4.150
 4873SOL    HW115518   0.129   5.418   4.153
 4873SOL    HW215519   0.059   5.557   4.105
 4874SOL     OW15520   4.958   3.575   2.246
 4874SOL    HW115521   4.923   3.602   2.335
 4874SOL    HW215522   4.971   3.655   2.188
 4875SOL     OW15523   6.030   6.088   5.185
 4875SOL    HW115524   6.084   6.069   5.267
 4875SOL    HW215525   6.068   6.167   5.137
 4876SOL     OW15526   6.834   0.981   2.045
 4876SOL    HW115527   6.806   0.893   2.007
 4876SOL    HW215528   6.930   0.997   2.026
 4877SOL     OW15529   0.421   1.570   6.801
 4877SOL    HW115530   0.461   1.478   6.809
 4877SOL    HW215531   0.325   1.566   6.826
 4878SOL     OW15532   6.630   3.739   3.258
 4878SOL    HW115533   6.532   3.758   3.259
 4878SOL    HW215534   6.645   3.640   3.264
 4879SOL     OW15535   5.306   0.509   3.307
 4879SOL    HW115536   5.274   0.516   3.401
 4879SOL    HW215537   5.377   0.577   3.290
 4880SOL     OW15538   7.022   2.693   6.150
 4880SOL    HW115539   0.046   2.747   6.083
 4880SOL    HW215540   0.020   2.597   6.142
 4881SOL     OW15541   0.668   3.545   1.745
 4881SOL    HW115542   0.693   3.599   1.826
 4881SOL    HW215543   0.655   3.450   1.772
 4882SOL     OW15544   5.191   1.832   4.356
 4882SOL    HW115545   5.197   1.921   4.402
 4882SOL    HW215546   5.109   1.784   4.388
 4883SOL     OW15547   5.645   4.247   0.199
 4883SOL    HW115548   5.738   4.210   0.195
 4883SOL    HW215549   5.581   4.174   0.221
 4884SOL     OW15550   2.041   1.238   2.049
 4884SOL    HW115551   2.080   1.324   2.082
 4884SOL    HW215552   2.082   1.161   2.099
 4885SOL     OW15553   1.282   5.174   0.023
 4885SOL    HW115554   1.186   5.150   0.010
 4885SOL    HW215555   1.334   5.149   6.968
 4886SOL     OW15556   3.049   0.529   2.259
 4886SOL    HW115557   3.004   0.447   2.294
 4886SOL    HW215558   3.122   0.501   2.196
 4887SOL     OW15559   4.521   5.587   0.657
 4887SOL    HW115560   4.556   5.624   0.571
 4887SOL    HW215561   4.591   5.531   0.700
 4888SOL     OW15562   4.511   0.155   3.082
 4888SOL    HW115563   4.520   0.242   3.034
 4888SOL    HW215564   4.581   0.148   3.153
 4889SOL     OW15565   6.004   3.304   3.968
 4889SOL    HW115566   6.040   3.397   3.958
 4889SOL    HW215567   5.946   3.299   4.050
 4890SOL     OW15568   6.849   1.820   4.684
 4890SOL    HW115569   6.939   1.861   4.695
 4890SOL    HW215570   6.843   1.738   4.741
 4891SOL     OW15571   2.592   6.158   0.202
 4891SOL    HW115572   2.568   6.204   0.287
 4891SOL    HW215573   2.692   6.153   0.195
 4892SOL     OW15574   5.336   5.150   2.550
 4892SOL    HW115575   5.426   5.174   2.589
 4892SOL    HW215576   5.294   5.233   2.513
 4893SOL     OW15577   1.320   3.234   1.348
 4893SOL    HW115578   1.251   3.261   1.280
 4893SOL    HW215579   1.348   3.140   1.331
 4894SOL     OW15580   4.876   5.717   0.741
 4894SOL    HW115581   4.838   5.628   0.766
 4894SOL    HW215582   4.819   5.790   0.781
 4895SOL     OW15583   6.679   4.368   5.333
 4895SOL    HW115584   6.737   4.345   5.411
 4895SOL    HW215585   6.735   4.411   5.262
 4896SOL     OW15586   2.633   5.050   5.237
 4896SOL    HW115587   2.631   4.953   5.262
 4896SOL    HW215588   2.665   5.059   5.143
 4897SOL     OW15589   2.136   1.527   5.095
 4897SOL    HW115590   2.083   1.596   5.145
 4897SOL    HW215591   2.126   1.439   5.141
 4898SOL     OW15592   4.813   1.798   4.038
 4898SOL    HW115593   4.761   1.884   4.032
 4898SOL    HW215594   4.778   1.744   4.115
 4899SOL     OW15595   6.404   6.453   1.980
 4899SOL    HW115596   6.354   6.441   1.894
 4899SOL    HW215597   6.372   6.387   2.047
 4900SOL     OW15598   3.645   6.122   6.258
 4900SOL    HW115599   3.683   6.141   6.348
 4900SOL    HW215600   3.701   6.053   6.212
 4901SOL     OW15601   1.914   0.694   0.012
 4901SOL    HW115602   1.964   0.780   0.021
 4901SOL    HW215603   1.817   0.710   0.028
 4902SOL     OW15604   3.285   0.219   5.421
 4902SOL    HW115605   3.230   0.136   5.421
 4902SOL    HW215606   3.262   0.274   5.501
 4903SOL     OW15607   4.903   3.682   2.744
 4903SOL    HW115608   4.894   3.771   2.788
 4903SOL    HW215609   4.842   3.616   2.787
 4904SOL     OW15610   1.643   0.732   1.719
 4904SOL    HW115611   1.636   0.828   1.747
 4904SOL    HW215612   1.559   0.684   1.743
 4905SOL     OW15613   2.664   0.739   2.286
 4905SOL    HW115614   2.628   0.829   2.311
 4905SOL    HW215615   2.748   0.751   2.232
 4906SOL     OW15616   5.244   3.547   4.796
 4906SOL    HW115617   5.180   3.562   4.872
 4906SOL    HW215618   5.193   3.533   4.711
 4907SOL     OW15619   3.361   2.386   0.171
 4907SOL    HW115620   3.362   2.300   0.120
 4907SOL    HW215621   3.450   2.399   0.215
 4908SOL     OW15622   3.375   6.748   6.254
 4908SOL    HW115623   3.339   6.813   6.187
 4908SOL    HW215624   3.387   6.794   6.342
 4909SOL     OW15625   5.043   5.468   4.554
 4909SOL    HW115626   5.013   5.431   4.642
 4909SOL    HW215627   4.963   5.495   4.501
 4910SOL     OW15628   3.712   1.830   0.196
 4910SOL    HW115629   3.736   1.735   0.178
 4910SOL    HW215630   3.652   1.864   0.125
 4911SOL     OW15631   6.865   4.527   3.172
 4911SOL    HW115632   6.767   4.546   3.183
 4911SOL    HW215633   6.878   4.469   3.092
 4912SOL     OW15634   6.004   2.610   4.382
 4912SOL    HW115635   5.972   2.649   4.295
 4912SOL    HW215636   6.083   2.551   4.364
 4913SOL     OW15637   0.869   4.324   4.992
 4913SOL    HW115638   0.829   4.351   5.079
 4913SOL    HW215639   0.889   4.405   4.937
 4914SOL     OW15640   3.818   6.483   3.936
 4914SOL    HW115641   3.750   6.423   3.894
 4914SOL    HW215642   3.903   6.432   3.952
 4915SOL     OW15643   3.695   5.929   5.471
 4915SOL    HW115644   3.641   5.928   5.555
 4915SOL    HW215645   3.687   6.019   5.428
 4916SOL     OW15646   5.768   2.288   3.855
 4916SOL    HW115647   5.805   2.230   3.782
 4916SOL    HW215648   5.672   2.264   3.871
 4917SOL     OW15649   4.328   6.290   6.591
 4917SOL    HW115650   4.329   6.349   6.510
 4917SOL    HW215651   4.275   6.333   6.664
 4918SOL     OW15652   5.779   5.542   3.787
 4918SOL    HW115653   5.701   5.518   3.845
 4918SOL    HW215654   5.771   5.495   3.699
 4919SOL     OW15655   3.719   3.800   2.122
 4919SOL    HW115656   3.779   3.829   2.197
 4919SOL    HW215657   3.771   3.798   2.037
 4920SOL     OW15658   5.993   0.924   6.037
 4920SOL    HW115659   6.050   0.905   5.957
 4920SOL    HW215660   5.954   1.016   6.029
 4921SOL     OW15661   6.962   6.663   1.706
 4921SOL    HW115662   7.016   6.690   1.785
 4921SOL    HW215663   6.940   6.743   1.651
 4922SOL     OW15664   4.469   1.249   6.099
 4922SOL    HW115665   4.530   1.328   6.099
 4922SOL    HW215666   4.484   1.197   6.015
 4923SOL     OW15667   3.889   1.268   1.887
 4923SOL    HW115668   3.825   1.240   1.959
 4923SOL    HW215669   3.857   1.352   1.844
 4924SOL     OW15670   2.626   1.552   4.982
 4924SOL    HW115671   2.537   1.517   5.008
 4924SOL    HW215672   2.625   1.652   4.982
 4925SOL     OW15673   4.731   5.849   3.591
 4925SOL    HW115674   4.806   5.915   3.590
 4925SOL    HW215675   4.766   5.757   3.574
 4926SOL     OW15676   5.529   2.615   1.772
 4926SOL    HW115677   5.437   2.648   1.794
 4926SOL    HW215678   5.562   2.556   1.846
 4927SOL     OW15679   2.452   1.565   0.392
 4927SOL    HW115680   2.509   1.643   0.417
 4927SOL    HW215681   2.360   1.598   0.367
 4928SOL     OW15682   6.649   1.252   0.954
 4928SOL    HW115683   6.647   1.173   0.893
 4928SOL    HW215684   6.646   1.336   0.900
 4929SOL     OW15685   6.876   0.384   5.260
 4929SOL    HW115686   6.892   0.313   5.192
 4929SOL    HW215687   6.952   0.386   5.325
 4930SOL     OW15688   4.366   5.654   2.670
 4930SOL    HW115689   4.380   5.743   2.628
 4930SOL    HW215690   4.444   5.595   2.650
 4931SOL     OW15691   6.110   0.111   1.155
 4931SOL    HW115692   6.119   0.012   1.161
 4931SOL    HW215693   6.199   0.151   1.133
 4932SOL     OW15694   3.287   3.666   2.849
 4932SOL    HW115695   3.256   3.584   2.801
 4932SOL    HW215696   3.340   3.724   2.787
 4933SOL     OW15697   1.516   0.325   4.954
 4933SOL    HW115698   1.467   0.247   4.916
 4933SOL    HW215699   1.613   0.320   4.927
 4934SOL     OW15700   3.300   6.722   2.737
 4934SOL    HW115701   3.380   6.782   2.730
 4934SOL    HW215702   3.270   6.717   2.832
 4935SOL     OW15703   6.705   0.448   4.907
 4935SOL    HW115704   6.795   0.407   4.917
 4935SOL    HW215705   6.700   0.533   4.960
 4936SOL     OW15706   4.571   2.801   0.931
 4936SOL    HW115707   4.647   2.866   0.928
 4936SOL    HW215708   4.583   2.739   1.008
 4937SOL     OW15709   4.401   2.723   5.339
 4937SOL    HW115710   4.309   2.762   5.340
 4937SOL    HW215711   4.460   2.779   5.279
 4938SOL     OW15712   3.467   4.382   0.002
 4938SOL    HW115713   3.452   4.330   0.086
 4938SOL    HW215714   3.379   4.408   6.990
 4939SOL     OW15715   4.399   3.993   6.377
 4939SOL    HW115716   4.489   3.983   6.419
 4939SOL    HW215717   4.372   3.906   6.334
 4940SOL     OW15718   2.066   5.800   3.964
 4940SOL    HW115719   2.015   5.811   3.879
 4940SOL    HW215720   2.078   5.702   3.983
 4941SOL     OW15721   5.740   0.626   1.362
 4941SOL    HW115722   5.806   0.627   1.288
 4941SOL    HW215723   5.750   0.709   1.417
 4942SOL     OW15724   4.716   2.489   6.351
 4942SOL    HW115725   4.769   2.405   6.344
 4942SOL    HW215726   4.697   2.524   6.259
 4943SOL     OW15727   5.721   2.787   1.193
 4943SOL    HW115728   5.725   2.874   1.144
 4943SOL    HW215729   5.788   2.787   1.267
 4944SOL     OW15730   2.083   3.688   2.072
 4944SOL    HW115731   2.150   3.625   2.032
 4944SOL    HW215732   2.128   3.747   2.138
 4945SOL     OW15733   0.103   5.975   4.300
 4945SOL    HW115734   0.146   6.029   4.373
 4945SOL    HW215735   0.172   5.918   4.255
 4946SOL     OW15736   0.029   4.110   2.204
 4946SOL    HW115737   0.063   4.016   2.190
 4946SOL    HW215738   0.102   4.166   2.243
 4947SOL     OW15739   6.012   0.971   0.667
 4947SOL    HW115740   5.990   0.876   0.645
 4947SOL    HW215741   6.028   1.021   0.582
 4948SOL     OW15742   2.431   1.687   2.669
 4948SOL    HW115743   2.431   1.702   2.767
 4948SOL    HW215744   2.473   1.765   2.623
 4949SOL     OW15745   5.337   2.031   5.024
 4949SOL    HW115746   5.382   2.089   5.092
 4949SOL    HW215747   5.238   2.043   5.029
 4950SOL     OW15748   3.106   5.557   4.680
 4950SOL    HW115749   3.032   5.548   4.613
 4950SOL    HW215750   3.090   5.494   4.756
 4951SOL     OW15751   4.321   1.807   4.605
 4951SOL    HW115752   4.222   1.796   4.593
 4951SOL    HW215753   4.342   1.807   4.703
 4952SOL     OW15754   6.753   4.548   4.215
 4952SOL    HW115755   6.780   4.644   4.223
 4952SOL    HW215756   6.826   4.497   4.170
 4953SOL     OW15757   1.206   4.636   1.884
 4953SOL    HW115758   1.278   4.632   1.815
 4953SOL    HW215759   1.149   4.555   1.878
 4954SOL     OW15760   6.266   6.437   6.774
 4954SOL    HW115761   6.190   6.432   6.709
 4954SOL    HW215762   6.351   6.409   6.728
 4955SOL     OW15763   1.711   0.209   1.376
 4955SOL    HW115764   1.786   0.264   1.413
 4955SOL    HW215765   1.730   0.189   1.279
 4956SOL     OW15766   6.137   6.486   3.491
 4956SOL    HW115767   6.157   6.403   3.439
 4956SOL    HW215768   6.062   6.536   3.448
 4957SOL     OW15769   1.664   5.824   3.910
 4957SOL    HW115770   1.572   5.863   3.915
 4957SOL    HW215771   1.673   5.752   3.980
 4958SOL     OW15772   6.843   6.892   0.028
 4958SOL    HW115773   6.918   6.948   7.019
 4958SOL    HW215774   6.772   6.950   0.067
 4959SOL     OW15775   0.705   1.897   0.227
 4959SOL    HW115776   0.737   1.950   0.305
 4959SOL    HW215777   0.720   1.949   0.143
 4960SOL     OW15778   3.919   7.003   5.647
 4960SOL    HW115779   3.912   6.987   5.549
 4960SOL    HW215780   3.960   0.066   5.664
 4961SOL     OW15781   5.350   0.636   5.372
 4961SOL    HW115782   5.262   0.589   5.363
 4961SOL    HW215783   5.395   0.608   5.456
 4962SOL     OW15784   6.808   2.298   2.399
 4962SOL    HW115785   6.820   2.238   2.479
 4962SOL    HW215786   6.893   2.303   2.348
 4963SOL     OW15787   6.669   4.698   1.188
 4963SOL    HW115788   6.641   4.607   1.160
 4963SOL    HW215789   6.615   4.766   1.138
 4964SOL     OW15790   3.272   6.742   3.028
 4964SOL    HW115791   3.303   6.682   3.102
 4964SOL    HW215792   3.316   6.832   3.038
 4965SOL     OW15793   6.980   6.208   4.637
 4965SOL    HW115794   0.015   6.217   4.715
 4965SOL    HW215795   0.006   6.209   4.552
 4966SOL     OW15796   4.674   5.211   5.128
 4966SOL    HW115797   4.603   5.169   5.184
 4966SOL    HW215798   4.635   5.240   5.040
 4967SOL     OW15799   5.996   1.886   6.766
 4967SOL    HW115800   5.921   1.828   6.796
 4967SOL    HW215801   5.962   1.953   6.700
 4968SOL     OW15802   4.997   4.228   6.846
 4968SOL    HW115803   4.960   4.306   6.796
 4968SOL    HW215804   5.042   4.260   6.930
 4969SOL     OW15805   1.924   1.578   1.398
 4969SOL    HW115806   1.971   1.570   1.310
 4969SOL    HW215807   1.914   1.488   1.440
 4970SOL     OW15808   1.719   2.417   5.916
 4970SOL    HW115809   1.801   2.362   5.936
 4970SOL    HW215810   1.739   2.513   5.935
 4971SOL     OW15811   6.545   5.512   3.627
 4971SOL    HW115812   6.447   5.531   3.617
 4971SOL    HW215813   6.570   5.435   3.567
 4972SOL     OW15814   1.741   2.157   4.679
 4972SOL    HW115815   1.810   2.184   4.745
 4972SOL    HW215816   1.659   2.213   4.690
 4973SOL     OW15817   5.209   5.520   2.912
 4973SOL    HW115818   5.261   5.500   2.828
 4973SOL    HW215819   5.199   5.619   2.922
 4974SOL     OW15820   3.988   6.701   6.557
 4974SOL    HW115821   3.901   6.728   6.516
 4974SOL    HW215822   4.029   6.628   6.503
 4975SOL     OW15823   4.109   6.609   0.306
 4975SOL    HW115824   4.083   6.525   0.353
 4975SOL    HW215825   4.199   6.639   0.338
 4976SOL     OW15826   2.355   0.619   4.395
 4976SOL    HW115827   2.269   0.632   4.346
 4976SOL    HW215828   2.426   0.676   4.354
 4977SOL     OW15829   3.365   3.072   0.613
 4977SOL    HW115830   3.319   3.088   0.526
 4977SOL    HW215831   3.333   2.985   0.652
 4978SOL     OW15832   6.271   4.284   6.312
 4978SOL    HW115833   6.327   4.257   6.391
 4978SOL    HW215834   6.255   4.383   6.315
 4979SOL     OW15835   2.253   2.209   3.880
 4979SOL    HW115836   2.342   2.238   3.916
 4979SOL    HW215837   2.186   2.282   3.892
 4980SOL     OW15838   1.936   4.530   3.152
 4980SOL    HW115839   2.002   4.576   3.212
 4980SOL    HW215840   1.985   4.487   3.076
 4981SOL     OW15841   5.281   5.863   5.308
 4981SOL    HW115842   5.274   5.783   5.249
 4981SOL    HW215843   5.307   5.943   5.253
 4982SOL     OW15844   2.432   1.783   6.710
 4982SOL    HW115845   2.337   1.814   6.721
 4982SOL    HW215846   2.437   1.719   6.633
 4983SOL     OW15847   0.011   2.547   4.771
 4983SOL    HW115848   6.952   2.576   4.728
 4983SOL    HW215849   0.044   2.464   4.727
 4984SOL     OW15850   5.064   4.274   3.256
 4984SOL    HW115851   4.969   4.262   3.225
 4984SOL    HW215852   5.065   4.330   3.339
 4985SOL     OW15853   5.568   4.129   2.226
 4985SOL    HW115854   5.526   4.042   2.252
 4985SOL    HW215855   5.665   4.114   2.208
 4986SOL     OW15856   4.392   4.920   3.221
 4986SOL    HW115857   4.347   4.997   3.267
 4986SOL    HW215858   4.332   4.885   3.149
 4987SOL     OW15859   0.736   3.225   0.681
 4987SOL    HW115860   0.780   3.224   0.592
 4987SOL    HW215861   0.781   3.160   0.742
 4988SOL     OW15862   1.964   2.171   5.396
 4988SOL    HW115863   2.063   2.186   5.402
 4988SOL    HW215864   1.923   2.243   5.340
 4989SOL     OW15865   0.244   1.056   1.167
 4989SOL    HW115866   0.155   1.099   1.152
 4989SOL    HW215867   0.310   1.125   1.198
 4990SOL     OW15868   1.628   2.126   6.669
 4990SOL    HW115869   1.582   2.210   6.698
 4990SOL    HW215870   1.702   2.105   6.733
 4991SOL     OW15871   3.019   1.878   5.903
 4991SOL    HW115872   3.026   1.825   5.818
 4991SOL    HW215873   2.927   1.866   5.941
 4992SOL     OW15874   4.069   6.406   4.877
 4992SOL    HW115875   4.039   6.477   4.941
 4992SOL    HW215876   4.169   6.406   4.872
 4993SOL     OW15877   1.700   6.478   4.316
 4993SOL    HW115878   1.718   6.522   4.404
 4993SOL    HW215879   1.622   6.522   4.272
 4994SOL     OW15880   0.210   6.205   3.125
 4994SOL    HW115881   0.257   6.270   3.066
 4994SOL    HW215882   0.275   6.166   3.190
 4995SOL     OW15883   5.563   2.850   5.508
 4995SOL    HW115884   5.618   2.831   5.589
 4995SOL    HW215885   5.557   2.949   5.494
 4996SOL     OW15886   1.068   1.571   3.462
 4996SOL    HW115887   1.137   1.520   3.410
 4996SOL    HW215888   0.995   1.509   3.491
 4997SOL     OW15889   0.088   2.552   3.786
 4997SOL    HW115890   0.160   2.486   3.809
 4997SOL    HW215891   7.026   2.513   3.809
 4998SOL     OW15892   0.800   5.548   5.498
 4998SOL    HW115893   0.829   5.626   5.444
 4998SOL    HW215894   0.715   5.570   5.547
 4999SOL     OW15895   6.243   4.550   0.842
 4999SOL    HW115896   6.192   4.587   0.764
 4999SOL    HW215897   6.290   4.466   0.814
 5000SOL     OW15898   6.444   5.066   4.045
 5000SOL    HW115899   6.480   4.974   4.035
 5000SOL    HW215900   6.356   5.073   3.997
 5001SOL     OW15901   4.976   3.597   5.445
 5001SOL    HW115902   5.057   3.627   5.495
 5001SOL    HW215903   4.984   3.499   5.424
 5002SOL     OW15904   1.536   2.627   1.558
 5002SOL    HW115905   1.503   2.541   1.596
 5002SOL    HW215906   1.633   2.638   1.579
 5003SOL     OW15907   6.604   5.275   3.974
 5003SOL    HW115908   6.553   5.195   4.005
 5003SOL    HW215909   6.687   5.285   4.029
 5004SOL     OW15910   2.058   4.554   6.192
 5004SOL    HW115911   2.032   4.598   6.106
 5004SOL    HW215912   2.058   4.622   6.265
 5005SOL     OW15913   4.775   2.138   0.511
 5005SOL    HW115914   4.822   2.086   0.583
 5005SOL    HW215915   4.677   2.117   0.516
 5006SOL     OW15916   5.210   4.527   2.288
 5006SOL    HW115917   5.286   4.592   2.291
 5006SOL    HW215918   5.246   4.435   2.273
 5007SOL     OW15919   4.390   0.435   5.295
 5007SOL    HW115920   4.439   0.379   5.363
 5007SOL    HW215921   4.367   0.523   5.336
 5008SOL     OW15922   6.440   1.457   3.851
 5008SOL    HW115923   6.518   1.473   3.912
 5008SOL    HW215924   6.376   1.533   3.858
 5009SOL     OW15925   2.090   6.540   2.134
 5009SOL    HW115926   2.129   6.515   2.222
 5009SOL    HW215927   2.147   6.609   2.090
 5010SOL     OW15928   3.395   3.729   5.817
 5010SOL    HW115929   3.318   3.678   5.856
 5010SOL    HW215930   3.385   3.826   5.841
 5011SOL     OW15931   1.419   2.031   3.768
 5011SOL    HW115932   1.358   2.097   3.724
 5011SOL    HW215933   1.487   1.999   3.702
 5012SOL     OW15934   5.866   3.046   0.140
 5012SOL    HW115935   5.900   3.083   0.226
 5012SOL    HW215936   5.837   2.952   0.154
 5013SOL     OW15937   4.821   2.093   5.590
 5013SOL    HW115938   4.852   2.106   5.496
 5013SOL    HW215939   4.747   2.025   5.591
 5014SOL     OW15940   0.300   5.450   6.598
 5014SOL    HW115941   0.274   5.375   6.659
 5014SOL    HW215942   0.219   5.505   6.576
 5015SOL     OW15943   5.084   1.956   3.828
 5015SOL    HW115944   5.103   1.915   3.917
 5015SOL    HW215945   5.039   1.889   3.769
 5016SOL     OW15946   2.884   6.230   2.287
 5016SOL    HW115947   2.852   6.324   2.301
 5016SOL    HW215948   2.806   6.170   2.269
 5017SOL     OW15949   1.365   2.011   1.722
 5017SOL    HW115950   1.266   2.019   1.731
 5017SOL    HW215951   1.409   2.073   1.788
 5018SOL     OW15952   6.728   5.032   3.752
 5018SOL    HW115953   6.769   5.122   3.764
 5018SOL    HW215954   6.633   5.042   3.723
 5019SOL     OW15955   2.635   5.566   5.348
 5019SOL    HW115956   2.568   5.635   5.376
 5019SOL    HW215957   2.591   5.477   5.343
 5020SOL     OW15958   4.148   5.024   6.849
 5020SOL    HW115959   4.172   5.076   6.767
 5020SOL    HW215960   4.070   4.965   6.830
 5021SOL     OW15961   2.011   4.533   5.480
 5021SOL    HW115962   2.021   4.435   5.464
 5021SOL    HW215963   1.938   4.569   5.422
 5022SOL     OW15964   1.905   3.939   0.156
 5022SOL    HW115965   1.972   3.883   0.205
 5022SOL    HW215966   1.823   3.884   0.139
 5023SOL     OW15967   0.342   3.338   4.824
 5023SOL    HW115968   0.264   3.358   4.766
 5023SOL    HW215969   0.387   3.255   4.792
 5024SOL     OW15970   4.753   3.888   5.373
 5024SOL    HW115971   4.665   3.934   5.364
 5024SOL    HW215972   4.792   3.906   5.463
 5025SOL     OW15973   6.144   0.668   4.127
 5025SOL    HW115974   6.101   0.701   4.043
 5025SOL    HW215975   6.168   0.747   4.185
 5026SOL     OW15976   0.818   5.628   2.711
 5026SOL    HW115977   0.852   5.722   2.701
 5026SOL    HW215978   0.778   5.617   2.801
 5027SOL     OW15979   1.388   5.859   3.414
 5027SOL    HW115980   1.394   5.786   3.481
 5027SOL    HW215981   1.332   5.830   3.336
 5028SOL     OW15982   0.845   6.916   3.128
 5028SOL    HW115983   0.909   6.989   3.107
 5028SOL    HW215984   0.887   6.827   3.108
 5029SOL     OW15985   6.487   0.856   3.950
 5029SOL    HW115986   6.489   0.760   3.975
 5029SOL    HW215987   6.571   0.880   3.902
 5030SOL     OW15988   1.131   6.681   7.010
 5030SOL    HW115989   1.173   6.604   0.030
 5030SOL    HW215990   1.156   6.679   6.913
 5031SOL     OW15991   5.825   0.673   6.792
 5031SOL    HW115992   5.872   0.678   6.703
 5031SOL    HW215993   5.727   0.662   6.777
 5032SOL     OW15994   1.463   5.069   2.133
 5032SOL    HW115995   1.396   5.003   2.168
 5032SOL    HW215996   1.460   5.151   2.189
 5033SOL     OW15997   0.610   4.479   4.521
 5033SOL    HW115998   0.707   4.499   4.535
 5033SOL    HW215999   0.598   4.381   4.503
 5034SOL     OW16000   0.219   3.234   6.297
 5034SOL    HW116001   0.263   3.191   6.376
 5034SOL    HW216002   0.151   3.300   6.329
 5035SOL     OW16003   6.762   3.932   1.327
 5035SOL    HW116004   6.670   3.896   1.309
 5035SOL    HW216005   6.823   3.856   1.350
 5036SOL     OW16006   1.327   1.326   2.112
 5036SOL    HW116007   1.345   1.276   2.197
 5036SOL    HW216008   1.354   1.270   2.034
 5037SOL     OW16009   5.188   3.454   2.147
 5037SOL    HW116010   5.120   3.515   2.189
 5037SOL    HW216011   5.142   3.392   2.083
 5038SOL     OW16012   3.193   5.915   5.283
 5038SOL    HW116013   3.182   5.832   5.337
 5038SOL    HW216014   3.290   5.939   5.278
 5039SOL     OW16015   1.668   2.457   3.268
 5039SOL    HW116016   1.732   2.528   3.296
 5039SOL    HW216017   1.699   2.415   3.183
 5040SOL     OW16018   2.987   3.564   5.768
 5040SOL    HW116019   2.974   3.660   5.743
 5040SOL    HW216020   2.899   3.517   5.769
 5041SOL     OW16021   6.969   5.481   0.407
 5041SOL    HW116022   6.892   5.475   0.471
 5041SOL    HW216023   0.028   5.476   0.458
 5042SOL     OW16024   6.028   1.775   5.920
 5042SOL    HW116025   5.980   1.723   5.990
 5042SOL    HW216026   6.011   1.735   5.830
 5043SOL     OW16027   5.004   6.102   4.274
 5043SOL    HW116028   4.965   6.015   4.305
 5043SOL    HW216029   4.995   6.170   4.347
 5044SOL     OW16030   5.917   4.324   2.190
 5044SOL    HW116031   5.922   4.226   2.207
 5044SOL    HW216032   5.873   4.340   2.102
 5045SOL     OW16033   5.783   2.669   5.807
 5045SOL    HW116034   5.792   2.739   5.736
 5045SOL    HW216035   5.756   2.712   5.893
 5046SOL     OW16036   3.897   3.409   5.991
 5046SOL    HW116037   3.948   3.335   5.947
 5046SOL    HW216038   3.882   3.483   5.926
 5047SOL     OW16039   0.396   1.303   2.191
 5047SOL    HW116040   0.414   1.217   2.239
 5047SOL    HW216041   0.328   1.355   2.242
 5048SOL     OW16042   5.686   3.269   0.950
 5048SOL    HW116043   5.721   3.325   1.025
 5048SOL    HW216044   5.601   3.309   0.916
 5049SOL     OW16045   1.446   1.748   1.785
 5049SOL    HW116046   1.423   1.845   1.781
 5049SOL    HW216047   1.363   1.695   1.805
 5050SOL     OW16048   2.090   4.649   0.262
 5050SOL    HW116049   2.092   4.639   0.362
 5050SOL    HW216050   2.165   4.597   0.222
 5051SOL     OW16051   2.585   4.073   6.350
 5051SOL    HW116052   2.540   4.038   6.268
 5051SOL    HW216053   2.656   4.008   6.379
 5052SOL     OW16054   5.734   2.791   0.714
 5052SOL    HW116055   5.749   2.736   0.633
 5052SOL    HW216056   5.761   2.740   0.795
 5053SOL     OW16057   1.445   4.010   1.234
 5053SOL    HW116058   1.347   4.018   1.249
 5053SOL    HW216059   1.488   3.968   1.314
 5054SOL     OW16060   3.872   6.181   5.657
 5054SOL    HW116061   3.911   6.096   5.693
 5054SOL    HW216062   3.801   6.160   5.591
 5055SOL     OW16063   1.080   0.862   4.091
 5055SOL    HW116064   1.164   0.885   4.042
 5055SOL    HW216065   1.033   0.946   4.119
 5056SOL     OW16066   3.630   2.547   6.157
 5056SOL    HW116067   3.605   2.450   6.160
 5056SOL    HW216068   3.563   2.596   6.100
 5057SOL     OW16069   0.164   4.149   2.791
 5057SOL    HW116070   0.205   4.229   2.836
 5057SOL    HW216071   0.213   4.066   2.820
 5058SOL     OW16072   3.607   1.876   0.448
 5058SOL    HW116073   3.583   1.782   0.473
 5058SOL    HW216074   3.658   1.876   0.362
 5059SOL     OW16075   5.286   1.929   2.513
 5059SOL    HW116076   5.226   1.869   2.460
 5059SOL    HW216077   5.280   2.022   2.476
 5060SOL     OW16078   6.296   2.971   5.547
 5060SOL    HW116079   6.330   3.032   5.619
 5060SOL    HW216080   6.343   2.991   5.461
 5061SOL     OW16081   3.991   3.194   5.851
 5061SOL    HW116082   3.987   3.121   5.919
 5061SOL    HW216083   4.078   3.190   5.803
 5062SOL     OW16084   5.556   1.514   3.474
 5062SOL    HW116085   5.577   1.417   3.469
 5062SOL    HW216086   5.642   1.566   3.479
 5063SOL     OW16087   0.570   2.089   1.596
 5063SOL    HW116088   0.563   2.056   1.690
 5063SOL    HW216089   0.645   2.041   1.550
 5064SOL     OW16090   6.041   4.744   1.536
 5064SOL    HW116091   6.072   4.649   1.529
 5064SOL    HW216092   6.062   4.793   1.451
 5065SOL     OW16093   2.305   2.014   2.717
 5065SOL    HW116094   2.241   2.064   2.776
 5065SOL    HW216095   2.272   2.017   2.623
 5066SOL     OW16096   1.763   5.551   2.958
 5066SOL    HW116097   1.733   5.611   3.032
 5066SOL    HW216098   1.752   5.456   2.985
 5067SOL     OW16099   5.359   2.456   1.185
 5067SOL    HW116100   5.399   2.546   1.164
 5067SOL    HW216101   5.278   2.442   1.128
 5068SOL     OW16102   1.054   6.247   1.118
 5068SOL    HW116103   1.050   6.148   1.129
 5068SOL    HW216104   1.075   6.290   1.206
 5069SOL     OW16105   4.463   4.860   5.772
 5069SOL    HW116106   4.526   4.926   5.814
 5069SOL    HW216107   4.399   4.827   5.841
 5070SOL     OW16108   6.584   3.867   6.383
 5070SOL    HW116109   6.626   3.797   6.325
 5070SOL    HW216110   6.649   3.893   6.455
 5071SOL     OW16111   2.865   6.091   3.074
 5071SOL    HW116112   2.873   6.187   3.102
 5071SOL    HW216113   2.843   6.087   2.977
 5072SOL     OW16114   0.996   1.615   2.087
 5072SOL    HW116115   0.906   1.657   2.076
 5072SOL    HW216116   0.992   1.545   2.159
 5073SOL     OW16117   2.070   1.425   3.339
 5073SOL    HW116118   2.057   1.508   3.392
 5073SOL    HW216119   2.016   1.430   3.255
 5074SOL     OW16120   3.672   2.059   1.215
 5074SOL    HW116121   3.633   2.135   1.164
 5074SOL    HW216122   3.607   1.983   1.217
 5075SOL     OW16123   6.290   2.569   0.412
 5075SOL    HW116124   6.194   2.562   0.439
 5075SOL    HW216125   6.342   2.495   0.455
 5076SOL     OW16126   0.102   0.860   5.919
 5076SOL    HW116127   0.141   0.922   5.852
 5076SOL    HW216128   0.004   0.850   5.903
 5077SOL     OW16129   0.193   4.515   3.980
 5077SOL    HW116130   0.144   4.530   3.894
 5077SOL    HW216131   0.258   4.439   3.969
 5078SOL     OW16132   6.354   2.347   3.266
 5078SOL    HW116133   6.283   2.289   3.306
 5078SOL    HW216134   6.338   2.442   3.293
 5079SOL     OW16135   1.965   4.158   4.913
 5079SOL    HW116136   1.955   4.059   4.927
 5079SOL    HW216137   1.876   4.202   4.927
 5080SOL     OW16138   6.348   5.477   7.018
 5080SOL    HW116139   6.323   5.418   6.941
 5080SOL    HW216140   6.408   5.550   6.986
 5081SOL     OW16141   2.413   5.048   5.479
 5081SOL    HW116142   2.421   4.982   5.404
 5081SOL    HW216143   2.353   5.011   5.549
 5082SOL     OW16144   5.643   0.134   2.211
 5082SOL    HW116145   5.553   0.163   2.242
 5082SOL    HW216146   5.662   0.042   2.244
 5083SOL     OW16147   1.044   0.068   3.293
 5083SOL    HW116148   1.009   0.152   3.251
 5083SOL    HW216149   1.003   0.056   3.384
 5084SOL     OW16150   3.938   5.347   6.031
 5084SOL    HW116151   3.941   5.307   5.940
 5084SOL    HW216152   4.026   5.336   6.076
 5085SOL     OW16153   0.358   4.337   5.597
 5085SOL    HW116154   0.432   4.295   5.543
 5085SOL    HW216155   0.371   4.436   5.599
 5086SOL     OW16156   0.989   4.472   2.213
 5086SOL    HW116157   0.998   4.382   2.255
 5086SOL    HW216158   0.961   4.462   2.118
 5087SOL     OW16159   0.070   5.415   1.703
 5087SOL    HW116160   0.154   5.425   1.756
 5087SOL    HW216161   0.077   5.335   1.643
 5088SOL     OW16162   4.481   5.027   2.279
 5088SOL    HW116163   4.401   5.073   2.240
 5088SOL    HW216164   4.498   4.943   2.228
 5089SOL     OW16165   5.407   6.725   5.622
 5089SOL    HW116166   5.446   6.712   5.531
 5089SOL    HW216167   5.411   6.822   5.647
 5090SOL     OW16168   2.265   6.708   4.333
 5090SOL    HW116169   2.251   6.712   4.234
 5090SOL    HW216170   2.349   6.757   4.356
 5091SOL     OW16171   6.898   6.174   6.360
 5091SOL    HW116172   6.972   6.130   6.411
 5091SOL    HW216173   6.884   6.126   6.273
 5092SOL     OW16174   4.023   3.206   4.182
 5092SOL    HW116175   4.007   3.167   4.273
 5092SOL    HW216176   4.077   3.289   4.190
 5093SOL     OW16177   3.577   2.063   3.772
 5093SOL    HW116178   3.625   2.144   3.806
 5093SOL    HW216179   3.479   2.072   3.792
 5094SOL     OW16180   1.928   6.099   5.202
 5094SOL    HW116181   1.870   6.020   5.182
 5094SOL    HW216182   2.018   6.086   5.161
 5095SOL     OW16183   0.059   1.222   3.086
 5095SOL    HW116184   0.124   1.296   3.103
 5095SOL    HW216185   0.043   1.171   3.170
 5096SOL     OW16186   6.516   2.898   6.160
 5096SOL    HW116187   6.568   2.983   6.164
 5096SOL    HW216188   6.578   2.820   6.169
 5097SOL     OW16189   1.112   1.199   5.576
 5097SOL    HW116190   1.166   1.171   5.497
 5097SOL    HW216191   1.015   1.201   5.551
 5098SOL     OW16192   3.011   1.864   0.964
 5098SOL    HW116193   2.997   1.809   0.882
 5098SOL    HW216194   3.019   1.960   0.938
 5099SOL     OW16195   1.972   5.485   2.800
 5099SOL    HW116196   2.049   5.548   2.797
 5099SOL    HW216197   1.916   5.504   2.881
 5100SOL     OW16198   5.621   3.751   1.860
 5100SOL    HW116199   5.557   3.786   1.791
 5100SOL    HW216200   5.639   3.822   1.928
 5101SOL     OW16201   3.205   1.354   5.165
 5101SOL    HW116202   3.147   1.361   5.084
 5101SOL    HW216203   3.301   1.359   5.137
 5102SOL     OW16204   5.784   4.790   5.018
 5102SOL    HW116205   5.847   4.794   4.940
 5102SOL    HW216206   5.760   4.694   5.036
 5103SOL     OW16207   0.842   0.202   5.972
 5103SOL    HW116208   0.843   0.276   6.039
 5103SOL    HW216209   0.789   0.125   6.007
 5104SOL     OW16210   4.054   3.724   3.502
 5104SOL    HW116211   4.010   3.782   3.570
 5104SOL    HW216212   4.070   3.633   3.542
 5105SOL     OW16213   4.094   3.197   0.038
 5105SOL    HW116214   4.016   3.158   0.087
 5105SOL    HW216215   4.143   3.125   7.017
 5106SOL     OW16216   3.540   1.179   1.560
 5106SOL    HW116217   3.536   1.080   1.565
 5106SOL    HW216218   3.610   1.207   1.493
 5107SOL     OW16219   5.899   5.245   0.078
 5107SOL    HW116220   5.906   5.151   0.111
 5107SOL    HW216221   5.927   5.308   0.150
 5108SOL     OW16222   4.021   4.535   1.393
 5108SOL    HW116223   4.119   4.531   1.375
 5108SOL    HW216224   3.972   4.485   1.322
 5109SOL     OW16225   1.365   2.533   2.265
 5109SOL    HW116226   1.414   2.449   2.287
 5109SOL    HW216227   1.279   2.536   2.317
 5110SOL     OW16228   4.020   6.137   4.863
 5110SOL    HW116229   4.046   6.118   4.769
 5110SOL    HW216230   4.021   6.236   4.879
 5111SOL     OW16231   2.250   5.899   5.571
 5111SOL    HW116232   2.179   5.829   5.569
 5111SOL    HW216233   2.225   5.973   5.508
 5112SOL     OW16234   1.163   4.948   2.537
 5112SOL    HW116235   1.247   4.893   2.537
 5112SOL    HW216236   1.083   4.888   2.536
 5113SOL     OW16237   2.063   4.121   0.784
 5113SOL    HW116238   2.005   4.195   0.751
 5113SOL    HW216239   2.135   4.103   0.717
 5114SOL     OW16240   4.167   4.758   1.563
 5114SOL    HW116241   4.187   4.697   1.486
 5114SOL    HW216242   4.228   4.736   1.639
 5115SOL     OW16243   1.213   4.704   0.774
 5115SOL    HW116244   1.175   4.689   0.865
 5115SOL    HW216245   1.170   4.643   0.709
 5116SOL     OW16246   0.203   6.562   4.835
 5116SOL    HW116247   0.272   6.586   4.766
 5116SOL    HW216248   0.118   6.610   4.815
 5117SOL     OW16249   0.146   3.185   3.359
 5117SOL    HW116250   0.168   3.122   3.285
 5117SOL    HW216251   0.220   3.251   3.370
 5118SOL     OW16252   3.929   5.292   6.664
 5118SOL    HW116253   3.948   5.322   6.571
 5118SOL    HW216254   3.952   5.195   6.673
 5119SOL     OW16255   5.823   1.823   0.737
 5119SOL    HW116256   5.773   1.901   0.774
 5119SOL    HW216257   5.759   1.761   0.690
 5120SOL     OW16258   5.700   6.678   6.045
 5120SOL    HW116259   5.781   6.637   6.004
 5120SOL    HW216260   5.643   6.718   5.973
 5121SOL     OW16261   1.364   3.131   0.094
 5121SOL    HW116262   1.285   3.073   0.076
 5121SOL    HW216263   1.380   3.137   0.192
 5122SOL     OW16264   4.230   4.777   3.488
 5122SOL    HW116265   4.279   4.703   3.441
 5122SOL    HW216266   4.290   4.819   3.556
 5123SOL     OW16267   4.750   2.254   1.650
 5123SOL    HW116268   4.783   2.179   1.707
 5123SOL    HW216269   4.661   2.231   1.612
 5124SOL     OW16270   0.603   6.023   4.415
 5124SOL    HW116271   0.643   6.079   4.488
 5124SOL    HW216272   0.507   6.049   4.402
 5125SOL     OW16273   5.921   2.497   3.890
 5125SOL    HW116274   5.950   2.536   3.802
 5125SOL    HW216275   5.838   2.444   3.878
 5126SOL     OW16276   2.319   0.922   1.901
 5126SOL    HW116277   2.370   0.969   1.829
 5126SOL    HW216278   2.373   0.846   1.936
 5127SOL     OW16279   2.247   7.002   6.619
 5127SOL    HW116280   2.214   6.917   6.661
 5127SOL    HW216281   2.178   0.008   6.554
 5128SOL     OW16282   4.444   6.684   1.429
 5128SOL    HW116283   4.532   6.726   1.453
 5128SOL    HW216284   4.419   6.617   1.498
 5129SOL     OW16285   6.137   5.950   0.410
 5129SOL    HW116286   6.206   5.890   0.369
 5129SOL    HW216287   6.167   6.045   0.404
 5130SOL     OW16288   5.995   4.817   2.620
 5130SOL    HW116289   6.066   4.753   2.647
 5130SOL    HW216290   6.037   4.905   2.596
 5131SOL     OW16291   2.403   2.618   2.686
 5131SOL    HW116292   2.396   2.589   2.781
 5131SOL    HW216293   2.494   2.597   2.651
 5132SOL     OW16294   2.414   6.029   5.215
 5132SOL    HW116295   2.386   5.969   5.140
 5132SOL    HW216296   2.510   6.053   5.205
 5133SOL     OW16297   3.685   6.177   5.360
 5133SOL    HW116298   3.759   6.185   5.293
 5133SOL    HW216299   3.664   6.267   5.398
 5134SOL     OW16300   6.637   3.812   6.721
 5134SOL    HW116301   6.556   3.798   6.664
 5134SOL    HW216302   6.707   3.861   6.668
 5135SOL     OW16303   6.992   1.900   4.138
 5135SOL    HW116304   7.010   1.978   4.078
 5135SOL    HW216305   0.026   1.905   4.217
 5136SOL     OW16306   3.211   2.021   6.280
 5136SOL    HW116307   3.136   1.978   6.229
 5136SOL    HW216308   3.173   2.086   6.345
 5137SOL     OW16309   3.868   3.612   7.013
 5137SOL    HW116310   3.902   3.706   7.009
 5137SOL    HW216311   3.943   3.548   7.001
 5138SOL     OW16312   2.573   3.881   5.668
 5138SOL    HW116313   2.557   3.827   5.586
 5138SOL    HW216314   2.555   3.824   5.749
 5139SOL     OW16315   0.600   6.827   3.231
 5139SOL    HW116316   0.695   6.852   3.210
 5139SOL    HW216317   0.544   6.910   3.231
 5140SOL     OW16318   3.018   3.201   1.604
 5140SOL    HW116319   3.030   3.104   1.580
 5140SOL    HW216320   2.937   3.237   1.558
 5141SOL     OW16321   1.072   4.361   6.193
 5141SOL    HW116322   1.111   4.332   6.105
 5141SOL    HW216323   1.073   4.284   6.256
 5142SOL     OW16324   5.994   3.423   2.255
 5142SOL    HW116325   6.040   3.497   2.305
 5142SOL    HW216326   6.062   3.365   2.211
 5143SOL     OW16327   6.778   5.146   5.318
 5143SOL    HW116328   6.774   5.062   5.264
 5143SOL    HW216329   6.764   5.125   5.415
 5144SOL     OW16330   1.974   1.984   4.904
 5144SOL    HW116331   2.073   1.973   4.904
 5144SOL    HW216332   1.932   1.921   4.970
 5145SOL     OW16333   3.371   5.725   5.783
 5145SOL    HW116334   3.326   5.768   5.861
 5145SOL    HW216335   3.303   5.701   5.714
 5146SOL     OW16336   2.964   4.695   0.775
 5146SOL    HW116337   2.908   4.763   0.728
 5146SOL    HW216338   2.906   4.622   0.811
 5147SOL     OW16339   6.961   5.144   6.414
 5147SOL    HW116340   6.905   5.064   6.438
 5147SOL    HW216341   6.913   5.227   6.440
 5148SOL     OW16342   0.252   0.760   0.630
 5148SOL    HW116343   0.294   0.671   0.616
 5148SOL    HW216344   0.291   0.804   0.711
 5149SOL     OW16345   6.885   0.414   5.777
 5149SOL    HW116346   6.891   0.320   5.743
 5149SOL    HW216347   6.856   0.413   5.872
 5150SOL     OW16348   2.139   5.309   5.291
 5150SOL    HW116349   2.047   5.289   5.256
 5150SOL    HW216350   2.195   5.345   5.216
 5151SOL     OW16351   3.991   0.861   5.485
 5151SOL    HW116352   3.895   0.877   5.465
 5151SOL    HW216353   4.000   0.821   5.576
 5152SOL     OW16354   0.425   4.840   0.349
 5152SOL    HW116355   0.392   4.746   0.342
 5152SOL    HW216356   0.434   4.865   0.445
 5153SOL     OW16357   1.766   2.386   1.271
 5153SOL    HW116358   1.819   2.443   1.208
 5153SOL    HW216359   1.701   2.331   1.219
 5154SOL     OW16360   1.792   4.714   4.779
 5154SOL    HW116361   1.744   4.750   4.859
 5154SOL    HW216362   1.745   4.742   4.696
 5155SOL     OW16363   3.817   0.459   2.973
 5155SOL    HW116364   3.757   0.432   3.048
 5155SOL    HW216365   3.912   0.453   3.002
 5156SOL     OW16366   5.227   2.945   5.813
 5156SOL    HW116367   5.307   2.919   5.868
 5156SOL    HW216368   5.256   2.969   5.720
 5157SOL     OW16369   6.545   1.955   4.041
 5157SOL    HW116370   6.513   2.022   4.107
 5157SOL    HW216371   6.481   1.879   4.036
 5158SOL     OW16372   3.687   0.707   1.093
 5158SOL    HW116373   3.724   0.708   1.000
 5158SOL    HW216374   3.611   0.772   1.099
 5159SOL     OW16375   1.938   3.264   4.832
 5159SOL    HW116376   1.919   3.326   4.908
 5159SOL    HW216377   2.027   3.222   4.844
 5160SOL     OW16378   2.694   2.417   3.917
 5160SOL    HW116379   2.779   2.368   3.933
 5160SOL    HW216380   2.657   2.450   4.005
 5161SOL     OW16381   2.096   3.305   6.116
 5161SOL    HW116382   2.101   3.207   6.093
 5161SOL    HW216383   2.054   3.315   6.206
 5162SOL     OW16384   6.642   5.580   4.438
 5162SOL    HW116385   6.658   5.677   4.457
 5162SOL    HW216386   6.714   5.525   4.482
 5163SOL     OW16387   5.488   4.275   1.346
 5163SOL    HW116388   5.457   4.331   1.269
 5163SOL    HW216389   5.477   4.327   1.431
 5164SOL     OW16390   6.373   6.202   4.634
 5164SOL    HW116391   6.313   6.157   4.699
 5164SOL    HW216392   6.376   6.300   4.652
 5165SOL     OW16393   5.359   3.329   4.936
 5165SOL    HW116394   5.445   3.304   4.892
 5165SOL    HW216395   5.323   3.413   4.895
 5166SOL     OW16396   1.635   0.172   2.535
 5166SOL    HW116397   1.729   0.177   2.568
 5166SOL    HW216398   1.614   0.079   2.506
 5167SOL     OW16399   2.404   0.413   6.015
 5167SOL    HW116400   2.333   0.395   6.083
 5167SOL    HW216401   2.487   0.364   6.040
 5168SOL     OW16402   3.556   2.136   2.704
 5168SOL    HW116403   3.647   2.172   2.721
 5168SOL    HW216404   3.560   2.067   2.632
 5169SOL     OW16405   4.068   4.467   6.571
 5169SOL    HW116406   4.035   4.378   6.541
 5169SOL    HW216407   4.043   4.482   6.666
 5170SOL     OW16408   4.063   5.366   4.197
 5170SOL    HW116409   4.011   5.283   4.219
 5170SOL    HW216410   4.068   5.376   4.098
 5171SOL     OW16411   2.557   4.815   5.364
 5171SOL    HW116412   2.607   4.788   5.447
 5171SOL    HW216413   2.543   4.735   5.306
 5172SOL     OW16414   1.519   4.541   6.251
 5172SOL    HW116415   1.477   4.580   6.333
 5172SOL    HW216416   1.454   4.545   6.175
 5173SOL     OW16417   0.159   2.451   5.431
 5173SOL    HW116418   0.241   2.434   5.486
 5173SOL    HW216419   0.078   2.430   5.485
 5174SOL     OW16420   2.367   5.124   6.138
 5174SOL    HW116421   2.289   5.147   6.080
 5174SOL    HW216422   2.431   5.067   6.086
 5175SOL     OW16423   0.369   5.684   6.422
 5175SOL    HW116424   0.358   5.680   6.521
 5175SOL    HW216425   0.312   5.616   6.378
 5176SOL     OW16426   5.545   3.664   6.278
 5176SOL    HW116427   5.618   3.640   6.214
 5176SOL    HW216428   5.564   3.622   6.367
 5177SOL     OW16429   5.818   5.436   6.258
 5177SOL    HW116430   5.728   5.435   6.215
 5177SOL    HW216431   5.808   5.430   6.357
 5178SOL     OW16432   2.993   3.794   0.768
 5178SOL    HW116433   3.036   3.806   0.858
 5178SOL    HW216434   2.940   3.709   0.768
 5179SOL     OW16435   3.221   6.637   5.196
 5179SOL    HW116436   3.265   6.712   5.145
 5179SOL    HW216437   3.249   6.550   5.157
 5180SOL     OW16438   4.242   1.685   0.222
 5180SOL    HW116439   4.304   1.675   0.144
 5180SOL    HW216440   4.181   1.763   0.206
 5181SOL     OW16441   3.095   5.776   2.590
 5181SOL    HW116442   3.093   5.835   2.510
 5181SOL    HW216443   3.099   5.680   2.562
 5182SOL     OW16444   4.613   4.124   1.429
 5182SOL    HW116445   4.649   4.031   1.420
 5182SOL    HW216446   4.519   4.128   1.397
 5183SOL     OW16447   3.821   0.562   3.742
 5183SOL    HW116448   3.872   0.557   3.827
 5183SOL    HW216449   3.778   0.651   3.734
 5184SOL     OW16450   1.090   2.708   3.334
 5184SOL    HW116451   1.153   2.638   3.302
 5184SOL    HW216452   1.059   2.764   3.257
 5185SOL     OW16453   3.955   0.061   1.226
 5185SOL    HW116454   3.919   6.995   1.227
 5185SOL    HW216455   3.891   0.121   1.179
 5186SOL     OW16456   5.106   4.435   0.642
 5186SOL    HW116457   5.070   4.527   0.658
 5186SOL    HW216458   5.039   4.382   0.589
 5187SOL     OW16459   4.868   2.583   3.983
 5187SOL    HW116460   4.816   2.624   3.908
 5187SOL    HW216461   4.805   2.540   4.048
 5188SOL     OW16462   0.716   1.218   3.950
 5188SOL    HW116463   0.690   1.168   4.033
 5188SOL    HW216464   0.812   1.200   3.929
 5189SOL     OW16465   4.771   6.197   6.616
 5189SOL    HW116466   4.831   6.134   6.665
 5189SOL    HW216467   4.687   6.151   6.591
 5190SOL     OW16468   2.217   2.925   2.155
 5190SOL    HW116469   2.224   2.853   2.224
 5190SOL    HW216470   2.243   2.887   2.066
 5191SOL     OW16471   4.812   0.359   2.456
 5191SOL    HW116472   4.804   0.441   2.400
 5191SOL    HW216473   4.873   0.294   2.411
 5192SOL     OW16474   6.124   3.972   1.218
 5192SOL    HW116475   6.150   3.943   1.310
 5192SOL    HW216476   6.126   4.072   1.213
 5193SOL     OW16477   3.762   4.889   2.164
 5193SOL    HW116478   3.689   4.903   2.231
 5193SOL    HW216479   3.741   4.810   2.107
 5194SOL     OW16480   5.501   0.812   0.212
 5194SOL    HW116481   5.401   0.815   0.210
 5194SOL    HW216482   5.532   0.795   0.306
 5195SOL     OW16483   0.143   0.055   4.929
 5195SOL    HW116484   0.226   0.008   4.897
 5195SOL    HW216485   0.103   0.004   5.005
 5196SOL     OW16486   6.643   3.888   3.527
 5196SOL    HW116487   6.624   3.829   3.606
 5196SOL    HW216488   6.637   3.834   3.443
 5197SOL     OW16489   3.807   5.328   5.396
 5197SOL    HW116490   3.733   5.292   5.452
 5197SOL    HW216491   3.775   5.407   5.344
 5198SOL     OW16492   4.316   1.716   5.320
 5198SOL    HW116493   4.338   1.638   5.379
 5198SOL    HW216494   4.222   1.745   5.337
 5199SOL     OW16495   6.951   5.747   1.002
 5199SOL    HW116496   6.945   5.681   1.077
 5199SOL    HW216497   6.887   5.722   0.930
 5200SOL     OW16498   6.963   0.329   4.817
 5200SOL    HW116499   6.959   0.367   4.724
 5200SOL    HW216500   0.031   0.317   4.845
 5201SOL     OW16501   6.228   4.462   5.592
 5201SOL    HW116502   6.281   4.379   5.607
 5201SOL    HW216503   6.279   4.541   5.626
 5202SOL     OW16504   3.851   2.445   5.983
 5202SOL    HW116505   3.819   2.502   6.059
 5202SOL    HW216506   3.845   2.349   6.009
 5203SOL     OW16507   1.018   0.675   6.164
 5203SOL    HW116508   1.093   0.668   6.099
 5203SOL    HW216509   1.035   0.612   6.241
 5204SOL     OW16510   1.816   0.494   1.727
 5204SOL    HW116511   1.762   0.410   1.724
 5204SOL    HW216512   1.755   0.572   1.743
 5205SOL     OW16513   6.911   0.269   1.698
 5205SOL    HW116514   6.907   0.281   1.599
 5205SOL    HW216515   6.820   0.280   1.737
 5206SOL     OW16516   0.718   4.788   4.209
 5206SOL    HW116517   0.642   4.728   4.184
 5206SOL    HW216518   0.723   4.864   4.144
 5207SOL     OW16519   5.024   0.110   5.037
 5207SOL    HW116520   5.042   0.192   4.983
 5207SOL    HW216521   4.988   0.136   5.126
 5208SOL     OW16522   6.882   2.128   6.996
 5208SOL    HW116523   6.899   2.101   0.064
 5208SOL    HW216524   6.802   2.079   6.962
 5209SOL     OW16525   5.138   6.218   2.571
 5209SOL    HW116526   5.197   6.276   2.515
 5209SOL    HW216527   5.195   6.153   2.622
 5210SOL     OW16528   5.801   4.343   1.321
 5210SOL    HW116529   5.770   4.313   1.231
 5210SOL    HW216530   5.878   4.406   1.311
 5211SOL     OW16531   5.500   3.104   5.402
 5211SOL    HW116532   5.437   3.126   5.476
 5211SOL    HW216533   5.455   3.045   5.336
 5212SOL     OW16534   6.773   4.071   0.120
 5212SOL    HW116535   6.694   4.033   0.168
 5212SOL    HW216536   6.750   4.088   0.025
 5213SOL     OW16537   3.654   2.855   3.055
 5213SOL    HW116538   3.728   2.792   3.031
 5213SOL    HW216539   3.684   2.913   3.131
 5214SOL     OW16540   5.387   3.426   5.979
 5214SOL    HW116541   5.426   3.429   5.887
 5214SOL    HW216542   5.419   3.345   6.027
 5215SOL     OW16543   0.100   5.669   5.135
 5215SOL    HW116544   0.184   5.658   5.080
 5215SOL    HW216545   0.118   5.732   5.210
 5216SOL     OW16546   6.316   3.921   1.018
 5216SOL    HW116547   6.310   3.998   0.955
 5216SOL    HW216548   6.239   3.925   1.082
 5217SOL     OW16549   4.170   6.307   2.901
 5217SOL    HW116550   4.107   6.297   2.824
 5217SOL    HW216551   4.210   6.399   2.899
 5218SOL     OW16552   5.636   6.988   0.764
 5218SOL    HW116553   5.696   0.031   0.724
 5218SOL    HW216554   5.676   6.956   0.850
 5219SOL     OW16555   3.665   1.601   5.011
 5219SOL    HW116556   3.732   1.558   5.071
 5219SOL    HW216557   3.681   1.572   4.916
 5220SOL     OW16558   2.043   4.898   4.785
 5220SOL    HW116559   2.098   4.826   4.826
 5220SOL    HW216560   1.957   4.860   4.751
 5221SOL     OW16561   5.110   5.837   1.137
 5221SOL    HW116562   5.079   5.819   1.230
 5221SOL    HW216563   5.210   5.843   1.135
 5222SOL     OW16564   6.767   3.596   2.078
 5222SOL    HW116565   6.719   3.620   1.994
 5222SOL    HW216566   6.832   3.669   2.101
 5223SOL     OW16567   0.176   2.873   1.055
 5223SOL    HW116568   0.220   2.810   1.118
 5223SOL    HW216569   0.188   2.840   0.961
 5224SOL     OW16570   1.830   1.021   4.470
 5224SOL    HW116571   1.921   1.044   4.436
 5224SOL    HW216572   1.828   1.035   4.569
 5225SOL     OW16573   6.861   2.274   5.625
 5225SOL    HW116574   6.934   2.217   5.587
 5225SOL    HW216575   6.799   2.217   5.678
 5226SOL     OW16576   0.069   6.490   4.373
 5226SOL    HW116577   7.009   6.448   4.398
 5226SOL    HW216578   0.074   6.500   4.274
 5227SOL     OW16579   1.240   3.117   5.764
 5227SOL    HW116580   1.277   3.198   5.719
 5227SOL    HW216581   1.155   3.141   5.811
 5228SOL     OW16582   1.342   2.182   4.885
 5228SOL    HW116583   1.407   2.131   4.942
 5228SOL    HW216584   1.309   2.123   4.811
 5229SOL     OW16585   3.651   1.831   6.553
 5229SOL    HW116586   3.564   1.857   6.596
 5229SOL    HW216587   3.680   1.902   6.490
 5230SOL     OW16588   6.652   0.265   1.785
 5230SOL    HW116589   6.658   0.326   1.864
 5230SOL    HW216590   6.567   0.283   1.735
 5231SOL     OW16591   6.153   3.523   1.994
 5231SOL    HW116592   6.178   3.427   2.007
 5231SOL    HW216593   6.220   3.581   2.039
 5232SOL     OW16594   1.335   1.738   5.600
 5232SOL    HW116595   1.346   1.809   5.669
 5232SOL    HW216596   1.414   1.677   5.602
 5233SOL     OW16597   3.125   6.924   3.297
 5233SOL    HW116598   3.225   6.919   3.304
 5233SOL    HW216599   3.085   6.842   3.338
 5234SOL     OW16600   2.767   2.580   6.504
 5234SOL    HW116601   2.718   2.606   6.587
 5234SOL    HW216602   2.738   2.640   6.429
 5235SOL     OW16603   2.586   2.639   1.499
 5235SOL    HW116604   2.505   2.582   1.511
 5235SOL    HW216605   2.570   2.704   1.424
 5236SOL     OW16606   2.937   4.775   2.484
 5236SOL    HW116607   2.858   4.783   2.545
 5236SOL    HW216608   3.009   4.837   2.514
 5237SOL     OW16609   2.114   1.704   2.315
 5237SOL    HW116610   2.117   1.771   2.240
 5237SOL    HW216611   2.019   1.694   2.346
 5238SOL     OW16612   6.405   0.608   2.751
 5238SOL    HW116613   6.315   0.634   2.786
 5238SOL    HW216614   6.451   0.550   2.817
 5239SOL     OW16615   2.845   4.001   0.623
 5239SOL    HW116616   2.891   3.961   0.703
 5239SOL    HW216617   2.887   3.964   0.540
 5240SOL     OW16618   2.125   4.162   5.987
 5240SOL    HW116619   2.198   4.182   5.921
 5240SOL    HW216620   2.138   4.070   6.024
 5241SOL     OW16621   1.795   6.393   3.439
 5241SOL    HW116622   1.846   6.459   3.494
 5241SOL    HW216623   1.810   6.413   3.342
 5242SOL     OW16624   4.588   6.155   5.497
 5242SOL    HW116625   4.539   6.068   5.492
 5242SOL    HW216626   4.686   6.138   5.490
 5243SOL     OW16627   2.365   5.402   3.789
 5243SOL    HW116628   2.361   5.403   3.689
 5243SOL    HW216629   2.363   5.308   3.822
 5244SOL     OW16630   4.601   1.203   6.357
 5244SOL    HW116631   4.539   1.181   6.282
 5244SOL    HW216632   4.548   1.240   6.434
 5245SOL     OW16633   3.066   4.026   2.202
 5245SOL    HW116634   3.038   3.934   2.230
 5245SOL    HW216635   2.986   4.081   2.181
 5246SOL     OW16636   6.449   3.510   6.304
 5246SOL    HW116637   6.480   3.554   6.219
 5246SOL    HW216638   6.515   3.529   6.377
 5247SOL     OW16639   4.820   1.375   6.055
 5247SOL    HW116640   4.733   1.413   6.089
 5247SOL    HW216641   4.840   1.413   5.965
 5248SOL     OW16642   4.808   0.815   3.489
 5248SOL    HW116643   4.827   0.778   3.579
 5248SOL    HW216644   4.716   0.789   3.460
 5249SOL     OW16645   6.991   5.299   0.982
 5249SOL    HW116646   6.937   5.294   1.066
 5249SOL    HW216647   7.005   5.207   0.946
 5250SOL     OW16648   1.929   5.206   0.489
 5250SOL    HW116649   1.956   5.302   0.477
 5250SOL    HW216650   1.993   5.160   0.550
 5251SOL     OW16651   1.019   4.609   0.009
 5251SOL    HW116652   0.987   4.541   0.076
 5251SOL    HW216653   1.118   4.600   7.024
 5252SOL     OW16654   3.454   5.299   3.162
 5252SOL    HW116655   3.466   5.378   3.222
 5252SOL    HW216656   3.529   5.296   3.096
 5253SOL     OW16657   0.239   6.115   4.483
 5253SOL    HW116658   0.297   6.187   4.443
 5253SOL    HW216659   0.271   6.094   4.575
 5254SOL     OW16660   4.745   6.190   2.652
 5254SOL    HW116661   4.741   6.136   2.568
 5254SOL    HW216662   4.824   6.251   2.649
 5255SOL     OW16663   0.250   1.043   6.079
 5255SOL    HW116664   0.198   0.970   6.035
 5255SOL    HW216665   0.295   1.008   6.161
 5256SOL     OW16666   4.150   2.150   2.811
 5256SOL    HW116667   4.104   2.061   2.803
 5256SOL    HW216668   4.248   2.138   2.798
 5257SOL     OW16669   5.357   1.310   6.836
 5257SOL    HW116670   5.381   1.223   6.792
 5257SOL    HW216671   5.440   1.362   6.854
 5258SOL     OW16672   5.767   1.569   5.248
 5258SOL    HW116673   5.699   1.638   5.221
 5258SOL    HW216674   5.857   1.597   5.216
 5259SOL     OW16675   5.010   5.695   4.127
 5259SOL    HW116676   4.937   5.673   4.063
 5259SOL    HW216677   5.086   5.738   4.078
 5260SOL     OW16678   2.073   6.129   1.459
 5260SOL    HW116679   2.133   6.155   1.383
 5260SOL    HW216680   2.073   6.202   1.528
 5261SOL     OW16681   6.184   4.848   6.919
 5261SOL    HW116682   6.231   4.936   6.920
 5261SOL    HW216683   6.143   4.831   7.008
 5262SOL     OW16684   2.284   2.298   1.835
 5262SOL    HW116685   2.365   2.239   1.828
 5262SOL    HW216686   2.254   2.303   1.930
 5263SOL     OW16687   1.445   6.318   3.247
 5263SOL    HW116688   1.435   6.252   3.322
 5263SOL    HW216689   1.364   6.313   3.188
 5264SOL     OW16690   0.038   2.618   2.332
 5264SOL    HW116691   0.023   2.716   2.318
 5264SOL    HW216692   7.013   2.587   2.413
 5265SOL     OW16693   0.118   5.785   5.583
 5265SOL    HW116694   0.097   5.877   5.616
 5265SOL    HW216695   0.048   5.721   5.616
 5266SOL     OW16696   1.383   6.867   5.981
 5266SOL    HW116697   1.467   6.915   6.008
 5266SOL    HW216698   1.308   6.933   5.976
 5267SOL     OW16699   5.786   1.598   4.745
 5267SOL    HW116700   5.765   1.673   4.808
 5267SOL    HW216701   5.785   1.632   4.651
 5268SOL     OW16702   5.369   0.260   6.016
 5268SOL    HW116703   5.383   0.311   5.931
 5268SOL    HW216704   5.433   0.184   6.020
 5269SOL     OW16705   1.392   0.517   4.316
 5269SOL    HW116706   1.362   0.441   4.258
 5269SOL    HW216707   1.327   0.592   4.307
 5270SOL     OW16708   0.709   1.793   6.639
 5270SOL    HW116709   0.687   1.870   6.579
 5270SOL    HW216710   0.808   1.781   6.644
 5271SOL     OW16711   1.313   5.631   5.543
 5271SOL    HW116712   1.219   5.641   5.577
 5271SOL    HW216713   1.311   5.621   5.444
 5272SOL     OW16714   4.284   0.326   6.285
 5272SOL    HW116715   4.364   0.372   6.246
 5272SOL    HW216716   4.219   0.394   6.319
 5273SOL     OW16717   2.388   1.308   3.411
 5273SOL    HW116718   2.409   1.364   3.330
 5273SOL    HW216719   2.326   1.234   3.384
 5274SOL     OW16720   5.492   4.401   1.592
 5274SOL    HW116721   5.411   4.455   1.616
 5274SOL    HW216722   5.573   4.460   1.598
 5275SOL     OW16723   5.194   1.116   6.082
 5275SOL    HW116724   5.222   1.211   6.070
 5275SOL    HW216725   5.209   1.066   5.997
 5276SOL     OW16726   3.573   6.415   1.593
 5276SOL    HW116727   3.549   6.475   1.517
 5276SOL    HW216728   3.579   6.320   1.560
 5277SOL     OW16729   1.965   3.484   1.741
 5277SOL    HW116730   1.923   3.532   1.818
 5277SOL    HW216731   1.940   3.530   1.655
 5278SOL     OW16732   3.542   3.403   1.852
 5278SOL    HW116733   3.542   3.454   1.938
 5278SOL    HW216734   3.456   3.351   1.845
 5279SOL     OW16735   1.752   6.152   2.650
 5279SOL    HW116736   1.670   6.163   2.594
 5279SOL    HW216737   1.775   6.239   2.694
 5280SOL     OW16738   3.893   0.611   4.547
 5280SOL    HW116739   3.801   0.635   4.514
 5280SOL    HW216740   3.959   0.678   4.513
 5281SOL     OW16741   6.806   2.514   3.868
 5281SOL    HW116742   6.848   2.424   3.853
 5281SOL    HW216743   6.764   2.516   3.958
 5282SOL     OW16744   4.800   2.538   1.149
 5282SOL    HW116745   4.814   2.448   1.189
 5282SOL    HW216746   4.867   2.602   1.187
 5283SOL     OW16747   4.994   4.522   6.052
 5283SOL    HW116748   5.016   4.425   6.064
 5283SOL    HW216749   5.078   4.575   6.049
 5284SOL     OW16750   5.177   2.839   4.326
 5284SOL    HW116751   5.242   2.857   4.252
 5284SOL    HW216752   5.206   2.756   4.375
 5285SOL     OW16753   4.483   6.453   2.922
 5285SOL    HW116754   4.465   6.474   3.018
 5285SOL    HW216755   4.497   6.354   2.912
 5286SOL     OW16756   2.102   5.139   1.883
 5286SOL    HW116757   2.197   5.118   1.904
 5286SOL    HW216758   2.044   5.104   1.956
 5287SOL     OW16759   1.375   1.216   2.358
 5287SOL    HW116760   1.291   1.230   2.411
 5287SOL    HW216761   1.444   1.283   2.386
 5288SOL     OW16762   4.159   6.999   1.007
 5288SOL    HW116763   4.147   6.901   0.995
 5288SOL    HW216764   4.070   0.018   1.006
 5289SOL     OW16765   1.484   6.627   1.293
 5289SOL    HW116766   1.575   6.587   1.298
 5289SOL    HW216767   1.491   6.726   1.305
 5290SOL     OW16768   5.443   5.628   0.103
 5290SOL    HW116769   5.519   5.684   0.137
 5290SOL    HW216770   5.359   5.683   0.103
 5291SOL     OW16771   1.176   5.465   0.260
 5291SOL    HW116772   1.149   5.560   0.249
 5291SOL    HW216773   1.243   5.441   0.190
 5292SOL     OW16774   5.321   1.814   0.933
 5292SOL    HW116775   5.395   1.776   0.989
 5292SOL    HW216776   5.239   1.757   0.943
 5293SOL     OW16777   2.072   1.491   4.313
 5293SOL    HW116778   1.988   1.440   4.335
 5293SOL    HW216779   2.080   1.570   4.373
 5294SOL     OW16780   3.689   2.488   6.443
 5294SOL    HW116781   3.774   2.527   6.478
 5294SOL    HW216782   3.674   2.519   6.349
 5295SOL     OW16783   6.342   1.695   2.749
 5295SOL    HW116784   6.391   1.740   2.675
 5295SOL    HW216785   6.259   1.652   2.713
 5296SOL     OW16786   0.178   2.634   6.746
 5296SOL    HW116787   0.085   2.652   6.712
 5296SOL    HW216788   0.197   2.691   6.825
 5297SOL     OW16789   1.107   2.405   1.782
 5297SOL    HW116790   1.204   2.412   1.758
 5297SOL    HW216791   1.056   2.366   1.705
 5298SOL     OW16792   1.416   4.672   1.703
 5298SOL    HW116793   1.463   4.614   1.771
 5298SOL    HW216794   1.484   4.730   1.657
 5299SOL     OW16795   3.892   0.043   0.598
 5299SOL    HW116796   3.829   0.102   0.548
 5299SOL    HW216797   3.969   0.019   0.539
 5300SOL     OW16798   6.798   5.314   3.772
 5300SOL    HW116799   6.725   5.340   3.835
 5300SOL    HW216800   6.878   5.286   3.824
 5301SOL     OW16801   6.226   0.501   6.947
 5301SOL    HW116802   6.265   0.590   6.970
 5301SOL    HW216803   6.276   0.461   6.870
 5302SOL     OW16804   6.913   4.116   3.860
 5302SOL    HW116805   6.821   4.155   3.861
 5302SOL    HW216806   6.909   4.020   3.887
 5303SOL     OW16807   1.803   4.297   3.195
 5303SOL    HW116808   1.837   4.216   3.146
 5303SOL    HW216809   1.837   4.379   3.151
 5304SOL     OW16810   4.510   2.263   5.817
 5304SOL    HW116811   4.530   2.286   5.722
 5304SOL    HW216812   4.440   2.326   5.852
 5305SOL     OW16813   3.333   1.946   5.222
 5305SOL    HW116814   3.337   1.876   5.294
 5305SOL    HW216815   3.397   1.922   5.149
 5306SOL     OW16816   2.424   6.904   3.467
 5306SOL    HW116817   2.485   6.900   3.546
 5306SOL    HW216818   2.329   6.890   3.497
 5307SOL     OW16819   5.248   6.461   6.802
 5307SOL    HW116820   5.297   6.474   6.888
 5307SOL    HW216821   5.310   6.478   6.726
 5308SOL     OW16822   6.771   1.400   2.027
 5308SOL    HW116823   6.714   1.446   2.096
 5308SOL    HW216824   6.743   1.305   2.020
 5309SOL     OW16825   4.212   3.578   5.228
 5309SOL    HW116826   4.211   3.481   5.203
 5309SOL    HW216827   4.159   3.630   5.161
 5310SOL     OW16828   5.084   2.677   0.034
 5310SOL    HW116829   5.027   2.736   7.003
 5310SOL    HW216830   5.062   2.693   0.130
 5311SOL     OW16831   6.670   6.296   0.158
 5311SOL    HW116832   6.665   6.368   0.088
 5311SOL    HW216833   6.675   6.338   0.248
 5312SOL     OW16834   0.431   3.439   1.163
 5312SOL    HW116835   0.492   3.518   1.158
 5312SOL    HW216836   0.439   3.396   1.253
 5313SOL     OW16837   0.334   6.727   0.260
 5313SOL    HW116838   0.386   6.713   0.176
 5313SOL    HW216839   0.319   6.825   0.274
 5314SOL     OW16840   3.352   5.315   1.295
 5314SOL    HW116841   3.416   5.273   1.230
 5314SOL    HW216842   3.314   5.244   1.354
 5315SOL     OW16843   5.635   1.174   1.918
 5315SOL    HW116844   5.675   1.204   1.831
 5315SOL    HW216845   5.681   1.091   1.949
 5316SOL     OW16846   5.289   5.333   4.449
 5316SOL    HW116847   5.204   5.347   4.500
 5316SOL    HW216848   5.320   5.239   4.461
 5317SOL     OW16849   6.480   5.009   1.833
 5317SOL    HW116850   6.403   5.003   1.770
 5317SOL    HW216851   6.500   5.105   1.852
 5318SOL     OW16852   6.980   2.312   3.807
 5318SOL    HW116853   7.002   2.248   3.881
 5318SOL    HW216854   6.928   2.264   3.736
 5319SOL     OW16855   3.274   6.093   2.829
 5319SOL    HW116856   3.277   6.066   2.926
 5319SOL    HW216857   3.290   6.191   2.822
 5320SOL     OW16858   6.906   2.589   6.999
 5320SOL    HW116859   6.981   2.645   0.010
 5320SOL    HW216860   6.821   2.610   0.020
 5321SOL     OW16861   2.885   4.360   6.707
 5321SOL    HW116862   2.913   4.401   6.621
 5321SOL    HW216863   2.805   4.302   6.693
 5322SOL     OW16864   2.445   6.522   6.936
 5322SOL    HW116865   2.389   6.502   6.856
 5322SOL    HW216866   2.410   6.471   7.015
 5323SOL     OW16867   6.072   3.239   0.578
 5323SOL    HW116868   5.990   3.236   0.635
 5323SOL    HW216869   6.136   3.168   0.608
 5324SOL     OW16870   4.160   3.071   1.407
 5324SOL    HW116871   4.189   3.061   1.312
 5324SOL    HW216872   4.141   3.167   1.427
 5325SOL     OW16873   3.215   6.224   5.371
 5325SOL    HW116874   3.230   6.295   5.440
 5325SOL    HW216875   3.216   6.266   5.280
 5326SOL     OW16876   6.377   0.756   3.134
 5326SOL    HW116877   6.418   0.673   3.171
 5326SOL    HW216878   6.403   0.835   3.190
 5327SOL     OW16879   6.455   0.170   4.060
 5327SOL    HW116880   6.423   0.101   4.125
 5327SOL    HW216881   6.409   0.257   4.078
 5328SOL     OW16882   3.318   4.834   6.664
 5328SOL    HW116883   3.388   4.899   6.636
 5328SOL    HW216884   3.237   4.845   6.607
 5329SOL     OW16885   0.774   6.146   6.808
 5329SOL    HW116886   0.705   6.085   6.846
 5329SOL    HW216887   0.860   6.136   6.859
 5330SOL     OW16888   4.269   4.706   0.801
 5330SOL    HW116889   4.232   4.788   0.756
 5330SOL    HW216890   4.221   4.625   0.767
 5331SOL     OW16891   5.823   1.241   6.610
 5331SOL    HW116892   5.754   1.308   6.640
 5331SOL    HW216893   5.803   1.213   6.516
 5332SOL     OW16894   6.419   2.300   6.603
 5332SOL    HW116895   6.429   2.227   6.672
 5332SOL    HW216896   6.340   2.281   6.546
 5333SOL     OW16897   0.811   6.999   3.906
 5333SOL    HW116898   0.900   6.999   3.860
 5333SOL    HW216899   0.743   6.957   3.847
 5334SOL     OW16900   2.975   5.942   1.610
 5334SOL    HW116901   3.013   5.853   1.631
 5334SOL    HW216902   3.046   6.001   1.572
 5335SOL     OW16903   0.133   4.923   1.760
 5335SOL    HW116904   0.133   4.998   1.694
 5335SOL    HW216905   0.225   4.883   1.764
 5336SOL     OW16906   1.577   3.371   5.409
 5336SOL    HW116907   1.611   3.440   5.473
 5336SOL    HW216908   1.652   3.312   5.380
 5337SOL     OW16909   6.884   2.101   0.863
 5337SOL    HW116910   6.970   2.053   0.848
 5337SOL    HW216911   6.901   2.199   0.873
 5338SOL     OW16912   0.117   3.772   0.834
 5338SOL    HW116913   0.160   3.711   0.767
 5338SOL    HW216914   0.052   3.832   0.788
 5339SOL     OW16915   5.182   3.200   2.938
 5339SOL    HW116916   5.266   3.222   2.889
 5339SOL    HW216917   5.202   3.132   3.009
 5340SOL     OW16918   4.784   3.395   1.002
 5340SOL    HW116919   4.803   3.409   1.099
 5340SOL    HW216920   4.847   3.325   0.966
 5341SOL     OW16921   4.800   4.883   3.578
 5341SOL    HW116922   4.815   4.910   3.673
 5341SOL    HW216923   4.724   4.935   3.540
 5342SOL     OW16924   6.352   5.699   5.119
 5342SOL    HW116925   6.434   5.715   5.174
 5342SOL    HW216926   6.271   5.716   5.175
 5343SOL     OW16927   3.543   3.243   6.789
 5343SOL    HW116928   3.550   3.221   6.692
 5343SOL    HW216929   3.551   3.160   6.843
 5344SOL     OW16930   6.629   1.859   0.082
 5344SOL    HW116931   6.546   1.914   0.077
 5344SOL    HW216932   6.670   1.870   0.173
 5345SOL     OW16933   3.747   1.024   0.394
 5345SOL    HW116934   3.807   0.999   0.318
 5345SOL    HW216935   3.655   0.991   0.376
 5346SOL     OW16936   2.152   6.309   3.160
 5346SOL    HW116937   2.103   6.233   3.205
 5346SOL    HW216938   2.117   6.396   3.195
 5347SOL     OW16939   6.291   1.319   5.292
 5347SOL    HW116940   6.295   1.226   5.256
 5347SOL    HW216941   6.327   1.321   5.385
 5348SOL     OW16942   4.486   2.652   5.607
 5348SOL    HW116943   4.437   2.673   5.523
 5348SOL    HW216944   4.555   2.724   5.624
 5349SOL     OW16945   0.749   4.350   0.567
 5349SOL    HW116946   0.811   4.313   0.498
 5349SOL    HW216947   0.796   4.357   0.655
 5350SOL     OW16948   1.282   6.891   6.514
 5350SOL    HW116949   1.210   6.843   6.465
 5350SOL    HW216950   1.352   6.921   6.450
 5351SOL     OW16951   0.397   5.659   3.760
 5351SOL    HW116952   0.316   5.672   3.818
 5351SOL    HW216953   0.465   5.728   3.783
 5352SOL     OW16954   0.544   2.407   5.761
 5352SOL    HW116955   0.588   2.329   5.805
 5352SOL    HW216956   0.613   2.468   5.722
 5353SOL     OW16957   3.085   6.367   3.199
 5353SOL    HW116958   3.147   6.325   3.265
 5353SOL    HW216959   3.128   6.449   3.161
 5354SOL     OW16960   3.401   5.800   2.052
 5354SOL    HW116961   3.360   5.805   2.143
 5354SOL    HW216962   3.461   5.720   2.048
 5355SOL     OW16963   5.573   5.355   5.474
 5355SOL    HW116964   5.551   5.372   5.570
 5355SOL    HW216965   5.619   5.266   5.466
 5356SOL     OW16966   0.727   6.811   1.487
 5356SOL    HW116967   0.757   6.717   1.499
 5356SOL    HW216968   0.773   6.870   1.553
 5357SOL     OW16969   6.330   3.619   2.950
 5357SOL    HW116970   6.360   3.701   2.902
 5357SOL    HW216971   6.293   3.553   2.884
 5358SOL     OW16972   5.821   1.097   6.336
 5358SOL    HW116973   5.884   1.056   6.402
 5358SOL    HW216974   5.751   1.030   6.311
 5359SOL     OW16975   2.915   2.163   6.901
 5359SOL    HW116976   2.835   2.213   6.933
 5359SOL    HW216977   2.984   2.160   6.973
 5360SOL     OW16978   5.667   5.342   2.992
 5360SOL    HW116979   5.589   5.314   3.047
 5360SOL    HW216980   5.732   5.267   2.984
 5361SOL     OW16981   1.526   3.653   3.053
 5361SOL    HW116982   1.472   3.630   2.971
 5361SOL    HW216983   1.465   3.657   3.132
 5362SOL     OW16984   6.146   1.458   3.686
 5362SOL    HW116985   6.050   1.443   3.661
 5362SOL    HW216986   6.178   1.382   3.742
 5363SOL     OW16987   6.037   5.075   4.827
 5363SOL    HW116988   6.024   5.099   4.923
 5363SOL    HW216989   6.124   5.112   4.794
 5364SOL     OW16990   4.511   2.393   1.428
 5364SOL    HW116991   4.593   2.432   1.469
 5364SOL    HW216992   4.431   2.420   1.481
 5365SOL     OW16993   3.575   3.171   5.929
 5365SOL    HW116994   3.494   3.231   5.932
 5365SOL    HW216995   3.648   3.211   5.984
 5366SOL     OW16996   0.644   4.912   3.504
 5366SOL    HW116997   0.579   4.984   3.480
 5366SOL    HW216998   0.597   4.839   3.553
 5367SOL     OW16999   6.294   6.178   1.413
 5367SOL    HW117000   6.219   6.225   1.460
 5367SOL    HW217001   6.348   6.245   1.361
 5368SOL     OW17002   6.842   6.080   5.112
 5368SOL    HW117003   6.922   6.022   5.101
 5368SOL    HW217004   6.848   6.157   5.049
 5369SOL     OW17005   3.885   6.809   2.983
 5369SOL    HW117006   3.966   6.856   3.017
 5369SOL    HW217007   3.901   6.776   2.890
 5370SOL     OW17008   2.576   3.086   0.794
 5370SOL    HW117009   2.491   3.131   0.821
 5370SOL    HW217010   2.561   3.035   0.709
 5371SOL     OW17011   6.040   5.358   3.604
 5371SOL    HW117012   6.110   5.418   3.642
 5371SOL    HW217013   5.961   5.412   3.575
 5372SOL     OW17014   0.998   0.422   4.112
 5372SOL    HW117015   0.988   0.515   4.077
 5372SOL    HW217016   0.932   0.406   4.185
 5373SOL     OW17017   4.103   0.029   0.263
 5373SOL    HW117018   4.050   6.972   0.277
 5373SOL    HW217019   4.119   0.074   0.351
 5374SOL     OW17020   1.217   4.158   1.301
 5374SOL    HW117021   1.298   4.216   1.301
 5374SOL    HW217022   1.184   4.147   1.395
 5375SOL     OW17023   3.011   4.769   5.261
 5375SOL    HW117024   2.946   4.816   5.321
 5375SOL    HW217025   2.973   4.682   5.232
 5376SOL     OW17026   0.512   0.552   1.909
 5376SOL    HW117027   0.607   0.521   1.900
 5376SOL    HW217028   0.464   0.492   1.972
 5377SOL     OW17029   0.928   2.560   1.972
 5377SOL    HW117030   0.974   2.634   2.021
 5377SOL    HW217031   0.978   2.539   1.888
 5378SOL     OW17032   5.682   6.715   3.288
 5378SOL    HW117033   5.657   6.700   3.192
 5378SOL    HW217034   5.677   6.813   3.309
 5379SOL     OW17035   2.724   2.381   4.463
 5379SOL    HW117036   2.670   2.298   4.482
 5379SOL    HW217037   2.788   2.362   4.389
 5380SOL     OW17038   5.151   6.547   1.859
 5380SOL    HW117039   5.071   6.571   1.804
 5380SOL    HW217040   5.181   6.455   1.835
 5381SOL     OW17041   3.394   2.127   2.438
 5381SOL    HW117042   3.296   2.114   2.451
 5381SOL    HW217043   3.422   2.216   2.473
 5382SOL     OW17044   4.911   0.673   2.903
 5382SOL    HW117045   4.889   0.631   2.815
 5382SOL    HW217046   4.981   0.620   2.950
 5383SOL     OW17047   2.682   3.893   5.267
 5383SOL    HW117048   2.602   3.903   5.207
 5383SOL    HW217049   2.691   3.976   5.323
 5384SOL     OW17050   4.781   6.316   5.858
 5384SOL    HW117051   4.795   6.221   5.828
 5384SOL    HW217052   4.869   6.356   5.884
 5385SOL     OW17053   3.777   4.074   0.666
 5385SOL    HW117054   3.782   4.022   0.751
 5385SOL    HW217055   3.813   4.018   0.591
 5386SOL     OW17056   4.424   4.560   3.461
 5386SOL    HW117057   4.471   4.496   3.400
 5386SOL    HW217058   4.417   4.521   3.552
 5387SOL     OW17059   0.878   2.283   4.265
 5387SOL    HW117060   0.968   2.294   4.307
 5387SOL    HW217061   0.840   2.373   4.243
 5388SOL     OW17062   6.422   6.531   3.511
 5388SOL    HW117063   6.323   6.532   3.493
 5388SOL    HW217064   6.448   6.616   3.557
 5389SOL     OW17065   5.514   1.846   4.498
 5389SOL    HW117066   5.587   1.779   4.510
 5389SOL    HW217067   5.486   1.848   4.402
 5390SOL     OW17068   5.797   3.157   3.226
 5390SOL    HW117069   5.857   3.224   3.270
 5390SOL    HW217070   5.809   3.068   3.270
 5391SOL     OW17071   4.179   2.902   0.568
 5391SOL    HW117072   4.259   2.899   0.628
 5391SOL    HW217073   4.196   2.845   0.487
 5392SOL     OW17074   5.063   1.010   4.193
 5392SOL    HW117075   4.980   0.955   4.203
 5392SOL    HW217076   5.115   1.008   4.277
 5393SOL     OW17077   4.378   2.431   3.133
 5393SOL    HW117078   4.337   2.520   3.152
 5393SOL    HW217079   4.313   2.375   3.082
 5394SOL     OW17080   6.906   2.663   2.902
 5394SOL    HW117081   7.005   2.662   2.886
 5394SOL    HW217082   6.886   2.616   2.987
 5395SOL     OW17083   0.062   0.742   1.244
 5395SOL    HW117084   0.130   0.681   1.286
 5395SOL    HW217085   7.025   0.774   1.315
 5396SOL     OW17086   4.115   2.751   6.990
 5396SOL    HW117087   4.125   2.771   0.060
 5396SOL    HW217088   4.021   2.722   6.971
 5397SOL     OW17089   0.585   6.864   2.442
 5397SOL    HW117090   0.673   6.856   2.488
 5397SOL    HW217091   0.511   6.858   2.509
 5398SOL     OW17092   5.698   2.353   3.062
 5398SOL    HW117093   5.723   2.262   3.094
 5398SOL    HW217094   5.779   2.400   3.027
 5399SOL     OW17095   2.460   3.175   0.031
 5399SOL    HW117096   2.439   3.110   6.985
 5399SOL    HW217097   2.512   3.252   7.019
 5400SOL     OW17098   5.369   2.589   0.721
 5400SOL    HW117099   5.322   2.627   0.801
 5400SOL    HW217100   5.353   2.648   0.642
 5401SOL     OW17101   4.823   3.795   1.615
 5401SOL    HW117102   4.853   3.876   1.664
 5401SOL    HW217103   4.733   3.812   1.575
 5402SOL     OW17104   1.807   6.259   1.904
 5402SOL    HW117105   1.783   6.188   1.970
 5402SOL    HW217106   1.756   6.244   1.819
 5403SOL     OW17107   5.827   2.228   5.552
 5403SOL    HW117108   5.868   2.227   5.643
 5403SOL    HW217109   5.786   2.318   5.535
 5404SOL     OW17110   4.961   6.353   0.418
 5404SOL    HW117111   4.996   6.412   0.346
 5404SOL    HW217112   5.037   6.306   0.463
 5405SOL     OW17113   6.735   4.982   6.221
 5405SOL    HW117114   6.717   4.904   6.161
 5405SOL    HW217115   6.816   5.031   6.189
 5406SOL     OW17116   2.044   1.253   5.451
 5406SOL    HW117117   2.138   1.268   5.483
 5406SOL    HW217118   1.983   1.316   5.498
 5407SOL     OW17119   2.343   1.354   2.847
 5407SOL    HW117120   2.299   1.288   2.786
 5407SOL    HW217121   2.385   1.306   2.924
 5408SOL     OW17122   1.567   1.793   4.391
 5408SOL    HW117123   1.470   1.781   4.410
 5408SOL    HW217124   1.585   1.773   4.295
 5409SOL     OW17125   0.019   4.048   3.432
 5409SOL    HW117126   6.977   4.098   3.484
 5409SOL    HW217127   0.057   3.975   3.488
 5410SOL     OW17128   5.785   1.929   0.273
 5410SOL    HW117129   5.839   1.929   0.357
 5410SOL    HW217130   5.839   1.967   0.198
 5411SOL     OW17131   3.255   5.748   1.565
 5411SOL    HW117132   3.279   5.682   1.495
 5411SOL    HW217133   3.189   5.707   1.629
 5412SOL     OW17134   1.589   2.220   5.768
 5412SOL    HW117135   1.636   2.288   5.824
 5412SOL    HW217136   1.605   2.129   5.806
 5413SOL     OW17137   6.679   5.668   5.734
 5413SOL    HW117138   6.644   5.680   5.827
 5413SOL    HW217139   6.719   5.577   5.725
 5414SOL     OW17140   5.894   5.796   6.509
 5414SOL    HW117141   5.882   5.874   6.571
 5414SOL    HW217142   5.820   5.731   6.525
 5415SOL     OW17143   1.822   1.830   0.065
 5415SOL    HW117144   1.737   1.853   0.111
 5415SOL    HW217145   1.895   1.890   0.097
 5416SOL     OW17146   3.862   5.951   6.167
 5416SOL    HW117147   3.938   5.997   6.121
 5416SOL    HW217148   3.896   5.873   6.219
 5417SOL     OW17149   5.306   0.247   1.960
 5417SOL    HW117150   5.369   0.279   1.889
 5417SOL    HW217151   5.237   0.188   1.919
 5418SOL     OW17152   0.609   3.587   5.466
 5418SOL    HW117153   0.511   3.600   5.481
 5418SOL    HW217154   0.637   3.497   5.500
 5419SOL     OW17155   3.997   2.212   6.376
 5419SOL    HW117156   4.051   2.225   6.293
 5419SOL    HW217157   4.011   2.289   6.438
 5420SOL     OW17158   2.448   1.601   1.111
 5420SOL    HW117159   2.404   1.563   1.192
 5420SOL    HW217160   2.478   1.527   1.051
 5421SOL     OW17161   4.318   5.063   1.844
 5421SOL    HW117162   4.232   5.044   1.892
 5421SOL    HW217163   4.298   5.079   1.747
 5422SOL     OW17164   2.252   6.853   2.631
 5422SOL    HW117165   2.258   6.763   2.675
 5422SOL    HW217166   2.344   6.883   2.605
 5423SOL     OW17167   4.343   0.031   2.478
 5423SOL    HW117168   4.399   0.081   2.544
 5423SOL    HW217169   4.402   7.007   2.415
 5424SOL     OW17170   3.589   3.272   4.910
 5424SOL    HW117171   3.598   3.186   4.962
 5424SOL    HW217172   3.493   3.288   4.889
 5425SOL     OW17173   1.020   4.916   5.074
 5425SOL    HW117174   1.101   4.944   5.022
 5425SOL    HW217175   0.983   4.832   5.036
 5426SOL     OW17176   0.990   4.631   0.410
 5426SOL    HW117177   0.955   4.579   0.332
 5426SOL    HW217178   0.965   4.727   0.400
 5427SOL     OW17179   4.595   1.898   0.248
 5427SOL    HW117180   4.635   1.989   0.245
 5427SOL    HW217181   4.507   1.902   0.296
 5428SOL     OW17182   4.647   5.575   2.844
 5428SOL    HW117183   4.584   5.584   2.921
 5428SOL    HW217184   4.683   5.482   2.841
 5429SOL     OW17185   2.559   6.862   3.751
 5429SOL    HW117186   2.564   6.894   3.845
 5429SOL    HW217187   2.467   6.830   3.731
 5430SOL     OW17188   1.021   4.394   5.398
 5430SOL    HW117189   1.005   4.476   5.343
 5430SOL    HW217190   1.059   4.420   5.486
 5431SOL     OW17191   5.170   4.365   1.502
 5431SOL    HW117192   5.183   4.268   1.482
 5431SOL    HW217193   5.216   4.389   1.588
 5432SOL     OW17194   0.303   5.053   6.011
 5432SOL    HW117195   0.355   5.013   5.935
 5432SOL    HW217196   0.236   5.117   5.974
 5433SOL     OW17197   2.734   0.370   1.227
 5433SOL    HW117198   2.767   0.456   1.188
 5433SOL    HW217199   2.729   0.300   1.155
 5434SOL     OW17200   5.243   5.654   4.411
 5434SOL    HW117201   5.159   5.701   4.384
 5434SOL    HW217202   5.224   5.592   4.487
 5435SOL     OW17203   6.175   3.726   0.048
 5435SOL    HW117204   6.235   3.776   0.111
 5435SOL    HW217205   6.229   3.662   7.020
 5436SOL     OW17206   1.194   4.756   1.257
 5436SOL    HW117207   1.257   4.830   1.233
 5436SOL    HW217208   1.164   4.709   1.173
 5437SOL     OW17209   3.721   6.480   6.435
 5437SOL    HW117210   3.687   6.551   6.373
 5437SOL    HW217211   3.762   6.406   6.382
 5438SOL     OW17212   5.376   6.811   2.531
 5438SOL    HW117213   5.319   6.729   2.535
 5438SOL    HW217214   5.452   6.797   2.468
 5439SOL     OW17215   1.589   3.891   1.404
 5439SOL    HW117216   1.688   3.899   1.402
 5439SOL    HW217217   1.563   3.812   1.460
 5440SOL     OW17218   6.344   6.737   4.252
 5440SOL    HW117219   6.244   6.735   4.257
 5440SOL    HW217220   6.380   6.651   4.286
 5441SOL     OW17221   5.323   0.939   5.104
 5441SOL    HW117222   5.322   1.039   5.106
 5441SOL    HW217223   5.396   0.905   5.163
 5442SOL     OW17224   2.775   0.556   6.536
 5442SOL    HW117225   2.789   0.648   6.499
 5442SOL    HW217226   2.845   0.537   6.604
 5443SOL     OW17227   5.794   0.916   3.480
 5443SOL    HW117228   5.817   0.991   3.542
 5443SOL    HW217229   5.878   0.873   3.447
 5444SOL     OW17230   0.894   1.532   6.058
 5444SOL    HW117231   0.957   1.463   6.022
 5444SOL    HW217232   0.861   1.503   6.148
 5445SOL     OW17233   5.747   6.667   4.734
 5445SOL    HW117234   5.841   6.639   4.713
 5445SOL    HW217235   5.688   6.648   4.655
 5446SOL     OW17236   2.112   5.214   5.993
 5446SOL    HW117237   2.101   5.115   5.994
 5446SOL    HW217238   2.066   5.254   6.073
 5447SOL     OW17239   6.652   2.028   1.412
 5447SOL    HW117240   6.675   2.041   1.508
 5447SOL    HW217241   6.680   1.937   1.383
 5448SOL     OW17242   6.170   4.779   1.792
 5448SOL    HW117243   6.107   4.758   1.717
 5448SOL    HW217244   6.264   4.764   1.761
 5449SOL     OW17245   2.215   0.203   2.398
 5449SOL    HW117246   2.264   0.132   2.346
 5449SOL    HW217247   2.232   0.190   2.495
 5450SOL     OW17248   4.721   5.855   2.138
 5450SOL    HW117249   4.632   5.853   2.093
 5450SOL    HW217250   4.728   5.778   2.202
 5451SOL     OW17251   0.982   6.164   3.994
 5451SOL    HW117252   1.074   6.159   4.033
 5451SOL    HW217253   0.915   6.144   4.065
 5452SOL     OW17254   2.122   3.925   2.838
 5452SOL    HW117255   2.126   3.941   2.740
 5452SOL    HW217256   2.126   3.827   2.857
 5453SOL     OW17257   5.956   4.669   4.243
 5453SOL    HW117258   6.042   4.716   4.222
 5453SOL    HW217259   5.882   4.736   4.251
 5454SOL     OW17260   5.951   3.808   2.235
 5454SOL    HW117261   5.872   3.762   2.276
 5454SOL    HW217262   5.986   3.753   2.159
 5455SOL     OW17263   2.670   2.178   3.539
 5455SOL    HW117264   2.572   2.194   3.548
 5455SOL    HW217265   2.697   2.105   3.602
 5456SOL     OW17266   5.013   2.714   0.591
 5456SOL    HW117267   5.101   2.719   0.543
 5456SOL    HW217268   4.963   2.633   0.560
 5457SOL     OW17269   6.770   1.604   0.333
 5457SOL    HW117270   6.734   1.530   0.276
 5457SOL    HW217271   6.868   1.614   0.317
 5458SOL     OW17272   6.094   5.050   5.782
 5458SOL    HW117273   6.002   5.033   5.817
 5458SOL    HW217274   6.104   5.009   5.692
 5459SOL     OW17275   2.485   3.723   5.396
 5459SOL    HW117276   2.390   3.749   5.379
 5459SOL    HW217277   2.546   3.786   5.348
 5460SOL     OW17278   0.248   0.823   1.640
 5460SOL    HW117279   0.243   0.897   1.574
 5460SOL    HW217280   0.171   0.829   1.703
 5461SOL     OW17281   5.604   1.410   6.672
 5461SOL    HW117282   5.585   1.443   6.764
 5461SOL    HW217283   5.534   1.344   6.645
 5462SOL     OW17284   5.027   5.304   6.672
 5462SOL    HW117285   5.071   5.386   6.710
 5462SOL    HW217286   5.088   5.225   6.683
 5463SOL     OW17287   2.312   5.551   6.762
 5463SOL    HW117288   2.290   5.648   6.754
 5463SOL    HW217289   2.230   5.500   6.787
 5464SOL     OW17290   1.997   5.403   4.201
 5464SOL    HW117291   2.057   5.405   4.281
 5464SOL    HW217292   2.047   5.438   4.121
 5465SOL     OW17293   0.799   0.729   5.006
 5465SOL    HW117294   0.851   0.747   4.923
 5465SOL    HW217295   0.819   0.636   5.038
 5466SOL     OW17296   4.897   2.274   5.169
 5466SOL    HW117297   4.925   2.312   5.257
 5466SOL    HW217298   4.945   2.323   5.096
 5467SOL     OW17299   5.621   3.797   4.314
 5467SOL    HW117300   5.615   3.816   4.412
 5467SOL    HW217301   5.626   3.883   4.263
 5468SOL     OW17302   0.735   3.009   1.714
 5468SOL    HW117303   0.636   3.001   1.726
 5468SOL    HW217304   0.781   2.954   1.783
 5469SOL     OW17305   4.403   1.896   3.655
 5469SOL    HW117306   4.350   1.980   3.666
 5469SOL    HW217307   4.450   1.874   3.740
 5470SOL     OW17308   2.815   4.775   4.129
 5470SOL    HW117309   2.879   4.804   4.058
 5470SOL    HW217310   2.859   4.784   4.219
 5471SOL     OW17311   5.601   0.395   3.515
 5471SOL    HW117312   5.638   0.331   3.583
 5471SOL    HW217313   5.543   0.462   3.562
 5472SOL     OW17314   2.611   4.003   6.808
 5472SOL    HW117315   2.578   4.027   6.899
 5472SOL    HW217316   2.678   3.930   6.814
 5473SOL     OW17317   2.819   4.716   2.235
 5473SOL    HW117318   2.884   4.694   2.307
 5473SOL    HW217319   2.837   4.660   2.155
 5474SOL     OW17320   1.161   5.028   1.527
 5474SOL    HW117321   1.100   5.039   1.449
 5474SOL    HW217322   1.136   4.945   1.577
 5475SOL     OW17323   0.531   0.670   5.308
 5475SOL    HW117324   0.484   0.627   5.386
 5475SOL    HW217325   0.630   0.665   5.322
 5476SOL     OW17326   1.965   0.802   5.124
 5476SOL    HW117327   2.034   0.750   5.175
 5476SOL    HW217328   1.902   0.739   5.079
 5477SOL     OW17329   2.091   3.684   2.932
 5477SOL    HW117330   2.005   3.684   2.983
 5477SOL    HW217331   2.078   3.635   2.845
 5478SOL     OW17332   6.224   3.461   6.073
 5478SOL    HW117333   6.278   3.456   6.157
 5478SOL    HW217334   6.208   3.369   6.038
 5479SOL     OW17335   4.879   3.205   3.806
 5479SOL    HW117336   4.907   3.134   3.871
 5479SOL    HW217337   4.854   3.288   3.857
 5480SOL     OW17338   1.201   3.148   4.967
 5480SOL    HW117339   1.260   3.200   4.905
 5480SOL    HW217340   1.237   3.056   4.979
 5481SOL     OW17341   4.463   1.225   0.198
 5481SOL    HW117342   4.426   1.183   0.281
 5481SOL    HW217343   4.493   1.319   0.219
 5482SOL     OW17344   5.079   4.471   2.674
 5482SOL    HW117345   4.995   4.492   2.725
 5482SOL    HW217346   5.080   4.374   2.650
 5483SOL     OW17347   6.051   2.086   0.441
 5483SOL    HW117348   6.032   2.015   0.509
 5483SOL    HW217349   6.135   2.063   0.391
 5484SOL     OW17350   6.421   0.442   5.292
 5484SOL    HW117351   6.508   0.393   5.288
 5484SOL    HW217352   6.354   0.386   5.340
 5485SOL     OW17353   2.942   0.884   3.918
 5485SOL    HW117354   3.039   0.863   3.912
 5485SOL    HW217355   2.910   0.920   3.830
 5486SOL     OW17356   0.767   0.205   3.673
 5486SOL    HW117357   0.700   0.279   3.682
 5486SOL    HW217358   0.789   0.169   3.764
 5487SOL     OW17359   4.878   5.071   1.034
 5487SOL    HW117360   4.896   5.094   1.129
 5487SOL    HW217361   4.791   5.022   1.028
 5488SOL     OW17362   5.149   0.859   6.018
 5488SOL    HW117363   5.171   0.933   6.082
 5488SOL    HW217364   5.052   0.838   6.023
 5489SOL     OW17365   0.081   3.551   2.237
 5489SOL    HW117366   0.085   3.484   2.311
 5489SOL    HW217367   0.171   3.556   2.192
 5490SOL     OW17368   2.941   1.884   6.465
 5490SOL    HW117369   2.938   1.976   6.503
 5490SOL    HW217370   2.864   1.830   6.499
 5491SOL     OW17371   6.759   5.678   2.832
 5491SOL    HW117372   6.766   5.777   2.838
 5491SOL    HW217373   6.795   5.646   2.744
 5492SOL     OW17374   0.880   1.035   4.870
 5492SOL    HW117375   0.890   0.942   4.835
 5492SOL    HW217376   0.892   1.101   4.796
 5493SOL     OW17377   3.793   1.825   0.886
 5493SOL    HW117378   3.720   1.757   0.885
 5493SOL    HW217379   3.794   1.875   0.800
 5494SOL     OW17380   5.083   3.295   2.563
 5494SOL    HW117381   5.146   3.218   2.548
 5494SOL    HW217382   5.010   3.291   2.495
 5495SOL     OW17383   3.722   2.919   3.501
 5495SOL    HW117384   3.650   2.978   3.466
 5495SOL    HW217385   3.689   2.868   3.580
 5496SOL     OW17386   5.025   5.757   1.619
 5496SOL    HW117387   4.953   5.737   1.686
 5496SOL    HW217388   5.112   5.768   1.667
 5497SOL     OW17389   5.759   0.151   0.605
 5497SOL    HW117390   5.791   0.132   0.512
 5497SOL    HW217391   5.752   0.250   0.618
 5498SOL     OW17392   4.517   1.631   4.504
 5498SOL    HW117393   4.459   1.550   4.517
 5498SOL    HW217394   4.462   1.713   4.514
 5499SOL     OW17395   0.169   0.657   5.237
 5499SOL    HW117396   0.232   0.713   5.183
 5499SOL    HW217397   0.148   0.704   5.323
 5500SOL     OW17398   2.328   6.430   0.740
 5500SOL    HW117399   2.301   6.392   0.828
 5500SOL    HW217400   2.390   6.368   0.693
 5501SOL     OW17401   3.300   0.360   2.653
 5501SOL    HW117402   3.244   0.278   2.664
 5501SOL    HW217403   3.255   0.423   2.589
 5502SOL     OW17404   4.562   3.584   0.751
 5502SOL    HW117405   4.580   3.681   0.738
 5502SOL    HW217406   4.518   3.569   0.840
 5503SOL     OW17407   0.172   0.003   3.899
 5503SOL    HW117408   0.129   0.039   3.817
 5503SOL    HW217409   0.103   6.988   3.958
 5504SOL     OW17410   2.935   2.243   4.651
 5504SOL    HW117411   2.988   2.296   4.717
 5504SOL    HW217412   2.861   2.300   4.615
 5505SOL     OW17413   3.164   4.754   0.939
 5505SOL    HW117414   3.115   4.765   1.026
 5505SOL    HW217415   3.104   4.711   0.872
 5506SOL     OW17416   0.448   6.603   5.650
 5506SOL    HW117417   0.468   6.612   5.552
 5506SOL    HW217418   0.514   6.658   5.702
 5507SOL     OW17419   3.145   4.971   5.455
 5507SOL    HW117420   3.087   5.009   5.383
 5507SOL    HW217421   3.186   4.885   5.423
 5508SOL     OW17422   1.295   0.551   5.483
 5508SOL    HW117423   1.274   0.477   5.547
 5508SOL    HW217424   1.339   0.513   5.402
 5509SOL     OW17425   6.469   0.144   6.542
 5509SOL    HW117426   6.437   0.062   6.590
 5509SOL    HW217427   6.518   0.203   6.606
 5510SOL     OW17428   6.309   0.229   6.300
 5510SOL    HW117429   6.369   0.209   6.378
 5510SOL    HW217430   6.261   0.315   6.316
 5511SOL     OW17431   0.158   2.943   1.482
 5511SOL    HW117432   0.238   2.999   1.461
 5511SOL    HW217433   0.163   2.912   1.577
 5512SOL     OW17434   5.931   0.733   0.566
 5512SOL    HW117435   5.996   0.657   0.559
 5512SOL    HW217436   5.879   0.740   0.481
 5513SOL     OW17437   2.437   6.066   4.754
 5513SOL    HW117438   2.516   6.014   4.786
 5513SOL    HW217439   2.460   6.163   4.750
 5514SOL     OW17440   6.143   5.720   3.456
 5514SOL    HW117441   6.208   5.790   3.429
 5514SOL    HW217442   6.060   5.729   3.401
 5515SOL     OW17443   6.958   4.259   3.021
 5515SOL    HW117444   6.983   4.323   3.093
 5515SOL    HW217445   7.008   4.173   3.033
 5516SOL     OW17446   1.218   2.541   0.306
 5516SOL    HW117447   1.167   2.613   0.260
 5516SOL    HW217448   1.179   2.452   0.281
 5517SOL     OW17449   2.675   1.023   2.540
 5517SOL    HW117450   2.755   0.975   2.504
 5517SOL    HW217451   2.624   0.963   2.601
 5518SOL     OW17452   5.642   4.190   5.356
 5518SOL    HW117453   5.684   4.246   5.427
 5518SOL    HW217454   5.624   4.098   5.392
 5519SOL     OW17455   5.307   3.943   2.678
 5519SOL    HW117456   5.359   3.860   2.696
 5519SOL    HW217457   5.225   3.921   2.625
 5520SOL     OW17458   1.512   2.754   1.120
 5520SOL    HW117459   1.490   2.674   1.175
 5520SOL    HW217460   1.606   2.781   1.137
 5521SOL     OW17461   5.150   4.944   0.141
 5521SOL    HW117462   5.177   5.039   0.126
 5521SOL    HW217463   5.059   4.928   0.103
 5522SOL     OW17464   2.135   2.223   2.153
 5522SOL    HW117465   2.099   2.313   2.129
 5522SOL    HW217466   2.061   2.155   2.148
 5523SOL     OW17467   3.149   6.892   1.592
 5523SOL    HW117468   3.213   6.847   1.654
 5523SOL    HW217469   3.191   6.975   1.556
 5524SOL     OW17470   6.134   6.489   5.794
 5524SOL    HW117471   6.132   6.424   5.870
 5524SOL    HW217472   6.227   6.498   5.760
 5525SOL     OW17473   6.250   5.876   3.182
 5525SOL    HW117474   6.328   5.878   3.244
 5525SOL    HW217475   6.219   5.781   3.170
 5526SOL     OW17476   4.939   2.873   4.923
 5526SOL    HW117477   4.893   2.962   4.918
 5526SOL    HW217478   4.875   2.801   4.897
 5527SOL     OW17479   1.963   3.477   6.965
 5527SOL    HW117480   1.937   3.383   6.939
 5527SOL    HW217481   2.013   3.519   6.889
 5528SOL     OW17482   6.446   3.261   2.839
 5528SOL    HW117483   6.420   3.206   2.760
 5528SOL    HW217484   6.541   3.243   2.863
 5529SOL     OW17485   1.276   0.922   3.907
 5529SOL    HW117486   1.350   0.860   3.882
 5529SOL    HW217487   1.248   0.976   3.827
 5530SOL     OW17488   6.368   2.887   0.035
 5530SOL    HW117489   6.359   2.905   0.133
 5530SOL    HW217490   6.292   2.930   7.013
 5531SOL     OW17491   1.774   3.000   0.128
 5531SOL    HW117492   1.845   2.929   0.135
 5531SOL    HW217493   1.785   3.065   0.204
 5532SOL     OW17494   2.364   2.292   1.066
 5532SOL    HW117495   2.439   2.230   1.089
 5532SOL    HW217496   2.367   2.372   1.125
 5533SOL     OW17497   3.864   0.056   0.862
 5533SOL    HW117498   3.810   0.140   0.863
 5533SOL    HW217499   3.902   0.042   0.770
 5534SOL     OW17500   0.301   4.063   5.228
 5534SOL    HW117501   0.292   4.155   5.190
 5534SOL    HW217502   0.213   4.015   5.220
 5535SOL     OW17503   5.524   3.766   3.544
 5535SOL    HW117504   5.507   3.828   3.467
 5535SOL    HW217505   5.436   3.736   3.582
 5536SOL     OW17506   2.564   0.705   4.230
 5536SOL    HW117507   2.517   0.705   4.142
 5536SOL    HW217508   2.609   0.793   4.244
 5537SOL     OW17509   4.038   0.767   4.872
 5537SOL    HW117510   4.062   0.678   4.910
 5537SOL    HW217511   4.107   0.834   4.898
 5538SOL     OW17512   5.653   1.947   2.533
 5538SOL    HW117513   5.584   1.874   2.543
 5538SOL    HW217514   5.722   1.918   2.467
 5539SOL     OW17515   2.877   0.202   6.756
 5539SOL    HW117516   2.908   0.114   6.792
 5539SOL    HW217517   2.780   0.215   6.779
 5540SOL     OW17518   5.580   6.748   5.395
 5540SOL    HW117519   5.554   6.703   5.309
 5540SOL    HW217520   5.676   6.776   5.391
 5541SOL     OW17521   4.613   3.081   0.035
 5541SOL    HW117522   4.557   3.154   7.022
 5541SOL    HW217523   4.558   3.029   0.100
 5542SOL     OW17524   4.878   4.542   0.181
 5542SOL    HW117525   4.806   4.521   0.246
 5542SOL    HW217526   4.838   4.562   0.091
 5543SOL     OW17527   1.067   0.331   6.773
 5543SOL    HW117528   1.114   0.412   6.738
 5543SOL    HW217529   1.099   0.250   6.723
 5544SOL     OW17530   3.767   5.057   0.821
 5544SOL    HW117531   3.670   5.078   0.832
 5544SOL    HW217532   3.808   5.118   0.753
 5545SOL     OW17533   5.449   1.218   3.159
 5545SOL    HW117534   5.441   1.252   3.065
 5545SOL    HW217535   5.367   1.242   3.210
 5546SOL     OW17536   0.106   5.409   4.481
 5546SOL    HW117537   0.136   5.378   4.391
 5546SOL    HW217538   0.082   5.330   4.538
 5547SOL     OW17539   5.169   1.644   4.822
 5547SOL    HW117540   5.158   1.554   4.779
 5547SOL    HW217541   5.221   1.704   4.760
 5548SOL     OW17542   0.278   4.046   4.901
 5548SOL    HW117543   0.236   3.955   4.906
 5548SOL    HW217544   0.377   4.037   4.902
 5549SOL     OW17545   3.522   2.911   0.378
 5549SOL    HW117546   3.554   2.904   0.284
 5549SOL    HW217547   3.572   2.984   0.425
 5550SOL     OW17548   2.522   4.184   1.768
 5550SOL    HW117549   2.592   4.255   1.760
 5550SOL    HW217550   2.452   4.213   1.833
 5551SOL     OW17551   1.649   4.767   2.638
 5551SOL    HW117552   1.714   4.698   2.606
 5551SOL    HW217553   1.628   4.750   2.734
 5552SOL     OW17554   0.973   0.154   0.069
 5552SOL    HW117555   0.979   0.059   0.099
 5552SOL    HW217556   1.064   0.190   0.053
 5553SOL     OW17557   5.536   0.468   6.668
 5553SOL    HW117558   5.544   0.549   6.726
 5553SOL    HW217559   5.602   0.399   6.698
 5554SOL     OW17560   6.864   2.450   1.699
 5554SOL    HW117561   6.888   2.385   1.627
 5554SOL    HW217562   6.787   2.414   1.753
 5555SOL     OW17563   1.129   5.340   1.795
 5555SOL    HW117564   1.144   5.439   1.798
 5555SOL    HW217565   1.211   5.296   1.758
 5556SOL     OW17566   0.333   1.099   4.750
 5556SOL    HW117567   0.336   1.086   4.849
 5556SOL    HW217568   0.424   1.122   4.717
 5557SOL     OW17569   3.881   5.933   2.709
 5557SOL    HW117570   3.949   5.870   2.745
 5557SOL    HW217571   3.916   6.026   2.714
 5558SOL     OW17572   4.624   3.974   6.815
 5558SOL    HW117573   4.604   4.029   6.896
 5558SOL    HW217574   4.540   3.927   6.785
 5559SOL     OW17575   3.858   0.823   2.452
 5559SOL    HW117576   3.850   0.871   2.365
 5559SOL    HW217577   3.896   0.885   2.521
 5560SOL     OW17578   0.119   5.231   3.698
 5560SOL    HW117579   0.078   5.264   3.783
 5560SOL    HW217580   0.216   5.252   3.697
 5561SOL     OW17581   3.667   6.989   3.905
 5561SOL    HW117582   3.746   6.933   3.879
 5561SOL    HW217583   3.687   0.058   3.888
 5562SOL     OW17584   3.682   3.592   0.477
 5562SOL    HW117585   3.722   3.579   0.386
 5562SOL    HW217586   3.753   3.622   0.541
 5563SOL     OW17587   2.546   4.761   2.319
 5563SOL    HW117588   2.637   4.750   2.280
 5563SOL    HW217589   2.480   4.712   2.262
 5564SOL     OW17590   4.725   0.234   6.235
 5564SOL    HW117591   4.694   0.158   6.292
 5564SOL    HW217592   4.650   0.299   6.222
 5565SOL     OW17593   3.970   1.516   5.932
 5565SOL    HW117594   4.026   1.433   5.939
 5565SOL    HW217595   4.029   1.596   5.935
 5566SOL     OW17596   1.223   4.683   5.822
 5566SOL    HW117597   1.134   4.723   5.840
 5566SOL    HW217598   1.221   4.633   5.735
 5567SOL     OW17599   0.374   4.556   0.510
 5567SOL    HW117600   0.472   4.570   0.498
 5567SOL    HW217601   0.328   4.562   0.421
 5568SOL     OW17602   4.766   4.689   1.482
 5568SOL    HW117603   4.716   4.767   1.521
 5568SOL    HW217604   4.811   4.718   1.397
 5569SOL     OW17605   2.373   2.528   2.926
 5569SOL    HW117606   2.444   2.482   2.980
 5569SOL    HW217607   2.347   2.613   2.972
 5570SOL     OW17608   6.758   3.620   1.594
 5570SOL    HW117609   6.686   3.646   1.530
 5570SOL    HW217610   6.834   3.578   1.544
 5571SOL     OW17611   6.461   4.855   1.047
 5571SOL    HW117612   6.376   4.818   1.008
 5571SOL    HW217613   6.455   4.955   1.049
 5572SOL     OW17614   1.707   4.212   4.980
 5572SOL    HW117615   1.662   4.298   4.956
 5572SOL    HW217616   1.638   4.140   4.986
 5573SOL     OW17617   3.208   5.191   4.226
 5573SOL    HW117618   3.258   5.245   4.158
 5573SOL    HW217619   3.110   5.209   4.217
 5574SOL     OW17620   0.989   1.699   5.048
 5574SOL    HW117621   1.069   1.758   5.037
 5574SOL    HW217622   0.920   1.746   5.102
 5575SOL     OW17623   0.182   0.040   1.532
 5575SOL    HW117624   0.230   0.006   1.613
 5575SOL    HW217625   0.107   7.005   1.508
 5576SOL     OW17626   1.744   5.151   3.280
 5576SOL    HW117627   1.781   5.060   3.259
 5576SOL    HW217628   1.648   5.155   3.253
 5577SOL     OW17629   1.714   3.152   6.268
 5577SOL    HW117630   1.636   3.089   6.265
 5577SOL    HW217631   1.739   3.178   6.174
 5578SOL     OW17632   3.546   4.057   3.394
 5578SOL    HW117633   3.591   4.088   3.478
 5578SOL    HW217634   3.448   4.071   3.402
 5579SOL     OW17635   6.573   2.959   2.236
 5579SOL    HW117636   6.571   3.048   2.190
 5579SOL    HW217637   6.615   2.891   2.175
 5580SOL     OW17638   5.548   2.074   5.587
 5580SOL    HW117639   5.640   2.113   5.591
 5580SOL    HW217640   5.551   1.978   5.616
 5581SOL     OW17641   1.136   2.628   6.320
 5581SOL    HW117642   1.159   2.585   6.233
 5581SOL    HW217643   1.218   2.637   6.376
 5582SOL     OW17644   2.964   2.621   6.126
 5582SOL    HW117645   3.003   2.547   6.181
 5582SOL    HW217646   3.038   2.674   6.084
 5583SOL     OW17647   5.584   0.206   1.076
 5583SOL    HW117648   5.556   0.277   1.011
 5583SOL    HW217649   5.627   0.249   1.155
 5584SOL     OW17650   1.783   3.520   4.380
 5584SOL    HW117651   1.780   3.481   4.471
 5584SOL    HW217652   1.839   3.463   4.320
 5585SOL     OW17653   5.523   4.961   1.580
 5585SOL    HW117654   5.602   4.986   1.637
 5585SOL    HW217655   5.452   5.030   1.590
 5586SOL     OW17656   0.787   4.807   0.589
 5586SOL    HW117657   0.865   4.839   0.534
 5586SOL    HW217658   0.728   4.750   0.532
 5587SOL     OW17659   6.396   0.817   6.154
 5587SOL    HW117660   6.453   0.877   6.098
 5587SOL    HW217661   6.444   0.794   6.238
 5588SOL     OW17662   3.507   6.617   1.057
 5588SOL    HW117663   3.524   6.712   1.032
 5588SOL    HW217664   3.410   6.604   1.073
 5589SOL     OW17665   6.591   4.745   6.076
 5589SOL    HW117666   6.504   4.720   6.119
 5589SOL    HW217667   6.579   4.827   6.021
 5590SOL     OW17668   6.011   5.692   2.904
 5590SOL    HW117669   5.927   5.647   2.873
 5590SOL    HW217670   6.065   5.630   2.960
 5591SOL     OW17671   5.172   1.263   1.726
 5591SOL    HW117672   5.235   1.215   1.786
 5591SOL    HW217673   5.194   1.242   1.630
 5592SOL     OW17674   0.558   4.500   3.030
 5592SOL    HW117675   0.627   4.475   2.962
 5592SOL    HW217676   0.588   4.581   3.081
 5593SOL     OW17677   0.613   3.671   0.528
 5593SOL    HW117678   0.567   3.608   0.465
 5593SOL    HW217679   0.674   3.619   0.588
 5594SOL     OW17680   6.437   1.921   5.667
 5594SOL    HW117681   6.389   1.920   5.754
 5594SOL    HW217682   6.506   1.849   5.666
 5595SOL     OW17683   0.708   2.363   0.429
 5595SOL    HW117684   0.739   2.424   0.356
 5595SOL    HW217685   0.636   2.408   0.481
 5596SOL     OW17686   3.413   5.781   3.379
 5596SOL    HW117687   3.328   5.828   3.358
 5596SOL    HW217688   3.438   5.799   3.474
 5597SOL     OW17689   5.029   3.356   1.952
 5597SOL    HW117690   4.972   3.287   1.995
 5597SOL    HW217691   5.001   3.369   1.857
 5598SOL     OW17692   5.115   0.814   5.231
 5598SOL    HW117693   5.031   0.863   5.253
 5598SOL    HW217694   5.180   0.877   5.187
 5599SOL     OW17695   0.905   0.683   3.241
 5599SOL    HW117696   0.860   0.613   3.184
 5599SOL    HW217697   0.939   0.756   3.182
 5600SOL     OW17698   1.748   2.547   5.168
 5600SOL    HW117699   1.761   2.621   5.102
 5600SOL    HW217700   1.835   2.499   5.182
 5601SOL     OW17701   2.484   1.183   6.061
 5601SOL    HW117702   2.546   1.174   6.139
 5601SOL    HW217703   2.391   1.200   6.095
 5602SOL     OW17704   1.487   0.594   0.239
 5602SOL    HW117705   1.511   0.590   0.336
 5602SOL    HW217706   1.541   0.664   0.194
 5603SOL     OW17707   5.999   4.297   5.629
 5603SOL    HW117708   6.039   4.384   5.601
 5603SOL    HW217709   6.069   4.226   5.625
 5604SOL     OW17710   5.838   1.582   6.020
 5604SOL    HW117711   5.844   1.504   6.083
 5604SOL    HW217712   5.822   1.547   5.927
 5605SOL     OW17713   0.910   2.053   6.682
 5605SOL    HW117714   0.893   2.092   6.591
 5605SOL    HW217715   0.916   2.126   6.749
 5606SOL     OW17716   5.958   0.028   2.816
 5606SOL    HW117717   5.869   0.065   2.789
 5606SOL    HW217718   6.000   0.089   2.883
 5607SOL     OW17719   5.986   0.583   1.207
 5607SOL    HW117720   6.067   0.568   1.264
 5607SOL    HW217721   5.965   0.500   1.156
 5608SOL     OW17722   4.072   6.313   5.487
 5608SOL    HW117723   4.000   6.284   5.550
 5608SOL    HW217724   4.160   6.314   5.535
 5609SOL     OW17725   1.187   5.445   5.883
 5609SOL    HW117726   1.146   5.459   5.793
 5609SOL    HW217727   1.145   5.366   5.927
 5610SOL     OW17728   4.481   0.512   6.213
 5610SOL    HW117729   4.553   0.558   6.266
 5610SOL    HW217730   4.449   0.573   6.140
 5611SOL     OW17731   2.008   4.079   4.369
 5611SOL    HW117732   2.093   4.097   4.321
 5611SOL    HW217733   1.974   4.163   4.411
 5612SOL     OW17734   2.938   6.676   4.513
 5612SOL    HW117735   2.963   6.693   4.608
 5612SOL    HW217736   3.016   6.636   4.465
 5613SOL     OW17737   3.637   5.476   1.503
 5613SOL    HW117738   3.574   5.522   1.565
 5613SOL    HW217739   3.714   5.537   1.483
 5614SOL     OW17740   4.937   2.164   4.017
 5614SOL    HW117741   4.979   2.102   3.951
 5614SOL    HW217742   4.979   2.254   4.010
 5615SOL     OW17743   1.896   1.317   1.592
 5615SOL    HW117744   1.895   1.275   1.502
 5615SOL    HW217745   1.925   1.250   1.660
 5616SOL     OW17746   1.756   0.249   4.796
 5616SOL    HW117747   1.843   0.201   4.791
 5616SOL    HW217748   1.713   0.251   4.706
 5617SOL     OW17749   0.831   0.600   5.376
 5617SOL    HW117750   0.894   0.522   5.375
 5617SOL    HW217751   0.823   0.634   5.470
 5618SOL     OW17752   6.518   4.913   3.048
 5618SOL    HW117753   6.482   4.978   3.115
 5618SOL    HW217754   6.461   4.830   3.048
 5619SOL     OW17755   2.067   3.877   5.076
 5619SOL    HW117756   2.162   3.906   5.076
 5619SOL    HW217757   2.061   3.781   5.047
 5620SOL     OW17758   4.239   1.466   6.986
 5620SOL    HW117759   4.291   1.514   6.915
 5620SOL    HW217760   4.157   1.519   7.008
 5621SOL     OW17761   2.548   1.969   6.864
 5621SOL    HW117762   2.617   1.923   6.919
 5621SOL    HW217763   2.488   1.902   6.822
 5622SOL     OW17764   5.513   0.855   5.305
 5622SOL    HW117765   5.450   0.778   5.318
 5622SOL    HW217766   5.587   0.849   5.372
 5623SOL     OW17767   0.780   6.097   0.229
 5623SOL    HW117768   0.738   6.104   0.319
 5623SOL    HW217769   0.816   6.005   0.216
 5624SOL     OW17770   0.448   3.910   2.043
 5624SOL    HW117771   0.517   3.950   1.982
 5624SOL    HW217772   0.370   3.972   2.050
 5625SOL     OW17773   6.263   2.331   5.452
 5625SOL    HW117774   6.318   2.283   5.521
 5625SOL    HW217775   6.208   2.265   5.402
 5626SOL     OW17776   5.143   6.228   4.093
 5626SOL    HW117777   5.236   6.240   4.128
 5626SOL    HW217778   5.088   6.181   4.162
 5627SOL     OW17779   0.927   6.439   0.988
 5627SOL    HW117780   0.967   6.364   1.042
 5627SOL    HW217781   0.840   6.467   1.029
 5628SOL     OW17782   1.444   1.447   4.328
 5628SOL    HW117783   1.379   1.508   4.375
 5628SOL    HW217784   1.537   1.480   4.342
 5629SOL     OW17785   3.780   3.001   3.241
 5629SOL    HW117786   3.788   2.974   3.337
 5629SOL    HW217787   3.871   3.014   3.203
 5630SOL     OW17788   6.477   4.179   1.420
 5630SOL    HW117789   6.460   4.154   1.324
 5630SOL    HW217790   6.535   4.110   1.463
 5631SOL     OW17791   5.248   1.371   6.010
 5631SOL    HW117792   5.226   1.465   5.986
 5631SOL    HW217793   5.257   1.317   5.927
 5632SOL     OW17794   2.703   2.313   7.021
 5632SOL    HW117795   2.732   2.400   0.035
 5632SOL    HW217796   2.645   2.263   0.059
 5633SOL     OW17797   7.013   3.051   5.685
 5633SOL    HW117798   6.931   2.994   5.683
 5633SOL    HW217799   0.063   3.002   5.644
 5634SOL     OW17800   5.042   5.934   4.580
 5634SOL    HW117801   5.084   5.855   4.624
 5634SOL    HW217802   5.012   5.908   4.488
 5635SOL     OW17803   3.613   1.760   5.797
 5635SOL    HW117804   3.615   1.684   5.733
 5635SOL    HW217805   3.655   1.732   5.884
 5636SOL     OW17806   3.892   6.528   4.644
 5636SOL    HW117807   3.959   6.488   4.581
 5636SOL    HW217808   3.911   6.496   4.737
 5637SOL     OW17809   6.367   0.310   3.196
 5637SOL    HW117810   6.438   0.257   3.150
 5637SOL    HW217811   6.372   0.294   3.295
 5638SOL     OW17812   5.995   3.466   0.109
 5638SOL    HW117813   5.906   3.443   0.069
 5638SOL    HW217814   5.990   3.556   0.152
 5639SOL     OW17815   4.168   0.377   0.207
 5639SOL    HW117816   4.225   0.458   0.195
 5639SOL    HW217817   4.226   0.296   0.217
 5640SOL     OW17818   1.775   0.171   3.015
 5640SOL    HW117819   1.713   0.158   2.938
 5640SOL    HW217820   1.723   0.168   3.101
 5641SOL     OW17821   6.402   5.847   4.085
 5641SOL    HW117822   6.378   5.784   4.160
 5641SOL    HW217823   6.460   5.800   4.019
 5642SOL     OW17824   1.970   2.020   0.240
 5642SOL    HW117825   1.954   2.118   0.249
 5642SOL    HW217826   2.067   2.003   0.221
 5643SOL     OW17827   5.400   1.886   6.442
 5643SOL    HW117828   5.324   1.838   6.399
 5643SOL    HW217829   5.474   1.899   6.376
 5644SOL     OW17830   2.799   0.987   6.184
 5644SOL    HW117831   2.758   0.916   6.127
 5644SOL    HW217832   2.727   1.036   6.234
 5645SOL     OW17833   5.648   3.783   4.904
 5645SOL    HW117834   5.621   3.742   4.817
 5645SOL    HW217835   5.577   3.766   4.973
 5646SOL     OW17836   1.009   4.138   2.781
 5646SOL    HW117837   1.107   4.161   2.788
 5646SOL    HW217838   0.999   4.050   2.735
 5647SOL     OW17839   5.725   6.614   2.674
 5647SOL    HW117840   5.667   6.668   2.735
 5647SOL    HW217841   5.701   6.636   2.579
 5648SOL     OW17842   4.928   6.118   3.460
 5648SOL    HW117843   4.959   6.085   3.371
 5648SOL    HW217844   4.926   6.042   3.525
 5649SOL     OW17845   0.743   6.763   4.267
 5649SOL    HW117846   0.810   6.716   4.324
 5649SOL    HW217847   0.652   6.723   4.282
 5650SOL     OW17848   6.707   4.048   6.085
 5650SOL    HW117849   6.664   4.007   6.004
 5650SOL    HW217850   6.636   4.091   6.141
 5651SOL     OW17851   2.740   1.257   0.100
 5651SOL    HW117852   2.702   1.223   0.015
 5651SOL    HW217853   2.683   1.331   0.135
 5652SOL     OW17854   0.325   5.875   3.018
 5652SOL    HW117855   0.381   5.848   3.096
 5652SOL    HW217856   0.356   5.964   2.984
 5653SOL     OW17857   0.128   0.270   2.660
 5653SOL    HW117858   0.166   0.341   2.600
 5653SOL    HW217859   0.196   0.245   2.729
 5654SOL     OW17860   2.954   6.072   5.312
 5654SOL    HW117861   3.035   6.015   5.294
 5654SOL    HW217862   2.978   6.168   5.305
 5655SOL     OW17863   5.353   2.689   5.357
 5655SOL    HW117864   5.368   2.708   5.260
 5655SOL    HW217865   5.300   2.764   5.398
 5656SOL     OW17866   6.899   3.661   0.290
 5656SOL    HW117867   6.967   3.623   0.354
 5656SOL    HW217868   6.844   3.586   0.252
 5657SOL     OW17869   5.233   5.723   4.710
 5657SOL    HW117870   5.280   5.789   4.769
 5657SOL    HW217871   5.288   5.640   4.703
 5658SOL     OW17872   2.524   3.160   5.603
 5658SOL    HW117873   2.541   3.210   5.518
 5658SOL    HW217874   2.453   3.207   5.656
 5659SOL     OW17875   2.313   4.326   6.740
 5659SOL    HW117876   2.245   4.375   6.687
 5659SOL    HW217877   2.382   4.390   6.774
 5660SOL     OW17878   4.086   6.832   5.252
 5660SOL    HW117879   4.130   6.750   5.289
 5660SOL    HW217880   3.997   6.844   5.294
 5661SOL     OW17881   0.659   5.795   5.786
 5661SOL    HW117882   0.603   5.874   5.808
 5661SOL    HW217883   0.606   5.730   5.731
 5662SOL     OW17884   3.356   6.472   0.800
 5662SOL    HW117885   3.264   6.504   0.824
 5662SOL    HW217886   3.383   6.399   0.863
 5663SOL     OW17887   1.494   3.497   5.847
 5663SOL    HW117888   1.513   3.430   5.919
 5663SOL    HW217889   1.531   3.586   5.873
 5664SOL     OW17890   4.560   5.184   4.571
 5664SOL    HW117891   4.651   5.178   4.530
 5664SOL    HW217892   4.505   5.250   4.520
 5665SOL     OW17893   1.952   1.608   0.692
 5665SOL    HW117894   1.973   1.531   0.632
 5665SOL    HW217895   1.911   1.575   0.776
 5666SOL     OW17896   5.616   2.489   5.137
 5666SOL    HW117897   5.544   2.459   5.200
 5666SOL    HW217898   5.633   2.586   5.150
 5667SOL     OW17899   2.510   4.792   4.358
 5667SOL    HW117900   2.525   4.693   4.364
 5667SOL    HW217901   2.439   4.819   4.423
 5668SOL     OW17902   4.839   4.085   4.041
 5668SOL    HW117903   4.858   4.085   4.140
 5668SOL    HW217904   4.856   3.994   4.004
 5669SOL     OW17905   5.463   4.505   6.042
 5669SOL    HW117906   5.465   4.569   5.966
 5669SOL    HW217907   5.492   4.551   6.126
 5670SOL     OW17908   1.476   2.944   3.912
 5670SOL    HW117909   1.571   2.974   3.920
 5670SOL    HW217910   1.473   2.854   3.869
 5671SOL     OW17911   6.704   5.369   3.107
 5671SOL    HW117912   6.652   5.407   3.031
 5671SOL    HW217913   6.787   5.325   3.072
 5672SOL     OW17914   5.214   3.128   4.991
 5672SOL    HW117915   5.275   3.203   4.965
 5672SOL    HW217916   5.155   3.105   4.914
 5673SOL     OW17917   0.995   2.100   0.207
 5673SOL    HW117918   0.957   2.090   0.115
 5673SOL    HW217919   1.061   2.175   0.207
 5674SOL     OW17920   2.252   5.107   5.034
 5674SOL    HW117921   2.304   5.043   4.978
 5674SOL    HW217922   2.314   5.177   5.070
 5675SOL     OW17923   3.090   2.657   0.979
 5675SOL    HW117924   3.030   2.733   1.004
 5675SOL    HW217925   3.037   2.588   0.930
 5676SOL     OW17926   3.477   1.322   2.012
 5676SOL    HW117927   3.504   1.274   2.096
 5676SOL    HW217928   3.385   1.293   1.986
 5677SOL     OW17929   0.400   1.615   6.259
 5677SOL    HW117930   0.410   1.646   6.353
 5677SOL    HW217931   0.468   1.545   6.239
 5678SOL     OW17932   3.624   2.055   2.307
 5678SOL    HW117933   3.551   2.063   2.375
 5678SOL    HW217934   3.614   2.129   2.240
 5679SOL     OW17935   0.179   4.170   5.496
 5679SOL    HW117936   0.123   4.216   5.428
 5679SOL    HW217937   0.256   4.228   5.521
 5680SOL     OW17938   0.308   5.579   4.963
 5680SOL    HW117939   0.283   5.514   4.891
 5680SOL    HW217940   0.406   5.574   4.981
 5681SOL     OW17941   1.308   3.709   3.584
 5681SOL    HW117942   1.301   3.805   3.558
 5681SOL    HW217943   1.376   3.664   3.525
 5682SOL     OW17944   2.015   4.463   1.384
 5682SOL    HW117945   2.007   4.365   1.397
 5682SOL    HW217946   1.924   4.503   1.373
 5683SOL     OW17947   6.871   0.409   6.390
 5683SOL    HW117948   6.785   0.458   6.406
 5683SOL    HW217949   6.919   0.449   6.312
 5684SOL     OW17950   2.165   3.096   4.878
 5684SOL    HW117951   2.227   3.057   4.947
 5684SOL    HW217952   2.182   3.052   4.790
 5685SOL     OW17953   2.761   1.460   2.333
 5685SOL    HW117954   2.738   1.554   2.358
 5685SOL    HW217955   2.728   1.398   2.405
 5686SOL     OW17956   5.509   5.635   6.364
 5686SOL    HW117957   5.541   5.725   6.335
 5686SOL    HW217958   5.472   5.585   6.286
 5687SOL     OW17959   2.439   0.022   5.986
 5687SOL    HW117960   2.397   0.024   6.077
 5687SOL    HW217961   2.403   6.970   5.935
 5688SOL     OW17962   1.896   2.055   3.052
 5688SOL    HW117963   1.936   2.033   3.140
 5688SOL    HW217964   1.883   1.970   2.999
 5689SOL     OW17965   0.461   2.718   1.703
 5689SOL    HW117966   0.528   2.725   1.630
 5689SOL    HW217967   0.425   2.624   1.706
 5690SOL     OW17968   3.248   5.286   6.944
 5690SOL    HW117969   3.302   5.318   6.866
 5690SOL    HW217970   3.293   5.315   0.003
 5691SOL     OW17971   4.469   2.542   3.797
 5691SOL    HW117972   4.547   2.483   3.814
 5691SOL    HW217973   4.384   2.492   3.817
 5692SOL     OW17974   6.217   4.476   1.965
 5692SOL    HW117975   6.159   4.488   2.045
 5692SOL    HW217976   6.285   4.549   1.962
 5693SOL     OW17977   3.915   0.093   2.170
 5693SOL    HW117978   3.905   0.184   2.130
 5693SOL    HW217979   4.011   0.065   2.167
 5694SOL     OW17980   0.288   0.283   1.576
 5694SOL    HW117981   0.353   0.275   1.501
 5694SOL    HW217982   0.222   0.208   1.570
 5695SOL     OW17983   2.512   1.199   2.075
 5695SOL    HW117984   2.600   1.245   2.065
 5695SOL    HW217985   2.483   1.162   1.987
 5696SOL     OW17986   0.757   0.280   4.217
 5696SOL    HW117987   0.709   0.254   4.134
 5696SOL    HW217988   0.749   0.206   4.284
 5697SOL     OW17989   6.614   2.258   6.871
 5697SOL    HW117990   6.522   2.226   6.892
 5697SOL    HW217991   6.675   2.180   6.861
 5698SOL     OW17992   3.426   2.074   4.530
 5698SOL    HW117993   3.428   1.976   4.514
 5698SOL    HW217994   3.399   2.092   4.624
 5699SOL     OW17995   2.213   3.069   2.509
 5699SOL    HW117996   2.216   2.971   2.529
 5699SOL    HW217997   2.212   3.120   2.596
 5700SOL     OW17998   6.559   0.411   2.870
 5700SOL    HW117999   6.657   0.420   2.850
 5700SOL    HW218000   6.544   0.331   2.929
 5701SOL     OW18001   1.087   1.105   0.635
 5701SOL    HW118002   1.015   1.036   0.644
 5701SOL    HW218003   1.048   1.196   0.645
 5702SOL     OW18004   1.581   6.848   4.768
 5702SOL    HW118005   1.497   6.900   4.757
 5702SOL    HW218006   1.657   6.910   4.788
 5703SOL     OW18007   0.671   2.799   6.117
 5703SOL    HW118008   0.766   2.830   6.115
 5703SOL    HW218009   0.621   2.838   6.040
 5704SOL     OW18010   3.772   5.299   4.426
 5704SOL    HW118011   3.728   5.379   4.388
 5704SOL    HW218012   3.730   5.276   4.514
 5705SOL     OW18013   5.647   0.529   5.292
 5705SOL    HW118014   5.584   0.458   5.261
 5705SOL    HW218015   5.668   0.590   5.216
 5706SOL     OW18016   5.062   1.964   1.465
 5706SOL    HW118017   4.997   1.889   1.473
 5706SOL    HW218018   5.046   2.029   1.540
 5707SOL     OW18019   6.214   5.242   1.150
 5707SOL    HW118020   6.147   5.314   1.133
 5707SOL    HW218021   6.178   5.176   1.215
 5708SOL     OW18022   5.233   6.287   1.793
 5708SOL    HW118023   5.326   6.308   1.821
 5708SOL    HW218024   5.234   6.223   1.717
 5709SOL     OW18025   0.182   2.885   2.509
 5709SOL    HW118026   0.123   2.945   2.454
 5709SOL    HW218027   0.278   2.906   2.489
 5710SOL     OW18028   4.500   1.447   0.688
 5710SOL    HW118029   4.518   1.392   0.770
 5710SOL    HW218030   4.402   1.451   0.672
 5711SOL     OW18031   4.560   1.999   2.557
 5711SOL    HW118032   4.512   2.080   2.524
 5711SOL    HW218033   4.529   1.918   2.507
 5712SOL     OW18034   6.197   5.961   0.048
 5712SOL    HW118035   6.188   6.058   0.026
 5712SOL    HW218036   6.271   5.949   0.115
 5713SOL     OW18037   1.637   1.004   0.827
 5713SOL    HW118038   1.586   0.968   0.904
 5713SOL    HW218039   1.587   0.986   0.742
 5714SOL     OW18040   6.236   7.023   0.701
 5714SOL    HW118041   6.162   0.063   0.707
 5714SOL    HW218042   6.299   0.021   0.627
 5715SOL     OW18043   0.103   6.701   1.298
 5715SOL    HW118044   0.087   6.783   1.354
 5715SOL    HW218045   0.023   6.684   1.241
 5716SOL     OW18046   0.521   4.715   5.193
 5716SOL    HW118047   0.588   4.695   5.122
 5716SOL    HW218048   0.432   4.731   5.152
 5717SOL     OW18049   0.505   5.332   3.478
 5717SOL    HW118050   0.574   5.365   3.413
 5717SOL    HW218051   0.496   5.233   3.471
 5718SOL     OW18052   0.848   4.179   6.939
 5718SOL    HW118053   0.867   4.233   6.857
 5718SOL    HW218054   0.934   4.142   6.975
 5719SOL     OW18055   2.681   3.763   0.244
 5719SOL    HW118056   2.734   3.742   0.326
 5719SOL    HW218057   2.682   3.683   0.183
 5720SOL     OW18058   3.710   5.282   6.187
 5720SOL    HW118059   3.787   5.320   6.135
 5720SOL    HW218060   3.736   5.193   6.225
 5721SOL     OW18061   1.908   2.763   0.233
 5721SOL    HW118062   1.947   2.712   0.156
 5721SOL    HW218063   1.844   2.705   0.282
 5722SOL     OW18064   1.833   0.356   6.294
 5722SOL    HW118065   1.881   0.407   6.223
 5722SOL    HW218066   1.754   0.408   6.325
 5723SOL     OW18067   4.150   3.153   0.679
 5723SOL    HW118068   4.156   3.070   0.623
 5723SOL    HW218069   4.225   3.154   0.745
 5724SOL     OW18070   5.556   2.142   5.967
 5724SOL    HW118071   5.560   2.201   5.886
 5724SOL    HW218072   5.608   2.058   5.950
 5725SOL     OW18073   6.950   4.602   4.958
 5725SOL    HW118074   0.020   4.583   4.972
 5725SOL    HW218075   6.907   4.524   4.913
 5726SOL     OW18076   5.010   4.280   2.327
 5726SOL    HW118077   5.070   4.360   2.322
 5726SOL    HW218078   5.043   4.209   2.265
 5727SOL     OW18079   1.119   2.591   5.129
 5727SOL    HW118080   1.038   2.603   5.186
 5727SOL    HW218081   1.140   2.494   5.119
 5728SOL     OW18082   3.159   7.007   5.430
 5728SOL    HW118083   3.202   6.918   5.415
 5728SOL    HW218084   3.080   6.995   5.490
 5729SOL     OW18085   2.592   2.149   4.556
 5729SOL    HW118086   2.650   2.119   4.632
 5729SOL    HW218087   2.577   2.071   4.494
 5730SOL     OW18088   6.165   4.300   4.991
 5730SOL    HW118089   6.116   4.235   5.050
 5730SOL    HW218090   6.184   4.258   4.903
 5731SOL     OW18091   0.570   6.456   2.675
 5731SOL    HW118092   0.490   6.413   2.633
 5731SOL    HW218093   0.540   6.532   2.732
 5732SOL     OW18094   6.207   0.532   3.415
 5732SOL    HW118095   6.295   0.486   3.423
 5732SOL    HW218096   6.134   0.464   3.405
 5733SOL     OW18097   2.749   1.100   5.076
 5733SOL    HW118098   2.731   1.034   5.002
 5733SOL    HW218099   2.677   1.169   5.077
 5734SOL     OW18100   1.482   6.582   3.568
 5734SOL    HW118101   1.459   6.530   3.651
 5734SOL    HW218102   1.537   6.524   3.507
 5735SOL     OW18103   2.902   0.609   1.381
 5735SOL    HW118104   2.936   0.537   1.442
 5735SOL    HW218105   2.927   0.699   1.418
 5736SOL     OW18106   1.765   5.029   0.364
 5736SOL    HW118107   1.734   4.982   0.447
 5736SOL    HW218108   1.841   5.091   0.388
 5737SOL     OW18109   5.579   3.973   0.447
 5737SOL    HW118110   5.604   3.975   0.350
 5737SOL    HW218111   5.498   3.916   0.459
 5738SOL     OW18112   0.656   4.975   4.693
 5738SOL    HW118113   0.564   5.004   4.670
 5738SOL    HW218114   0.686   4.904   4.629
 5739SOL     OW18115   0.774   3.099   0.928
 5739SOL    HW118116   0.702   3.136   0.987
 5739SOL    HW218117   0.773   3.000   0.933
 5740SOL     OW18118   3.912   4.848   0.057
 5740SOL    HW118119   3.916   4.824   6.987
 5740SOL    HW218120   3.822   4.824   0.094
 5741SOL     OW18121   0.133   3.187   1.821
 5741SOL    HW118122   0.060   3.131   1.782
 5741SOL    HW218123   0.203   3.205   1.752
 5742SOL     OW18124   0.217   5.755   3.557
 5742SOL    HW118125   0.268   5.752   3.643
 5742SOL    HW218126   0.251   5.682   3.497
 5743SOL     OW18127   1.377   6.158   5.337
 5743SOL    HW118128   1.312   6.225   5.303
 5743SOL    HW218129   1.392   6.172   5.435
 5744SOL     OW18130   6.064   0.338   1.515
 5744SOL    HW118131   6.130   0.313   1.585
 5744SOL    HW218132   6.104   0.405   1.454
 5745SOL     OW18133   0.902   3.310   3.181
 5745SOL    HW118134   0.915   3.357   3.268
 5745SOL    HW218135   0.804   3.298   3.164
 5746SOL     OW18136   6.384   3.979   7.006
 5746SOL    HW118137   6.428   4.025   0.056
 5746SOL    HW218138   6.453   3.953   6.938
 5747SOL     OW18139   1.074   6.204   3.570
 5747SOL    HW118140   1.079   6.304   3.574
 5747SOL    HW218141   0.988   6.174   3.611
 5748SOL     OW18142   1.810   0.114   3.833
 5748SOL    HW118143   1.859   0.192   3.795
 5748SOL    HW218144   1.722   0.103   3.785
 5749SOL     OW18145   1.301   0.997   2.964
 5749SOL    HW118146   1.292   1.078   2.906
 5749SOL    HW218147   1.303   1.025   3.060
 5750SOL     OW18148   5.950   6.460   2.427
 5750SOL    HW118149   5.968   6.424   2.519
 5750SOL    HW218150   6.025   6.521   2.400
 5751SOL     OW18151   0.937   2.913   6.052
 5751SOL    HW118152   0.897   2.952   5.969
 5751SOL    HW218153   1.021   2.961   6.074
 5752SOL     OW18154   1.219   1.364   6.696
 5752SOL    HW118155   1.255   1.271   6.702
 5752SOL    HW218156   1.254   1.408   6.614
 5753SOL     OW18157   4.600   1.676   0.568
 5753SOL    HW118158   4.527   1.725   0.520
 5753SOL    HW218159   4.560   1.607   0.628
 5754SOL     OW18160   5.687   5.758   0.261
 5754SOL    HW118161   5.692   5.813   0.345
 5754SOL    HW218162   5.721   5.812   0.184
 5755SOL     OW18163   3.226   3.638   1.553
 5755SOL    HW118164   3.319   3.674   1.551
 5755SOL    HW218165   3.165   3.705   1.594
 5756SOL     OW18166   6.862   6.423   3.948
 5756SOL    HW118167   6.801   6.352   3.984
 5756SOL    HW218168   6.832   6.449   3.856
 5757SOL     OW18169   6.605   6.325   2.389
 5757SOL    HW118170   6.548   6.331   2.308
 5757SOL    HW218171   6.593   6.236   2.433
 5758SOL     OW18172   2.657   1.658   5.788
 5758SOL    HW118173   2.709   1.712   5.723
 5758SOL    HW218174   2.662   1.700   5.879
 5759SOL     OW18175   0.715   1.734   6.035
 5759SOL    HW118176   0.761   1.647   6.019
 5759SOL    HW218177   0.782   1.809   6.030
 5760SOL     OW18178   6.583   6.169   1.318
 5760SOL    HW118179   6.603   6.079   1.279
 5760SOL    HW218180   6.632   6.180   1.404
 5761SOL     OW18181   4.411   0.301   4.446
 5761SOL    HW118182   4.319   0.292   4.484
 5761SOL    HW218183   4.448   0.211   4.425
 5762SOL     OW18184   5.905   6.257   1.235
 5762SOL    HW118185   5.976   6.326   1.252
 5762SOL    HW218186   5.816   6.293   1.262
 5763SOL     OW18187   2.533   0.927   0.522
 5763SOL    HW118188   2.520   0.880   0.435
 5763SOL    HW218189   2.469   1.004   0.529
 5764SOL     OW18190   4.326   3.273   6.097
 5764SOL    HW118191   4.271   3.212   6.154
 5764SOL    HW218192   4.357   3.224   6.016
 5765SOL     OW18193   6.389   5.422   6.717
 5765SOL    HW118194   6.419   5.387   6.629
 5765SOL    HW218195   6.468   5.456   6.768
 5766SOL     OW18196   2.879   1.158   3.399
 5766SOL    HW118197   2.919   1.068   3.418
 5766SOL    HW218198   2.790   1.164   3.444
 5767SOL     OW18199   5.265   6.836   0.096
 5767SOL    HW118200   5.255   6.793   0.007
 5767SOL    HW218201   5.359   6.825   0.128
 5768SOL     OW18202   6.509   6.983   1.885
 5768SOL    HW118203   6.526   6.951   1.792
 5768SOL    HW218204   6.593   7.020   1.924
 5769SOL     OW18205   1.497   4.664   2.978
 5769SOL    HW118206   1.576   4.721   2.956
 5769SOL    HW218207   1.527   4.573   3.004
 5770SOL     OW18208   5.792   1.984   1.688
 5770SOL    HW118209   5.749   1.893   1.686
 5770SOL    HW218210   5.793   2.018   1.782
 5771SOL     OW18211   1.380   1.428   1.212
 5771SOL    HW118212   1.455   1.479   1.171
 5771SOL    HW218213   1.388   1.430   1.311
 5772SOL     OW18214   6.448   5.429   5.463
 5772SOL    HW118215   6.542   5.419   5.496
 5772SOL    HW218216   6.436   5.377   5.379
 5773SOL     OW18217   5.681   5.692   4.726
 5773SOL    HW118218   5.698   5.770   4.665
 5773SOL    HW218219   5.680   5.723   4.820
 5774SOL     OW18220   2.429   5.001   2.259
 5774SOL    HW118221   2.385   5.018   2.347
 5774SOL    HW218222   2.496   4.927   2.269
 5775SOL     OW18223   0.959   0.814   0.648
 5775SOL    HW118224   1.018   0.777   0.720
 5775SOL    HW218225   0.868   0.775   0.657
 5776SOL     OW18226   4.905   1.206   5.563
 5776SOL    HW118227   4.969   1.260   5.509
 5776SOL    HW218228   4.955   1.154   5.633
 5777SOL     OW18229   5.992   6.888   4.641
 5777SOL    HW118230   6.008   6.854   4.733
 5777SOL    HW218231   5.919   6.957   4.642
 5778SOL     OW18232   2.849   6.990   3.786
 5778SOL    HW118233   2.773   6.928   3.770
 5778SOL    HW218234   2.936   6.940   3.781
 5779SOL     OW18235   4.127   0.087   1.446
 5779SOL    HW118236   4.209   0.030   1.457
 5779SOL    HW218237   4.069   0.049   1.374
 5780SOL     OW18238   6.277   3.946   0.537
 5780SOL    HW118239   6.288   3.847   0.547
 5780SOL    HW218240   6.361   3.992   0.563
 5781SOL     OW18241   3.430   4.058   5.137
 5781SOL    HW118242   3.442   4.130   5.206
 5781SOL    HW218243   3.360   3.994   5.169
 5782SOL     OW18244   4.362   1.588   3.198
 5782SOL    HW118245   4.292   1.651   3.232
 5782SOL    HW218246   4.320   1.523   3.135
 5783SOL     OW18247   3.067   6.012   2.701
 5783SOL    HW118248   3.084   5.916   2.678
 5783SOL    HW218249   3.145   6.048   2.752
 5784SOL     OW18250   1.513   6.085   0.716
 5784SOL    HW118251   1.467   6.009   0.762
 5784SOL    HW218252   1.455   6.166   0.721
 5785SOL     OW18253   2.317   2.606   6.522
 5785SOL    HW118254   2.314   2.587   6.424
 5785SOL    HW218255   2.226   2.593   6.561
 5786SOL     OW18256   0.940   2.017   5.702
 5786SOL    HW118257   0.993   1.935   5.727
 5786SOL    HW218258   0.864   1.991   5.643
 5787SOL     OW18259   0.879   2.627   4.678
 5787SOL    HW118260   0.958   2.606   4.620
 5787SOL    HW218261   0.911   2.665   4.765
 5788SOL     OW18262   0.512   1.982   1.829
 5788SOL    HW118263   0.514   1.882   1.829
 5788SOL    HW218264   0.559   2.016   1.911
 5789SOL     OW18265   2.944   6.974   6.859
 5789SOL    HW118266   2.955   7.014   6.950
 5789SOL    HW218267   2.898   6.885   6.867
 5790SOL     OW18268   6.834   6.418   2.902
 5790SOL    HW118269   6.752   6.475   2.908
 5790SOL    HW218270   6.915   6.477   2.897
 5791SOL     OW18271   4.408   0.411   1.113
 5791SOL    HW118272   4.331   0.352   1.135
 5791SOL    HW218273   4.405   0.493   1.171
 5792SOL     OW18274   4.901   2.383   2.786
 5792SOL    HW118275   4.883   2.477   2.814
 5792SOL    HW218276   5.000   2.370   2.777
 5793SOL     OW18277   4.229   1.509   0.688
 5793SOL    HW118278   4.233   1.594   0.741
 5793SOL    HW218279   4.174   1.442   0.737
 5794SOL     OW18280   3.167   6.011   6.991
 5794SOL    HW118281   3.210   5.921   6.985
 5794SOL    HW218282   3.104   6.023   6.915
 5795SOL     OW18283   0.901   0.514   0.939
 5795SOL    HW118284   0.842   0.487   1.015
 5795SOL    HW218285   0.896   0.613   0.927
 5796SOL     OW18286   4.666   0.413   5.963
 5796SOL    HW118287   4.639   0.317   5.953
 5796SOL    HW218288   4.731   0.421   6.039
 5797SOL     OW18289   6.713   1.874   0.343
 5797SOL    HW118290   6.733   1.776   0.335
 5797SOL    HW218291   6.693   1.896   0.438
 5798SOL     OW18292   2.108   2.625   4.793
 5798SOL    HW118293   2.134   2.646   4.699
 5798SOL    HW218294   2.021   2.669   4.814
 5799SOL     OW18295   2.859   0.192   3.606
 5799SOL    HW118296   2.770   0.224   3.574
 5799SOL    HW218297   2.845   0.123   3.678
 5800SOL     OW18298   1.269   6.131   1.956
 5800SOL    HW118299   1.334   6.109   2.028
 5800SOL    HW218300   1.202   6.057   1.947
 5801SOL     OW18301   1.309   2.023   2.876
 5801SOL    HW118302   1.397   2.067   2.896
 5801SOL    HW218303   1.235   2.077   2.915
 5802SOL     OW18304   6.933   6.929   2.603
 5802SOL    HW118305   6.934   6.831   2.624
 5802SOL    HW218306   6.890   6.979   2.678
 5803SOL     OW18307   0.624   0.025   4.427
 5803SOL    HW118308   0.569   0.097   4.387
 5803SOL    HW218309   0.667   6.997   4.355
 5804SOL     OW18310   6.098   1.916   3.558
 5804SOL    HW118311   6.076   1.969   3.640
 5804SOL    HW218312   6.171   1.851   3.579
 5805SOL     OW18313   1.018   3.007   1.697
 5805SOL    HW118314   1.058   2.915   1.694
 5805SOL    HW218315   0.918   2.999   1.693
 5806SOL     OW18316   6.585   3.943   1.787
 5806SOL    HW118317   6.587   4.012   1.859
 5806SOL    HW218318   6.662   3.880   1.798
 5807SOL     OW18319   1.437   1.160   1.939
 5807SOL    HW118320   1.522   1.201   1.909
 5807SOL    HW218321   1.455   1.068   1.975
 5808SOL     OW18322   6.504   0.056   5.704
 5808SOL    HW118323   6.547   0.065   5.793
 5808SOL    HW218324   6.419   0.003   5.713
 5809SOL     OW18325   0.166   3.660   4.761
 5809SOL    HW118326   0.209   3.743   4.725
 5809SOL    HW218327   0.207   3.636   4.849
 5810SOL     OW18328   1.201   6.365   5.310
 5810SOL    HW118329   1.172   6.359   5.405
 5810SOL    HW218330   1.277   6.430   5.303
 5811SOL     OW18331   3.300   5.045   0.059
 5811SOL    HW118332   3.319   5.082   0.150
 5811SOL    HW218333   3.278   5.120   7.023
 5812SOL     OW18334   6.782   3.356   6.341
 5812SOL    HW118335   6.731   3.431   6.383
 5812SOL    HW218336   6.803   3.379   6.246
 5813SOL     OW18337   6.057   4.816   1.284
 5813SOL    HW118338   6.020   4.908   1.278
 5813SOL    HW218339   6.115   4.798   1.205
 5814SOL     OW18340   5.142   1.540   2.778
 5814SOL    HW118341   5.230   1.501   2.752
 5814SOL    HW218342   5.070   1.471   2.769
 5815SOL     OW18343   6.139   3.358   4.817
 5815SOL    HW118344   6.040   3.374   4.826
 5815SOL    HW218345   6.154   3.292   4.743
 5816SOL     OW18346   6.545   4.683   0.731
 5816SOL    HW118347   6.584   4.618   0.797
 5816SOL    HW218348   6.445   4.676   0.733
 5817SOL     OW18349   6.551   2.754   4.140
 5817SOL    HW118350   6.643   2.794   4.135
 5817SOL    HW218351   6.510   2.756   4.048
 5818SOL     OW18352   2.546   6.978   4.009
 5818SOL    HW118353   2.451   6.948   4.001
 5818SOL    HW218354   2.565   7.005   4.103
 5819SOL     OW18355   4.224   4.304   0.875
 5819SOL    HW118356   4.241   4.337   0.782
 5819SOL    HW218357   4.301   4.327   0.934
 5820SOL     OW18358   0.654   6.528   2.396
 5820SOL    HW118359   0.664   6.488   2.487
 5820SOL    HW218360   0.720   6.602   2.385
 5821SOL     OW18361   6.401   6.591   2.493
 5821SOL    HW118362   6.486   6.545   2.518
 5821SOL    HW218363   6.362   6.636   2.574
 5822SOL     OW18364   0.819   4.279   2.888
 5822SOL    HW118365   0.827   4.267   2.987
 5822SOL    HW218366   0.880   4.215   2.842
 5823SOL     OW18367   2.555   6.306   4.771
 5823SOL    HW118368   2.518   6.385   4.819
 5823SOL    HW218369   2.653   6.299   4.788
 5824SOL     OW18370   2.406   5.286   2.609
 5824SOL    HW118371   2.309   5.263   2.610
 5824SOL    HW218372   2.429   5.339   2.691
 5825SOL     OW18373   3.824   2.191   4.742
 5825SOL    HW118374   3.792   2.121   4.805
 5825SOL    HW218375   3.775   2.277   4.760
 5826SOL     OW18376   1.208   6.331   4.989
 5826SOL    HW118377   1.163   6.408   5.035
 5826SOL    HW218378   1.307   6.345   4.991
 5827SOL     OW18379   2.139   3.674   3.224
 5827SOL    HW118380   2.148   3.691   3.126
 5827SOL    HW218381   2.137   3.762   3.272
 5828SOL     OW18382   4.515   6.782   5.164
 5828SOL    HW118383   4.465   6.696   5.171
 5828SOL    HW218384   4.551   6.792   5.071
 5829SOL     OW18385   2.264   1.170   3.052
 5829SOL    HW118386   2.185   1.229   3.037
 5829SOL    HW218387   2.272   1.148   3.149
 5830SOL     OW18388   4.298   5.099   4.351
 5830SOL    HW118389   4.383   5.047   4.351
 5830SOL    HW218390   4.311   5.185   4.302
 5831SOL     OW18391   2.132   1.564   4.665
 5831SOL    HW118392   2.036   1.539   4.672
 5831SOL    HW218393   2.144   1.634   4.595
 5832SOL     OW18394   2.074   5.088   3.832
 5832SOL    HW118395   2.081   5.039   3.745
 5832SOL    HW218396   2.017   5.170   3.820
 5833SOL     OW18397   2.757   4.727   1.499
 5833SOL    HW118398   2.714   4.818   1.502
 5833SOL    HW218399   2.686   4.657   1.510
 5834SOL     OW18400   5.707   1.915   6.010
 5834SOL    HW118401   5.658   1.864   6.080
 5834SOL    HW218402   5.791   1.952   6.048
 5835SOL     OW18403   4.252   1.197   3.851
 5835SOL    HW118404   4.222   1.244   3.769
 5835SOL    HW218405   4.330   1.138   3.829
 5836SOL     OW18406   5.084   4.802   1.201
 5836SOL    HW118407   4.989   4.830   1.218
 5836SOL    HW218408   5.140   4.826   1.280
 5837SOL     OW18409   2.404   4.625   0.241
 5837SOL    HW118410   2.478   4.566   0.274
 5837SOL    HW218411   2.425   4.655   0.148
 5838SOL     OW18412   3.058   3.144   0.223
 5838SOL    HW118413   3.033   3.068   0.283
 5838SOL    HW218414   3.142   3.187   0.256
 5839SOL     OW18415   2.563   1.442   1.386
 5839SOL    HW118416   2.615   1.466   1.469
 5839SOL    HW218417   2.466   1.458   1.402
 5840SOL     OW18418   6.890   3.806   2.888
 5840SOL    HW118419   6.966   3.838   2.831
 5840SOL    HW218420   6.916   3.812   2.985
 5841SOL     OW18421   5.203   2.100   0.603
 5841SOL    HW118422   5.132   2.104   0.674
 5841SOL    HW218423   5.165   2.057   0.521
 5842SOL     OW18424   3.893   2.096   2.467
 5842SOL    HW118425   3.813   2.038   2.481
 5842SOL    HW218426   3.883   2.148   2.383
 5843SOL     OW18427   2.814   3.210   0.588
 5843SOL    HW118428   2.735   3.154   0.563
 5843SOL    HW218429   2.895   3.152   0.597
 5844SOL     OW18430   0.003   5.211   4.967
 5844SOL    HW118431   0.082   5.226   4.908
 5844SOL    HW218432   6.954   5.174   4.912
 5845SOL     OW18433   2.003   6.024   2.841
 5845SOL    HW118434   1.920   6.038   2.787
 5845SOL    HW218435   2.049   6.112   2.854
 5846SOL     OW18436   1.024   4.629   5.253
 5846SOL    HW118437   0.985   4.680   5.330
 5846SOL    HW218438   1.124   4.632   5.258
 5847SOL     OW18439   1.781   4.180   6.097
 5847SOL    HW118440   1.753   4.087   6.121
 5847SOL    HW218441   1.816   4.181   6.004
 5848SOL     OW18442   2.920   6.212   1.871
 5848SOL    HW118443   2.828   6.177   1.885
 5848SOL    HW218444   2.930   6.244   1.777
 5849SOL     OW18445   3.064   5.803   6.619
 5849SOL    HW118446   3.070   5.872   6.547
 5849SOL    HW218447   3.046   5.714   6.578
 5850SOL     OW18448   5.780   2.141   1.940
 5850SOL    HW118449   5.746   2.063   1.992
 5850SOL    HW218450   5.769   2.225   1.992
 5851SOL     OW18451   1.066   3.381   5.648
 5851SOL    HW118452   1.046   3.373   5.550
 5851SOL    HW218453   1.163   3.401   5.661
 5852SOL     OW18454   4.570   4.960   3.000
 5852SOL    HW118455   4.655   4.974   3.051
 5852SOL    HW218456   4.493   4.967   3.062
 5853SOL     OW18457   3.833   5.039   0.254
 5853SOL    HW118458   3.761   4.997   0.308
 5853SOL    HW218459   3.873   4.970   0.193
 5854SOL     OW18460   2.759   4.566   5.415
 5854SOL    HW118461   2.756   4.472   5.447
 5854SOL    HW218462   2.767   4.567   5.315
 5855SOL     OW18463   1.526   2.026   4.581
 5855SOL    HW118464   1.545   1.963   4.505
 5855SOL    HW218465   1.612   2.063   4.615
 5856SOL     OW18466   0.334   0.652   2.349
 5856SOL    HW118467   0.405   0.717   2.379
 5856SOL    HW218468   0.361   0.612   2.262
 5857SOL     OW18469   5.812   5.373   6.616
 5857SOL    HW118470   5.893   5.315   6.617
 5857SOL    HW218471   5.767   5.369   6.705
 5858SOL     OW18472   3.071   1.373   2.594
 5858SOL    HW118473   3.089   1.401   2.499
 5858SOL    HW218474   3.010   1.440   2.637
 5859SOL     OW18475   5.759   5.073   1.700
 5859SOL    HW118476   5.859   5.065   1.699
 5859SOL    HW218477   5.732   5.142   1.767
 5860SOL     OW18478   1.654   3.556   2.058
 5860SOL    HW118479   1.704   3.486   2.109
 5860SOL    HW218480   1.622   3.519   1.971
 5861SOL     OW18481   5.654   7.008   5.107
 5861SOL    HW118482   5.615   6.930   5.058
 5861SOL    HW218483   5.710   0.035   5.045
 5862SOL     OW18484   6.871   4.818   2.108
 5862SOL    HW118485   6.925   4.759   2.168
 5862SOL    HW218486   6.794   4.766   2.070
 5863SOL     OW18487   4.123   0.081   5.951
 5863SOL    HW118488   4.115   7.008   5.957
 5863SOL    HW218489   4.095   0.111   5.860
 5864SOL     OW18490   3.702   3.635   3.549
 5864SOL    HW118491   3.697   3.694   3.468
 5864SOL    HW218492   3.744   3.548   3.524
 5865SOL     OW18493   5.914   6.498   1.518
 5865SOL    HW118494   5.928   6.581   1.464
 5865SOL    HW218495   5.816   6.475   1.518
 5866SOL     OW18496   3.372   3.579   3.755
 5866SOL    HW118497   3.361   3.646   3.681
 5866SOL    HW218498   3.292   3.583   3.815
 5867SOL     OW18499   4.838   1.474   0.908
 5867SOL    HW118500   4.772   1.418   0.957
 5867SOL    HW218501   4.924   1.475   0.959
 5868SOL     OW18502   0.883   1.077   0.908
 5868SOL    HW118503   0.864   1.166   0.867
 5868SOL    HW218504   0.920   1.090   1.000
 5869SOL     OW18505   2.160   5.347   3.048
 5869SOL    HW118506   2.090   5.416   3.036
 5869SOL    HW218507   2.194   5.350   3.142
 5870SOL     OW18508   4.503   6.589   4.463
 5870SOL    HW118509   4.600   6.604   4.447
 5870SOL    HW218510   4.464   6.538   4.386
 5871SOL     OW18511   4.124   3.488   3.607
 5871SOL    HW118512   4.210   3.438   3.602
 5871SOL    HW218513   4.048   3.423   3.607
 5872SOL     OW18514   3.278   5.759   1.125
 5872SOL    HW118515   3.244   5.694   1.057
 5872SOL    HW218516   3.257   5.852   1.096
 5873SOL     OW18517   4.357   6.337   1.986
 5873SOL    HW118518   4.375   6.430   2.018
 5873SOL    HW218519   4.258   6.325   1.970
 5874SOL     OW18520   6.766   4.281   4.962
 5874SOL    HW118521   6.666   4.272   4.960
 5874SOL    HW218522   6.795   4.344   4.890
 5875SOL     OW18523   3.763   2.183   0.858
 5875SOL    HW118524   3.840   2.192   0.921
 5875SOL    HW218525   3.766   2.092   0.815
 5876SOL     OW18526   3.347   2.946   2.439
 5876SOL    HW118527   3.365   2.924   2.343
 5876SOL    HW218528   3.258   2.991   2.447
 5877SOL     OW18529   5.270   4.179   1.791
 5877SOL    HW118530   5.227   4.140   1.709
 5877SOL    HW218531   5.278   4.278   1.780
 5878SOL     OW18532   0.949   3.781   2.038
 5878SOL    HW118533   0.943   3.813   2.133
 5878SOL    HW218534   0.857   3.760   2.005
 5879SOL     OW18535   2.097   4.448   4.574
 5879SOL    HW118536   2.059   4.467   4.664
 5879SOL    HW218537   2.174   4.385   4.582
 5880SOL     OW18538   3.041   5.105   6.412
 5880SOL    HW118539   3.138   5.096   6.390
 5880SOL    HW218540   3.029   5.104   6.511
 5881SOL     OW18541   1.708   6.227   3.801
 5881SOL    HW118542   1.722   6.170   3.881
 5881SOL    HW218543   1.739   6.320   3.820
 5882SOL     OW18544   4.559   0.341   2.868
 5882SOL    HW118545   4.573   0.416   2.803
 5882SOL    HW218546   4.469   0.300   2.853
 5883SOL     OW18547   0.968   3.164   4.828
 5883SOL    HW118548   0.977   3.218   4.745
 5883SOL    HW218549   1.047   3.179   4.887
 5884SOL     OW18550   0.357   0.981   2.815
 5884SOL    HW118551   0.370   1.021   2.906
 5884SOL    HW218552   0.263   0.949   2.807
 5885SOL     OW18553   5.344   6.689   0.422
 5885SOL    HW118554   5.254   6.668   0.461
 5885SOL    HW218555   5.399   6.737   0.490
 5886SOL     OW18556   5.955   1.522   6.396
 5886SOL    HW118557   5.877   1.583   6.408
 5886SOL    HW218558   6.000   1.507   6.484
 5887SOL     OW18559   3.989   6.196   2.679
 5887SOL    HW118560   3.988   6.191   2.579
 5887SOL    HW218561   3.896   6.214   2.712
 5888SOL     OW18562   6.889   6.388   2.362
 5888SOL    HW118563   6.816   6.326   2.333
 5888SOL    HW218564   6.912   6.371   2.458
 5889SOL     OW18565   3.094   0.255   6.898
 5889SOL    HW118566   3.011   0.250   6.842
 5889SOL    HW218567   3.119   0.351   6.912
 5890SOL     OW18568   4.020   5.613   6.054
 5890SOL    HW118569   4.045   5.684   5.988
 5890SOL    HW218570   3.961   5.546   6.008
 5891SOL     OW18571   1.266   3.452   6.033
 5891SOL    HW118572   1.273   3.509   5.951
 5891SOL    HW218573   1.357   3.436   6.069
 5892SOL     OW18574   1.962   5.941   2.387
 5892SOL    HW118575   2.032   5.888   2.434
 5892SOL    HW218576   1.985   6.038   2.391
 5893SOL     OW18577   1.541   2.577   2.514
 5893SOL    HW118578   1.452   2.618   2.536
 5893SOL    HW218579   1.528   2.484   2.480
 5894SOL     OW18580   1.389   3.484   4.040
 5894SOL    HW118581   1.415   3.488   4.136
 5894SOL    HW218582   1.427   3.563   3.991
 5895SOL     OW18583   5.435   4.269   3.028
 5895SOL    HW118584   5.448   4.221   2.941
 5895SOL    HW218585   5.504   4.239   3.093
 5896SOL     OW18586   5.093   2.667   5.706
 5896SOL    HW118587   5.191   2.676   5.723
 5896SOL    HW218588   5.043   2.736   5.759
 5897SOL     OW18589   4.132   4.832   1.019
 5897SOL    HW118590   4.201   4.846   0.948
 5897SOL    HW218591   4.079   4.915   1.031
 5898SOL     OW18592   2.797   6.645   3.085
 5898SOL    HW118593   2.746   6.728   3.109
 5898SOL    HW218594   2.874   6.668   3.026
 5899SOL     OW18595   4.911   0.656   3.705
 5899SOL    HW118596   4.993   0.599   3.694
 5899SOL    HW218597   4.867   0.633   3.792
 5900SOL     OW18598   3.603   4.990   1.804
 5900SOL    HW118599   3.636   4.968   1.896
 5900SOL    HW218600   3.649   5.073   1.771
 5901SOL     OW18601   2.873   6.045   4.263
 5901SOL    HW118602   2.965   6.006   4.259
 5901SOL    HW218603   2.809   5.976   4.296
 5902SOL     OW18604   6.056   2.280   0.234
 5902SOL    HW118605   6.018   2.242   0.318
 5902SOL    HW218606   5.994   2.351   0.198
 5903SOL     OW18607   0.153   2.281   5.941
 5903SOL    HW118608   0.146   2.220   6.019
 5903SOL    HW218609   0.240   2.331   5.944
 5904SOL     OW18610   1.767   3.113   2.195
 5904SOL    HW118611   1.785   3.139   2.100
 5904SOL    HW218612   1.754   3.014   2.201
 5905SOL     OW18613   0.270   4.200   2.301
 5905SOL    HW118614   0.234   4.167   2.389
 5905SOL    HW218615   0.281   4.299   2.304
 5906SOL     OW18616   6.938   0.669   2.839
 5906SOL    HW118617   6.919   0.705   2.931
 5906SOL    HW218618   6.897   0.730   2.771
 5907SOL     OW18619   2.568   0.667   3.184
 5907SOL    HW118620   2.601   0.577   3.154
 5907SOL    HW218621   2.646   0.730   3.192
 5908SOL     OW18622   0.386   2.699   5.747
 5908SOL    HW118623   0.287   2.700   5.758
 5908SOL    HW218624   0.420   2.606   5.764
 5909SOL     OW18625   6.244   4.508   6.806
 5909SOL    HW118626   6.289   4.497   6.895
 5909SOL    HW218627   6.299   4.569   6.749
 5910SOL     OW18628   1.466   1.277   3.716
 5910SOL    HW118629   1.401   1.330   3.771
 5910SOL    HW218630   1.559   1.304   3.742
 5911SOL     OW18631   6.703   6.062   6.991
 5911SOL    HW118632   6.672   6.143   0.015
 5911SOL    HW218633   6.629   6.031   6.931
 5912SOL     OW18634   0.461   0.379   3.398
 5912SOL    HW118635   0.553   0.353   3.428
 5912SOL    HW218636   0.463   0.471   3.360
 5913SOL     OW18637   6.778   2.615   1.139
 5913SOL    HW118638   6.689   2.660   1.144
 5913SOL    HW218639   6.783   2.560   1.055
 5914SOL     OW18640   1.068   0.008   0.934
 5914SOL    HW118641   0.972   7.012   0.954
 5914SOL    HW218642   1.114   6.956   0.894
 5915SOL     OW18643   3.990   0.666   5.287
 5915SOL    HW118644   3.929   0.592   5.316
 5915SOL    HW218645   4.002   0.730   5.363
 5916SOL     OW18646   1.383   0.574   2.499
 5916SOL    HW118647   1.478   0.593   2.474
 5916SOL    HW218648   1.352   0.492   2.450
 5917SOL     OW18649   3.001   2.911   0.358
 5917SOL    HW118650   3.065   2.845   0.319
 5917SOL    HW218651   2.915   2.865   0.381
 5918SOL     OW18652   3.350   6.799   4.026
 5918SOL    HW118653   3.433   6.805   4.081
 5918SOL    HW218654   3.302   6.715   4.048
 5919SOL     OW18655   2.992   3.605   4.454
 5919SOL    HW118656   2.985   3.703   4.439
 5919SOL    HW218657   3.032   3.561   4.373
 5920SOL     OW18658   1.157   0.598   5.861
 5920SOL    HW118659   1.126   0.633   5.773
 5920SOL    HW218660   1.146   0.499   5.863
 5921SOL     OW18661   2.812   4.934   0.386
 5921SOL    HW118662   2.875   4.880   0.329
 5921SOL    HW218663   2.810   5.028   0.353
 5922SOL     OW18664   5.041   2.195   2.482
 5922SOL    HW118665   5.124   2.179   2.429
 5922SOL    HW218666   5.065   2.241   2.568
 5923SOL     OW18667   6.154   0.893   2.658
 5923SOL    HW118668   6.208   0.862   2.736
 5923SOL    HW218669   6.061   0.857   2.665
 5924SOL     OW18670   6.590   6.622   3.283
 5924SOL    HW118671   6.586   6.721   3.267
 5924SOL    HW218672   6.555   6.602   3.374
 5925SOL     OW18673   4.868   0.604   0.780
 5925SOL    HW118674   4.783   0.562   0.746
 5925SOL    HW218675   4.847   0.660   0.860
 5926SOL     OW18676   5.458   3.270   3.261
 5926SOL    HW118677   5.513   3.187   3.259
 5926SOL    HW218678   5.463   3.316   3.172
 5927SOL     OW18679   0.510   6.456   1.588
 5927SOL    HW118680   0.457   6.415   1.662
 5927SOL    HW218681   0.448   6.499   1.522
 5928SOL     OW18682   3.377   0.540   6.945
 5928SOL    HW118683   3.439   0.475   6.989
 5928SOL    HW218684   3.283   0.515   6.966
 5929SOL     OW18685   1.266   1.147   1.154
 5929SOL    HW118686   1.307   1.238   1.160
 5929SOL    HW218687   1.263   1.106   1.245
 5930SOL     OW18688   0.920   4.118   1.673
 5930SOL    HW118689   0.833   4.164   1.691
 5930SOL    HW218690   0.950   4.071   1.755
 5931SOL     OW18691   4.359   5.890   3.488
 5931SOL    HW118692   4.391   5.957   3.420
 5931SOL    HW218693   4.412   5.901   3.572
 5932SOL     OW18694   3.843   6.196   0.278
 5932SOL    HW118695   3.780   6.118   0.270
 5932SOL    HW218696   3.800   6.277   0.239
 5933SOL     OW18697   6.905   5.817   4.350
 5933SOL    HW118698   6.925   5.741   4.411
 5933SOL    HW218699   6.985   5.877   4.343
 5934SOL     OW18700   3.155   3.857   0.132
 5934SOL    HW118701   3.236   3.852   0.191
 5934SOL    HW218702   3.120   3.764   0.117
 5935SOL     OW18703   1.156   0.161   5.406
 5935SOL    HW118704   1.232   0.171   5.342
 5935SOL    HW218705   1.192   0.132   5.495
 5936SOL     OW18706   3.650   3.059   2.315
 5936SOL    HW118707   3.571   3.024   2.265
 5936SOL    HW218708   3.732   3.045   2.260
 5937SOL     OW18709   0.601   3.227   0.321
 5937SOL    HW118710   0.519   3.172   0.328
 5937SOL    HW218711   0.652   3.201   0.238
 5938SOL     OW18712   0.846   3.702   4.394
 5938SOL    HW118713   0.838   3.678   4.491
 5938SOL    HW218714   0.937   3.679   4.361
 5939SOL     OW18715   4.424   1.128   5.623
 5939SOL    HW118716   4.467   1.086   5.544
 5939SOL    HW218717   4.352   1.067   5.657
 5940SOL     OW18718   4.937   4.944   1.488
 5940SOL    HW118719   4.961   4.873   1.422
 5940SOL    HW218720   4.938   4.906   1.580
 5941SOL     OW18721   0.647   1.951   3.342
 5941SOL    HW118722   0.690   1.879   3.396
 5941SOL    HW218723   0.592   1.910   3.269
 5942SOL     OW18724   4.972   2.577   6.501
 5942SOL    HW118725   4.945   2.608   6.591
 5942SOL    HW218726   4.893   2.578   6.439
 5943SOL     OW18727   1.995   5.121   1.471
 5943SOL    HW118728   2.014   5.189   1.542
 5943SOL    HW218729   1.918   5.153   1.415
 5944SOL     OW18730   6.413   3.851   6.069
 5944SOL    HW118731   6.468   3.912   6.011
 5944SOL    HW218732   6.366   3.906   6.138
 5945SOL     OW18733   6.753   6.650   4.235
 5945SOL    HW118734   6.687   6.635   4.161
 5945SOL    HW218735   6.713   6.713   4.303
 5946SOL     OW18736   2.236   3.170   0.186
 5946SOL    HW118737   2.322   3.189   0.138
 5946SOL    HW218738   2.160   3.172   0.122
 5947SOL     OW18739   3.524   3.332   4.410
 5947SOL    HW118740   3.567   3.261   4.467
 5947SOL    HW218741   3.434   3.355   4.448
 5948SOL     OW18742   4.861   4.047   1.730
 5948SOL    HW118743   4.899   4.138   1.712
 5948SOL    HW218744   4.761   4.051   1.727
 5949SOL     OW18745   1.257   3.990   3.287
 5949SOL    HW118746   1.356   4.001   3.285
 5949SOL    HW218747   1.218   4.027   3.202
 5950SOL     OW18748   2.756   6.480   4.498
 5950SOL    HW118749   2.673   6.486   4.441
 5950SOL    HW218750   2.808   6.565   4.489
 5951SOL     OW18751   6.964   2.937   6.327
 5951SOL    HW118752   6.910   2.943   6.243
 5951SOL    HW218753   6.978   2.841   6.351
 5952SOL     OW18754   3.872   4.069   1.785
 5952SOL    HW118755   3.856   3.970   1.794
 5952SOL    HW218756   3.793   4.119   1.820
 5953SOL     OW18757   6.685   3.103   6.174
 5953SOL    HW118758   6.737   3.113   6.089
 5953SOL    HW218759   6.706   3.180   6.234
 5954SOL     OW18760   2.049   4.987   3.569
 5954SOL    HW118761   2.073   5.041   3.488
 5954SOL    HW218762   1.981   4.917   3.543
 5955SOL     OW18763   3.896   2.815   0.302
 5955SOL    HW118764   3.897   2.880   0.378
 5955SOL    HW218765   3.864   2.726   0.334
 5956SOL     OW18766   4.391   2.773   5.859
 5956SOL    HW118767   4.486   2.743   5.852
 5956SOL    HW218768   4.335   2.700   5.897
 5957SOL     OW18769   6.275   2.264   3.744
 5957SOL    HW118770   6.358   2.215   3.716
 5957SOL    HW218771   6.277   2.356   3.704
 5958SOL     OW18772   2.455   6.025   2.913
 5958SOL    HW118773   2.442   6.072   3.000
 5958SOL    HW218774   2.407   6.075   2.841
 5959SOL     OW18775   5.160   3.601   3.111
 5959SOL    HW118776   5.169   3.507   3.146
 5959SOL    HW218777   5.066   3.633   3.127
 5960SOL     OW18778   5.698   0.162   6.505
 5960SOL    HW118779   5.682   0.065   6.485
 5960SOL    HW218780   5.657   0.185   6.594
 5961SOL     OW18781   3.350   1.906   4.165
 5961SOL    HW118782   3.450   1.893   4.166
 5961SOL    HW218783   3.307   1.827   4.120
 5962SOL     OW18784   4.687   4.444   0.411
 5962SOL    HW118785   4.647   4.419   0.323
 5962SOL    HW218786   4.620   4.495   0.465
 5963SOL     OW18787   1.636   4.103   0.513
 5963SOL    HW118788   1.714   4.094   0.451
 5963SOL    HW218789   1.612   4.014   0.550
 5964SOL     OW18790   1.971   0.358   3.027
 5964SOL    HW118791   1.907   0.284   3.012
 5964SOL    HW218792   1.982   0.374   3.126
 5965SOL     OW18793   2.256   0.349   0.906
 5965SOL    HW118794   2.341   0.376   0.953
 5965SOL    HW218795   2.277   0.328   0.810
 5966SOL     OW18796   2.465   2.068   4.889
 5966SOL    HW118797   2.455   2.164   4.916
 5966SOL    HW218798   2.546   2.058   4.832
 5967SOL     OW18799   4.616   2.431   5.342
 5967SOL    HW118800   4.683   2.478   5.284
 5967SOL    HW218801   4.647   2.433   5.437
 5968SOL     OW18802   6.216   1.951   2.898
 5968SOL    HW118803   6.171   1.871   2.937
 5968SOL    HW218804   6.291   1.921   2.838
 5969SOL     OW18805   5.378   6.819   1.232
 5969SOL    HW118806   5.288   6.861   1.240
 5969SOL    HW218807   5.443   6.886   1.196
 5970SOL     OW18808   6.450   2.529   0.173
 5970SOL    HW118809   6.373   2.497   0.119
 5970SOL    HW218810   6.421   2.544   0.267
 5971SOL     OW18811   6.495   5.334   3.285
 5971SOL    HW118812   6.557   5.354   3.209
 5971SOL    HW218813   6.549   5.304   3.364
 5972SOL     OW18814   5.909   5.077   0.981
 5972SOL    HW118815   5.953   5.143   1.042
 5972SOL    HW218816   5.817   5.110   0.959
 5973SOL     OW18817   3.168   0.943   2.435
 5973SOL    HW118818   3.198   1.034   2.461
 5973SOL    HW218819   3.206   0.876   2.499
 5974SOL     OW18820   5.704   1.070   4.866
 5974SOL    HW118821   5.645   1.071   4.785
 5974SOL    HW218822   5.772   1.143   4.858
 5975SOL     OW18823   4.554   5.210   1.603
 5975SOL    HW118824   4.566   5.287   1.666
 5975SOL    HW218825   4.480   5.231   1.539
 5976SOL     OW18826   1.246   4.037   5.271
 5976SOL    HW118827   1.299   3.961   5.235
 5976SOL    HW218828   1.184   4.071   5.201
 5977SOL     OW18829   6.778   5.541   1.112
 5977SOL    HW118830   6.794   5.481   1.191
 5977SOL    HW218831   6.756   5.485   1.032
 5978SOL     OW18832   3.086   3.818   5.955
 5978SOL    HW118833   3.090   3.793   5.859
 5978SOL    HW218834   3.163   3.879   5.977
 5979SOL     OW18835   6.146   6.899   0.989
 5979SOL    HW118836   6.147   6.921   0.892
 5979SOL    HW218837   6.228   6.846   1.012
 5980SOL     OW18838   2.991   3.013   0.628
 5980SOL    HW118839   3.073   3.043   0.678
 5980SOL    HW218840   3.018   2.964   0.546
 5981SOL     OW18841   3.155   3.023   0.860
 5981SOL    HW118842   3.068   2.977   0.875
 5981SOL    HW218843   3.227   2.954   0.846
 5982SOL     OW18844   5.067   2.248   1.291
 5982SOL    HW118845   5.090   2.274   1.197
 5982SOL    HW218846   5.151   2.244   1.345
 5983SOL     OW18847   6.758   1.488   3.354
 5983SOL    HW118848   6.849   1.523   3.332
 5983SOL    HW218849   6.766   1.413   3.419
 5984SOL     OW18850   6.254   6.315   2.781
 5984SOL    HW118851   6.233   6.351   2.872
 5984SOL    HW218852   6.352   6.328   2.762
 5985SOL     OW18853   6.907   3.995   2.570
 5985SOL    HW118854   6.977   3.927   2.592
 5985SOL    HW218855   6.885   4.047   2.652
 5986SOL     OW18856   3.791   3.514   3.109
 5986SOL    HW118857   3.726   3.506   3.034
 5986SOL    HW218858   3.884   3.521   3.073
 5987SOL     OW18859   6.866   6.158   4.243
 5987SOL    HW118860   6.960   6.125   4.258
 5987SOL    HW218861   6.846   6.154   4.145
 5988SOL     OW18862   1.205   2.942   0.256
 5988SOL    HW118863   1.201   2.991   0.343
 5988SOL    HW218864   1.123   2.885   0.247
 5989SOL     OW18865   1.980   6.762   5.753
 5989SOL    HW118866   2.014   6.679   5.708
 5989SOL    HW218867   1.937   6.821   5.684
 5990SOL     OW18868   2.538   3.919   1.657
 5990SOL    HW118869   2.561   3.924   1.560
 5990SOL    HW218870   2.515   4.010   1.691
 5991SOL     OW18871   5.610   1.299   0.499
 5991SOL    HW118872   5.685   1.235   0.518
 5991SOL    HW218873   5.580   1.340   0.585
 5992SOL     OW18874   2.443   4.908   3.346
 5992SOL    HW118875   2.389   4.833   3.385
 5992SOL    HW218876   2.422   4.918   3.249
 5993SOL     OW18877   5.408   2.251   0.552
 5993SOL    HW118878   5.322   2.209   0.580
 5993SOL    HW218879   5.451   2.294   0.632
 5994SOL     OW18880   6.980   3.940   0.382
 5994SOL    HW118881   6.961   3.848   0.347
 5994SOL    HW218882   6.895   3.992   0.387
 5995SOL     OW18883   5.350   3.233   1.159
 5995SOL    HW118884   5.340   3.134   1.150
 5995SOL    HW218885   5.353   3.274   1.068
 5996SOL     OW18886   2.838   0.166   1.918
 5996SOL    HW118887   2.745   0.200   1.936
 5996SOL    HW218888   2.845   0.072   1.951
 5997SOL     OW18889   6.371   0.417   4.190
 5997SOL    HW118890   6.321   0.461   4.115
 5997SOL    HW218891   6.329   0.442   4.277
 5998SOL     OW18892   6.079   6.166   6.363
 5998SOL    HW118893   6.092   6.265   6.364
 5998SOL    HW218894   6.094   6.129   6.455
 5999SOL     OW18895   5.322   3.495   1.246
 5999SOL    HW118896   5.398   3.542   1.203
 5999SOL    HW218897   5.334   3.396   1.237
 6000SOL     OW18898   0.866   4.765   1.340
 6000SOL    HW118899   0.964   4.748   1.329
 6000SOL    HW218900   0.851   4.816   1.425
 6001SOL     OW18901   6.780   5.780   5.246
 6001SOL    HW118902   6.799   5.870   5.206
 6001SOL    HW218903   6.780   5.786   5.345
 6002SOL     OW18904   5.473   4.719   4.825
 6002SOL    HW118905   5.538   4.778   4.776
 6002SOL    HW218906   5.458   4.756   4.917
 6003SOL     OW18907   2.548   2.159   5.262
 6003SOL    HW118908   2.509   2.083   5.314
 6003SOL    HW218909   2.624   2.126   5.207
 6004SOL     OW18910   5.264   3.459   5.172
 6004SOL    HW118911   5.314   3.422   5.093
 6004SOL    HW218912   5.329   3.489   5.242
 6005SOL     OW18913   4.073   4.291   0.544
 6005SOL    HW118914   4.048   4.203   0.505
 6005SOL    HW218915   4.006   4.316   0.615
 6006SOL     OW18916   3.466   6.104   6.902
 6006SOL    HW118917   3.388   6.048   6.932
 6006SOL    HW218918   3.439   6.161   6.824
 6007SOL     OW18919   2.685   6.879   4.912
 6007SOL    HW118920   2.700   6.885   4.814
 6007SOL    HW218921   2.595   6.839   4.929
 6008SOL     OW18922   1.936   3.929   6.490
 6008SOL    HW118923   1.955   3.899   6.396
 6008SOL    HW218924   1.959   4.025   6.499
 6009SOL     OW18925   3.207   5.598   2.993
 6009SOL    HW118926   3.211   5.526   3.062
 6009SOL    HW218927   3.206   5.557   2.902
 6010SOL     OW18928   0.284   4.780   5.076
 6010SOL    HW118929   0.300   4.821   4.987
 6010SOL    HW218930   0.204   4.823   5.119
 6011SOL     OW18931   5.390   1.688   3.343
 6011SOL    HW118932   5.439   1.618   3.396
 6011SOL    HW218933   5.328   1.643   3.279
 6012SOL     OW18934   6.477   1.090   6.077
 6012SOL    HW118935   6.466   1.087   6.177
 6012SOL    HW218936   6.475   1.184   6.046
 6013SOL     OW18937   5.442   1.085   2.626
 6013SOL    HW118938   5.503   1.138   2.684
 6013SOL    HW218939   5.355   1.071   2.673
 6014SOL     OW18940   3.599   3.549   3.916
 6014SOL    HW118941   3.525   3.578   3.855
 6014SOL    HW218942   3.640   3.465   3.881
 6015SOL     OW18943   6.132   6.883   3.998
 6015SOL    HW118944   6.040   6.902   3.963
 6015SOL    HW218945   6.149   6.938   4.080
 6016SOL     OW18946   4.447   2.305   4.865
 6016SOL    HW118947   4.353   2.295   4.896
 6016SOL    HW218948   4.483   2.216   4.837
 6017SOL     OW18949   1.327   1.738   5.235
 6017SOL    HW118950   1.275   1.803   5.180
 6017SOL    HW218951   1.266   1.695   5.302
 6018SOL     OW18952   2.981   1.364   3.867
 6018SOL    HW118953   2.905   1.338   3.806
 6018SOL    HW218954   3.012   1.283   3.916
 6019SOL     OW18955   6.848   4.578   6.358
 6019SOL    HW118956   6.940   4.539   6.349
 6019SOL    HW218957   6.780   4.507   6.337
 6020SOL     OW18958   0.290   5.561   5.489
 6020SOL    HW118959   0.251   5.652   5.501
 6020SOL    HW218960   0.355   5.562   5.413
 6021SOL     OW18961   5.738   0.444   3.290
 6021SOL    HW118962   5.695   0.421   3.203
 6021SOL    HW218963   5.672   0.430   3.364
 6022SOL     OW18964   6.543   2.758   1.472
 6022SOL    HW118965   6.577   2.836   1.420
 6022SOL    HW218966   6.519   2.786   1.564
 6023SOL     OW18967   4.553   6.466   2.545
 6023SOL    HW118968   4.481   6.535   2.551
 6023SOL    HW218969   4.613   6.474   2.625
 6024SOL     OW18970   0.568   5.979   6.908
 6024SOL    HW118971   0.639   5.909   6.914
 6024SOL    HW218972   0.479   5.938   6.930
 6025SOL     OW18973   3.184   0.825   5.699
 6025SOL    HW118974   3.233   0.896   5.648
 6025SOL    HW218975   3.099   0.862   5.735
 6026SOL     OW18976   5.673   5.604   3.344
 6026SOL    HW118977   5.722   5.550   3.274
 6026SOL    HW218978   5.716   5.693   3.353
 6027SOL     OW18979   5.927   4.915   6.122
 6027SOL    HW118980   5.830   4.905   6.100
 6027SOL    HW218981   5.949   5.011   6.136
 6028SOL     OW18982   6.227   6.151   5.973
 6028SOL    HW118983   6.153   6.216   5.989
 6028SOL    HW218984   6.210   6.101   5.888
 6029SOL     OW18985   2.946   2.179   2.735
 6029SOL    HW118986   3.045   2.181   2.727
 6029SOL    HW218987   2.906   2.136   2.654
 6030SOL     OW18988   5.926   3.110   4.639
 6030SOL    HW118989   6.022   3.117   4.668
 6030SOL    HW218990   5.897   3.014   4.641
 6031SOL     OW18991   0.005   6.756   4.423
 6031SOL    HW118992   6.942   6.768   4.383
 6031SOL    HW218993   0.020   6.660   4.445
 6032SOL     OW18994   3.399   6.819   3.282
 6032SOL    HW118995   3.427   6.727   3.255
 6032SOL    HW218996   3.460   6.853   3.354
 6033SOL     OW18997   0.909   1.802   2.378
 6033SOL    HW118998   0.846   1.725   2.373
 6033SOL    HW218999   0.976   1.787   2.451
 6034SOL     OW19000   0.429   0.291   0.322
 6034SOL    HW119001   0.441   0.220   0.391
 6034SOL    HW219002   0.495   0.277   0.248
 6035SOL     OW19003   2.490   0.572   2.831
 6035SOL    HW119004   2.489   0.591   2.733
 6035SOL    HW219005   2.397   0.550   2.862
 6036SOL     OW19006   6.621   3.215   0.708
 6036SOL    HW119007   6.537   3.209   0.761
 6036SOL    HW219008   6.645   3.311   0.692
 6037SOL     OW19009   4.738   0.649   5.858
 6037SOL    HW119010   4.663   0.709   5.885
 6037SOL    HW219011   4.720   0.556   5.890
 6038SOL     OW19012   1.527   1.286   6.210
 6038SOL    HW119013   1.620   1.272   6.177
 6038SOL    HW219014   1.486   1.198   6.234
 6039SOL     OW19015   3.945   3.056   3.592
 6039SOL    HW119016   3.954   3.052   3.692
 6039SOL    HW219017   3.859   3.014   3.565
 6040SOL     OW19018   0.803   2.100   0.409
 6040SOL    HW119019   0.877   2.102   0.342
 6040SOL    HW219020   0.778   2.194   0.434
 6041SOL     OW19021   0.468   2.984   4.532
 6041SOL    HW119022   0.452   2.960   4.627
 6041SOL    HW219023   0.566   2.998   4.516
 6042SOL     OW19024   2.552   5.954   3.899
 6042SOL    HW119025   2.630   5.903   3.864
 6042SOL    HW219026   2.555   5.955   3.999
 6043SOL     OW19027   2.066   6.454   2.580
 6043SOL    HW119028   2.048   6.472   2.677
 6043SOL    HW219029   2.028   6.528   2.525
 6044SOL     OW19030   6.931   3.205   0.385
 6044SOL    HW119031   6.955   3.186   0.481
 6044SOL    HW219032   6.997   3.159   0.325
 6045SOL     OW19033   4.859   1.202   4.153
 6045SOL    HW119034   4.933   1.137   4.169
 6045SOL    HW219035   4.873   1.248   4.065
 6046SOL     OW19036   3.753   3.577   2.592
 6046SOL    HW119037   3.745   3.539   2.500
 6046SOL    HW219038   3.704   3.664   2.597
 6047SOL     OW19039   0.298   1.412   0.078
 6047SOL    HW119040   0.231   1.452   0.016
 6047SOL    HW219041   0.321   1.319   0.047
 6048SOL     OW19042   5.815   5.966   3.163
 6048SOL    HW119043   5.863   6.020   3.095
 6048SOL    HW219044   5.718   5.960   3.139
 6049SOL     OW19045   5.235   5.051   5.970
 6049SOL    HW119046   5.233   4.951   5.964
 6049SOL    HW219047   5.265   5.079   6.061
 6050SOL     OW19048   2.716   5.383   2.945
 6050SOL    HW119049   2.775   5.329   3.005
 6050SOL    HW219050   2.707   5.335   2.857
 6051SOL     OW19051   0.814   1.221   2.187
 6051SOL    HW119052   0.718   1.212   2.160
 6051SOL    HW219053   0.872   1.205   2.107
 6052SOL     OW19054   5.731   5.497   0.291
 6052SOL    HW119055   5.667   5.436   0.243
 6052SOL    HW219056   5.710   5.592   0.269
 6053SOL     OW19057   4.043   2.419   6.531
 6053SOL    HW119058   4.109   2.485   6.496
 6053SOL    HW219059   4.047   2.417   6.631
 6054SOL     OW19060   4.107   3.755   0.567
 6054SOL    HW119061   4.088   3.770   0.664
 6054SOL    HW219062   4.189   3.698   0.558
 6055SOL     OW19063   3.020   4.442   1.453
 6055SOL    HW119064   3.017   4.542   1.453
 6055SOL    HW219065   3.021   4.408   1.359
 6056SOL     OW19066   5.356   5.810   3.429
 6056SOL    HW119067   5.352   5.909   3.441
 6056SOL    HW219068   5.326   5.765   3.513
 6057SOL     OW19069   5.608   1.224   3.696
 6057SOL    HW119070   5.646   1.151   3.754
 6057SOL    HW219071   5.635   1.313   3.732
 6058SOL     OW19072   0.185   2.437   5.728
 6058SOL    HW119073   0.152   2.374   5.799
 6058SOL    HW219074   0.151   2.529   5.748
 6059SOL     OW19075   3.608   2.465   6.939
 6059SOL    HW119076   3.577   2.434   6.849
 6059SOL    HW219077   3.561   2.550   6.963
 6060SOL     OW19078   1.819   2.403   0.545
 6060SOL    HW119079   1.912   2.418   0.578
 6060SOL    HW219080   1.754   2.422   0.619
 6061SOL     OW19081   3.096   4.063   6.982
 6061SOL    HW119082   3.129   3.985   0.008
 6061SOL    HW219083   3.079   4.035   6.887
 6062SOL     OW19084   2.322   2.269   6.054
 6062SOL    HW119085   2.284   2.213   5.980
 6062SOL    HW219086   2.374   2.345   6.016
 6063SOL     OW19087   5.072   3.973   6.220
 6063SOL    HW119088   5.118   3.997   6.134
 6063SOL    HW219089   5.105   3.885   6.252
 6064SOL     OW19090   5.568   6.178   0.703
 6064SOL    HW119091   5.542   6.196   0.608
 6064SOL    HW219092   5.487   6.177   0.761
 6065SOL     OW19093   2.576   6.485   1.521
 6065SOL    HW119094   2.665   6.515   1.558
 6065SOL    HW219095   2.521   6.446   1.595
 6066SOL     OW19096   5.766   5.754   2.222
 6066SOL    HW119097   5.824   5.691   2.171
 6066SOL    HW219098   5.819   5.800   2.293
 6067SOL     OW19099   6.977   5.607   5.685
 6067SOL    HW119100   6.942   5.575   5.773
 6067SOL    HW219101   7.015   5.530   5.634
 6068SOL     OW19102   4.780   1.663   4.588
 6068SOL    HW119103   4.754   1.705   4.674
 6068SOL    HW219104   4.697   1.642   4.535
 6069SOL     OW19105   0.397   4.914   5.783
 6069SOL    HW119106   0.465   4.939   5.714
 6069SOL    HW219107   0.434   4.843   5.843
 6070SOL     OW19108   2.737   1.184   0.614
 6070SOL    HW119109   2.711   1.142   0.701
 6070SOL    HW219110   2.667   1.250   0.586
 6071SOL     OW19111   5.684   0.692   6.368
 6071SOL    HW119112   5.703   0.700   6.270
 6071SOL    HW219113   5.595   0.735   6.388
 6072SOL     OW19114   6.676   2.970   0.154
 6072SOL    HW119115   6.650   3.033   0.228
 6072SOL    HW219116   6.617   2.986   0.075
 6073SOL     OW19117   4.610   3.838   1.394
 6073SOL    HW119118   4.691   3.813   1.341
 6073SOL    HW219119   4.531   3.841   1.334
 6074SOL     OW19120   0.935   6.114   2.686
 6074SOL    HW119121   0.895   6.067   2.607
 6074SOL    HW219122   0.874   6.188   2.716
 6075SOL     OW19123   6.300   0.129   6.925
 6075SOL    HW119124   6.331   0.217   6.889
 6075SOL    HW219125   6.274   0.070   6.849
 6076SOL     OW19126   0.442   6.589   3.682
 6076SOL    HW119127   0.417   6.657   3.751
 6076SOL    HW219128   0.517   6.624   3.626
 6077SOL     OW19129   5.029   5.842   2.752
 6077SOL    HW119130   4.941   5.794   2.752
 6077SOL    HW219131   5.054   5.865   2.658
 6078SOL     OW19132   5.070   4.692   0.739
 6078SOL    HW119133   5.031   4.777   0.773
 6078SOL    HW219134   5.168   4.689   0.761
 6079SOL     OW19135   3.384   1.907   0.265
 6079SOL    HW119136   3.364   1.810   0.260
 6079SOL    HW219137   3.450   1.925   0.338
 6080SOL     OW19138   0.333   3.634   5.502
 6080SOL    HW119139   0.311   3.730   5.487
 6080SOL    HW219140   0.250   3.583   5.520
 6081SOL     OW19141   1.934   3.878   4.041
 6081SOL    HW119142   1.927   3.976   4.022
 6081SOL    HW219143   1.842   3.840   4.052
 6082SOL     OW19144   5.248   1.576   1.241
 6082SOL    HW119145   5.231   1.672   1.264
 6082SOL    HW219146   5.172   1.541   1.186
 6083SOL     OW19147   5.034   6.780   6.366
 6083SOL    HW119148   5.126   6.746   6.347
 6083SOL    HW219149   4.978   6.771   6.283
 6084SOL     OW19150   6.117   5.117   3.111
 6084SOL    HW119151   6.056   5.045   3.079
 6084SOL    HW219152   6.065   5.186   3.162
 6085SOL     OW19153   0.584   6.568   0.430
 6085SOL    HW119154   0.509   6.613   0.480
 6085SOL    HW219155   0.586   6.471   0.454
 6086SOL     OW19156   3.493   3.450   0.040
 6086SOL    HW119157   3.501   3.484   6.974
 6086SOL    HW219158   3.508   3.351   0.041
 6087SOL     OW19159   4.372   7.000   0.833
 6087SOL    HW119160   4.419   6.911   0.831
 6087SOL    HW219161   4.297   6.997   0.899
 6088SOL     OW19162   4.246   6.000   2.059
 6088SOL    HW119163   4.185   6.018   1.983
 6088SOL    HW219164   4.194   5.966   2.137
 6089SOL     OW19165   6.740   4.094   3.117
 6089SOL    HW119166   6.784   4.006   3.133
 6089SOL    HW219167   6.809   4.164   3.100
 6090SOL     OW19168   3.845   5.590   5.185
 6090SOL    HW119169   3.863   5.682   5.221
 6090SOL    HW219170   3.749   5.584   5.158
 6091SOL     OW19171   0.818   2.245   2.405
 6091SOL    HW119172   0.731   2.213   2.443
 6091SOL    HW219173   0.890   2.234   2.473
 6092SOL     OW19174   2.409   6.884   1.527
 6092SOL    HW119175   2.469   6.860   1.603
 6092SOL    HW219176   2.457   6.871   1.441
 6093SOL     OW19177   2.807   2.809   1.540
 6093SOL    HW119178   2.733   2.743   1.523
 6093SOL    HW219179   2.796   2.888   1.480
 6094SOL     OW19180   0.750   6.808   5.390
 6094SOL    HW119181   0.714   6.853   5.308
 6094SOL    HW219182   0.714   6.854   5.471
 6095SOL     OW19183   5.220   5.247   2.120
 6095SOL    HW119184   5.316   5.225   2.135
 6095SOL    HW219185   5.193   5.324   2.177
 6096SOL     OW19186   5.022   5.998   2.467
 6096SOL    HW119187   5.049   6.085   2.508
 6096SOL    HW219188   4.929   6.005   2.432
 6097SOL     OW19189   2.929   5.275   2.487
 6097SOL    HW119190   3.026   5.253   2.492
 6097SOL    HW219191   2.910   5.326   2.403
 6098SOL     OW19192   6.077   0.676   5.309
 6098SOL    HW119193   6.063   0.606   5.379
 6098SOL    HW219194   6.171   0.709   5.314
 6099SOL     OW19195   3.820   6.888   5.357
 6099SOL    HW119196   3.730   6.895   5.400
 6099SOL    HW219197   3.820   6.813   5.291
 6100SOL     OW19198   0.413   5.970   5.055
 6100SOL    HW119199   0.364   5.906   4.997
 6100SOL    HW219200   0.501   5.992   5.013
 6101SOL     OW19201   0.492   2.565   2.028
 6101SOL    HW119202   0.509   2.626   1.951
 6101SOL    HW219203   0.433   2.611   2.095
 6102SOL     OW19204   3.485   0.282   2.941
 6102SOL    HW119205   3.511   0.303   2.846
 6102SOL    HW219206   3.532   0.198   2.970
 6103SOL     OW19207   5.889   1.109   2.340
 6103SOL    HW119208   5.931   1.197   2.361
 6103SOL    HW219209   5.849   1.070   2.423
 6104SOL     OW19210   6.741   1.106   4.640
 6104SOL    HW119211   6.751   1.009   4.617
 6104SOL    HW219212   6.785   1.162   4.569
 6105SOL     OW19213   4.039   4.463   5.638
 6105SOL    HW119214   4.113   4.472   5.705
 6105SOL    HW219215   4.077   4.469   5.546
 6106SOL     OW19216   6.130   3.902   5.066
 6106SOL    HW119217   6.184   3.947   5.136
 6106SOL    HW219218   6.085   3.970   5.009
 6107SOL     OW19219   5.702   5.063   5.464
 6107SOL    HW119220   5.737   4.970   5.476
 6107SOL    HW219221   5.656   5.070   5.376
 6108SOL     OW19222   2.521   1.427   6.303
 6108SOL    HW119223   2.429   1.396   6.280
 6108SOL    HW219224   2.570   1.449   6.218
 6109SOL     OW19225   0.189   6.321   3.809
 6109SOL    HW119226   0.286   6.300   3.820
 6109SOL    HW219227   0.145   6.249   3.755
 6110SOL     OW19228   1.496   1.351   4.071
 6110SOL    HW119229   1.455   1.421   4.129
 6110SOL    HW219230   1.516   1.390   3.981
 6111SOL     OW19231   2.065   3.317   0.610
 6111SOL    HW119232   2.137   3.254   0.581
 6111SOL    HW219233   2.035   3.372   0.532
 6112SOL     OW19234   4.771   6.234   3.995
 6112SOL    HW119235   4.712   6.224   4.075
 6112SOL    HW219236   4.715   6.256   3.914
 6113SOL     OW19237   2.970   5.342   0.400
 6113SOL    HW119238   2.896   5.408   0.410
 6113SOL    HW219239   3.052   5.388   0.366
 6114SOL     OW19240   4.265   3.002   1.145
 6114SOL    HW119241   4.219   2.915   1.128
 6114SOL    HW219242   4.359   2.996   1.112
 6115SOL     OW19243   6.994   0.590   5.060
 6115SOL    HW119244   0.038   0.602   5.130
 6115SOL    HW219245   6.906   0.574   5.105
 6116SOL     OW19246   6.301   3.419   0.434
 6116SOL    HW119247   6.250   3.459   0.510
 6116SOL    HW219248   6.286   3.320   0.432
 6117SOL     OW19249   2.362   2.445   1.578
 6117SOL    HW119250   2.401   2.365   1.532
 6117SOL    HW219251   2.321   2.417   1.664
 6118SOL     OW19252   5.199   0.691   2.011
 6118SOL    HW119253   5.206   0.595   2.038
 6118SOL    HW219254   5.180   0.697   1.913
 6119SOL     OW19255   0.377   1.203   6.951
 6119SOL    HW119256   0.403   1.117   6.995
 6119SOL    HW219257   0.453   1.235   6.894
 6120SOL     OW19258   3.031   0.315   3.801
 6120SOL    HW119259   3.098   0.245   3.779
 6120SOL    HW219260   2.973   0.283   3.876
 6121SOL     OW19261   2.224   2.229   5.122
 6121SOL    HW119262   2.238   2.131   5.109
 6121SOL    HW219263   2.297   2.279   5.074
 6122SOL     OW19264   4.968   4.792   5.236
 6122SOL    HW119265   5.040   4.824   5.174
 6122SOL    HW219266   4.987   4.824   5.329
 6123SOL     OW19267   6.307   1.101   5.135
 6123SOL    HW119268   6.322   1.112   5.037
 6123SOL    HW219269   6.243   1.025   5.151
 6124SOL     OW19270   2.164   5.520   3.985
 6124SOL    HW119271   2.240   5.484   3.930
 6124SOL    HW219272   2.200   5.566   4.066
 6125SOL     OW19273   3.471   1.724   5.471
 6125SOL    HW119274   3.530   1.657   5.517
 6125SOL    HW219275   3.405   1.676   5.414
 6126SOL     OW19276   6.181   2.976   6.892
 6126SOL    HW119277   6.203   2.972   6.795
 6126SOL    HW219278   6.104   3.039   6.906
 6127SOL     OW19279   5.372   1.458   2.984
 6127SOL    HW119280   5.344   1.466   3.080
 6127SOL    HW219281   5.460   1.503   2.972
 6128SOL     OW19282   5.692   5.622   6.585
 6128SOL    HW119283   5.613   5.630   6.525
 6128SOL    HW219284   5.718   5.525   6.592
 6129SOL     OW19285   2.790   5.734   3.056
 6129SOL    HW119286   2.700   5.778   3.065
 6129SOL    HW219287   2.802   5.665   3.127
 6130SOL     OW19288   5.625   3.089   6.996
 6130SOL    HW119289   5.685   3.116   0.045
 6130SOL    HW219290   5.633   2.991   6.981
 6131SOL     OW19291   6.626   2.334   3.264
 6131SOL    HW119292   6.531   2.327   3.294
 6131SOL    HW219293   6.630   2.379   3.174
 6132SOL     OW19294   4.388   6.496   6.394
 6132SOL    HW119295   4.409   6.440   6.314
 6132SOL    HW219296   4.472   6.517   6.444
 6133SOL     OW19297   1.032   2.439   3.030
 6133SOL    HW119298   1.022   2.431   3.129
 6133SOL    HW219299   1.018   2.534   3.002
 6134SOL     OW19300   0.077   6.504   5.223
 6134SOL    HW119301   0.146   6.571   5.252
 6134SOL    HW219302   0.038   6.459   5.303
 6135SOL     OW19303   6.546   6.909   0.411
 6135SOL    HW119304   6.632   6.949   0.380
 6135SOL    HW219305   6.564   6.835   0.476
 6136SOL     OW19306   1.072   1.819   3.607
 6136SOL    HW119307   1.074   1.720   3.589
 6136SOL    HW219308   1.092   1.836   3.703
 6137SOL     OW19309   6.829   4.983   0.932
 6137SOL    HW119310   6.925   5.003   0.954
 6137SOL    HW219311   6.780   4.962   1.016
 6138SOL     OW19312   5.153   0.687   2.491
 6138SOL    HW119313   5.225   0.690   2.422
 6138SOL    HW219314   5.131   0.781   2.520
 6139SOL     OW19315   1.639   1.681   5.006
 6139SOL    HW119316   1.716   1.638   4.959
 6139SOL    HW219317   1.588   1.737   4.941
 6140SOL     OW19318   2.199   6.984   3.100
 6140SOL    HW119319   2.278   6.926   3.116
 6140SOL    HW219320   2.177   0.007   3.183
 6141SOL     OW19321   1.245   1.124   0.007
 6141SOL    HW119322   1.328   1.072   0.031
 6141SOL    HW219323   1.176   1.111   0.079
 6142SOL     OW19324   6.517   0.242   1.273
 6142SOL    HW119325   6.433   0.281   1.236
 6142SOL    HW219326   6.510   0.142   1.273
 6143SOL     OW19327   0.653   3.197   5.733
 6143SOL    HW119328   0.683   3.178   5.640
 6143SOL    HW219329   0.688   3.286   5.762
 6144SOL     OW19330   3.311   5.282   2.792
 6144SOL    HW119331   3.228   5.335   2.770
 6144SOL    HW219332   3.367   5.334   2.857
 6145SOL     OW19333   4.840   3.064   3.542
 6145SOL    HW119334   4.857   3.087   3.447
 6145SOL    HW219335   4.843   3.148   3.597
 6146SOL     OW19336   5.824   0.314   5.458
 6146SOL    HW119337   5.905   0.371   5.443
 6146SOL    HW219338   5.743   0.363   5.427
 6147SOL     OW19339   1.257   2.066   5.497
 6147SOL    HW119340   1.305   1.995   5.548
 6147SOL    HW219341   1.158   2.049   5.500
 6148SOL     OW19342   3.625   5.258   6.718
 6148SOL    HW119343   3.616   5.160   6.732
 6148SOL    HW219344   3.719   5.279   6.690
 6149SOL     OW19345   3.718   1.933   1.655
 6149SOL    HW119346   3.731   1.963   1.749
 6149SOL    HW219347   3.642   1.868   1.650
 6150SOL     OW19348   0.173   4.286   4.644
 6150SOL    HW119349   0.233   4.213   4.611
 6150SOL    HW219350   0.130   4.257   4.730
 6151SOL     OW19351   3.709   5.061   3.102
 6151SOL    HW119352   3.627   5.048   3.159
 6151SOL    HW219353   3.732   4.974   3.058
 6152SOL     OW19354   1.241   3.860   2.841
 6152SOL    HW119355   1.183   3.856   2.759
 6152SOL    HW219356   1.299   3.779   2.845
 6153SOL     OW19357   5.004   6.174   1.134
 6153SOL    HW119358   4.912   6.140   1.153
 6153SOL    HW219359   5.009   6.206   1.039
 6154SOL     OW19360   5.125   4.184   2.593
 6154SOL    HW119361   5.126   4.241   2.511
 6154SOL    HW219362   5.172   4.098   2.574
 6155SOL     OW19363   1.803   1.248   3.744
 6155SOL    HW119364   1.852   1.216   3.825
 6155SOL    HW219365   1.860   1.235   3.663
 6156SOL     OW19366   5.321   4.262   2.359
 6156SOL    HW119367   5.414   4.248   2.327
 6156SOL    HW219368   5.269   4.177   2.351
 6157SOL     OW19369   0.508   3.176   1.058
 6157SOL    HW119370   0.464   3.263   1.081
 6157SOL    HW219371   0.484   3.107   1.126
 6158SOL     OW19372   3.025   1.878   5.376
 6158SOL    HW119373   3.066   1.931   5.450
 6158SOL    HW219374   3.060   1.911   5.288
 6159SOL     OW19375   5.591   2.802   0.018
 6159SOL    HW119376   5.625   2.750   6.967
 6159SOL    HW219377   5.491   2.802   0.017
 6160SOL     OW19378   0.374   0.140   1.336
 6160SOL    HW119379   0.421   0.063   1.294
 6160SOL    HW219380   0.302   0.106   1.397
 6161SOL     OW19381   4.606   3.611   6.854
 6161SOL    HW119382   4.605   3.688   6.789
 6161SOL    HW219383   4.617   3.646   6.947
 6162SOL     OW19384   6.783   5.764   1.805
 6162SOL    HW119385   6.808   5.679   1.759
 6162SOL    HW219386   6.698   5.799   1.767
 6163SOL     OW19387   6.266   6.052   2.728
 6163SOL    HW119388   6.264   6.149   2.752
 6163SOL    HW219389   6.176   6.012   2.746
 6164SOL     OW19390   3.287   3.816   4.002
 6164SOL    HW119391   3.320   3.733   4.047
 6164SOL    HW219392   3.338   3.895   4.036
 6165SOL     OW19393   3.598   1.250   0.150
 6165SOL    HW119394   3.682   1.267   0.098
 6165SOL    HW219395   3.571   1.332   0.199
 6166SOL     OW19396   2.937   1.990   6.217
 6166SOL    HW119397   2.884   1.931   6.156
 6166SOL    HW219398   2.943   1.947   6.308
 6167SOL     OW19399   1.667   3.286   3.339
 6167SOL    HW119400   1.588   3.285   3.278
 6167SOL    HW219401   1.718   3.371   3.326
 6168SOL     OW19402   0.254   3.722   4.226
 6168SOL    HW119403   0.261   3.627   4.194
 6168SOL    HW219404   0.336   3.745   4.278
 6169SOL     OW19405   2.532   0.680   6.920
 6169SOL    HW119406   2.436   0.678   6.951
 6169SOL    HW219407   2.537   0.643   6.827
 6170SOL     OW19408   2.800   4.491   0.850
 6170SOL    HW119409   2.708   4.520   0.823
 6170SOL    HW219410   2.827   4.410   0.798
 6171SOL     OW19411   2.192   3.823   1.821
 6171SOL    HW119412   2.097   3.823   1.789
 6171SOL    HW219413   2.202   3.890   1.895
 6172SOL     OW19414   2.623   5.521   2.064
 6172SOL    HW119415   2.643   5.442   2.006
 6172SOL    HW219416   2.540   5.566   2.031
 6173SOL     OW19417   1.477   5.931   2.379
 6173SOL    HW119418   1.569   5.900   2.403
 6173SOL    HW219419   1.413   5.855   2.385
 6174SOL     OW19420   5.579   4.156   1.728
 6174SOL    HW119421   5.493   4.107   1.737
 6174SOL    HW219422   5.563   4.245   1.686
 6175SOL     OW19423   5.544   0.263   4.042
 6175SOL    HW119424   5.561   0.193   4.112
 6175SOL    HW219425   5.465   0.318   4.070
 6176SOL     OW19426   4.895   3.178   6.400
 6176SOL    HW119427   4.817   3.240   6.412
 6176SOL    HW219428   4.951   3.210   6.323
 6177SOL     OW19429   6.793   3.136   2.613
 6177SOL    HW119430   6.743   3.184   2.685
 6177SOL    HW219431   6.740   3.056   2.584
 6178SOL     OW19432   5.811   3.434   1.743
 6178SOL    HW119433   5.725   3.467   1.704
 6178SOL    HW219434   5.793   3.359   1.806
 6179SOL     OW19435   0.696   1.692   5.027
 6179SOL    HW119436   0.763   1.700   4.953
 6179SOL    HW219437   0.669   1.783   5.058
 6180SOL     OW19438   3.385   0.248   6.168
 6180SOL    HW119439   3.341   0.328   6.208
 6180SOL    HW219440   3.484   0.255   6.182
 6181SOL     OW19441   4.399   5.932   6.795
 6181SOL    HW119442   4.313   5.962   6.753
 6181SOL    HW219443   4.380   5.891   6.884
 6182SOL     OW19444   5.198   6.553   5.992
 6182SOL    HW119445   5.110   6.598   5.977
 6182SOL    HW219446   5.249   6.548   5.906
 6183SOL     OW19447   3.686   0.962   2.670
 6183SOL    HW119448   3.744   0.917   2.738
 6183SOL    HW219449   3.652   0.895   2.605
 6184SOL     OW19450   5.934   0.095   6.380
 6184SOL    HW119451   5.915   0.061   6.288
 6184SOL    HW219452   5.848   0.116   6.426
 6185SOL     OW19453   1.455   3.047   5.931
 6185SOL    HW119454   1.485   2.952   5.923
 6185SOL    HW219455   1.375   3.061   5.873
 6186SOL     OW19456   5.165   0.092   4.596
 6186SOL    HW119457   5.205   0.180   4.567
 6186SOL    HW219458   5.165   0.029   4.519
 6187SOL     OW19459   3.002   4.910   4.784
 6187SOL    HW119460   3.014   4.925   4.882
 6187SOL    HW219461   2.951   4.825   4.769
 6188SOL     OW19462   2.764   0.071   1.444
 6188SOL    HW119463   2.749   0.022   1.530
 6188SOL    HW219464   2.729   0.016   1.368
 6189SOL     OW19465   5.166   4.593   3.404
 6189SOL    HW119466   5.134   4.688   3.405
 6189SOL    HW219467   5.089   4.532   3.422
 6190SOL     OW19468   4.994   2.636   5.461
 6190SOL    HW119469   5.027   2.633   5.555
 6190SOL    HW219470   4.919   2.701   5.453
 6191SOL     OW19471   6.230   2.200   6.406
 6191SOL    HW119472   6.268   2.109   6.393
 6191SOL    HW219473   6.134   2.201   6.378
 6192SOL     OW19474   3.192   2.111   0.565
 6192SOL    HW119475   3.203   2.210   0.553
 6192SOL    HW219476   3.282   2.068   0.569
 6193SOL     OW19477   6.329   6.670   1.347
 6193SOL    HW119478   6.340   6.571   1.351
 6193SOL    HW219479   6.380   6.712   1.422
 6194SOL     OW19480   1.488   0.536   0.499
 6194SOL    HW119481   1.475   0.439   0.520
 6194SOL    HW219482   1.569   0.569   0.546
 6195SOL     OW19483   2.737   6.915   5.899
 6195SOL    HW119484   2.640   6.927   5.876
 6195SOL    HW219485   2.747   6.907   5.998
 6196SOL     OW19486   0.065   1.218   5.995
 6196SOL    HW119487   0.133   1.157   6.035
 6196SOL    HW219488   0.024   1.274   6.068
 6197SOL     OW19489   2.257   3.054   0.780
 6197SOL    HW119490   2.283   3.117   0.853
 6197SOL    HW219491   2.243   2.963   0.818
 6198SOL     OW19492   3.681   5.109   2.639
 6198SOL    HW119493   3.644   5.193   2.680
 6198SOL    HW219494   3.650   5.030   2.692
 6199SOL     OW19495   0.781   0.857   6.229
 6199SOL    HW119496   0.779   0.890   6.323
 6199SOL    HW219497   0.845   0.780   6.221
 6200SOL     OW19498   4.028   1.095   5.932
 6200SOL    HW119499   3.981   1.029   5.991
 6200SOL    HW219500   3.966   1.127   5.861
 6201SOL     OW19501   2.369   4.309   4.051
 6201SOL    HW119502   2.460   4.331   4.086
 6201SOL    HW219503   2.318   4.393   4.036
 6202SOL     OW19504   2.886   2.574   1.256
 6202SOL    HW119505   2.829   2.500   1.293
 6202SOL    HW219506   2.981   2.560   1.286
 6203SOL     OW19507   5.515   2.162   5.248
 6203SOL    HW119508   5.481   2.243   5.296
 6203SOL    HW219509   5.605   2.137   5.284
 6204SOL     OW19510   1.578   6.474   5.965
 6204SOL    HW119511   1.587   6.379   5.995
 6204SOL    HW219512   1.668   6.509   5.940
 6205SOL     OW19513   5.266   6.363   0.068
 6205SOL    HW119514   5.316   6.283   0.036
 6205SOL    HW219515   5.330   6.436   0.090
 6206SOL     OW19516   5.601   0.023   3.257
 6206SOL    HW119517   5.504   0.041   3.249
 6206SOL    HW219518   5.652   0.078   3.191
 6207SOL     OW19519   1.862   4.277   4.650
 6207SOL    HW119520   1.851   4.358   4.593
 6207SOL    HW219521   1.915   4.300   4.732
 6208SOL     OW19522   5.797   5.821   6.027
 6208SOL    HW119523   5.844   5.877   6.095
 6208SOL    HW219524   5.836   5.729   6.027
 6209SOL     OW19525   3.097   5.067   1.180
 6209SOL    HW119526   3.176   5.101   1.129
 6209SOL    HW219527   3.017   5.068   1.121
 6210SOL     OW19528   6.888   4.952   2.894
 6210SOL    HW119529   6.949   4.898   2.952
 6210SOL    HW219530   6.875   5.043   2.933
 6211SOL     OW19531   2.634   0.475   5.157
 6211SOL    HW119532   2.540   0.443   5.151
 6211SOL    HW219533   2.634   0.574   5.173
 6212SOL     OW19534   6.749   0.157   3.797
 6212SOL    HW119535   6.845   0.132   3.782
 6212SOL    HW219536   6.692   0.076   3.782
 6213SOL     OW19537   6.707   0.349   0.207
 6213SOL    HW119538   6.719   0.318   0.302
 6213SOL    HW219539   6.790   0.395   0.176
 6214SOL     OW19540   5.862   5.069   2.332
 6214SOL    HW119541   5.866   5.119   2.246
 6214SOL    HW219542   5.851   4.971   2.314
 6215SOL     OW19543   2.500   5.414   1.000
 6215SOL    HW119544   2.532   5.443   1.091
 6215SOL    HW219545   2.484   5.495   0.943
 6216SOL     OW19546   6.690   1.967   2.661
 6216SOL    HW119547   6.765   2.023   2.696
 6216SOL    HW219548   6.701   1.955   2.562
 6217SOL     OW19549   5.309   2.070   1.639
 6217SOL    HW119550   5.275   1.986   1.681
 6217SOL    HW219551   5.233   2.133   1.624
 6218SOL     OW19552   3.892   5.123   4.258
 6218SOL    HW119553   3.866   5.167   4.344
 6218SOL    HW219554   3.948   5.042   4.278
 6219SOL     OW19555   0.503   1.368   4.015
 6219SOL    HW119556   0.427   1.304   4.021
 6219SOL    HW219557   0.587   1.318   3.991
 6220SOL     OW19558   1.677   3.747   5.226
 6220SOL    HW119559   1.591   3.797   5.235
 6220SOL    HW219560   1.706   3.748   5.130
 6221SOL     OW19561   4.096   4.928   4.308
 6221SOL    HW119562   4.124   4.871   4.385
 6221SOL    HW219563   4.152   5.012   4.306
 6222SOL     OW19564   0.260   1.655   1.360
 6222SOL    HW119565   0.311   1.594   1.421
 6222SOL    HW219566   0.320   1.727   1.326
 6223SOL     OW19567   5.036   4.068   4.553
 6223SOL    HW119568   5.005   3.974   4.541
 6223SOL    HW219569   5.119   4.070   4.608
 6224SOL     OW19570   2.235   0.297   4.702
 6224SOL    HW119571   2.285   0.287   4.616
 6224SOL    HW219572   2.297   0.327   4.774
 6225SOL     OW19573   4.184   2.087   6.899
 6225SOL    HW119574   4.098   2.126   6.867
 6225SOL    HW219575   4.175   1.988   6.909
 6226SOL     OW19576   6.673   6.796   4.442
 6226SOL    HW119577   6.679   6.895   4.437
 6226SOL    HW219578   6.637   6.769   4.532
 6227SOL     OW19579   2.827   4.750   0.152
 6227SOL    HW119580   2.876   4.805   0.084
 6227SOL    HW219581   2.729   4.765   0.142
 6228SOL     OW19582   6.761   1.373   2.513
 6228SOL    HW119583   6.750   1.392   2.611
 6228SOL    HW219584   6.672   1.348   2.475
 6229SOL     OW19585   1.622   2.628   1.906
 6229SOL    HW119586   1.572   2.637   1.992
 6229SOL    HW219587   1.701   2.568   1.919
 6230SOL     OW19588   2.143   2.385   3.225
 6230SOL    HW119589   2.170   2.306   3.169
 6230SOL    HW219590   2.225   2.433   3.256
 6231SOL     OW19591   6.712   5.582   1.421
 6231SOL    HW119592   6.639   5.650   1.420
 6231SOL    HW219593   6.776   5.603   1.495
 6232SOL     OW19594   1.182   1.375   6.969
 6232SOL    HW119595   1.203   1.282   6.997
 6232SOL    HW219596   1.186   1.381   6.869
 6233SOL     OW19597   4.453   1.261   6.598
 6233SOL    HW119598   4.385   1.197   6.562
 6233SOL    HW219599   4.487   1.227   6.686
 6234SOL     OW19600   1.762   2.593   3.746
 6234SOL    HW119601   1.832   2.646   3.699
 6234SOL    HW219602   1.742   2.635   3.835
 6235SOL     OW19603   1.997   5.833   3.013
 6235SOL    HW119604   1.947   5.890   3.079
 6235SOL    HW219605   2.012   5.886   2.929
 6236SOL     OW19606   6.504   3.933   0.308
 6236SOL    HW119607   6.414   3.889   0.305
 6236SOL    HW219608   6.500   4.021   0.260
 6237SOL     OW19609   3.976   6.243   6.797
 6237SOL    HW119610   3.944   6.333   6.769
 6237SOL    HW219611   3.898   6.185   6.822
 6238SOL     OW19612   4.617   4.032   1.066
 6238SOL    HW119613   4.706   4.075   1.059
 6238SOL    HW219614   4.614   3.952   1.005
 6239SOL     OW19615   2.373   0.144   3.725
 6239SOL    HW119616   2.308   0.108   3.657
 6239SOL    HW219617   2.398   0.072   3.789
 6240SOL     OW19618   1.666   3.350   0.185
 6240SOL    HW119619   1.677   3.251   0.173
 6240SOL    HW219620   1.630   3.369   0.276
 6241SOL     OW19621   4.685   0.166   1.733
 6241SOL    HW119622   4.712   0.080   1.689
 6241SOL    HW219623   4.606   0.204   1.685
 6242SOL     OW19624   4.003   2.000   3.574
 6242SOL    HW119625   3.907   2.013   3.549
 6242SOL    HW219626   4.013   2.010   3.673
 6243SOL     OW19627   5.516   5.629   2.987
 6243SOL    HW119628   5.579   5.554   3.007
 6243SOL    HW219629   5.550   5.680   2.907
 6244SOL     OW19630   2.127   1.902   2.119
 6244SOL    HW119631   2.182   1.872   2.040
 6244SOL    HW219632   2.186   1.948   2.185
 6245SOL     OW19633   1.994   3.749   0.445
 6245SOL    HW119634   2.089   3.723   0.431
 6245SOL    HW219635   1.936   3.706   0.376
 6246SOL     OW19636   4.627   0.405   0.110
 6246SOL    HW119637   4.665   0.464   0.038
 6246SOL    HW219638   4.658   0.437   0.199
 6247SOL     OW19639   6.836   5.937   2.916
 6247SOL    HW119640   6.935   5.949   2.914
 6247SOL    HW219641   6.807   5.909   3.007
 6248SOL     OW19642   1.121   5.472   1.142
 6248SOL    HW119643   1.046   5.457   1.077
 6248SOL    HW219644   1.090   5.533   1.215
 6249SOL     OW19645   5.947   4.151   6.596
 6249SOL    HW119646   5.972   4.242   6.629
 6249SOL    HW219647   5.875   4.113   6.655
 6250SOL     OW19648   6.169   4.577   5.879
 6250SOL    HW119649   6.228   4.600   5.802
 6250SOL    HW219650   6.221   4.525   5.947
 6251SOL     OW19651   4.523   1.893   0.991
 6251SOL    HW119652   4.541   1.915   1.087
 6251SOL    HW219653   4.484   1.801   0.985
 6252SOL     OW19654   2.016   6.178   5.440
 6252SOL    HW119655   2.114   6.199   5.443
 6252SOL    HW219656   1.987   6.165   5.345
 6253SOL     OW19657   2.692   3.922   1.382
 6253SOL    HW119658   2.750   3.840   1.385
 6253SOL    HW219659   2.628   3.915   1.306
 6254SOL     OW19660   5.101   0.012   0.171
 6254SOL    HW119661   5.175   6.979   0.140
 6254SOL    HW219662   5.055   0.052   0.091
 6255SOL     OW19663   0.065   2.236   3.106
 6255SOL    HW119664   0.025   2.210   3.194
 6255SOL    HW219665   0.010   2.198   3.032
 6256SOL     OW19666   3.636   5.169   4.133
 6256SOL    HW119667   3.722   5.157   4.182
 6256SOL    HW219668   3.635   5.259   4.088
 6257SOL     OW19669   4.391   3.272   0.243
 6257SOL    HW119670   4.316   3.329   0.276
 6257SOL    HW219671   4.420   3.303   0.152
 6258SOL     OW19672   4.761   2.457   2.494
 6258SOL    HW119673   4.825   2.411   2.556
 6258SOL    HW219674   4.785   2.553   2.485
 6259SOL     OW19675   3.034   2.241   1.483
 6259SOL    HW119676   3.130   2.243   1.511
 6259SOL    HW219677   3.026   2.200   1.392
 6260SOL     OW19678   3.589   3.731   0.979
 6260SOL    HW119679   3.568   3.804   0.913
 6260SOL    HW219680   3.506   3.705   1.027
 6261SOL     OW19681   4.704   0.176   6.749
 6261SOL    HW119682   4.609   0.182   6.780
 6261SOL    HW219683   4.729   0.260   6.703
 6262SOL     OW19684   0.505   6.119   5.279
 6262SOL    HW119685   0.464   6.210   5.275
 6262SOL    HW219686   0.459   6.060   5.212
 6263SOL     OW19687   6.406   1.467   0.989
 6263SOL    HW119688   6.502   1.458   0.963
 6263SOL    HW219689   6.399   1.509   1.080
 6264SOL     OW19690   2.266   1.489   6.966
 6264SOL    HW119691   2.188   1.494   6.904
 6264SOL    HW219692   2.304   1.581   6.979
 6265SOL     OW19693   4.983   3.924   1.137
 6265SOL    HW119694   5.017   3.896   1.226
 6265SOL    HW219695   4.883   3.926   1.139
 6266SOL     OW19696   2.992   6.947   2.353
 6266SOL    HW119697   2.909   6.896   2.331
 6266SOL    HW219698   3.016   6.932   2.449
 6267SOL     OW19699   2.751   0.213   0.069
 6267SOL    HW119700   2.694   0.244   0.145
 6267SOL    HW219701   2.703   0.229   7.010
 6268SOL     OW19702   2.574   5.680   3.311
 6268SOL    HW119703   2.561   5.762   3.255
 6268SOL    HW219704   2.495   5.669   3.373
 6269SOL     OW19705   5.921   4.233   0.233
 6269SOL    HW119706   5.959   4.176   0.306
 6269SOL    HW219707   5.974   4.222   0.150
 6270SOL     OW19708   0.592   0.872   4.343
 6270SOL    HW119709   0.637   0.832   4.423
 6270SOL    HW219710   0.519   0.812   4.311
 6271SOL     OW19711   6.388   1.765   1.118
 6271SOL    HW119712   6.420   1.779   1.024
 6271SOL    HW219713   6.299   1.808   1.130
 6272SOL     OW19714   1.993   2.250   3.482
 6272SOL    HW119715   2.036   2.310   3.414
 6272SOL    HW219716   1.966   2.303   3.562
 6273SOL     OW19717   4.235   0.490   2.576
 6273SOL    HW119718   4.199   0.396   2.579
 6273SOL    HW219719   4.195   0.538   2.498
 6274SOL     OW19720   2.893   6.711   6.579
 6274SOL    HW119721   2.924   6.801   6.547
 6274SOL    HW219722   2.906   6.704   6.677
 6275SOL     OW19723   2.992   0.692   4.398
 6275SOL    HW119724   2.959   0.649   4.314
 6275SOL    HW219725   3.056   0.765   4.375
 6276SOL     OW19726   1.220   5.371   3.708
 6276SOL    HW119727   1.139   5.337   3.756
 6276SOL    HW219728   1.193   5.433   3.635
 6277SOL     OW19729   5.639   3.308   4.542
 6277SOL    HW119730   5.582   3.372   4.490
 6277SOL    HW219731   5.734   3.340   4.539
 6278SOL     OW19732   4.261   0.372   3.813
 6278SOL    HW119733   4.163   0.379   3.829
 6278SOL    HW219734   4.300   0.301   3.872
 6279SOL     OW19735   4.804   1.291   0.060
 6279SOL    HW119736   4.850   1.320   0.144
 6279SOL    HW219737   4.717   1.340   0.051
 6280SOL     OW19738   1.013   5.230   5.961
 6280SOL    HW119739   0.941   5.206   6.026
 6280SOL    HW219740   0.975   5.236   5.869
 6281SOL     OW19741   2.812   6.998   5.107
 6281SOL    HW119742   2.744   7.011   5.180
 6281SOL    HW219743   2.767   6.961   5.026
 6282SOL     OW19744   1.266   0.311   3.348
 6282SOL    HW119745   1.265   0.275   3.254
 6282SOL    HW219746   1.250   0.409   3.347
 6283SOL     OW19747   0.756   3.487   5.101
 6283SOL    HW119748   0.659   3.502   5.121
 6283SOL    HW219749   0.780   3.393   5.124
 6284SOL     OW19750   2.541   4.705   6.299
 6284SOL    HW119751   2.599   4.667   6.371
 6284SOL    HW219752   2.460   4.748   6.341
 6285SOL     OW19753   2.239   4.644   2.912
 6285SOL    HW119754   2.326   4.601   2.890
 6285SOL    HW219755   2.255   4.730   2.960
 6286SOL     OW19756   6.397   6.789   4.636
 6286SOL    HW119757   6.316   6.811   4.582
 6286SOL    HW219758   6.408   6.857   4.709
 6287SOL     OW19759   3.615   4.881   2.740
 6287SOL    HW119760   3.565   4.887   2.827
 6287SOL    HW219761   3.562   4.826   2.675
 6288SOL     OW19762   5.559   3.581   1.121
 6288SOL    HW119763   5.623   3.651   1.152
 6288SOL    HW219764   5.578   3.559   1.025
 6289SOL     OW19765   1.078   6.857   2.412
 6289SOL    HW119766   1.176   6.875   2.398
 6289SOL    HW219767   1.036   6.834   2.324
 6290SOL     OW19768   5.966   3.564   3.680
 6290SOL    HW119769   6.037   3.595   3.742
 6290SOL    HW219770   6.005   3.553   3.588
 6291SOL     OW19771   4.129   3.458   3.281
 6291SOL    HW119772   4.067   3.515   3.335
 6291SOL    HW219773   4.111   3.361   3.300
 6292SOL     OW19774   0.130   1.302   1.816
 6292SOL    HW119775   0.067   1.308   1.893
 6292SOL    HW219776   0.092   1.352   1.738
 6293SOL     OW19777   5.434   4.944   0.500
 6293SOL    HW119778   5.452   5.042   0.491
 6293SOL    HW219779   5.472   4.895   0.421
 6294SOL     OW19780   3.861   5.717   2.223
 6294SOL    HW119781   3.785   5.780   2.208
 6294SOL    HW219782   3.830   5.639   2.276
 6295SOL     OW19783   6.880   6.214   5.768
 6295SOL    HW119784   6.813   6.259   5.710
 6295SOL    HW219785   6.837   6.187   5.854
 6296SOL     OW19786   6.665   0.735   2.528
 6296SOL    HW119787   6.631   0.790   2.604
 6296SOL    HW219788   6.650   0.783   2.442
 6297SOL     OW19789   5.422   0.883   5.751
 6297SOL    HW119790   5.346   0.868   5.687
 6297SOL    HW219791   5.416   0.816   5.825
 6298SOL     OW19792   6.916   2.020   3.672
 6298SOL    HW119793   6.841   2.085   3.676
 6298SOL    HW219794   6.993   2.060   3.622
 6299SOL     OW19795   6.184   2.766   0.691
 6299SOL    HW119796   6.282   2.770   0.710
 6299SOL    HW219797   6.165   2.687   0.632
 6300SOL     OW19798   5.020   1.392   3.383
 6300SOL    HW119799   4.969   1.325   3.436
 6300SOL    HW219800   5.067   1.455   3.445
 6301SOL     OW19801   3.271   0.748   1.066
 6301SOL    HW119802   3.240   0.668   1.015
 6301SOL    HW219803   3.216   0.827   1.039
 6302SOL     OW19804   6.647   0.483   2.413
 6302SOL    HW119805   6.677   0.570   2.451
 6302SOL    HW219806   6.558   0.494   2.369
 6303SOL     OW19807   1.729   5.928   5.009
 6303SOL    HW119808   1.642   5.945   5.056
 6303SOL    HW219809   1.715   5.932   4.911
 6304SOL     OW19810   4.236   0.924   5.023
 6304SOL    HW119811   4.159   0.982   5.051
 6304SOL    HW219812   4.299   0.912   5.099
 6305SOL     OW19813   5.147   1.450   2.451
 6305SOL    HW119814   5.084   1.528   2.446
 6305SOL    HW219815   5.209   1.462   2.529
 6306SOL     OW19816   6.453   2.893   4.383
 6306SOL    HW119817   6.471   2.847   4.296
 6306SOL    HW219818   6.535   2.891   4.440
 6307SOL     OW19819   1.843   4.631   0.127
 6307SOL    HW119820   1.906   4.638   0.204
 6307SOL    HW219821   1.786   4.713   0.123
 6308SOL     OW19822   3.837   2.770   5.963
 6308SOL    HW119823   3.763   2.703   5.974
 6308SOL    HW219824   3.841   2.801   5.868
 6309SOL     OW19825   5.889   2.171   5.092
 6309SOL    HW119826   5.825   2.189   5.018
 6309SOL    HW219827   5.947   2.093   5.067
 6310SOL     OW19828   0.232   5.276   4.244
 6310SOL    HW119829   0.190   5.188   4.222
 6310SOL    HW219830   0.311   5.291   4.183
 6311SOL     OW19831   6.088   6.659   4.244
 6311SOL    HW119832   6.082   6.559   4.241
 6311SOL    HW219833   6.110   6.694   4.152
 6312SOL     OW19834   5.190   4.425   5.630
 6312SOL    HW119835   5.112   4.456   5.576
 6312SOL    HW219836   5.245   4.362   5.577
 6313SOL     OW19837   2.316   5.161   3.928
 6313SOL    HW119838   2.380   5.085   3.935
 6313SOL    HW219839   2.230   5.129   3.888
 6314SOL     OW19840   1.289   0.501   3.592
 6314SOL    HW119841   1.371   0.446   3.605
 6314SOL    HW219842   1.315   0.594   3.563
 6315SOL     OW19843   2.373   4.147   6.941
 6315SOL    HW119844   2.326   4.199   6.869
 6315SOL    HW219845   2.363   4.049   6.923
 6316SOL     OW19846   4.370   1.557   5.581
 6316SOL    HW119847   4.445   1.492   5.568
 6316SOL    HW219848   4.402   1.634   5.636
 6317SOL     OW19849   5.910   5.204   4.579
 6317SOL    HW119850   5.888   5.118   4.533
 6317SOL    HW219851   5.972   5.186   4.655
 6318SOL     OW19852   2.005   2.343   4.608
 6318SOL    HW119853   2.021   2.319   4.704
 6318SOL    HW219854   1.988   2.259   4.556
 6319SOL     OW19855   0.608   1.731   2.806
 6319SOL    HW119856   0.624   1.714   2.708
 6319SOL    HW219857   0.695   1.747   2.852
 6320SOL     OW19858   0.254   1.662   3.339
 6320SOL    HW119859   0.197   1.742   3.360
 6320SOL    HW219860   0.349   1.683   3.361
 6321SOL     OW19861   2.788   3.912   5.972
 6321SOL    HW119862   2.771   3.997   6.023
 6321SOL    HW219863   2.885   3.889   5.977
 6322SOL     OW19864   2.320   0.835   0.012
 6322SOL    HW119865   2.369   0.922   0.021
 6322SOL    HW219866   2.223   0.853   7.025
 6323SOL     OW19867   4.311   1.425   1.314
 6323SOL    HW119868   4.392   1.385   1.357
 6323SOL    HW219869   4.274   1.497   1.372
 6324SOL     OW19870   3.751   2.096   6.467
 6324SOL    HW119871   3.670   2.154   6.482
 6324SOL    HW219872   3.833   2.154   6.464
 6325SOL     OW19873   1.722   2.629   2.716
 6325SOL    HW119874   1.672   2.607   2.633
 6325SOL    HW219875   1.658   2.660   2.786
 6326SOL     OW19876   4.418   6.275   1.249
 6326SOL    HW119877   4.424   6.181   1.215
 6326SOL    HW219878   4.506   6.301   1.289
 6327SOL     OW19879   4.008   5.375   5.555
 6327SOL    HW119880   3.941   5.345   5.488
 6327SOL    HW219881   3.987   5.333   5.644
 6328SOL     OW19882   3.086   4.805   6.527
 6328SOL    HW119883   3.040   4.879   6.478
 6328SOL    HW219884   3.126   4.741   6.461
 6329SOL     OW19885   1.059   1.454   2.711
 6329SOL    HW119886   1.070   1.479   2.807
 6329SOL    HW219887   0.968   1.481   2.680
 6330SOL     OW19888   3.731   0.247   0.490
 6330SOL    HW119889   3.668   0.290   0.555
 6330SOL    HW219890   3.778   0.317   0.437
 6331SOL     OW19891   5.253   2.769   2.242
 6331SOL    HW119892   5.195   2.688   2.250
 6331SOL    HW219893   5.322   2.768   2.314
 6332SOL     OW19894   5.244   6.589   2.526
 6332SOL    HW119895   5.189   6.589   2.442
 6332SOL    HW219896   5.184   6.586   2.605
 6333SOL     OW19897   1.691   4.892   2.933
 6333SOL    HW119898   1.784   4.902   2.897
 6333SOL    HW219899   1.637   4.973   2.909
 6334SOL     OW19900   2.828   1.800   2.783
 6334SOL    HW119901   2.749   1.825   2.726
 6334SOL    HW219902   2.799   1.796   2.879
 6335SOL     OW19903   0.455   1.934   0.347
 6335SOL    HW119904   0.372   1.880   0.337
 6335SOL    HW219905   0.521   1.907   0.277
 6336SOL     OW19906   1.113   3.447   5.349
 6336SOL    HW119907   1.051   3.523   5.330
 6336SOL    HW219908   1.085   3.367   5.297
 6337SOL     OW19909   6.969   4.836   4.604
 6337SOL    HW119910   7.001   4.744   4.624
 6337SOL    HW219911   6.939   4.880   4.689
 6338SOL     OW19912   3.659   1.077   4.075
 6338SOL    HW119913   3.697   1.123   4.155
 6338SOL    HW219914   3.733   1.057   4.010
 6339SOL     OW19915   0.264   2.728   4.463
 6339SOL    HW119916   0.343   2.670   4.482
 6339SOL    HW219917   0.181   2.683   4.499
 6340SOL     OW19918   2.274   5.595   4.226
 6340SOL    HW119919   2.275   5.680   4.279
 6340SOL    HW219920   2.299   5.519   4.286
 6341SOL     OW19921   6.514   5.393   2.192
 6341SOL    HW119922   6.598   5.398   2.246
 6341SOL    HW219923   6.484   5.485   2.167
 6342SOL     OW19924   0.978   3.471   0.207
 6342SOL    HW119925   0.997   3.569   0.217
 6342SOL    HW219926   1.064   3.421   0.214
 6343SOL     OW19927   4.687   0.951   0.661
 6343SOL    HW119928   4.667   0.856   0.638
 6343SOL    HW219929   4.602   0.998   0.686
 6344SOL     OW19930   6.723   4.523   4.524
 6344SOL    HW119931   6.696   4.473   4.442
 6344SOL    HW219932   6.670   4.608   4.530
 6345SOL     OW19933   2.611   2.459   1.958
 6345SOL    HW119934   2.698   2.507   1.958
 6345SOL    HW219935   2.618   2.376   2.013
 6346SOL     OW19936   0.377   5.431   4.040
 6346SOL    HW119937   0.325   5.412   3.957
 6346SOL    HW219938   0.409   5.526   4.039
 6347SOL     OW19939   3.163   0.325   0.736
 6347SOL    HW119940   3.112   0.273   0.667
 6347SOL    HW219941   3.120   0.315   0.825
 6348SOL     OW19942   0.656   2.451   4.911
 6348SOL    HW119943   0.577   2.401   4.947
 6348SOL    HW219944   0.673   2.423   4.817
 6349SOL     OW19945   1.478   0.998   0.594
 6349SOL    HW119946   1.427   0.916   0.568
 6349SOL    HW219947   1.415   1.071   0.620
 6350SOL     OW19948   0.010   5.213   3.430
 6350SOL    HW119949   6.989   5.293   3.394
 6350SOL    HW219950   0.044   5.233   3.522
 6351SOL     OW19951   6.731   1.387   2.819
 6351SOL    HW119952   6.761   1.314   2.881
 6351SOL    HW219953   6.684   1.458   2.871
 6352SOL     OW19954   0.465   5.219   2.401
 6352SOL    HW119955   0.468   5.314   2.368
 6352SOL    HW219956   0.370   5.192   2.416
 6353SOL     OW19957   0.624   6.319   1.877
 6353SOL    HW119958   0.530   6.317   1.845
 6353SOL    HW219959   0.626   6.306   1.977
 6354SOL     OW19960   0.211   6.884   4.267
 6354SOL    HW119961   0.172   6.933   4.189
 6354SOL    HW219962   0.143   6.821   4.304
 6355SOL     OW19963   0.960   2.815   2.114
 6355SOL    HW119964   1.045   2.839   2.162
 6355SOL    HW219965   0.901   2.895   2.109
 6356SOL     OW19966   3.293   3.363   0.698
 6356SOL    HW119967   3.382   3.405   0.682
 6356SOL    HW219968   3.300   3.264   0.686
 6357SOL     OW19969   5.193   2.060   1.010
 6357SOL    HW119970   5.099   2.030   1.022
 6357SOL    HW219971   5.250   1.983   0.984
 6358SOL     OW19972   0.847   3.108   4.444
 6358SOL    HW119973   0.799   3.087   4.359
 6358SOL    HW219974   0.827   3.038   4.513
 6359SOL     OW19975   6.938   1.686   6.760
 6359SOL    HW119976   6.959   1.658   6.666
 6359SOL    HW219977   6.841   1.672   6.779
 6360SOL     OW19978   2.978   5.422   4.096
 6360SOL    HW119979   3.011   5.513   4.122
 6360SOL    HW219980   2.972   5.416   3.996
 6361SOL     OW19981   2.943   6.589   5.918
 6361SOL    HW119982   2.852   6.611   5.883
 6361SOL    HW219983   2.951   6.620   6.013
 6362SOL     OW19984   6.408   5.084   6.243
 6362SOL    HW119985   6.344   5.149   6.201
 6362SOL    HW219986   6.358   5.019   6.299
 6363SOL     OW19987   0.701   5.803   4.326
 6363SOL    HW119988   0.667   5.890   4.363
 6363SOL    HW219989   0.655   5.727   4.371
 6364SOL     OW19990   2.002   2.804   6.671
 6364SOL    HW119991   1.942   2.799   6.591
 6364SOL    HW219992   2.095   2.826   6.641
 6365SOL     OW19993   4.656   5.099   2.705
 6365SOL    HW119994   4.628   5.096   2.801
 6365SOL    HW219995   4.662   5.006   2.669
 6366SOL     OW19996   0.183   4.548   4.960
 6366SOL    HW119997   0.168   4.574   4.865
 6366SOL    HW219998   0.232   4.620   5.008
 6367SOL     OW19999   6.007   6.320   2.653
 6367SOL    HW120000   5.969   6.230   2.677
 6367SOL    HW220001   6.084   6.340   2.714
 6368SOL     OW20002   3.634   0.783   3.356
 6368SOL    HW120003   3.556   0.721   3.350
 6368SOL    HW220004   3.716   0.738   3.320
 6369SOL     OW20005   2.254   5.292   5.542
 6369SOL    HW120006   2.273   5.194   5.551
 6369SOL    HW220007   2.200   5.309   5.460
 6370SOL     OW20008   5.198   2.753   1.812
 6370SOL    HW120009   5.238   2.783   1.725
 6370SOL    HW220010   5.101   2.779   1.814
 6371SOL     OW20011   4.631   1.650   4.241
 6371SOL    HW120012   4.561   1.613   4.180
 6371SOL    HW220013   4.596   1.651   4.335
 6372SOL     OW20014   3.036   6.757   2.588
 6372SOL    HW120015   3.047   6.698   2.508
 6372SOL    HW220016   3.124   6.797   2.611
 6373SOL     OW20017   3.575   5.339   6.976
 6373SOL    HW120018   3.631   5.287   0.015
 6373SOL    HW220019   3.581   5.296   6.886
 6374SOL     OW20020   3.024   3.124   2.736
 6374SOL    HW120021   2.944   3.148   2.790
 6374SOL    HW220022   3.088   3.071   2.792
 6375SOL     OW20023   1.892   5.865   2.134
 6375SOL    HW120024   1.850   5.777   2.155
 6375SOL    HW220025   1.927   5.907   2.218
 6376SOL     OW20026   1.176   1.885   5.031
 6376SOL    HW120027   1.149   1.973   5.070
 6376SOL    HW220028   1.194   1.895   4.933
 6377SOL     OW20029   1.058   2.060   3.556
 6377SOL    HW120030   1.145   2.102   3.530
 6377SOL    HW220031   1.073   1.964   3.578
 6378SOL     OW20032   4.372   5.396   3.474
 6378SOL    HW120033   4.273   5.409   3.468
 6378SOL    HW220034   4.401   5.335   3.400
 6379SOL     OW20035   2.330   5.003   1.952
 6379SOL    HW120036   2.305   4.987   2.047
 6379SOL    HW220037   2.405   5.068   1.948
 6380SOL     OW20038   1.312   0.799   5.944
 6380SOL    HW120039   1.287   0.879   5.889
 6380SOL    HW220040   1.255   0.721   5.918
 6381SOL     OW20041   3.087   3.327   2.030
 6381SOL    HW120042   3.087   3.422   1.997
 6381SOL    HW220043   3.023   3.273   1.976
 6382SOL     OW20044   1.010   4.985   4.693
 6382SOL    HW120045   0.961   5.037   4.763
 6382SOL    HW220046   1.011   5.036   4.607
 6383SOL     OW20047   3.917   1.362   3.861
 6383SOL    HW120048   3.914   1.307   3.777
 6383SOL    HW220049   3.824   1.382   3.890
 6384SOL     OW20050   0.156   4.746   2.337
 6384SOL    HW120051   0.212   4.796   2.271
 6384SOL    HW220052   0.087   4.693   2.289
 6385SOL     OW20053   0.893   5.501   5.153
 6385SOL    HW120054   0.801   5.494   5.192
 6385SOL    HW220055   0.947   5.565   5.207
 6386SOL     OW20056   2.416   5.681   1.697
 6386SOL    HW120057   2.409   5.690   1.598
 6386SOL    HW220058   2.453   5.765   1.736
 6387SOL     OW20059   6.345   0.692   5.373
 6387SOL    HW120060   6.353   0.601   5.335
 6387SOL    HW220061   6.432   0.740   5.366
 6388SOL     OW20062   2.154   5.109   2.892
 6388SOL    HW120063   2.245   5.098   2.854
 6388SOL    HW220064   2.150   5.194   2.945
 6389SOL     OW20065   1.011   4.785   1.798
 6389SOL    HW120066   1.098   4.749   1.832
 6389SOL    HW220067   0.974   4.850   1.865
 6390SOL     OW20068   0.873   2.905   4.264
 6390SOL    HW120069   0.915   2.987   4.224
 6390SOL    HW220070   0.935   2.827   4.254
 6391SOL     OW20071   3.751   0.815   0.047
 6391SOL    HW120072   3.666   0.865   0.031
 6391SOL    HW220073   3.732   0.719   0.066
 6392SOL     OW20074   1.592   6.002   4.258
 6392SOL    HW120075   1.624   5.934   4.325
 6392SOL    HW220076   1.498   5.981   4.233
 6393SOL     OW20077   5.143   1.583   0.102
 6393SOL    HW120078   5.093   1.547   0.023
 6393SOL    HW220079   5.147   1.513   0.173
 6394SOL     OW20080   3.310   4.767   1.851
 6394SOL    HW120081   3.396   4.718   1.834
 6394SOL    HW220082   3.322   4.830   1.928
 6395SOL     OW20083   5.770   2.230   0.346
 6395SOL    HW120084   5.722   2.191   0.268
 6395SOL    HW220085   5.823   2.159   0.392
 6396SOL     OW20086   6.522   3.621   6.061
 6396SOL    HW120087   6.473   3.708   6.062
 6396SOL    HW220088   6.619   3.637   6.076
 6397SOL     OW20089   6.278   1.185   0.594
 6397SOL    HW120090   6.206   1.254   0.587
 6397SOL    HW220091   6.300   1.169   0.690
 6398SOL     OW20092   3.878   0.906   1.448
 6398SOL    HW120093   3.891   0.919   1.349
 6398SOL    HW220094   3.955   0.949   1.496
 6399SOL     OW20095   2.233   6.627   6.482
 6399SOL    HW120096   2.300   6.562   6.516
 6399SOL    HW220097   2.268   6.720   6.492
 6400SOL     OW20098   2.867   5.056   4.579
 6400SOL    HW120099   2.958   5.078   4.615
 6400SOL    HW220100   2.838   4.967   4.614
 6401SOL     OW20101   0.648   4.751   4.875
 6401SOL    HW120102   0.658   4.841   4.833
 6401SOL    HW220103   0.737   4.718   4.905
 6402SOL     OW20104   1.976   2.584   3.108
 6402SOL    HW120105   2.001   2.576   3.011
 6402SOL    HW220106   2.030   2.520   3.161
 6403SOL     OW20107   1.218   7.016   1.392
 6403SOL    HW120108   1.168   0.014   1.309
 6403SOL    HW220109   1.299   0.048   1.401
 6404SOL     OW20110   4.951   0.942   2.841
 6404SOL    HW120111   5.001   0.988   2.914
 6404SOL    HW220112   4.948   0.843   2.859
 6405SOL     OW20113   3.625   0.619   2.206
 6405SOL    HW120114   3.714   0.598   2.246
 6405SOL    HW220115   3.620   0.717   2.184
 6406SOL     OW20116   2.885   2.019   3.849
 6406SOL    HW120117   2.866   1.981   3.758
 6406SOL    HW220118   2.945   1.956   3.898
 6407SOL     OW20119   5.161   5.580   6.417
 6407SOL    HW120120   5.182   5.658   6.357
 6407SOL    HW220121   5.175   5.495   6.367
 6408SOL     OW20122   5.539   2.401   0.738
 6408SOL    HW120123   5.624   2.415   0.688
 6408SOL    HW220124   5.488   2.487   0.743
 6409SOL     OW20125   0.856   5.008   1.941
 6409SOL    HW120126   0.776   4.951   1.956
 6409SOL    HW220127   0.924   4.988   2.012
 6410SOL     OW20128   0.954   1.187   1.908
 6410SOL    HW120129   0.992   1.279   1.901
 6410SOL    HW220130   0.938   1.150   1.816
 6411SOL     OW20131   1.274   1.525   3.714
 6411SOL    HW120132   1.291   1.591   3.641
 6411SOL    HW220133   1.195   1.468   3.691
 6412SOL     OW20134   6.074   2.743   4.585
 6412SOL    HW120135   5.996   2.784   4.631
 6412SOL    HW220136   6.043   2.684   4.511
 6413SOL     OW20137   0.326   4.856   0.846
 6413SOL    HW120138   0.405   4.795   0.852
 6413SOL    HW220139   0.245   4.802   0.823
 6414SOL     OW20140   6.529   0.156   3.070
 6414SOL    HW120141   6.622   0.126   3.089
 6414SOL    HW220142   6.492   0.105   2.992
 6415SOL     OW20143   1.859   1.710   2.410
 6415SOL    HW120144   1.793   1.750   2.347
 6415SOL    HW220145   1.817   1.634   2.460
 6416SOL     OW20146   2.603   6.577   6.306
 6416SOL    HW120147   2.666   6.499   6.301
 6416SOL    HW220148   2.518   6.554   6.259
 6417SOL     OW20149   0.728   6.560   3.972
 6417SOL    HW120150   0.765   6.514   3.891
 6417SOL    HW220151   0.774   6.648   3.984
 6418SOL     OW20152   6.923   5.407   2.827
 6418SOL    HW120153   6.862   5.486   2.820
 6418SOL    HW220154   6.885   5.331   2.774
 6419SOL     OW20155   2.328   3.804   0.575
 6419SOL    HW120156   2.417   3.770   0.606
 6419SOL    HW220157   2.256   3.742   0.604
 6420SOL     OW20158   0.920   3.039   6.675
 6420SOL    HW120159   0.947   2.946   6.698
 6420SOL    HW220160   0.829   3.038   6.633
 6421SOL     OW20161   5.425   2.109   0.302
 6421SOL    HW120162   5.338   2.104   0.252
 6421SOL    HW220163   5.413   2.162   0.385
 6422SOL     OW20164   5.940   2.799   2.958
 6422SOL    HW120165   5.959   2.841   2.869
 6422SOL    HW220166   6.020   2.747   2.988
 6423SOL     OW20167   4.794   4.020   0.758
 6423SOL    HW120168   4.882   3.975   0.748
 6423SOL    HW220169   4.806   4.119   0.752
 6424SOL     OW20170   6.332   4.650   5.145
 6424SOL    HW120171   6.350   4.576   5.211
 6424SOL    HW220172   6.281   4.613   5.068
 6425SOL     OW20173   0.296   5.441   0.856
 6425SOL    HW120174   0.199   5.438   0.832
 6425SOL    HW220175   0.332   5.532   0.836
 6426SOL     OW20176   6.887   2.950   3.294
 6426SOL    HW120177   6.841   2.932   3.381
 6426SOL    HW220178   6.985   2.938   3.305
 6427SOL     OW20179   1.040   2.595   5.681
 6427SOL    HW120180   1.055   2.535   5.602
 6427SOL    HW220181   1.042   2.540   5.764
 6428SOL     OW20182   6.649   2.984   4.572
 6428SOL    HW120183   6.564   3.030   4.597
 6428SOL    HW220184   6.725   3.048   4.581
 6429SOL     OW20185   1.041   1.173   5.087
 6429SOL    HW120186   0.982   1.128   5.021
 6429SOL    HW220187   1.008   1.265   5.104
 6430SOL     OW20188   6.240   3.154   0.333
 6430SOL    HW120189   6.163   3.148   0.397
 6430SOL    HW220190   6.276   3.062   0.317
 6431SOL     OW20191   5.911   1.121   2.861
 6431SOL    HW120192   5.986   1.060   2.887
 6431SOL    HW220193   5.845   1.125   2.937
 6432SOL     OW20194   6.036   3.701   0.419
 6432SOL    HW120195   6.095   3.671   0.494
 6432SOL    HW220196   5.941   3.687   0.443
 6433SOL     OW20197   2.374   3.702   1.548
 6433SOL    HW120198   2.432   3.674   1.471
 6433SOL    HW220199   2.413   3.783   1.592
 6434SOL     OW20200   1.607   5.180   0.191
 6434SOL    HW120201   1.684   5.210   0.135
 6434SOL    HW220202   1.640   5.119   0.263
 6435SOL     OW20203   5.045   3.378   0.732
 6435SOL    HW120204   4.959   3.402   0.689
 6435SOL    HW220205   5.085   3.298   0.686
 6436SOL     OW20206   2.393   2.577   2.085
 6436SOL    HW120207   2.383   2.661   2.032
 6436SOL    HW220208   2.470   2.524   2.050
 6437SOL     OW20209   0.508   0.685   0.274
 6437SOL    HW120210   0.564   0.636   0.207
 6437SOL    HW220211   0.479   0.622   0.346
 6438SOL     OW20212   1.047   3.794   3.881
 6438SOL    HW120213   0.991   3.721   3.919
 6438SOL    HW220214   1.130   3.756   3.841
 6439SOL     OW20215   0.189   6.304   2.304
 6439SOL    HW120216   0.103   6.344   2.273
 6439SOL    HW220217   0.212   6.226   2.245
 6440SOL     OW20218   0.003   0.734   2.008
 6440SOL    HW120219   7.012   0.770   2.100
 6440SOL    HW220220   0.062   0.654   2.014
 6441SOL     OW20221   4.611   1.305   2.777
 6441SOL    HW120222   4.634   1.341   2.868
 6441SOL    HW220223   4.639   1.371   2.708
 6442SOL     OW20224   3.327   0.695   3.199
 6442SOL    HW120225   3.317   0.645   3.285
 6442SOL    HW220226   3.255   0.667   3.135
 6443SOL     OW20227   2.431   0.835   0.258
 6443SOL    HW120228   2.401   0.822   0.164
 6443SOL    HW220229   2.360   0.884   0.309
 6444SOL     OW20230   0.674   1.260   2.587
 6444SOL    HW120231   0.732   1.227   2.512
 6444SOL    HW220232   0.722   1.331   2.638
 6445SOL     OW20233   3.459   4.051   5.749
 6445SOL    HW120234   3.552   4.029   5.720
 6445SOL    HW220235   3.453   4.148   5.774
 6446SOL     OW20236   0.009   2.039   0.483
 6446SOL    HW120237   0.100   2.074   0.503
 6446SOL    HW220238   6.992   2.010   0.568
 6447SOL     OW20239   1.666   0.260   3.273
 6447SOL    HW120240   1.664   0.355   3.241
 6447SOL    HW220241   1.653   0.258   3.372
 6448SOL     OW20242   6.994   2.312   2.807
 6448SOL    HW120243   0.060   2.309   2.844
 6448SOL    HW220244   6.950   2.398   2.832
 6449SOL     OW20245   4.045   2.718   0.711
 6449SOL    HW120246   3.959   2.765   0.733
 6449SOL    HW220247   4.099   2.774   0.649
 6450SOL     OW20248   6.775   2.965   0.630
 6450SOL    HW120249   6.821   2.919   0.554
 6450SOL    HW220250   6.796   3.063   0.627
 6451SOL     OW20251   2.562   6.612   4.152
 6451SOL    HW120252   2.610   6.699   4.139
 6451SOL    HW220253   2.540   6.572   4.063
 6452SOL     OW20254   3.813   6.271   5.102
 6452SOL    HW120255   3.903   6.303   5.132
 6452SOL    HW220256   3.817   6.174   5.081
 6453SOL     OW20257   2.103   5.404   6.854
 6453SOL    HW120258   2.011   5.415   6.891
 6453SOL    HW220259   2.122   5.307   6.840
 6454SOL     OW20260   3.762   1.263   4.570
 6454SOL    HW120261   3.673   1.246   4.612
 6454SOL    HW220262   3.832   1.269   4.642
 6455SOL     OW20263   5.816   3.367   6.811
 6455SOL    HW120264   5.782   3.356   6.718
 6455SOL    HW220265   5.861   3.283   6.841
 6456SOL     OW20266   0.377   1.197   5.238
 6456SOL    HW120267   0.468   1.171   5.270
 6456SOL    HW220268   0.347   1.132   5.169
 6457SOL     OW20269   5.829   2.879   2.375
 6457SOL    HW120270   5.862   2.973   2.366
 6457SOL    HW220271   5.797   2.847   2.286
 6458SOL     OW20272   0.902   6.394   3.248
 6458SOL    HW120273   0.934   6.307   3.210
 6458SOL    HW220274   0.803   6.390   3.262
 6459SOL     OW20275   5.385   4.377   1.128
 6459SOL    HW120276   5.375   4.327   1.042
 6459SOL    HW220277   5.302   4.431   1.145
 6460SOL     OW20278   3.264   4.972   1.663
 6460SOL    HW120279   3.316   4.900   1.709
 6460SOL    HW220280   3.166   4.951   1.671
 6461SOL     OW20281   2.945   6.353   5.377
 6461SOL    HW120282   3.002   6.330   5.456
 6461SOL    HW220283   2.997   6.409   5.314
 6462SOL     OW20284   2.086   3.420   3.209
 6462SOL    HW120285   1.990   3.418   3.179
 6462SOL    HW220286   2.111   3.514   3.232
 6463SOL     OW20287   1.055   3.800   5.649
 6463SOL    HW120288   0.980   3.734   5.636
 6463SOL    HW220289   1.064   3.856   5.567
 6464SOL     OW20290   1.676   5.088   1.980
 6464SOL    HW120291   1.687   5.028   1.901
 6464SOL    HW220292   1.588   5.070   2.024
 6465SOL     OW20293   6.123   0.793   2.402
 6465SOL    HW120294   6.191   0.729   2.438
 6465SOL    HW220295   6.083   0.844   2.478
 6466SOL     OW20296   0.064   2.245   5.080
 6466SOL    HW120297   0.034   2.221   4.988
 6466SOL    HW220298   0.152   2.293   5.075
 6467SOL     OW20299   3.680   0.737   6.102
 6467SOL    HW120300   3.718   0.730   6.194
 6467SOL    HW220301   3.585   0.767   6.107
 6468SOL     OW20302   5.367   4.045   2.014
 6468SOL    HW120303   5.326   4.087   1.933
 6468SOL    HW220304   5.404   4.117   2.074
 6469SOL     OW20305   6.128   0.864   5.797
 6469SOL    HW120306   6.141   0.868   5.698
 6469SOL    HW220307   6.181   0.787   5.835
 6470SOL     OW20308   6.382   5.954   4.469
 6470SOL    HW120309   6.392   5.865   4.425
 6470SOL    HW220310   6.287   5.985   4.463
 6471SOL     OW20311   6.173   6.024   5.438
 6471SOL    HW120312   6.212   6.010   5.529
 6471SOL    HW220313   6.236   5.991   5.369
 6472SOL     OW20314   1.827   6.336   1.542
 6472SOL    HW120315   1.902   6.324   1.607
 6472SOL    HW220316   1.808   6.249   1.496
 6473SOL     OW20317   2.543   0.770   5.187
 6473SOL    HW120318   2.520   0.797   5.093
 6473SOL    HW220319   2.626   0.817   5.216
 6474SOL     OW20320   2.682   3.443   5.779
 6474SOL    HW120321   2.742   3.413   5.853
 6474SOL    HW220322   2.729   3.434   5.691
 6475SOL     OW20323   4.829   5.316   3.890
 6475SOL    HW120324   4.782   5.319   3.802
 6475SOL    HW220325   4.794   5.240   3.945
 6476SOL     OW20326   5.388   4.747   2.289
 6476SOL    HW120327   5.308   4.794   2.326
 6476SOL    HW220328   5.424   4.798   2.210
 6477SOL     OW20329   6.605   6.517   0.004
 6477SOL    HW120330   6.616   6.464   6.947
 6477SOL    HW220331   6.514   6.559   0.006
 6478SOL     OW20332   5.178   6.206   1.532
 6478SOL    HW120333   5.095   6.174   1.578
 6478SOL    HW220334   5.205   6.139   1.463
 6479SOL     OW20335   3.515   5.781   2.505
 6479SOL    HW120336   3.612   5.795   2.482
 6479SOL    HW220337   3.503   5.794   2.604
 6480SOL     OW20338   3.012   0.856   1.492
 6480SOL    HW120339   2.997   0.948   1.527
 6480SOL    HW220340   3.034   0.860   1.395
 6481SOL     OW20341   4.581   0.657   1.103
 6481SOL    HW120342   4.533   0.587   1.050
 6481SOL    HW220343   4.584   0.630   1.199
 6482SOL     OW20344   6.610   0.016   6.354
 6482SOL    HW120345   6.545   7.008   6.286
 6482SOL    HW220346   6.561   0.070   6.422
 6483SOL     OW20347   2.290   5.926   1.786
 6483SOL    HW120348   2.220   5.915   1.716
 6483SOL    HW220349   2.247   5.937   1.876
 6484SOL     OW20350   5.299   6.940   3.172
 6484SOL    HW120351   5.362   6.877   3.127
 6484SOL    HW220352   5.232   6.974   3.105
 6485SOL     OW20353   0.704   2.722   3.014
 6485SOL    HW120354   0.681   2.792   3.081
 6485SOL    HW220355   0.651   2.639   3.031
 6486SOL     OW20356   1.967   3.090   3.564
 6486SOL    HW120357   1.971   3.048   3.654
 6486SOL    HW220358   1.977   3.019   3.494
 6487SOL     OW20359   5.754   5.122   3.498
 6487SOL    HW120360   5.732   5.113   3.595
 6487SOL    HW220361   5.692   5.066   3.444
 6488SOL     OW20362   3.311   5.186   5.454
 6488SOL    HW120363   3.253   5.247   5.400
 6488SOL    HW220364   3.255   5.113   5.492
 6489SOL     OW20365   2.493   2.088   6.513
 6489SOL    HW120366   2.500   2.121   6.419
 6489SOL    HW220367   2.572   2.120   6.565
 6490SOL     OW20368   5.026   1.726   0.957
 6490SOL    HW120369   5.056   1.708   0.864
 6490SOL    HW220370   4.940   1.778   0.955
 6491SOL     OW20371   4.527   0.838   5.922
 6491SOL    HW120372   4.457   0.797   5.980
 6491SOL    HW220373   4.503   0.933   5.902
 6492SOL     OW20374   6.278   5.958   5.684
 6492SOL    HW120375   6.373   5.979   5.707
 6492SOL    HW220376   6.237   5.903   5.757
 6493SOL     OW20377   1.061   6.571   5.065
 6493SOL    HW120378   1.065   6.599   5.161
 6493SOL    HW220379   1.135   6.616   5.014
 6494SOL     OW20380   0.743   0.721   3.481
 6494SOL    HW120381   0.805   0.710   3.403
 6494SOL    HW220382   0.774   0.663   3.556
 6495SOL     OW20383   5.646   4.720   2.037
 6495SOL    HW120384   5.589   4.638   2.036
 6495SOL    HW220385   5.703   4.722   1.955
 6496SOL     OW20386   0.730   6.132   3.385
 6496SOL    HW120387   0.830   6.135   3.381
 6496SOL    HW220388   0.692   6.196   3.318
 6497SOL     OW20389   0.498   6.009   0.266
 6497SOL    HW120390   0.413   6.060   0.254
 6497SOL    HW220391   0.575   6.066   0.239
 6498SOL     OW20392   1.441   4.405   3.934
 6498SOL    HW120393   1.395   4.449   3.857
 6498SOL    HW220394   1.500   4.332   3.900
 6499SOL     OW20395   6.335   1.660   3.223
 6499SOL    HW120396   6.366   1.692   3.312
 6499SOL    HW220397   6.343   1.560   3.218
 6500SOL     OW20398   5.935   4.905   3.021
 6500SOL    HW120399   5.903   4.980   2.964
 6500SOL    HW220400   5.868   4.831   3.020
 6501SOL     OW20401   6.960   3.476   0.781
 6501SOL    HW120402   6.961   3.573   0.757
 6501SOL    HW220403   6.889   3.459   0.849
 6502SOL     OW20404   0.982   5.069   1.307
 6502SOL    HW120405   0.910   5.035   1.246
 6502SOL    HW220406   1.041   5.132   1.257
 6503SOL     OW20407   4.443   6.858   4.513
 6503SOL    HW120408   4.519   6.890   4.570
 6503SOL    HW220409   4.463   6.766   4.480
 6504SOL     OW20410   1.825   1.236   0.846
 6504SOL    HW120411   1.787   1.146   0.826
 6504SOL    HW220412   1.775   1.278   0.922
 6505SOL     OW20413   5.638   5.551   0.716
 6505SOL    HW120414   5.711   5.610   0.682
 6505SOL    HW220415   5.645   5.461   0.673
 6506SOL     OW20416   2.371   1.488   0.705
 6506SOL    HW120417   2.425   1.455   0.628
 6506SOL    HW220418   2.299   1.422   0.727
 6507SOL     OW20419   2.918   0.751   2.174
 6507SOL    HW120420   2.984   0.681   2.203
 6507SOL    HW220421   2.935   0.775   2.079
 6508SOL     OW20422   2.350   1.566   2.312
 6508SOL    HW120423   2.271   1.626   2.325
 6508SOL    HW220424   2.371   1.521   2.399
 6509SOL     OW20425   0.672   3.192   4.214
 6509SOL    HW120426   0.751   3.253   4.204
 6509SOL    HW220427   0.653   3.148   4.126
 6510SOL     OW20428   6.339   4.677   6.622
 6510SOL    HW120429   6.295   4.765   6.611
 6510SOL    HW220430   6.426   4.676   6.572
 6511SOL     OW20431   6.913   6.728   5.760
 6511SOL    HW120432   6.972   6.710   5.681
 6511SOL    HW220433   6.970   6.741   5.841
 6512SOL     OW20434   5.217   5.827   3.989
 6512SOL    HW120435   5.200   5.895   3.919
 6512SOL    HW220436   5.309   5.840   4.028
 6513SOL     OW20437   1.010   6.772   3.372
 6513SOL    HW120438   1.035   6.869   3.361
 6513SOL    HW220439   0.978   6.737   3.284
 6514SOL     OW20440   3.409   0.105   3.573
 6514SOL    HW120441   3.322   0.148   3.549
 6514SOL    HW220442   3.399   0.056   3.659
 6515SOL     OW20443   0.495   0.645   3.371
 6515SOL    HW120444   0.436   0.723   3.347
 6515SOL    HW220445   0.571   0.677   3.427
 6516SOL     OW20446   1.267   1.009   5.764
 6516SOL    HW120447   1.364   1.013   5.740
 6516SOL    HW220448   1.214   1.066   5.702
 6517SOL     OW20449   2.071   2.175   0.840
 6517SOL    HW120450   1.986   2.131   0.812
 6517SOL    HW220451   2.081   2.169   0.939
 6518SOL     OW20452   5.792   6.374   0.865
 6518SOL    HW120453   5.887   6.351   0.889
 6518SOL    HW220454   5.746   6.292   0.830
 6519SOL     OW20455   0.974   2.128   4.040
 6519SOL    HW120456   1.062   2.158   4.002
 6519SOL    HW220457   0.959   2.173   4.128
 6520SOL     OW20458   5.721   5.506   1.493
 6520SOL    HW120459   5.633   5.467   1.523
 6520SOL    HW220460   5.715   5.532   1.397
 6521SOL     OW20461   1.465   2.081   5.287
 6521SOL    HW120462   1.539   2.023   5.321
 6521SOL    HW220463   1.392   2.086   5.355
 6522SOL     OW20464   2.600   5.554   4.777
 6522SOL    HW120465   2.514   5.512   4.747
 6522SOL    HW220466   2.642   5.497   4.847
 6523SOL     OW20467   1.811   2.626   6.885
 6523SOL    HW120468   1.807   2.541   6.834
 6523SOL    HW220469   1.787   2.702   6.825
 6524SOL     OW20470   4.061   3.711   5.038
 6524SOL    HW120471   4.095   3.775   4.969
 6524SOL    HW220472   3.962   3.699   5.026
 6525SOL     OW20473   0.441   2.471   4.455
 6525SOL    HW120474   0.415   2.416   4.534
 6525SOL    HW220475   0.532   2.509   4.470
 6526SOL     OW20476   1.378   5.477   4.097
 6526SOL    HW120477   1.298   5.500   4.041
 6526SOL    HW220478   1.406   5.383   4.078
 6527SOL     OW20479   2.419   1.467   3.951
 6527SOL    HW120480   2.468   1.519   4.021
 6527SOL    HW220481   2.461   1.376   3.941
 6528SOL     OW20482   0.723   0.140   3.346
 6528SOL    HW120483   0.780   0.099   3.417
 6528SOL    HW220484   0.628   0.108   3.356
 6529SOL     OW20485   6.990   3.009   2.415
 6529SOL    HW120486   6.958   2.958   2.336
 6529SOL    HW220487   6.912   3.052   2.461
 6530SOL     OW20488   0.780   1.922   0.607
 6530SOL    HW120489   0.724   1.841   0.593
 6530SOL    HW220490   0.766   1.987   0.532
 6531SOL     OW20491   5.064   2.061   5.021
 6531SOL    HW120492   5.028   1.982   4.972
 6531SOL    HW220493   5.011   2.142   4.996
 6532SOL     OW20494   1.158   2.530   7.002
 6532SOL    HW120495   1.222   2.539   6.926
 6532SOL    HW220496   1.154   2.616   0.027
 6533SOL     OW20497   4.655   0.323   1.395
 6533SOL    HW120498   4.687   0.229   1.407
 6533SOL    HW220499   4.564   0.322   1.355
 6534SOL     OW20500   2.090   3.370   0.342
 6534SOL    HW120501   2.020   3.414   0.286
 6534SOL    HW220502   2.143   3.307   0.285
 6535SOL     OW20503   1.914   3.532   5.586
 6535SOL    HW120504   1.994   3.579   5.622
 6535SOL    HW220505   1.836   3.546   5.648
 6536SOL     OW20506   6.698   2.401   6.618
 6536SOL    HW120507   6.615   2.350   6.598
 6536SOL    HW220508   6.732   2.376   6.709
 6537SOL     OW20509   1.208   0.533   6.566
 6537SOL    HW120510   1.212   0.633   6.558
 6537SOL    HW220511   1.291   0.500   6.611
 6538SOL     OW20512   1.848   2.976   5.740
 6538SOL    HW120513   1.758   2.933   5.745
 6538SOL    HW220514   1.842   3.059   5.685
 6539SOL     OW20515   3.322   1.780   6.141
 6539SOL    HW120516   3.418   1.766   6.163
 6539SOL    HW220517   3.309   1.873   6.105
 6540SOL     OW20518   3.803   1.882   3.996
 6540SOL    HW120519   3.833   1.967   4.038
 6540SOL    HW220520   3.869   1.810   4.016
 6541SOL     OW20521   2.896   2.904   5.510
 6541SOL    HW120522   2.851   2.980   5.462
 6541SOL    HW220523   2.848   2.885   5.595
 6542SOL     OW20524   5.789   3.817   3.618
 6542SOL    HW120525   5.834   3.732   3.643
 6542SOL    HW220526   5.690   3.805   3.621
 6543SOL     OW20527   0.695   6.386   6.286
 6543SOL    HW120528   0.686   6.289   6.308
 6543SOL    HW220529   0.775   6.400   6.229
 6544SOL     OW20530   0.114   5.613   2.576
 6544SOL    HW120531   0.027   5.662   2.562
 6544SOL    HW220532   0.130   5.601   2.674
 6545SOL     OW20533   5.977   3.167   6.515
 6545SOL    HW120534   5.981   3.116   6.429
 6545SOL    HW220535   6.070   3.184   6.548
 6546SOL     OW20536   3.675   4.651   6.142
 6546SOL    HW120537   3.599   4.711   6.119
 6546SOL    HW220538   3.759   4.685   6.100
 6547SOL     OW20539   5.137   0.287   6.465
 6547SOL    HW120540   5.065   0.331   6.412
 6547SOL    HW220541   5.097   0.213   6.519
 6548SOL     OW20542   5.857   3.532   5.485
 6548SOL    HW120543   5.841   3.472   5.564
 6548SOL    HW220544   5.883   3.477   5.406
 6549SOL     OW20545   3.069   2.092   2.390
 6549SOL    HW120546   3.118   2.026   2.446
 6549SOL    HW220547   3.034   2.166   2.447
 6550SOL     OW20548   1.205   5.404   3.136
 6550SOL    HW120549   1.295   5.394   3.094
 6550SOL    HW220550   1.215   5.419   3.234
 6551SOL     OW20551   3.055   5.078   2.262
 6551SOL    HW120552   3.085   4.990   2.301
 6551SOL    HW220553   2.968   5.065   2.215
 6552SOL     OW20554   4.539   5.080   6.663
 6552SOL    HW120555   4.539   5.132   6.748
 6552SOL    HW220556   4.449   5.089   6.620
 6553SOL     OW20557   0.003   3.133   2.981
 6553SOL    HW120558   6.959   3.076   3.022
 6553SOL    HW220559   0.042   3.085   2.903
 6554SOL     OW20560   6.983   3.786   4.277
 6554SOL    HW120561   0.047   3.747   4.295
 6554SOL    HW220562   6.953   3.838   4.357
 6555SOL     OW20563   0.567   1.196   1.623
 6555SOL    HW120564   0.570   1.118   1.561
 6555SOL    HW220565   0.645   1.256   1.605
 6556SOL     OW20566   3.982   6.994   4.113
 6556SOL    HW120567   3.997   6.912   4.169
 6556SOL    HW220568   3.955   0.043   4.173
 6557SOL     OW20569   5.420   6.243   0.440
 6557SOL    HW120570   5.422   6.329   0.390
 6557SOL    HW220571   5.325   6.222   0.467
 6558SOL     OW20572   0.207   6.273   5.798
 6558SOL    HW120573   0.177   6.312   5.885
 6558SOL    HW220574   0.165   6.183   5.785
 6559SOL     OW20575   3.312   3.420   1.096
 6559SOL    HW120576   3.397   3.371   1.115
 6559SOL    HW220577   3.241   3.355   1.069
 6560SOL     OW20578   4.517   1.552   1.026
 6560SOL    HW120579   4.430   1.594   1.053
 6560SOL    HW220580   4.498   1.468   0.974
 6561SOL     OW20581   3.402   3.678   4.222
 6561SOL    HW120582   3.501   3.677   4.235
 6561SOL    HW220583   3.356   3.682   4.311
 6562SOL     OW20584   6.981   4.575   5.409
 6562SOL    HW120585   0.037   4.625   5.435
 6562SOL    HW220586   6.960   4.594   5.313
 6563SOL     OW20587   0.912   5.510   2.470
 6563SOL    HW120588   0.878   5.553   2.553
 6563SOL    HW220589   0.944   5.581   2.406
 6564SOL     OW20590   1.870   5.241   2.740
 6564SOL    HW120591   1.856   5.162   2.800
 6564SOL    HW220592   1.912   5.315   2.793
 6565SOL     OW20593   6.538   3.535   5.490
 6565SOL    HW120594   6.497   3.603   5.551
 6565SOL    HW220595   6.468   3.471   5.460
 6566SOL     OW20596   3.778   0.795   0.862
 6566SOL    HW120597   3.813   0.889   0.859
 6566SOL    HW220598   3.779   0.756   0.770
 6567SOL     OW20599   6.275   2.417   0.864
 6567SOL    HW120600   6.261   2.473   0.945
 6567SOL    HW220601   6.261   2.320   0.887
 6568SOL     OW20602   4.417   3.770   1.595
 6568SOL    HW120603   4.483   3.801   1.526
 6568SOL    HW220604   4.386   3.849   1.649
 6569SOL     OW20605   1.285   5.029   6.123
 6569SOL    HW120606   1.312   4.976   6.203
 6569SOL    HW220607   1.354   5.099   6.104
 6570SOL     OW20608   6.461   3.669   1.919
 6570SOL    HW120609   6.503   3.596   1.866
 6570SOL    HW220610   6.489   3.758   1.883
 6571SOL     OW20611   2.353   6.142   3.625
 6571SOL    HW120612   2.404   6.071   3.577
 6571SOL    HW220613   2.340   6.115   3.721
 6572SOL     OW20614   1.285   4.547   6.070
 6572SOL    HW120615   1.281   4.614   5.997
 6572SOL    HW220616   1.193   4.521   6.098
 6573SOL     OW20617   1.566   2.252   1.567
 6573SOL    HW120618   1.623   2.220   1.643
 6573SOL    HW220619   1.593   2.205   1.483
 6574SOL     OW20620   1.928   4.379   4.368
 6574SOL    HW120621   1.988   4.383   4.448
 6574SOL    HW220622   1.846   4.434   4.385
 6575SOL     OW20623   2.130   1.850   2.943
 6575SOL    HW120624   2.149   1.837   2.846
 6575SOL    HW220625   2.037   1.820   2.963
 6576SOL     OW20626   1.089   6.031   4.224
 6576SOL    HW120627   1.100   6.125   4.255
 6576SOL    HW220628   1.054   5.975   4.299
 6577SOL     OW20629   0.148   3.518   5.225
 6577SOL    HW120630   0.210   3.457   5.174
 6577SOL    HW220631   0.151   3.495   5.322
 6578SOL     OW20632   6.238   5.386   3.372
 6578SOL    HW120633   6.336   5.379   3.353
 6578SOL    HW220634   6.223   5.391   3.470
 6579SOL     OW20635   0.147   3.848   3.594
 6579SOL    HW120636   0.133   3.781   3.522
 6579SOL    HW220637   0.245   3.857   3.613
 6580SOL     OW20638   5.669   2.462   1.000
 6580SOL    HW120639   5.728   2.389   1.034
 6580SOL    HW220640   5.589   2.422   0.956
 6581SOL     OW20641   2.506   2.682   5.744
 6581SOL    HW120642   2.510   2.712   5.840
 6581SOL    HW220643   2.432   2.731   5.698
 6582SOL     OW20644   6.749   0.071   1.990
 6582SOL    HW120645   6.779   0.157   1.950
 6582SOL    HW220646   6.782   0.065   2.084
 6583SOL     OW20647   6.135   1.612   6.203
 6583SOL    HW120648   6.147   1.529   6.148
 6583SOL    HW220649   6.065   1.595   6.272
 6584SOL     OW20650   5.549   2.480   0.145
 6584SOL    HW120651   5.452   2.458   0.152
 6584SOL    HW220652   5.586   2.501   0.236
 6585SOL     OW20653   2.823   0.796   1.701
 6585SOL    HW120654   2.903   0.815   1.646
 6585SOL    HW220655   2.748   0.857   1.675
 6586SOL     OW20656   6.699   2.009   6.853
 6586SOL    HW120657   6.626   1.944   6.874
 6586SOL    HW220658   6.743   1.984   6.767
 6587SOL     OW20659   2.018   6.202   2.446
 6587SOL    HW120660   2.057   6.253   2.522
 6587SOL    HW220661   1.923   6.230   2.432
 6588SOL     OW20662   2.780   2.020   0.190
 6588SOL    HW120663   2.848   2.061   0.128
 6588SOL    HW220664   2.791   2.059   0.281
 6589SOL     OW20665   5.157   1.791   6.351
 6589SOL    HW120666   5.141   1.874   6.404
 6589SOL    HW220667   5.142   1.810   6.254
 6590SOL     OW20668   6.616   1.278   5.667
 6590SOL    HW120669   6.581   1.191   5.703
 6590SOL    HW220670   6.691   1.260   5.603
 6591SOL     OW20671   5.404   0.252   3.272
 6591SOL    HW120672   5.452   0.235   3.358
 6591SOL    HW220673   5.374   0.348   3.269
 6592SOL     OW20674   6.121   5.611   4.513
 6592SOL    HW120675   6.051   5.553   4.554
 6592SOL    HW220676   6.082   5.701   4.492
 6593SOL     OW20677   5.163   1.039   2.700
 6593SOL    HW120678   5.166   1.014   2.603
 6593SOL    HW220679   5.092   0.987   2.746
 6594SOL     OW20680   5.781   1.049   6.822
 6594SOL    HW120681   5.721   1.091   6.890
 6594SOL    HW220682   5.785   1.108   6.741
 6595SOL     OW20683   2.072   3.192   6.938
 6595SOL    HW120684   2.022   3.105   6.939
 6595SOL    HW220685   2.139   3.191   6.864
 6596SOL     OW20686   3.221   6.732   5.462
 6596SOL    HW120687   3.231   6.698   5.368
 6596SOL    HW220688   3.152   6.677   5.510
 6597SOL     OW20689   0.108   4.191   6.634
 6597SOL    HW120690   0.167   4.269   6.615
 6597SOL    HW220691   0.110   4.129   6.556
 6598SOL     OW20692   2.328   5.792   5.058
 6598SOL    HW120693   2.425   5.792   5.038
 6598SOL    HW220694   2.305   5.709   5.109
 6599SOL     OW20695   4.270   2.985   5.993
 6599SOL    HW120696   4.321   2.905   5.963
 6599SOL    HW220697   4.297   3.064   5.937
 6600SOL     OW20698   3.960   5.054   4.579
 6600SOL    HW120699   4.033   5.049   4.647
 6600SOL    HW220700   3.933   5.149   4.566
 6601SOL     OW20701   0.553   0.551   1.427
 6601SOL    HW120702   0.516   0.587   1.513
 6601SOL    HW220703   0.613   0.619   1.385
 6602SOL     OW20704   6.780   1.451   1.467
 6602SOL    HW120705   6.695   1.437   1.519
 6602SOL    HW220706   6.801   1.368   1.416
 6603SOL     OW20707   2.520   2.031   1.791
 6603SOL    HW120708   2.586   2.084   1.845
 6603SOL    HW220709   2.518   2.065   1.697
 6604SOL     OW20710   3.861   5.915   4.050
 6604SOL    HW120711   3.929   5.853   4.011
 6604SOL    HW220712   3.848   5.892   4.147
 6605SOL     OW20713   4.923   6.057   0.050
 6605SOL    HW120714   4.826   6.036   0.035
 6605SOL    HW220715   4.948   6.031   0.144
 6606SOL     OW20716   6.530   1.575   2.923
 6606SOL    HW120717   6.607   1.638   2.926
 6606SOL    HW220718   6.460   1.611   2.861
 6607SOL     OW20719   1.362   2.293   3.119
 6607SOL    HW120720   1.433   2.223   3.106
 6607SOL    HW220721   1.285   2.274   3.058
 6608SOL     OW20722   5.273   5.063   5.077
 6608SOL    HW120723   5.257   5.103   5.167
 6608SOL    HW220724   5.362   5.017   5.077
 6609SOL     OW20725   5.536   1.858   0.209
 6609SOL    HW120726   5.636   1.863   0.208
 6609SOL    HW220727   5.499   1.947   0.235
 6610SOL     OW20728   3.866   1.177   0.599
 6610SOL    HW120729   3.801   1.125   0.544
 6610SOL    HW220730   3.944   1.118   0.622
 6611SOL     OW20731   5.735   3.078   2.958
 6611SOL    HW120732   5.742   2.979   2.945
 6611SOL    HW220733   5.774   3.103   3.047
 6612SOL     OW20734   1.244   6.132   6.590
 6612SOL    HW120735   1.175   6.069   6.627
 6612SOL    HW220736   1.210   6.226   6.598
 6613SOL     OW20737   5.210   4.991   1.021
 6613SOL    HW120738   5.226   4.905   1.070
 6613SOL    HW220739   5.126   4.984   0.967
 6614SOL     OW20740   5.525   4.711   5.522
 6614SOL    HW120741   5.623   4.728   5.532
 6614SOL    HW220742   5.474   4.790   5.556
 6615SOL     OW20743   0.084   3.964   5.108
 6615SOL    HW120744   0.049   3.935   5.019
 6615SOL    HW220745   0.007   3.978   5.171
 6616SOL     OW20746   4.844   0.810   4.185
 6616SOL    HW120747   4.750   0.844   4.181
 6616SOL    HW220748   4.858   0.743   4.112
 6617SOL     OW20749   4.379   0.119   5.009
 6617SOL    HW120750   4.356   0.059   5.086
 6617SOL    HW220751   4.355   0.073   4.923
 6618SOL     OW20752   6.962   5.007   1.189
 6618SOL    HW120753   0.029   5.003   1.156
 6618SOL    HW220754   6.959   4.974   1.284
 6619SOL     OW20755   0.004   6.165   1.742
 6619SOL    HW120756   0.091   6.136   1.702
 6619SOL    HW220757   6.993   6.090   1.797
 6620SOL     OW20758   4.172   3.387   5.648
 6620SOL    HW120759   4.138   3.304   5.604
 6620SOL    HW220760   4.111   3.463   5.627
 6621SOL     OW20761   2.445   4.227   0.196
 6621SOL    HW120762   2.420   4.178   0.112
 6621SOL    HW220763   2.523   4.181   0.239
 6622SOL     OW20764   6.344   5.456   0.893
 6622SOL    HW120765   6.402   5.401   0.952
 6622SOL    HW220766   6.249   5.449   0.923
 6623SOL     OW20767   3.475   4.048   2.602
 6623SOL    HW120768   3.378   4.058   2.620
 6623SOL    HW220769   3.527   4.071   2.684
 6624SOL     OW20770   4.348   5.316   4.214
 6624SOL    HW120771   4.252   5.344   4.205
 6624SOL    HW220772   4.405   5.374   4.156
 6625SOL     OW20773   6.083   6.636   0.305
 6625SOL    HW120774   6.150   6.710   0.295
 6625SOL    HW220775   6.063   6.622   0.402
 6626SOL     OW20776   2.761   4.997   3.721
 6626SOL    HW120777   2.825   5.039   3.658
 6626SOL    HW220778   2.795   4.907   3.748
 6627SOL     OW20779   1.890   6.714   1.962
 6627SOL    HW120780   1.933   6.649   2.024
 6627SOL    HW220781   1.827   6.666   1.901
 6628SOL     OW20782   4.136   5.722   3.614
 6628SOL    HW120783   4.117   5.624   3.611
 6628SOL    HW220784   4.206   5.744   3.547
 6629SOL     OW20785   3.351   3.896   0.362
 6629SOL    HW120786   3.370   3.799   0.347
 6629SOL    HW220787   3.316   3.910   0.455
 6630SOL     OW20788   3.462   1.376   6.442
 6630SOL    HW120789   3.465   1.283   6.479
 6630SOL    HW220790   3.548   1.423   6.464
 6631SOL     OW20791   4.427   0.023   1.456
 6631SOL    HW120792   4.506   6.989   1.451
 6631SOL    HW220793   4.395   0.043   1.363
 6632SOL     OW20794   6.389   2.666   3.068
 6632SOL    HW120795   6.459   2.627   3.008
 6632SOL    HW220796   6.384   2.765   3.054
 6633SOL     OW20797   0.735   6.721   2.003
 6633SOL    HW120798   0.673   6.647   2.030
 6633SOL    HW220799   0.809   6.684   1.948
 6634SOL     OW20800   6.958   2.665   5.428
 6634SOL    HW120801   0.015   2.616   5.404
 6634SOL    HW220802   6.899   2.605   5.483
 6635SOL     OW20803   4.256   4.793   3.010
 6635SOL    HW120804   4.207   4.801   2.923
 6635SOL    HW220805   4.190   4.783   3.084
 6636SOL     OW20806   1.542   3.487   4.270
 6636SOL    HW120807   1.637   3.490   4.302
 6636SOL    HW220808   1.497   3.406   4.307
 6637SOL     OW20809   6.677   2.189   1.978
 6637SOL    HW120810   6.691   2.163   2.073
 6637SOL    HW220811   6.595   2.145   1.943
 6638SOL     OW20812   2.065   0.262   6.712
 6638SOL    HW120813   2.009   0.198   6.661
 6638SOL    HW220814   2.048   0.253   6.810
 6639SOL     OW20815   4.420   5.884   6.092
 6639SOL    HW120816   4.453   5.924   6.178
 6639SOL    HW220817   4.478   5.912   6.017
 6640SOL     OW20818   5.943   2.698   3.409
 6640SOL    HW120819   5.845   2.684   3.414
 6640SOL    HW220820   5.965   2.748   3.325
 6641SOL     OW20821   2.679   5.519   6.991
 6641SOL    HW120822   2.622   5.484   6.916
 6641SOL    HW220823   2.692   5.448   0.033
 6642SOL     OW20824   6.653   6.325   6.785
 6642SOL    HW120825   6.715   6.341   6.709
 6642SOL    HW220826   6.565   6.293   6.750
 6643SOL     OW20827   3.602   5.514   0.319
 6643SOL    HW120828   3.697   5.504   0.291
 6643SOL    HW220829   3.596   5.509   0.419
 6644SOL     OW20830   1.751   4.141   1.961
 6644SOL    HW120831   1.694   4.188   1.894
 6644SOL    HW220832   1.695   4.112   2.038
 6645SOL     OW20833   6.137   4.837   5.262
 6645SOL    HW120834   6.203   4.773   5.223
 6645SOL    HW220835   6.052   4.788   5.283
 6646SOL     OW20836   1.381   5.879   3.892
 6646SOL    HW120837   1.322   5.872   3.972
 6646SOL    HW220838   1.328   5.915   3.815
 6647SOL     OW20839   4.073   1.717   2.131
 6647SOL    HW120840   3.997   1.766   2.174
 6647SOL    HW220841   4.038   1.652   2.063
 6648SOL     OW20842   4.015   5.707   1.720
 6648SOL    HW120843   3.974   5.656   1.795
 6648SOL    HW220844   4.114   5.692   1.720
 6649SOL     OW20845   4.450   1.805   5.986
 6649SOL    HW120846   4.474   1.753   6.068
 6649SOL    HW220847   4.476   1.901   5.998
 6650SOL     OW20848   3.245   0.901   3.856
 6650SOL    HW120849   3.307   0.926   3.781
 6650SOL    HW220850   3.298   0.875   3.936
 6651SOL     OW20851   1.390   2.006   0.578
 6651SOL    HW120852   1.295   1.998   0.549
 6651SOL    HW220853   1.395   2.071   0.654
 6652SOL     OW20854   0.972   5.260   3.211
 6652SOL    HW120855   0.944   5.309   3.293
 6652SOL    HW220856   1.055   5.300   3.174
 6653SOL     OW20857   3.305   3.658   3.426
 6653SOL    HW120858   3.355   3.701   3.350
 6653SOL    HW220859   3.247   3.727   3.470
 6654SOL     OW20860   1.617   3.695   1.636
 6654SOL    HW120861   1.527   3.655   1.656
 6654SOL    HW220862   1.634   3.770   1.699
 6655SOL     OW20863   1.601   0.559   0.836
 6655SOL    HW120864   1.649   0.593   0.755
 6655SOL    HW220865   1.502   0.555   0.817
 6656SOL     OW20866   0.208   2.789   2.039
 6656SOL    HW120867   0.203   2.728   1.960
 6656SOL    HW220868   0.226   2.734   2.121
 6657SOL     OW20869   3.189   4.867   5.725
 6657SOL    HW120870   3.176   4.908   5.635
 6657SOL    HW220871   3.281   4.827   5.730
 6658SOL     OW20872   6.340   6.948   6.175
 6658SOL    HW120873   6.390   6.880   6.123
 6658SOL    HW220874   6.308   7.021   6.114
 6659SOL     OW20875   1.691   2.849   6.750
 6659SOL    HW120876   1.728   2.816   6.663
 6659SOL    HW220877   1.694   2.949   6.752
 6660SOL     OW20878   0.911   6.920   2.818
 6660SOL    HW120879   0.889   7.012   2.852
 6660SOL    HW220880   1.005   6.898   2.842
 6661SOL     OW20881   6.917   6.264   3.739
 6661SOL    HW120882   6.927   6.318   3.823
 6661SOL    HW220883   6.827   6.281   3.700
 6662SOL     OW20884   1.512   3.774   5.850
 6662SOL    HW120885   1.576   3.847   5.824
 6662SOL    HW220886   1.429   3.781   5.796
 6663SOL     OW20887   0.752   5.113   2.316
 6663SOL    HW120888   0.846   5.126   2.282
 6663SOL    HW220889   0.697   5.193   2.292
 6664SOL     OW20890   6.931   1.600   2.693
 6664SOL    HW120891   6.872   1.635   2.767
 6664SOL    HW220892   6.947   1.502   2.707
 6665SOL     OW20893   2.577   0.091   2.379
 6665SOL    HW120894   2.488   0.063   2.343
 6665SOL    HW220895   2.644   0.018   2.364
 6666SOL     OW20896   5.364   1.171   0.544
 6666SOL    HW120897   5.451   1.196   0.503
 6666SOL    HW220898   5.303   1.135   0.474
 6667SOL     OW20899   6.275   5.211   4.826
 6667SOL    HW120900   6.283   5.306   4.854
 6667SOL    HW220901   6.300   5.152   4.903
 6668SOL     OW20902   0.216   6.470   1.256
 6668SOL    HW120903   0.197   6.404   1.329
 6668SOL    HW220904   0.175   6.558   1.280
 6669SOL     OW20905   0.990   5.323   2.757
 6669SOL    HW120906   0.981   5.398   2.822
 6669SOL    HW220907   1.029   5.243   2.803
 6670SOL     OW20908   4.116   4.672   0.426
 6670SOL    HW120909   4.053   4.617   0.373
 6670SOL    HW220910   4.111   4.645   0.522
 6671SOL     OW20911   0.734   3.164   5.481
 6671SOL    HW120912   0.658   3.118   5.435
 6671SOL    HW220913   0.802   3.191   5.413
 6672SOL     OW20914   0.577   0.278   5.480
 6672SOL    HW120915   0.631   0.271   5.396
 6672SOL    HW220916   0.610   0.211   5.547
 6673SOL     OW20917   4.759   5.680   1.042
 6673SOL    HW120918   4.835   5.744   1.056
 6673SOL    HW220919   4.791   5.604   0.985
 6674SOL     OW20920   0.365   6.867   5.280
 6674SOL    HW120921   0.388   6.883   5.184
 6674SOL    HW220922   0.295   6.932   5.309
 6675SOL     OW20923   6.816   6.311   0.417
 6675SOL    HW120924   6.864   6.231   0.381
 6675SOL    HW220925   6.883   6.379   0.447
 6676SOL     OW20926   0.443   1.839   1.310
 6676SOL    HW120927   0.450   1.923   1.256
 6676SOL    HW220928   0.463   1.859   1.406
 6677SOL     OW20929   6.723   4.335   0.277
 6677SOL    HW120930   6.716   4.395   0.357
 6677SOL    HW220931   6.820   4.325   0.252
 6678SOL     OW20932   0.443   3.192   4.352
 6678SOL    HW120933   0.533   3.204   4.308
 6678SOL    HW220934   0.448   3.116   4.416
 6679SOL     OW20935   1.571   1.106   4.756
 6679SOL    HW120936   1.644   1.172   4.736
 6679SOL    HW220937   1.569   1.086   4.853
 6680SOL     OW20938   2.845   0.803   6.430
 6680SOL    HW120939   2.803   0.819   6.341
 6680SOL    HW220940   2.835   0.885   6.486
 6681SOL     OW20941   5.171   5.740   0.107
 6681SOL    HW120942   5.088   5.704   0.148
 6681SOL    HW220943   5.151   5.778   0.017
 6682SOL     OW20944   6.681   5.313   1.845
 6682SOL    HW120945   6.582   5.318   1.855
 6682SOL    HW220946   6.725   5.354   1.925
 6683SOL     OW20947   5.096   1.397   4.705
 6683SOL    HW120948   5.098   1.310   4.656
 6683SOL    HW220949   5.000   1.424   4.719
 6684SOL     OW20950   1.878   1.377   2.736
 6684SOL    HW120951   1.871   1.377   2.836
 6684SOL    HW220952   1.953   1.318   2.707
 6685SOL     OW20953   5.597   2.930   6.630
 6685SOL    HW120954   5.548   2.999   6.683
 6685SOL    HW220955   5.532   2.871   6.583
 6686SOL     OW20956   6.169   3.343   4.341
 6686SOL    HW120957   6.186   3.267   4.278
 6686SOL    HW220958   6.205   3.428   4.302
 6687SOL     OW20959   0.662   0.934   0.206
 6687SOL    HW120960   0.757   0.933   0.175
 6687SOL    HW220961   0.636   0.842   0.237
 6688SOL     OW20962   0.741   5.340   2.597
 6688SOL    HW120963   0.796   5.390   2.530
 6688SOL    HW220964   0.799   5.310   2.672
 6689SOL     OW20965   4.566   5.062   0.105
 6689SOL    HW120966   4.532   4.988   0.047
 6689SOL    HW220967   4.551   5.039   0.201
 6690SOL     OW20968   1.169   1.730   0.856
 6690SOL    HW120969   1.190   1.635   0.832
 6690SOL    HW220970   1.105   1.768   0.789
 6691SOL     OW20971   1.860   5.060   1.012
 6691SOL    HW120972   1.788   5.066   0.944
 6691SOL    HW220973   1.941   5.016   0.972
 6692SOL     OW20974   4.515   4.196   6.197
 6692SOL    HW120975   4.498   4.120   6.260
 6692SOL    HW220976   4.609   4.229   6.208
 6693SOL     OW20977   3.893   3.873   5.546
 6693SOL    HW120978   3.807   3.875   5.598
 6693SOL    HW220979   3.914   3.966   5.513
 6694SOL     OW20980   2.805   6.318   0.098
 6694SOL    HW120981   2.841   6.225   0.105
 6694SOL    HW220982   2.849   6.376   0.167
 6695SOL     OW20983   1.640   1.441   6.592
 6695SOL    HW120984   1.636   1.347   6.625
 6695SOL    HW220985   1.584   1.499   6.651
 6696SOL     OW20986   1.791   2.848   1.447
 6696SOL    HW120987   1.884   2.882   1.450
 6696SOL    HW220988   1.783   2.767   1.505
 6697SOL     OW20989   5.058   2.963   3.958
 6697SOL    HW120990   5.089   2.907   3.881
 6697SOL    HW220991   5.006   2.907   4.022
 6698SOL     OW20992   3.043   4.420   0.149
 6698SOL    HW120993   3.058   4.506   0.196
 6698SOL    HW220994   3.132   4.378   0.127
 6699SOL     OW20995   1.218   3.526   6.632
 6699SOL    HW120996   1.140   3.552   6.689
 6699SOL    HW220997   1.261   3.444   6.671
 6700SOL     OW20998   6.982   6.639   6.005
 6700SOL    HW120999   0.029   6.665   6.067
 6700SOL    HW221000   6.900   6.618   6.058
 6701SOL     OW21001   0.425   3.050   1.423
 6701SOL    HW121002   0.443   3.015   1.331
 6701SOL    HW221003   0.480   3.132   1.439
 6702SOL     OW21004   1.302   3.484   0.594
 6702SOL    HW121005   1.204   3.488   0.613
 6702SOL    HW221006   1.341   3.403   0.638
 6703SOL     OW21007   0.422   2.530   6.780
 6703SOL    HW121008   0.412   2.431   6.769
 6703SOL    HW221009   0.333   2.574   6.765
 6704SOL     OW21010   4.970   2.622   3.354
 6704SOL    HW121011   4.914   2.547   3.318
 6704SOL    HW221012   4.911   2.690   3.398
 6705SOL     OW21013   5.851   1.213   0.979
 6705SOL    HW121014   5.754   1.198   0.997
 6705SOL    HW221015   5.900   1.222   1.065
 6706SOL     OW21016   1.083   6.170   6.869
 6706SOL    HW121017   1.150   6.215   6.928
 6706SOL    HW221018   1.082   6.214   6.779
 6707SOL     OW21019   1.227   5.445   2.334
 6707SOL    HW121020   1.179   5.379   2.391
 6707SOL    HW221021   1.184   5.451   2.245
 6708SOL     OW21022   2.219   6.534   1.629
 6708SOL    HW121023   2.151   6.607   1.619
 6708SOL    HW221024   2.195   6.476   1.707
 6709SOL     OW21025   5.013   1.761   3.142
 6709SOL    HW121026   5.063   1.834   3.189
 6709SOL    HW221027   4.926   1.746   3.189
 6710SOL     OW21028   1.646   2.047   0.391
 6710SOL    HW121029   1.741   2.023   0.415
 6710SOL    HW221030   1.584   1.983   0.435
 6711SOL     OW21031   5.182   3.650   6.984
 6711SOL    HW121032   5.082   3.645   6.978
 6711SOL    HW221033   5.216   3.571   0.007
 6712SOL     OW21034   3.394   6.215   1.223
 6712SOL    HW121035   3.353   6.306   1.211
 6712SOL    HW221036   3.394   6.192   1.320
 6713SOL     OW21037   1.719   1.772   3.192
 6713SOL    HW121038   1.625   1.791   3.166
 6713SOL    HW221039   1.732   1.797   3.288
 6714SOL     OW21040   6.625   0.425   4.640
 6714SOL    HW121041   6.645   0.474   4.725
 6714SOL    HW221042   6.562   0.350   4.658
 6715SOL     OW21043   6.379   2.086   0.630
 6715SOL    HW121044   6.336   2.054   0.545
 6715SOL    HW221045   6.328   2.050   0.708
 6716SOL     OW21046   2.811   6.111   1.028
 6716SOL    HW121047   2.904   6.141   1.004
 6716SOL    HW221048   2.778   6.046   0.960
 6717SOL     OW21049   4.224   1.078   6.775
 6717SOL    HW121050   4.144   1.126   6.738
 6717SOL    HW221051   4.268   1.135   6.845
 6718SOL     OW21052   3.592   0.024   0.344
 6718SOL    HW121053   3.597   7.010   0.435
 6718SOL    HW221054   3.641   0.111   0.343
 6719SOL     OW21055   0.615   1.089   5.324
 6719SOL    HW121056   0.667   1.020   5.274
 6719SOL    HW221057   0.676   1.142   5.382
 6720SOL     OW21058   1.391   4.598   1.373
 6720SOL    HW121059   1.477   4.648   1.377
 6720SOL    HW221060   1.321   4.654   1.329
 6721SOL     OW21061   0.397   6.105   2.869
 6721SOL    HW121062   0.364   6.108   2.775
 6721SOL    HW221063   0.398   6.198   2.907
 6722SOL     OW21064   4.913   5.007   6.790
 6722SOL    HW121065   4.988   5.063   6.757
 6722SOL    HW221066   4.858   5.059   6.855
 6723SOL     OW21067   4.567   0.676   2.864
 6723SOL    HW121068   4.507   0.650   2.789
 6723SOL    HW221069   4.619   0.757   2.838
 6724SOL     OW21070   3.693   4.802   5.802
 6724SOL    HW121071   3.598   4.790   5.832
 6724SOL    HW221072   3.725   4.718   5.757
 6725SOL     OW21073   6.860   5.298   1.228
 6725SOL    HW121074   6.765   5.301   1.259
 6725SOL    HW221075   6.898   5.207   1.247
 6726SOL     OW21076   2.340   2.789   1.922
 6726SOL    HW121077   2.408   2.728   1.881
 6726SOL    HW221078   2.325   2.867   1.861
 6727SOL     OW21079   3.202   3.915   0.619
 6727SOL    HW121080   3.118   3.892   0.667
 6727SOL    HW221081   3.274   3.850   0.645
 6728SOL     OW21082   4.555   1.614   4.867
 6728SOL    HW121083   4.459   1.613   4.896
 6728SOL    HW221084   4.578   1.527   4.823
 6729SOL     OW21085   4.669   6.489   3.378
 6729SOL    HW121086   4.733   6.439   3.437
 6729SOL    HW221087   4.714   6.514   3.292
 6730SOL     OW21088   1.323   0.431   2.255
 6730SOL    HW121089   1.412   0.473   2.270
 6730SOL    HW221090   1.263   0.495   2.207
 6731SOL     OW21091   1.869   4.193   2.244
 6731SOL    HW121092   1.860   4.206   2.145
 6731SOL    HW221093   1.940   4.255   2.279
 6732SOL     OW21094   2.542   5.621   0.211
 6732SOL    HW121095   2.566   5.714   0.185
 6732SOL    HW221096   2.532   5.565   0.129
 6733SOL     OW21097   6.008   5.890   4.574
 6733SOL    HW121098   6.015   5.882   4.674
 6733SOL    HW221099   5.917   5.862   4.545
 6734SOL     OW21100   2.856   3.822   5.699
 6734SOL    HW121101   2.854   3.844   5.796
 6734SOL    HW221102   2.767   3.842   5.659
 6735SOL     OW21103   0.711   6.542   6.648
 6735SOL    HW121104   0.781   6.471   6.658
 6735SOL    HW221105   0.626   6.500   6.618
 6736SOL     OW21106   2.246   4.070   2.347
 6736SOL    HW121107   2.218   4.126   2.425
 6736SOL    HW221108   2.272   4.129   2.271
 6737SOL     OW21109   2.034   0.049   0.781
 6737SOL    HW121110   1.945   0.092   0.794
 6737SOL    HW221111   2.069   0.073   0.690
 6738SOL     OW21112   4.899   1.692   1.248
 6738SOL    HW121113   4.827   1.652   1.304
 6738SOL    HW221114   4.936   1.623   1.186
 6739SOL     OW21115   4.009   6.622   5.495
 6739SOL    HW121116   3.991   6.524   5.503
 6739SOL    HW221117   4.107   6.636   5.481
 6740SOL     OW21118   5.779   2.910   5.692
 6740SOL    HW121119   5.866   2.951   5.663
 6740SOL    HW221120   5.746   2.958   5.773
 6741SOL     OW21121   0.399   6.980   6.242
 6741SOL    HW121122   0.421   6.982   6.339
 6741SOL    HW221123   0.353   0.038   6.216
 6742SOL     OW21124   6.181   6.123   4.823
 6742SOL    HW121125   6.104   6.184   4.842
 6742SOL    HW221126   6.151   6.028   4.828
 6743SOL     OW21127   5.784   2.235   1.401
 6743SOL    HW121128   5.838   2.152   1.413
 6743SOL    HW221129   5.688   2.215   1.420
 6744SOL     OW21130   4.806   6.394   4.419
 6744SOL    HW121131   4.879   6.350   4.470
 6744SOL    HW221132   4.806   6.492   4.439
 6745SOL     OW21133   0.916   3.307   2.766
 6745SOL    HW121134   0.833   3.298   2.821
 6745SOL    HW221135   0.963   3.393   2.790
 6746SOL     OW21136   6.574   1.021   0.809
 6746SOL    HW121137   6.481   1.042   0.840
 6746SOL    HW221138   6.594   1.075   0.727
 6747SOL     OW21139   4.479   5.558   6.778
 6747SOL    HW121140   4.470   5.560   6.878
 6747SOL    HW221141   4.576   5.546   6.754
 6748SOL     OW21142   0.178   6.470   1.953
 6748SOL    HW121143   0.096   6.452   2.007
 6748SOL    HW221144   0.240   6.530   2.003
 6749SOL     OW21145   3.357   5.593   1.339
 6749SOL    HW121146   3.325   5.500   1.320
 6749SOL    HW221147   3.328   5.653   1.264
 6750SOL     OW21148   2.170   2.979   5.215
 6750SOL    HW121149   2.181   3.033   5.299
 6750SOL    HW221150   2.256   2.978   5.164
 6751SOL     OW21151   3.989   1.892   5.939
 6751SOL    HW121152   3.902   1.920   5.899
 6751SOL    HW221153   4.002   1.937   6.027
 6752SOL     OW21154   0.008   1.821   6.975
 6752SOL    HW121155   0.028   1.919   6.971
 6752SOL    HW221156   6.979   1.795   6.896
 6753SOL     OW21157   6.282   1.236   0.309
 6753SOL    HW121158   6.339   1.187   0.374
 6753SOL    HW221159   6.189   1.243   0.345
 6754SOL     OW21160   4.628   0.828   6.587
 6754SOL    HW121161   4.563   0.777   6.643
 6754SOL    HW221162   4.705   0.857   6.643
 6755SOL     OW21163   5.554   1.984   3.662
 6755SOL    HW121164   5.543   2.082   3.646
 6755SOL    HW221165   5.484   1.933   3.612
 6756SOL     OW21166   4.789   4.038   3.754
 6756SOL    HW121167   4.788   3.939   3.768
 6756SOL    HW221168   4.759   4.083   3.838
 6757SOL     OW21169   6.161   4.489   1.486
 6757SOL    HW121170   6.116   4.493   1.397
 6757SOL    HW221171   6.247   4.439   1.477
 6758SOL     OW21172   5.967   1.443   3.375
 6758SOL    HW121173   5.961   1.531   3.421
 6758SOL    HW221174   5.905   1.378   3.420
 6759SOL     OW21175   1.433   5.465   2.983
 6759SOL    HW121176   1.398   5.547   2.939
 6759SOL    HW221177   1.527   5.481   3.014
 6760SOL     OW21178   6.770   3.857   5.193
 6760SOL    HW121179   6.672   3.874   5.195
 6760SOL    HW221180   6.804   3.845   5.286
 6761SOL     OW21181   5.891   2.751   6.501
 6761SOL    HW121182   5.953   2.686   6.457
 6761SOL    HW221183   5.920   2.844   6.478
 6762SOL     OW21184   0.043   4.045   3.113
 6762SOL    HW121185   0.007   3.982   3.182
 6762SOL    HW221186   0.109   3.996   3.056
 6763SOL     OW21187   5.832   0.079   4.788
 6763SOL    HW121188   5.904   0.147   4.782
 6763SOL    HW221189   5.748   0.116   4.748
 6764SOL     OW21190   2.041   3.595   6.700
 6764SOL    HW121191   2.067   3.500   6.682
 6764SOL    HW221192   1.944   3.607   6.677
 6765SOL     OW21193   5.025   4.968   2.716
 6765SOL    HW121194   5.010   4.942   2.621
 6765SOL    HW221195   4.945   4.941   2.771
 6766SOL     OW21196   1.814   2.686   5.896
 6766SOL    HW121197   1.752   2.760   5.872
 6766SOL    HW221198   1.887   2.720   5.955
 6767SOL     OW21199   0.546   2.869   5.901
 6767SOL    HW121200   0.488   2.794   5.870
 6767SOL    HW221201   0.509   2.956   5.868
 6768SOL     OW21202   6.535   0.806   6.444
 6768SOL    HW121203   6.617   0.855   6.473
 6768SOL    HW221204   6.481   0.780   6.524
 6769SOL     OW21205   1.128   2.744   5.917
 6769SOL    HW121206   1.114   2.757   5.819
 6769SOL    HW221207   1.071   2.809   5.967
 6770SOL     OW21208   0.011   1.666   3.880
 6770SOL    HW121209   6.965   1.731   3.901
 6770SOL    HW221210   0.088   1.681   3.942
 6771SOL     OW21211   5.988   1.861   2.695
 6771SOL    HW121212   6.067   1.890   2.749
 6771SOL    HW221213   5.942   1.942   2.657
 6772SOL     OW21214   1.119   0.625   2.186
 6772SOL    HW121215   1.058   0.626   2.107
 6772SOL    HW221216   1.148   0.718   2.207
 6773SOL     OW21217   1.712   1.054   2.882
 6773SOL    HW121218   1.707   1.090   2.976
 6773SOL    HW221219   1.665   1.117   2.820
 6774SOL     OW21220   4.138   1.355   5.140
 6774SOL    HW121221   4.170   1.340   5.234
 6774SOL    HW221222   4.114   1.267   5.099
 6775SOL     OW21223   1.408   2.544   4.468
 6775SOL    HW121224   1.403   2.465   4.529
 6775SOL    HW221225   1.495   2.544   4.419
 6776SOL     OW21226   3.671   3.805   3.348
 6776SOL    HW121227   3.629   3.886   3.388
 6776SOL    HW221228   3.682   3.818   3.249
 6777SOL     OW21229   0.429   6.749   6.115
 6777SOL    HW121230   0.411   6.837   6.159
 6777SOL    HW221231   0.525   6.723   6.131
 6778SOL     OW21232   6.662   6.183   2.061
 6778SOL    HW121233   6.668   6.178   1.961
 6778SOL    HW221234   6.582   6.131   2.092
 6779SOL     OW21235   4.906   4.425   6.697
 6779SOL    HW121236   4.990   4.473   6.670
 6779SOL    HW221237   4.828   4.464   6.648
 6780SOL     OW21238   4.811   0.952   2.486
 6780SOL    HW121239   4.760   1.032   2.518
 6780SOL    HW221240   4.753   0.871   2.496
 6781SOL     OW21241   6.157   3.101   3.244
 6781SOL    HW121242   6.105   3.174   3.289
 6781SOL    HW221243   6.186   3.133   3.154
 6782SOL     OW21244   0.221   1.244   2.844
 6782SOL    HW121245   0.258   1.155   2.818
 6782SOL    HW221246   0.150   1.231   2.914
 6783SOL     OW21247   0.309   6.445   6.798
 6783SOL    HW121248   0.355   6.358   6.816
 6783SOL    HW221249   0.324   6.507   6.875
 6784SOL     OW21250   1.255   4.925   0.317
 6784SOL    HW121251   1.231   5.010   0.363
 6784SOL    HW221252   1.305   4.866   0.380
 6785SOL     OW21253   5.275   4.502   1.710
 6785SOL    HW121254   5.292   4.509   1.808
 6785SOL    HW221255   5.249   4.591   1.674
 6786SOL     OW21256   6.608   2.060   5.392
 6786SOL    HW121257   6.533   2.015   5.440
 6786SOL    HW221258   6.678   1.993   5.369
 6787SOL     OW21259   4.107   2.231   1.032
 6787SOL    HW121260   4.068   2.302   1.091
 6787SOL    HW221261   4.075   2.141   1.063
 6788SOL     OW21262   1.118   4.604   1.019
 6788SOL    HW121263   1.019   4.617   1.014
 6788SOL    HW221264   1.143   4.518   0.975
 6789SOL     OW21265   5.555   3.438   2.510
 6789SOL    HW121266   5.565   3.454   2.412
 6789SOL    HW221267   5.460   3.456   2.537
 6790SOL     OW21268   0.109   5.742   0.711
 6790SOL    HW121269   0.098   5.754   0.810
 6790SOL    HW221270   0.075   5.651   0.685
 6791SOL     OW21271   2.576   6.537   3.430
 6791SOL    HW121272   2.544   6.484   3.509
 6791SOL    HW221273   2.578   6.479   3.349
 6792SOL     OW21274   3.420   5.878   6.695
 6792SOL    HW121275   3.393   5.875   6.791
 6792SOL    HW221276   3.340   5.893   6.638
 6793SOL     OW21277   2.642   4.213   6.596
 6793SOL    HW121278   2.627   4.150   6.673
 6793SOL    HW221279   2.577   4.191   6.523
 6794SOL     OW21280   4.830   2.376   4.361
 6794SOL    HW121281   4.914   2.327   4.338
 6794SOL    HW221282   4.751   2.324   4.329
 6795SOL     OW21283   0.707   1.004   1.962
 6795SOL    HW121284   0.616   1.040   1.942
 6795SOL    HW221285   0.776   1.064   1.922
 6796SOL     OW21286   6.647   2.920   2.543
 6796SOL    HW121287   6.626   2.859   2.619
 6796SOL    HW221288   6.637   2.871   2.457
 6797SOL     OW21289   1.986   4.024   1.186
 6797SOL    HW121290   2.044   4.105   1.184
 6797SOL    HW221291   1.936   4.017   1.099
 6798SOL     OW21292   4.788   1.330   1.901
 6798SOL    HW121293   4.698   1.299   1.934
 6798SOL    HW221294   4.843   1.250   1.875
 6799SOL     OW21295   5.671   6.870   3.005
 6799SOL    HW121296   5.651   6.966   2.984
 6799SOL    HW221297   5.616   6.811   2.946
 6800SOL     OW21298   6.635   2.518   2.547
 6800SOL    HW121299   6.706   2.487   2.483
 6800SOL    HW221300   6.674   2.527   2.639
 6801SOL     OW21301   1.614   5.283   5.175
 6801SOL    HW121302   1.547   5.267   5.247
 6801SOL    HW221303   1.618   5.380   5.153
 6802SOL     OW21304   2.723   4.343   1.672
 6802SOL    HW121305   2.752   4.268   1.612
 6802SOL    HW221306   2.802   4.399   1.696
 6803SOL     OW21307   5.971   4.749   6.771
 6803SOL    HW121308   6.057   4.784   6.810
 6803SOL    HW221309   5.988   4.716   6.678
 6804SOL     OW21310   3.347   4.973   2.005
 6804SOL    HW121311   3.252   4.988   2.036
 6804SOL    HW221312   3.375   5.049   1.946
 6805SOL     OW21313   0.756   4.540   3.347
 6805SOL    HW121314   0.717   4.515   3.436
 6805SOL    HW221315   0.752   4.462   3.285
 6806SOL     OW21316   6.135   3.888   1.916
 6806SOL    HW121317   6.176   3.831   1.988
 6806SOL    HW221318   6.041   3.856   1.899
 6807SOL     OW21319   3.424   3.464   2.491
 6807SOL    HW121320   3.451   3.542   2.548
 6807SOL    HW221321   3.369   3.495   2.414
 6808SOL     OW21322   3.839   6.599   3.149
 6808SOL    HW121323   3.819   6.696   3.139
 6808SOL    HW221324   3.925   6.578   3.102
 6809SOL     OW21325   5.598   2.573   0.421
 6809SOL    HW121326   5.620   2.494   0.477
 6809SOL    HW221327   5.510   2.612   0.450
 6810SOL     OW21328   2.464   6.874   4.426
 6810SOL    HW121329   2.521   6.923   4.360
 6810SOL    HW221330   2.521   6.836   4.498
 6811SOL     OW21331   6.339   1.565   1.525
 6811SOL    HW121332   6.292   1.552   1.613
 6811SOL    HW221333   6.411   1.634   1.536
 6812SOL     OW21334   3.483   4.261   5.307
 6812SOL    HW121335   3.536   4.331   5.355
 6812SOL    HW221336   3.388   4.290   5.300
 6813SOL     OW21337   0.023   3.601   1.942
 6813SOL    HW121338   6.957   3.570   1.963
 6813SOL    HW221339   0.086   3.525   1.950
 6814SOL     OW21340   4.141   2.077   1.947
 6814SOL    HW121341   4.080   2.128   1.887
 6814SOL    HW221342   4.212   2.138   1.982
 6815SOL     OW21343   1.153   5.708   0.213
 6815SOL    HW121344   1.157   5.770   0.292
 6815SOL    HW221345   1.173   5.759   0.130
 6816SOL     OW21346   5.928   6.391   4.496
 6816SOL    HW121347   5.931   6.491   4.507
 6816SOL    HW221348   6.019   6.358   4.472
 6817SOL     OW21349   5.480   0.580   2.062
 6817SOL    HW121350   5.576   0.554   2.064
 6817SOL    HW221351   5.443   0.562   1.971
 6818SOL     OW21352   6.912   6.962   5.491
 6818SOL    HW121353   6.861   6.920   5.566
 6818SOL    HW221354   6.937   6.892   5.424
 6819SOL     OW21355   5.318   3.840   0.837
 6819SOL    HW121356   5.310   3.927   0.789
 6819SOL    HW221357   5.412   3.828   0.870
 6820SOL     OW21358   2.538   3.381   1.296
 6820SOL    HW121359   2.614   3.395   1.232
 6820SOL    HW221360   2.534   3.285   1.323
 6821SOL     OW21361   2.830   3.283   5.941
 6821SOL    HW121362   2.784   3.216   5.882
 6821SOL    HW221363   2.919   3.248   5.969
 6822SOL     OW21364   6.507   3.996   5.084
 6822SOL    HW121365   6.476   3.924   5.022
 6822SOL    HW221366   6.485   4.086   5.045
 6823SOL     OW21367   6.832   3.144   5.925
 6823SOL    HW121368   6.745   3.166   5.881
 6823SOL    HW221369   6.842   3.045   5.933
 6824SOL     OW21370   0.614   0.416   3.737
 6824SOL    HW121371   0.530   0.444   3.784
 6824SOL    HW221372   0.683   0.488   3.748
 6825SOL     OW21373   4.545   4.543   1.482
 6825SOL    HW121374   4.537   4.499   1.571
 6825SOL    HW221375   4.641   4.570   1.467
 6826SOL     OW21376   5.925   1.137   3.616
 6826SOL    HW121377   5.898   1.161   3.709
 6826SOL    HW221378   6.023   1.118   3.614
 6827SOL     OW21379   5.297   5.690   5.991
 6827SOL    HW121380   5.215   5.704   6.047
 6827SOL    HW221381   5.283   5.612   5.930
 6828SOL     OW21382   2.628   2.464   2.687
 6828SOL    HW121383   2.708   2.474   2.746
 6828SOL    HW221384   2.597   2.369   2.689
 6829SOL     OW21385   5.427   6.528   3.967
 6829SOL    HW121386   5.366   6.522   4.047
 6829SOL    HW221387   5.413   6.447   3.910
 6830SOL     OW21388   3.904   6.169   2.051
 6830SOL    HW121389   3.985   6.217   2.019
 6830SOL    HW221390   3.833   6.174   1.980
 6831SOL     OW21391   2.141   1.042   6.873
 6831SOL    HW121392   2.052   1.049   6.919
 6831SOL    HW221393   2.209   1.091   6.928
 6832SOL     OW21394   3.233   3.505   6.979
 6832SOL    HW121395   3.325   3.483   7.013
 6832SOL    HW221396   3.168   3.502   0.028
 6833SOL     OW21397   4.804   5.318   6.926
 6833SOL    HW121398   4.732   5.263   6.883
 6833SOL    HW221399   4.803   5.410   6.887
 6834SOL     OW21400   5.991   5.789   5.647
 6834SOL    HW121401   6.014   5.718   5.713
 6834SOL    HW221402   6.050   5.868   5.661
 6835SOL     OW21403   3.998   0.270   3.106
 6835SOL    HW121404   3.928   0.215   3.153
 6835SOL    HW221405   4.029   0.220   3.025
 6836SOL     OW21406   0.794   4.779   6.979
 6836SOL    HW121407   0.716   4.722   6.955
 6836SOL    HW221408   0.876   4.723   6.987
 6837SOL     OW21409   6.427   2.110   1.911
 6837SOL    HW121410   6.343   2.076   1.869
 6837SOL    HW221411   6.404   2.182   1.977
 6838SOL     OW21412   2.233   4.541   6.561
 6838SOL    HW121413   2.218   4.618   6.498
 6838SOL    HW221414   2.266   4.462   6.509
 6839SOL     OW21415   5.741   2.516   5.587
 6839SOL    HW121416   5.763   2.577   5.663
 6839SOL    HW221417   5.654   2.543   5.547
 6840SOL     OW21418   3.226   0.142   4.687
 6840SOL    HW121419   3.143   0.101   4.726
 6840SOL    HW221420   3.292   0.159   4.761
 6841SOL     OW21421   4.507   6.258   0.668
 6841SOL    HW121422   4.495   6.247   0.767
 6841SOL    HW221423   4.578   6.195   0.636
 6842SOL     OW21424   1.335   3.339   3.626
 6842SOL    HW121425   1.398   3.395   3.572
 6842SOL    HW221426   1.241   3.367   3.606
 6843SOL     OW21427   4.953   2.972   1.837
 6843SOL    HW121428   4.860   2.961   1.872
 6843SOL    HW221429   5.017   2.981   1.913
 6844SOL     OW21430   3.263   0.002   5.154
 6844SOL    HW121431   3.218   0.011   5.242
 6844SOL    HW221432   3.266   6.933   5.127
 6845SOL     OW21433   3.606   3.731   6.901
 6845SOL    HW121434   3.689   3.716   6.956
 6845SOL    HW221435   3.584   3.648   6.850
 6846SOL     OW21436   4.136   3.549   3.945
 6846SOL    HW121437   4.070   3.475   3.954
 6846SOL    HW221438   4.110   3.607   3.868
 6847SOL     OW21439   5.378   2.654   2.626
 6847SOL    HW121440   5.386   2.735   2.569
 6847SOL    HW221441   5.330   2.676   2.710
 6848SOL     OW21442   0.672   5.794   5.189
 6848SOL    HW121443   0.625   5.881   5.174
 6848SOL    HW221444   0.771   5.809   5.181
 6849SOL     OW21445   3.192   0.409   4.977
 6849SOL    HW121446   3.148   0.455   4.900
 6849SOL    HW221447   3.267   0.465   5.011
 6850SOL     OW21448   6.598   3.483   1.789
 6850SOL    HW121449   6.595   3.384   1.777
 6850SOL    HW221450   6.660   3.523   1.722
 6851SOL     OW21451   1.695   5.768   6.641
 6851SOL    HW121452   1.747   5.770   6.726
 6851SOL    HW221453   1.603   5.805   6.657
 6852SOL     OW21454   5.865   5.176   2.072
 6852SOL    HW121455   5.786   5.174   2.011
 6852SOL    HW221456   5.949   5.184   2.018
 6853SOL     OW21457   6.274   4.143   4.739
 6853SOL    HW121458   6.213   4.108   4.667
 6853SOL    HW221459   6.343   4.074   4.760
 6854SOL     OW21460   6.296   1.318   6.736
 6854SOL    HW121461   6.299   1.222   6.708
 6854SOL    HW221462   6.356   1.332   6.814
 6855SOL     OW21463   2.848   6.927   1.638
 6855SOL    HW121464   2.902   6.956   1.717
 6855SOL    HW221465   2.907   6.877   1.574
 6856SOL     OW21466   0.592   6.102   5.579
 6856SOL    HW121467   0.546   6.036   5.638
 6856SOL    HW221468   0.608   6.061   5.489
 6857SOL     OW21469   4.984   0.678   6.940
 6857SOL    HW121470   4.986   0.712   6.846
 6857SOL    HW221471   5.077   0.663   6.972
 6858SOL     OW21472   3.398   2.816   6.720
 6858SOL    HW121473   3.461   2.834   6.644
 6858SOL    HW221474   3.359   2.902   6.752
 6859SOL     OW21475   4.325   0.892   0.296
 6859SOL    HW121476   4.425   0.888   0.294
 6859SOL    HW221477   4.294   0.911   0.389
 6860SOL     OW21478   4.851   3.566   6.662
 6860SOL    HW121479   4.905   3.650   6.666
 6860SOL    HW221480   4.816   3.544   6.753
 6861SOL     OW21481   5.897   3.545   0.725
 6861SOL    HW121482   5.863   3.600   0.649
 6861SOL    HW221483   5.965   3.599   0.776
 6862SOL     OW21484   2.519   4.689   4.668
 6862SOL    HW121485   2.543   4.728   4.757
 6862SOL    HW221486   2.425   4.713   4.645
 6863SOL     OW21487   1.210   3.268   4.002
 6863SOL    HW121488   1.262   3.350   4.027
 6863SOL    HW221489   1.246   3.189   4.050
 6864SOL     OW21490   3.947   5.707   6.310
 6864SOL    HW121491   3.971   5.655   6.228
 6864SOL    HW221492   3.965   5.652   6.391
 6865SOL     OW21493   0.659   2.699   4.289
 6865SOL    HW121494   0.731   2.768   4.280
 6865SOL    HW221495   0.635   2.688   4.385
 6866SOL     OW21496   0.737   3.858   2.737
 6866SOL    HW121497   0.733   3.801   2.819
 6866SOL    HW221498   0.696   3.947   2.756
 6867SOL     OW21499   2.000   5.579   3.353
 6867SOL    HW121500   2.030   5.507   3.415
 6867SOL    HW221501   1.911   5.614   3.383
 6868SOL     OW21502   1.867   5.491   4.679
 6868SOL    HW121503   1.788   5.505   4.618
 6868SOL    HW221504   1.861   5.556   4.755
 6869SOL     OW21505   0.344   3.386   5.096
 6869SOL    HW121506   0.353   3.366   4.998
 6869SOL    HW221507   0.416   3.449   5.123
 6870SOL     OW21508   5.604   3.360   3.006
 6870SOL    HW121509   5.638   3.267   3.018
 6870SOL    HW221510   5.611   3.386   2.910
 6871SOL     OW21511   4.971   5.736   1.361
 6871SOL    HW121512   5.001   5.746   1.456
 6871SOL    HW221513   4.883   5.782   1.349
 6872SOL     OW21514   3.372   4.364   0.766
 6872SOL    HW121515   3.356   4.281   0.713
 6872SOL    HW221516   3.363   4.444   0.706
 6873SOL     OW21517   5.676   4.855   4.656
 6873SOL    HW121518   5.670   4.903   4.569
 6873SOL    HW221519   5.773   4.840   4.679
 6874SOL     OW21520   0.742   1.743   6.305
 6874SOL    HW121521   0.659   1.783   6.343
 6874SOL    HW221522   0.728   1.726   6.207
 6875SOL     OW21523   3.986   0.401   4.695
 6875SOL    HW121524   3.906   0.393   4.754
 6875SOL    HW221525   3.977   0.482   4.637
 6876SOL     OW21526   3.440   5.867   4.662
 6876SOL    HW121527   3.518   5.873   4.599
 6876SOL    HW221528   3.473   5.878   4.756
 6877SOL     OW21529   1.403   3.909   6.078
 6877SOL    HW121530   1.443   3.842   6.015
 6877SOL    HW221531   1.392   3.996   6.032
 6878SOL     OW21532   1.111   1.254   4.636
 6878SOL    HW121533   1.099   1.349   4.664
 6878SOL    HW221534   1.208   1.232   4.633
 6879SOL     OW21535   6.856   0.883   4.999
 6879SOL    HW121536   6.837   0.792   5.037
 6879SOL    HW221537   6.802   0.951   5.049
 6880SOL     OW21538   1.197   4.343   4.722
 6880SOL    HW121539   1.165   4.252   4.748
 6880SOL    HW221540   1.270   4.334   4.654
 6881SOL     OW21541   5.352   5.661   1.575
 6881SOL    HW121542   5.407   5.620   1.648
 6881SOL    HW221543   5.289   5.592   1.538
 6882SOL     OW21544   2.435   6.239   5.700
 6882SOL    HW121545   2.443   6.336   5.724
 6882SOL    HW221546   2.522   6.193   5.719
 6883SOL     OW21547   3.068   5.923   2.380
 6883SOL    HW121548   3.073   6.021   2.363
 6883SOL    HW221549   3.033   5.877   2.298
 6884SOL     OW21550   1.937   5.058   2.090
 6884SOL    HW121551   1.958   5.137   2.147
 6884SOL    HW221552   1.852   5.074   2.039
 6885SOL     OW21553   4.201   4.823   5.001
 6885SOL    HW121554   4.138   4.830   5.079
 6885SOL    HW221555   4.240   4.731   4.998
 6886SOL     OW21556   5.184   1.211   1.420
 6886SOL    HW121557   5.198   1.112   1.406
 6886SOL    HW221558   5.110   1.242   1.361
 6887SOL     OW21559   6.148   0.880   5.104
 6887SOL    HW121560   6.198   0.812   5.051
 6887SOL    HW221561   6.076   0.835   5.157
 6888SOL     OW21562   5.841   0.080   4.154
 6888SOL    HW121563   5.940   0.073   4.142
 6888SOL    HW221564   5.812   0.175   4.144
 6889SOL     OW21565   1.976   4.163   6.341
 6889SOL    HW121566   2.065   4.135   6.303
 6889SOL    HW221567   1.919   4.199   6.268
 6890SOL     OW21568   1.893   0.537   1.036
 6890SOL    HW121569   1.992   0.531   1.034
 6890SOL    HW221570   1.856   0.530   0.943
 6891SOL     OW21571   4.359   5.524   5.769
 6891SOL    HW121572   4.381   5.605   5.714
 6891SOL    HW221573   4.443   5.485   5.806
 6892SOL     OW21574   3.306   1.599   4.924
 6892SOL    HW121575   3.353   1.557   4.847
 6892SOL    HW221576   3.355   1.578   5.009
 6893SOL     OW21577   5.104   0.519   1.109
 6893SOL    HW121578   5.184   0.466   1.140
 6893SOL    HW221579   5.091   0.598   1.169
 6894SOL     OW21580   5.800   4.546   6.453
 6894SOL    HW121581   5.735   4.514   6.521
 6894SOL    HW221582   5.893   4.534   6.487
 6895SOL     OW21583   4.282   5.349   5.553
 6895SOL    HW121584   4.183   5.340   5.543
 6895SOL    HW221585   4.303   5.395   5.640
 6896SOL     OW21586   4.549   1.614   2.700
 6896SOL    HW121587   4.484   1.655   2.764
 6896SOL    HW221588   4.638   1.658   2.710
 6897SOL     OW21589   3.733   0.557   1.319
 6897SOL    HW121590   3.823   0.589   1.351
 6897SOL    HW221591   3.703   0.613   1.242
 6898SOL     OW21592   4.280   1.353   2.677
 6898SOL    HW121593   4.275   1.376   2.580
 6898SOL    HW221594   4.298   1.255   2.686
 6899SOL     OW21595   5.687   6.142   6.196
 6899SOL    HW121596   5.769   6.085   6.195
 6899SOL    HW221597   5.683   6.193   6.282
 6900SOL     OW21598   4.371   0.572   6.546
 6900SOL    HW121599   4.410   0.564   6.455
 6900SOL    HW221600   4.429   0.524   6.612
 6901SOL     OW21601   2.073   0.883   0.125
 6901SOL    HW121602   2.106   0.801   0.172
 6901SOL    HW221603   2.053   0.954   0.192
 6902SOL     OW21604   6.886   5.663   2.573
 6902SOL    HW121605   6.812   5.600   2.548
 6902SOL    HW221606   6.868   5.753   2.533
 6903SOL     OW21607   4.919   4.302   0.488
 6903SOL    HW121608   4.828   4.329   0.455
 6903SOL    HW221609   4.959   4.237   0.423
 6904SOL     OW21610   0.627   0.721   2.652
 6904SOL    HW121611   0.529   0.709   2.668
 6904SOL    HW221612   0.659   0.802   2.700
 6905SOL     OW21613   3.385   5.483   1.069
 6905SOL    HW121614   3.358   5.434   1.152
 6905SOL    HW221615   3.484   5.498   1.070
 6906SOL     OW21616   5.877   6.275   3.282
 6906SOL    HW121617   5.962   6.248   3.237
 6906SOL    HW221618   5.852   6.207   3.351
 6907SOL     OW21619   3.560   0.501   1.534
 6907SOL    HW121620   3.617   0.516   1.453
 6907SOL    HW221621   3.466   0.483   1.505
 6908SOL     OW21622   5.538   6.928   6.751
 6908SOL    HW121623   5.626   6.954   6.711
 6908SOL    HW221624   5.464   6.964   6.695
 6909SOL     OW21625   2.503   2.630   0.029
 6909SOL    HW121626   2.597   2.595   0.034
 6909SOL    HW221627   2.446   2.585   0.097
 6910SOL     OW21628   5.417   1.367   1.082
 6910SOL    HW121629   5.328   1.353   1.037
 6910SOL    HW221630   5.404   1.427   1.162
 6911SOL     OW21631   4.250   0.346   5.095
 6911SOL    HW121632   4.311   0.377   5.168
 6911SOL    HW221633   4.277   0.254   5.066
 6912SOL     OW21634   4.167   4.763   2.106
 6912SOL    HW121635   4.243   4.712   2.064
 6912SOL    HW221636   4.192   4.790   2.199
 6913SOL     OW21637   4.784   5.449   5.513
 6913SOL    HW121638   4.720   5.371   5.505
 6913SOL    HW221639   4.770   5.510   5.435
 6914SOL     OW21640   6.359   4.717   0.168
 6914SOL    HW121641   6.394   4.642   0.111
 6914SOL    HW221642   6.263   4.733   0.146
 6915SOL     OW21643   0.324   6.489   0.690
 6915SOL    HW121644   0.334   6.575   0.639
 6915SOL    HW221645   0.369   6.415   0.640
 6916SOL     OW21646   6.237   0.294   5.629
 6916SOL    HW121647   6.184   0.235   5.690
 6916SOL    HW221648   6.246   0.250   5.540
 6917SOL     OW21649   4.420   0.118   5.957
 6917SOL    HW121650   4.460   0.038   6.001
 6917SOL    HW221651   4.334   0.142   6.003
 6918SOL     OW21652   2.308   2.839   3.644
 6918SOL    HW121653   2.217   2.802   3.629
 6918SOL    HW221654   2.377   2.772   3.616
 6919SOL     OW21655   1.344   6.137   3.433
 6919SOL    HW121656   1.379   6.047   3.457
 6919SOL    HW221657   1.249   6.145   3.460
 6920SOL     OW21658   5.474   5.783   4.411
 6920SOL    HW121659   5.382   5.743   4.417
 6920SOL    HW221660   5.536   5.717   4.369
 6921SOL     OW21661   1.127   5.624   3.593
 6921SOL    HW121662   1.209   5.661   3.635
 6921SOL    HW221663   1.046   5.671   3.629
 6922SOL     OW21664   1.943   6.746   0.803
 6922SOL    HW121665   1.879   6.761   0.727
 6922SOL    HW221666   1.935   6.821   0.868
 6923SOL     OW21667   4.910   5.478   3.444
 6923SOL    HW121668   4.812   5.462   3.444
 6923SOL    HW221669   4.942   5.489   3.538
 6924SOL     OW21670   6.184   5.849   2.424
 6924SOL    HW121671   6.281   5.829   2.412
 6924SOL    HW221672   6.147   5.791   2.497
 6925SOL     OW21673   5.105   5.475   2.491
 6925SOL    HW121674   5.035   5.546   2.483
 6925SOL    HW221675   5.063   5.389   2.518
 6926SOL     OW21676   2.743   4.156   5.349
 6926SOL    HW121677   2.658   4.179   5.395
 6926SOL    HW221678   2.809   4.231   5.362
 6927SOL     OW21679   4.291   3.693   0.912
 6927SOL    HW121680   4.200   3.725   0.884
 6927SOL    HW221681   4.283   3.603   0.954
 6928SOL     OW21682   0.043   0.784   6.575
 6928SOL    HW121683   0.128   0.835   6.591
 6928SOL    HW221684   0.007   0.808   6.485
 6929SOL     OW21685   2.902   5.234   1.790
 6929SOL    HW121686   2.941   5.301   1.726
 6929SOL    HW221687   2.975   5.197   1.847
 6930SOL     OW21688   0.057   0.447   3.172
 6930SOL    HW121689   0.133   0.509   3.190
 6930SOL    HW221690   0.084   0.354   3.197
 6931SOL     OW21691   2.391   7.027   0.160
 6931SOL    HW121692   2.435   6.969   0.228
 6931SOL    HW221693   2.460   0.047   0.106
 6932SOL     OW21694   2.599   2.600   0.489
 6932SOL    HW121695   2.606   2.512   0.441
 6932SOL    HW221696   2.528   2.656   0.447
 6933SOL     OW21697   2.170   6.123   5.100
 6933SOL    HW121698   2.165   6.091   5.006
 6933SOL    HW221699   2.257   6.095   5.141
 6934SOL     OW21700   5.553   5.068   6.637
 6934SOL    HW121701   5.535   5.158   6.677
 6934SOL    HW221702   5.645   5.038   6.661
 6935SOL     OW21703   4.689   5.670   3.164
 6935SOL    HW121704   4.640   5.729   3.100
 6935SOL    HW221705   4.770   5.719   3.199
 6936SOL     OW21706   0.648   4.581   0.423
 6936SOL    HW121707   0.703   4.498   0.434
 6936SOL    HW221708   0.689   4.637   0.351
 6937SOL     OW21709   4.703   6.190   6.167
 6937SOL    HW121710   4.684   6.219   6.073
 6937SOL    HW221711   4.790   6.230   6.197
 6938SOL     OW21712   5.677   2.772   5.260
 6938SOL    HW121713   5.629   2.777   5.348
 6938SOL    HW221714   5.699   2.864   5.228
 6939SOL     OW21715   6.656   4.651   2.009
 6939SOL    HW121716   6.624   4.564   2.047
 6939SOL    HW221717   6.692   4.637   1.917
 6940SOL     OW21718   4.306   0.419   4.837
 6940SOL    HW121719   4.275   0.371   4.919
 6940SOL    HW221720   4.243   0.400   4.762
 6941SOL     OW21721   4.139   3.469   4.907
 6941SOL    HW121722   4.180   3.394   4.959
 6941SOL    HW221723   4.130   3.549   4.966
 6942SOL     OW21724   6.125   1.819   7.023
 6942SOL    HW121725   6.084   1.836   6.933
 6942SOL    HW221726   6.064   1.763   0.051
 6943SOL     OW21727   6.140   5.673   6.516
 6943SOL    HW121728   6.139   5.600   6.447
 6943SOL    HW221729   6.062   5.734   6.500
 6944SOL     OW21730   1.560   6.474   0.496
 6944SOL    HW121731   1.657   6.497   0.479
 6944SOL    HW221732   1.502   6.530   0.437
 6945SOL     OW21733   4.833   1.980   6.337
 6945SOL    HW121734   4.739   1.966   6.369
 6945SOL    HW221735   4.891   2.003   6.415
 6946SOL     OW21736   6.427   3.593   3.490
 6946SOL    HW121737   6.408   3.498   3.515
 6946SOL    HW221738   6.407   3.606   3.393
 6947SOL     OW21739   3.830   6.842   1.272
 6947SOL    HW121740   3.740   6.880   1.251
 6947SOL    HW221741   3.827   6.795   1.360
 6948SOL     OW21742   3.873   2.668   5.405
 6948SOL    HW121743   3.841   2.762   5.398
 6948SOL    HW221744   3.945   2.662   5.475
 6949SOL     OW21745   5.110   0.966   2.438
 6949SOL    HW121746   5.011   0.966   2.448
 6949SOL    HW221747   5.134   0.956   2.341
 6950SOL     OW21748   3.316   1.406   3.260
 6950SOL    HW121749   3.385   1.472   3.232
 6950SOL    HW221750   3.257   1.447   3.330
 6951SOL     OW21751   5.142   4.848   5.463
 6951SOL    HW121752   5.085   4.840   5.544
 6951SOL    HW221753   5.113   4.927   5.409
 6952SOL     OW21754   0.025   4.217   5.700
 6952SOL    HW121755   0.012   4.129   5.747
 6952SOL    HW221756   0.081   4.203   5.619
 6953SOL     OW21757   4.918   2.358   4.899
 6953SOL    HW121758   4.878   2.353   4.808
 6953SOL    HW221759   5.016   2.380   4.892
 6954SOL     OW21760   0.204   4.345   1.933
 6954SOL    HW121761   0.232   4.401   1.856
 6954SOL    HW221762   0.106   4.355   1.949
 6955SOL     OW21763   6.732   0.414   3.165
 6955SOL    HW121764   6.775   0.330   3.131
 6955SOL    HW221765   6.796   0.490   3.155
 6956SOL     OW21766   2.280   4.264   0.861
 6956SOL    HW121767   2.197   4.223   0.824
 6956SOL    HW221768   2.300   4.224   0.951
 6957SOL     OW21769   0.911   4.444   0.213
 6957SOL    HW121770   0.937   4.377   0.284
 6957SOL    HW221771   0.818   4.427   0.182
 6958SOL     OW21772   2.552   3.752   5.941
 6958SOL    HW121773   2.628   3.806   5.978
 6958SOL    HW221774   2.466   3.787   5.977
 6959SOL     OW21775   3.755   1.193   4.284
 6959SOL    HW121776   3.758   1.182   4.384
 6959SOL    HW221777   3.848   1.188   4.247
 6960SOL     OW21778   0.453   5.511   0.066
 6960SOL    HW121779   0.401   5.593   0.089
 6960SOL    HW221780   0.421   5.435   0.123
 6961SOL     OW21781   6.161   1.436   2.994
 6961SOL    HW121782   6.250   1.393   3.010
 6961SOL    HW221783   6.175   1.529   2.960
 6962SOL     OW21784   3.758   3.866   1.141
 6962SOL    HW121785   3.707   3.800   1.086
 6962SOL    HW221786   3.782   3.824   1.229
 6963SOL     OW21787   6.233   6.119   2.406
 6963SOL    HW121788   6.274   6.118   2.497
 6963SOL    HW221789   6.218   6.025   2.376
 6964SOL     OW21790   3.166   6.028   5.599
 6964SOL    HW121791   3.146   6.051   5.694
 6964SOL    HW221792   3.120   6.093   5.538
 6965SOL     OW21793   6.559   1.692   5.590
 6965SOL    HW121794   6.491   1.700   5.517
 6965SOL    HW221795   6.650   1.685   5.550
 6966SOL     OW21796   5.520   2.225   3.988
 6966SOL    HW121797   5.438   2.282   3.986
 6966SOL    HW221798   5.497   2.135   4.026
 6967SOL     OW21799   2.519   2.756   6.064
 6967SOL    HW121800   2.428   2.799   6.068
 6967SOL    HW221801   2.541   2.716   6.153
 6968SOL     OW21802   4.368   0.061   4.254
 6968SOL    HW121803   4.435   7.021   4.221
 6968SOL    HW221804   4.325   0.027   4.337
 6969SOL     OW21805   2.869   3.429   0.435
 6969SOL    HW121806   2.835   3.339   0.462
 6969SOL    HW221807   2.929   3.420   0.356
 6970SOL     OW21808   4.802   4.207   1.022
 6970SOL    HW121809   4.883   4.263   1.035
 6970SOL    HW221810   4.767   4.221   0.929
 6971SOL     OW21811   6.356   1.120   2.061
 6971SOL    HW121812   6.265   1.140   2.096
 6971SOL    HW221813   6.397   1.205   2.027
 6972SOL     OW21814   5.638   5.084   4.466
 6972SOL    HW121815   5.549   5.081   4.422
 6972SOL    HW221816   5.642   5.161   4.530
 6973SOL     OW21817   1.601   4.355   3.658
 6973SOL    HW121818   1.551   4.439   3.640
 6973SOL    HW221819   1.683   4.352   3.601
 6974SOL     OW21820   3.723   4.206   5.095
 6974SOL    HW121821   3.672   4.192   5.010
 6974SOL    HW221822   3.659   4.224   5.170
 6975SOL     OW21823   3.375   6.997   6.087
 6975SOL    HW121824   3.276   6.986   6.096
 6975SOL    HW221825   3.404   0.050   6.140
 6976SOL     OW21826   1.372   6.367   0.671
 6976SOL    HW121827   1.367   6.449   0.728
 6976SOL    HW221828   1.438   6.381   0.597
 6977SOL     OW21829   4.786   2.893   2.245
 6977SOL    HW121830   4.769   2.927   2.152
 6977SOL    HW221831   4.759   2.963   2.311
 6978SOL     OW21832   4.568   2.218   3.588
 6978SOL    HW121833   4.599   2.263   3.504
 6978SOL    HW221834   4.480   2.256   3.616
 6979SOL     OW21835   0.823   4.086   3.778
 6979SOL    HW121836   0.740   4.086   3.722
 6979SOL    HW221837   0.817   4.012   3.845
 6980SOL     OW21838   4.590   1.110   4.911
 6980SOL    HW121839   4.616   1.025   4.958
 6980SOL    HW221840   4.611   1.188   4.970
 6981SOL     OW21841   2.799   3.816   6.859
 6981SOL    HW121842   2.818   3.862   6.946
 6981SOL    HW221843   2.710   3.769   6.865
 6982SOL     OW21844   0.216   0.098   5.324
 6982SOL    HW121845   0.276   0.153   5.266
 6982SOL    HW221846   0.248   0.103   5.419
 6983SOL     OW21847   6.116   1.188   2.610
 6983SOL    HW121848   6.130   1.090   2.621
 6983SOL    HW221849   6.174   1.237   2.675
 6984SOL     OW21850   1.654   1.319   5.945
 6984SOL    HW121851   1.640   1.351   6.039
 6984SOL    HW221852   1.701   1.389   5.892
 6985SOL     OW21853   4.933   0.153   3.933
 6985SOL    HW121854   4.857   0.122   3.876
 6985SOL    HW221855   5.020   0.123   3.891
 6986SOL     OW21856   1.426   6.798   5.129
 6986SOL    HW121857   1.515   6.813   5.087
 6986SOL    HW221858   1.422   6.846   5.217
 6987SOL     OW21859   6.769   3.028   6.506
 6987SOL    HW121860   6.834   3.009   6.433
 6987SOL    HW221861   6.788   3.118   6.545
 6988SOL     OW21862   5.585   1.662   6.085
 6988SOL    HW121863   5.550   1.635   6.175
 6988SOL    HW221864   5.683   1.642   6.080
 6989SOL     OW21865   2.191   3.158   3.767
 6989SOL    HW121866   2.136   3.241   3.775
 6989SOL    HW221867   2.243   3.161   3.681
 6990SOL     OW21868   3.696   3.359   0.869
 6990SOL    HW121869   3.766   3.290   0.888
 6990SOL    HW221870   3.641   3.375   0.951
 6991SOL     OW21871   4.022   4.713   5.234
 6991SOL    HW121872   3.948   4.727   5.299
 6991SOL    HW221873   4.076   4.634   5.261
 6992SOL     OW21874   6.185   6.896   4.450
 6992SOL    HW121875   6.235   6.982   4.456
 6992SOL    HW221876   6.126   6.886   4.531
 6993SOL     OW21877   0.176   6.975   3.353
 6993SOL    HW121878   0.215   6.886   3.328
 6993SOL    HW221879   0.087   6.960   3.396
 6994SOL     OW21880   1.526   2.515   0.107
 6994SOL    HW121881   1.477   2.595   0.075
 6994SOL    HW221882   1.467   2.460   0.167
 6995SOL     OW21883   0.820   5.237   4.110
 6995SOL    HW121884   0.869   5.203   4.030
 6995SOL    HW221885   0.859   5.324   4.140
 6996SOL     OW21886   1.867   6.938   6.407
 6996SOL    HW121887   1.860   6.977   6.315
 6996SOL    HW221888   1.801   6.863   6.417
 6997SOL     OW21889   4.687   5.475   4.232
 6997SOL    HW121890   4.610   5.471   4.295
 6997SOL    HW221891   4.771   5.452   4.280
 6998SOL     OW21892   2.916   2.021   2.983
 6998SOL    HW121893   2.923   2.110   3.028
 6998SOL    HW221894   2.926   2.032   2.884
 6999SOL     OW21895   5.578   2.210   0.122
 6999SOL    HW121896   5.516   2.176   0.193
 6999SOL    HW221897   5.590   2.309   0.132
 7000SOL     OW21898   6.490   0.307   1.563
 7000SOL    HW121899   6.450   0.398   1.558
 7000SOL    HW221900   6.500   0.270   1.471
 7001SOL     OW21901   3.118   1.705   6.341
 7001SOL    HW121902   3.166   1.753   6.267
 7001SOL    HW221903   3.076   1.772   6.402
 7002SOL     OW21904   2.168   4.579   1.974
 7002SOL    HW121905   2.073   4.568   2.003
 7002SOL    HW221906   2.174   4.657   1.911
 7003SOL     OW21907   1.630   6.122   5.626
 7003SOL    HW121908   1.533   6.146   5.630
 7003SOL    HW221909   1.649   6.050   5.692
 7004SOL     OW21910   1.486   4.036   6.902
 7004SOL    HW121911   1.528   4.094   6.833
 7004SOL    HW221912   1.430   4.093   6.963
 7005SOL     OW21913   6.772   6.841   5.991
 7005SOL    HW121914   6.855   6.874   6.037
 7005SOL    HW221915   6.798   6.782   5.915
 7006SOL     OW21916   4.413   4.642   4.044
 7006SOL    HW121917   4.316   4.637   4.069
 7006SOL    HW221918   4.425   4.607   3.951
 7007SOL     OW21919   4.694   4.804   2.666
 7007SOL    HW121920   4.644   4.719   2.649
 7007SOL    HW221921   4.743   4.797   2.753
 7008SOL     OW21922   0.889   5.004   3.903
 7008SOL    HW121923   0.906   4.961   3.814
 7008SOL    HW221924   0.941   4.956   3.974
 7009SOL     OW21925   6.955   4.102   1.898
 7009SOL    HW121926   6.890   4.026   1.893
 7009SOL    HW221927   7.009   4.094   1.981
 7010SOL     OW21928   5.417   4.706   6.356
 7010SOL    HW121929   5.508   4.688   6.318
 7010SOL    HW221930   5.353   4.638   6.322
 7011SOL     OW21931   0.844   0.692   5.623
 7011SOL    HW121932   0.922   0.712   5.564
 7011SOL    HW221933   0.873   0.687   5.718
 7012SOL     OW21934   1.462   1.387   1.498
 7012SOL    HW121935   1.386   1.347   1.548
 7012SOL    HW221936   1.544   1.386   1.555
 7013SOL     OW21937   6.623   1.858   1.974
 7013SOL    HW121938   6.547   1.918   1.949
 7013SOL    HW221939   6.704   1.881   1.919
 7014SOL     OW21940   2.194   5.282   0.686
 7014SOL    HW121941   2.126   5.250   0.752
 7014SOL    HW221942   2.230   5.371   0.716
 7015SOL     OW21943   4.845   2.024   2.647
 7015SOL    HW121944   4.774   2.055   2.583
 7015SOL    HW221945   4.932   2.019   2.599
 7016SOL     OW21946   4.347   4.357   1.622
 7016SOL    HW121947   4.396   4.319   1.701
 7016SOL    HW221948   4.294   4.285   1.578
 7017SOL     OW21949   4.926   1.563   5.240
 7017SOL    HW121950   4.890   1.512   5.318
 7017SOL    HW221951   4.900   1.659   5.249
 7018SOL     OW21952   0.663   3.319   2.869
 7018SOL    HW121953   0.588   3.281   2.924
 7018SOL    HW221954   0.634   3.408   2.832
 7019SOL     OW21955   1.057   5.973   1.113
 7019SOL    HW121956   1.083   5.909   1.186
 7019SOL    HW221957   1.024   5.922   1.034
 7020SOL     OW21958   0.292   5.843   6.926
 7020SOL    HW121959   0.251   5.934   6.926
 7020SOL    HW221960   0.320   5.818   7.018
 7021SOL     OW21961   3.613   6.912   5.979
 7021SOL    HW121962   3.690   6.954   6.029
 7021SOL    HW221963   3.532   6.912   6.038
 7022SOL     OW21964   4.645   5.457   5.877
 7022SOL    HW121965   4.604   5.426   5.963
 7022SOL    HW221966   4.689   5.379   5.832
 7023SOL     OW21967   4.700   4.335   2.743
 7023SOL    HW121968   4.780   4.289   2.781
 7023SOL    HW221969   4.689   4.309   2.647
 7024SOL     OW21970   6.126   6.461   1.191
 7024SOL    HW121971   6.214   6.421   1.217
 7024SOL    HW221972   6.115   6.550   1.235
 7025SOL     OW21973   2.461   0.540   0.228
 7025SOL    HW121974   2.381   0.559   0.172
 7025SOL    HW221975   2.480   0.619   0.287
 7026SOL     OW21976   3.960   1.923   1.300
 7026SOL    HW121977   4.023   1.998   1.322
 7026SOL    HW221978   3.888   1.919   1.369
 7027SOL     OW21979   5.578   5.840   3.842
 7027SOL    HW121980   5.527   5.879   3.918
 7027SOL    HW221981   5.673   5.828   3.868
 7028SOL     OW21982   2.880   0.277   4.412
 7028SOL    HW121983   2.939   0.206   4.374
 7028SOL    HW221984   2.935   0.349   4.452
 7029SOL     OW21985   4.114   1.312   4.724
 7029SOL    HW121986   4.181   1.253   4.770
 7029SOL    HW221987   4.117   1.294   4.625
 7030SOL     OW21988   1.930   3.294   4.289
 7030SOL    HW121989   2.023   3.301   4.252
 7030SOL    HW221990   1.865   3.282   4.213
 7031SOL     OW21991   1.383   1.243   4.614
 7031SOL    HW121992   1.446   1.170   4.641
 7031SOL    HW221993   1.435   1.317   4.571
 7032SOL     OW21994   6.166   2.358   4.008
 7032SOL    HW121995   6.076   2.401   4.003
 7032SOL    HW221996   6.210   2.363   3.918
 7033SOL     OW21997   0.748   0.002   5.206
 7033SOL    HW121998   0.837   6.992   5.233
 7033SOL    HW221999   0.745   0.100   5.225
 7034SOL     OW22000   0.184   4.995   3.470
 7034SOL    HW122001   0.129   5.078   3.467
 7034SOL    HW222002   0.127   4.916   3.446
 7035SOL     OW22003   6.450   4.830   2.062
 7035SOL    HW122004   6.509   4.749   2.058
 7035SOL    HW222005   6.439   4.868   1.970
 7036SOL     OW22006   6.177   4.764   1.010
 7036SOL    HW122007   6.131   4.822   0.943
 7036SOL    HW222008   6.192   4.673   0.971
 7037SOL     OW22009   1.467   0.236   6.508
 7037SOL    HW122010   1.392   0.178   6.473
 7037SOL    HW222011   1.513   0.189   6.583
 7038SOL     OW22012   2.202   3.073   4.454
 7038SOL    HW122013   2.247   3.030   4.531
 7038SOL    HW222014   2.159   3.159   4.484
 7039SOL     OW22015   3.261   2.407   6.792
 7039SOL    HW122016   3.199   2.330   6.776
 7039SOL    HW222017   3.353   2.383   6.762
 7040SOL     OW22018   5.165   2.822   6.655
 7040SOL    HW122019   5.197   2.864   6.740
 7040SOL    HW222020   5.120   2.892   6.598
 7041SOL     OW22021   2.000   1.642   3.491
 7041SOL    HW122022   2.044   1.591   3.565
 7041SOL    HW222023   2.068   1.695   3.441
 7042SOL     OW22024   1.513   0.812   6.632
 7042SOL    HW122025   1.540   0.791   6.538
 7042SOL    HW222026   1.415   0.793   6.643
 7043SOL     OW22027   1.905   2.079   2.147
 7043SOL    HW122028   1.860   2.120   2.069
 7043SOL    HW222029   1.936   1.987   2.123
 7044SOL     OW22030   6.691   6.515   2.027
 7044SOL    HW122031   6.607   6.461   2.026
 7044SOL    HW222032   6.769   6.454   2.039
 7045SOL     OW22033   6.452   4.964   0.142
 7045SOL    HW122034   6.410   4.874   0.155
 7045SOL    HW222035   6.424   5.025   0.216
 7046SOL     OW22036   3.402   1.221   4.010
 7046SOL    HW122037   3.311   1.184   3.992
 7046SOL    HW222038   3.456   1.154   4.062
 7047SOL     OW22039   1.511   0.453   2.738
 7047SOL    HW122040   1.463   0.418   2.657
 7047SOL    HW222041   1.450   0.451   2.817
 7048SOL     OW22042   6.523   5.709   7.014
 7048SOL    HW122043   6.471   5.768   0.049
 7048SOL    HW222044   6.610   5.683   0.029
 7049SOL     OW22045   2.266   0.984   6.604
 7049SOL    HW122046   2.223   1.000   6.693
 7049SOL    HW222047   2.244   1.060   6.542
 7050SOL     OW22048   4.097   3.852   4.814
 7050SOL    HW122049   4.078   3.945   4.782
 7050SOL    HW222050   4.080   3.787   4.740
 7051SOL     OW22051   6.334   6.720   2.948
 7051SOL    HW122052   6.338   6.806   2.997
 7051SOL    HW222053   6.365   6.733   2.854
 7052SOL     OW22054   6.759   0.627   5.258
 7052SOL    HW122055   6.798   0.536   5.273
 7052SOL    HW222056   6.673   0.619   5.209
 7053SOL     OW22057   6.624   4.444   5.871
 7053SOL    HW122058   6.638   4.543   5.867
 7053SOL    HW222059   6.689   4.404   5.935
 7054SOL     OW22060   6.527   1.769   1.599
 7054SOL    HW122061   6.584   1.781   1.518
 7054SOL    HW222062   6.532   1.851   1.656
 7055SOL     OW22063   4.470   1.321   4.528
 7055SOL    HW122064   4.389   1.297   4.582
 7055SOL    HW222065   4.521   1.237   4.505
 7056SOL     OW22066   3.929   5.137   3.928
 7056SOL    HW122067   3.915   5.233   3.953
 7056SOL    HW222068   3.854   5.082   3.965
 7057SOL     OW22069   5.971   5.994   2.928
 7057SOL    HW122070   5.982   5.895   2.937
 7057SOL    HW222071   5.924   6.016   2.843
 7058SOL     OW22072   6.987   4.559   4.456
 7058SOL    HW122073   6.891   4.540   4.475
 7058SOL    HW222074   0.001   4.480   4.409
 7059SOL     OW22075   1.760   1.514   2.545
 7059SOL    HW122076   1.800   1.461   2.620
 7059SOL    HW222077   1.712   1.594   2.582
 7060SOL     OW22078   3.053   6.326   1.139
 7060SOL    HW122079   2.988   6.272   1.193
 7060SOL    HW222080   3.052   6.293   1.044
 7061SOL     OW22081   0.148   0.713   2.675
 7061SOL    HW122082   0.185   0.788   2.621
 7061SOL    HW222083   0.071   0.746   2.730
 7062SOL     OW22084   6.256   1.105   5.600
 7062SOL    HW122085   6.329   1.076   5.663
 7062SOL    HW222086   6.289   1.181   5.544
 7063SOL     OW22087   2.339   7.025   2.266
 7063SOL    HW122088   2.321   0.025   2.171
 7063SOL    HW222089   2.343   6.925   2.273
 7064SOL     OW22090   4.186   2.808   0.294
 7064SOL    HW122091   4.212   2.712   0.283
 7064SOL    HW222092   4.086   2.815   0.295
 7065SOL     OW22093   3.325   3.203   2.105
 7065SOL    HW122094   3.308   3.104   2.110
 7065SOL    HW222095   3.246   3.248   2.062
 7066SOL     OW22096   2.545   5.529   1.264
 7066SOL    HW122097   2.595   5.600   1.314
 7066SOL    HW222098   2.549   5.443   1.315
 7067SOL     OW22099   0.135   3.966   4.111
 7067SOL    HW122100   0.127   3.939   4.015
 7067SOL    HW222101   0.168   3.888   4.165
 7068SOL     OW22102   0.417   0.260   2.759
 7068SOL    HW122103   0.466   0.275   2.673
 7068SOL    HW222104   0.425   0.163   2.785
 7069SOL     OW22105   1.366   4.711   4.916
 7069SOL    HW122106   1.323   4.799   4.936
 7069SOL    HW222107   1.341   4.681   4.825
 7070SOL     OW22108   5.437   5.415   3.427
 7070SOL    HW122109   5.514   5.479   3.417
 7070SOL    HW222110   5.363   5.442   3.366
 7071SOL     OW22111   1.654   7.026   5.213
 7071SOL    HW122112   1.683   6.987   5.300
 7071SOL    HW222113   1.664   6.957   5.141
 7072SOL     OW22114   0.517   6.998   6.891
 7072SOL    HW122115   0.500   7.011   6.989
 7072SOL    HW222116   0.598   0.024   6.865
 7073SOL     OW22117   2.100   2.037   6.188
 7073SOL    HW122118   2.015   2.082   6.215
 7073SOL    HW222119   2.170   2.053   6.257
 7074SOL     OW22120   3.431   0.973   0.279
 7074SOL    HW122121   3.340   1.011   0.263
 7074SOL    HW222122   3.482   0.972   0.194
 7075SOL     OW22123   0.652   5.624   2.146
 7075SOL    HW122124   0.576   5.688   2.147
 7075SOL    HW222125   0.734   5.668   2.183
 7076SOL     OW22126   3.699   1.813   6.074
 7076SOL    HW122127   3.678   1.743   6.142
 7076SOL    HW222128   3.746   1.889   6.119
 7077SOL     OW22129   1.968   5.152   6.690
 7077SOL    HW122130   1.945   5.202   6.773
 7077SOL    HW222131   1.938   5.205   6.610
 7078SOL     OW22132   6.651   0.604   1.759
 7078SOL    HW122133   6.588   0.536   1.795
 7078SOL    HW222134   6.624   0.630   1.667
 7079SOL     OW22135   5.374   6.112   5.206
 7079SOL    HW122136   5.462   6.157   5.219
 7079SOL    HW222137   5.300   6.177   5.225
 7080SOL     OW22138   5.846   0.347   3.967
 7080SOL    HW122139   5.764   0.334   3.911
 7080SOL    HW222140   5.819   0.362   4.062
 7081SOL     OW22141   4.802   0.254   5.177
 7081SOL    HW122142   4.727   0.197   5.212
 7081SOL    HW222143   4.865   0.275   5.252
 7082SOL     OW22144   5.966   1.443   6.965
 7082SOL    HW122145   5.903   1.467   6.890
 7082SOL    HW222146   5.916   1.445   0.025
 7083SOL     OW22147   3.455   0.517   5.841
 7083SOL    HW122148   3.534   0.542   5.784
 7083SOL    HW222149   3.441   0.418   5.838
 7084SOL     OW22150   5.862   5.944   0.489
 7084SOL    HW122151   5.851   6.040   0.514
 7084SOL    HW222152   5.944   5.932   0.434
 7085SOL     OW22153   4.001   1.126   1.236
 7085SOL    HW122154   3.978   1.038   1.193
 7085SOL    HW222155   3.986   1.200   1.171
 7086SOL     OW22156   1.107   1.361   6.022
 7086SOL    HW122157   1.118   1.358   5.923
 7086SOL    HW222158   1.185   1.409   6.063
 7087SOL     OW22159   2.378   2.735   5.011
 7087SOL    HW122160   2.401   2.830   5.030
 7087SOL    HW222161   2.329   2.729   4.924
 7088SOL     OW22162   0.632   2.091   5.573
 7088SOL    HW122163   0.588   2.076   5.485
 7088SOL    HW222164   0.683   2.009   5.599
 7089SOL     OW22165   2.952   1.827   1.368
 7089SOL    HW122166   2.941   1.812   1.466
 7089SOL    HW222167   2.957   1.739   1.321
 7090SOL     OW22168   2.472   2.409   5.389
 7090SOL    HW122169   2.476   2.326   5.333
 7090SOL    HW222170   2.487   2.489   5.332
 7091SOL     OW22171   6.733   6.627   0.781
 7091SOL    HW122172   6.681   6.601   0.863
 7091SOL    HW222173   6.797   6.554   0.758
 7092SOL     OW22174   2.937   2.340   0.593
 7092SOL    HW122175   2.961   2.289   0.676
 7092SOL    HW222176   2.882   2.420   0.618
 7093SOL     OW22177   4.321   3.185   5.805
 7093SOL    HW122178   4.283   3.264   5.757
 7093SOL    HW222179   4.419   3.200   5.822
 7094SOL     OW22180   6.771   0.736   6.209
 7094SOL    HW122181   6.759   0.834   6.193
 7094SOL    HW222182   6.867   0.712   6.199
 7095SOL     OW22183   0.123   3.911   0.144
 7095SOL    HW122184   0.165   3.942   0.229
 7095SOL    HW222185   0.024   3.927   0.148
 7096SOL     OW22186   4.922   0.044   2.656
 7096SOL    HW122187   4.931   0.099   2.739
 7096SOL    HW222188   4.982   0.079   2.585
 7097SOL     OW22189   2.161   0.794   1.731
 7097SOL    HW122190   2.224   0.848   1.788
 7097SOL    HW222191   2.150   0.703   1.772
 7098SOL     OW22192   1.401   0.551   6.265
 7098SOL    HW122193   1.370   0.644   6.245
 7098SOL    HW222194   1.477   0.555   6.331
 7099SOL     OW22195   6.844   1.118   5.617
 7099SOL    HW122196   6.938   1.138   5.642
 7099SOL    HW222197   6.812   1.039   5.669
 7100SOL     OW22198   5.593   2.070   1.507
 7100SOL    HW122199   5.564   2.152   1.557
 7100SOL    HW222200   5.673   2.031   1.552
 7101SOL     OW22201   1.447   0.635   3.870
 7101SOL    HW122202   1.512   0.641   3.794
 7101SOL    HW222203   1.488   0.673   3.953
 7102SOL     OW22204   4.872   2.927   0.386
 7102SOL    HW122205   4.804   2.857   0.408
 7102SOL    HW222206   4.839   2.983   0.311
 7103SOL     OW22207   3.116   0.312   5.879
 7103SOL    HW122208   3.214   0.315   5.901
 7103SOL    HW222209   3.086   0.217   5.875
 7104SOL     OW22210   0.720   2.399   2.049
 7104SOL    HW122211   0.631   2.442   2.042
 7104SOL    HW222212   0.791   2.463   2.018
 7105SOL     OW22213   2.121   3.862   5.563
 7105SOL    HW122214   2.161   3.849   5.472
 7105SOL    HW222215   2.126   3.776   5.614
 7106SOL     OW22216   3.198   2.608   5.308
 7106SOL    HW122217   3.131   2.601   5.382
 7106SOL    HW222218   3.197   2.523   5.254
 7107SOL     OW22219   1.754   1.228   0.497
 7107SOL    HW122220   1.660   1.246   0.471
 7107SOL    HW222221   1.788   1.147   0.450
 7108SOL     OW22222   4.570   6.660   1.842
 7108SOL    HW122223   4.498   6.629   1.905
 7108SOL    HW222224   4.532   6.668   1.750
 7109SOL     OW22225   4.149   6.040   6.431
 7109SOL    HW122226   4.200   5.955   6.419
 7109SOL    HW222227   4.107   6.041   6.522
 7110SOL     OW22228   2.995   4.877   3.963
 7110SOL    HW122229   3.055   4.951   3.935
 7110SOL    HW222230   3.027   4.791   3.923
 7111SOL     OW22231   1.528   2.452   3.536
 7111SOL    HW122232   1.555   2.526   3.599
 7111SOL    HW222233   1.561   2.473   3.444
 7112SOL     OW22234   1.706   6.553   2.500
 7112SOL    HW122235   1.709   6.466   2.550
 7112SOL    HW222236   1.795   6.599   2.508
 7113SOL     OW22237   3.774   3.560   5.079
 7113SOL    HW122238   3.705   3.618   5.037
 7113SOL    HW222239   3.804   3.601   5.165
 7114SOL     OW22240   3.736   6.711   0.579
 7114SOL    HW122241   3.654   6.764   0.556
 7114SOL    HW222242   3.717   6.655   0.661
 7115SOL     OW22243   4.113   1.583   1.493
 7115SOL    HW122244   4.073   1.494   1.472
 7115SOL    HW222245   4.076   1.618   1.578
 7116SOL     OW22246   5.831   3.915   3.150
 7116SOL    HW122247   5.887   3.976   3.094
 7116SOL    HW222248   5.880   3.893   3.234
 7117SOL     OW22249   6.148   6.846   2.337
 7117SOL    HW122250   6.171   6.807   2.248
 7117SOL    HW222251   6.216   6.816   2.405
 7118SOL     OW22252   7.019   3.317   2.638
 7118SOL    HW122253   6.963   3.241   2.603
 7118SOL    HW222254   6.964   3.400   2.643
 7119SOL     OW22255   0.997   2.259   2.703
 7119SOL    HW122256   0.945   2.325   2.756
 7119SOL    HW222257   1.085   2.298   2.677
 7120SOL     OW22258   4.802   6.275   2.929
 7120SOL    HW122259   4.870   6.203   2.922
 7120SOL    HW222260   4.738   6.268   2.852
 7121SOL     OW22261   2.727   6.892   1.240
 7121SOL    HW122262   2.693   6.803   1.271
 7121SOL    HW222263   2.822   6.883   1.212
 7122SOL     OW22264   6.489   6.603   0.337
 7122SOL    HW122265   6.534   6.515   0.326
 7122SOL    HW222266   6.494   6.653   0.250
 7123SOL     OW22267   2.729   5.493   0.391
 7123SOL    HW122268   2.669   5.540   0.327
 7123SOL    HW222269   2.694   5.400   0.406
 7124SOL     OW22270   6.982   6.066   0.360
 7124SOL    HW122271   0.036   6.012   0.342
 7124SOL    HW222272   6.914   6.049   0.288
 7125SOL     OW22273   0.317   6.753   3.250
 7125SOL    HW122274   0.293   6.679   3.312
 7125SOL    HW222275   0.416   6.764   3.249
 7126SOL     OW22276   1.765   4.467   1.087
 7126SOL    HW122277   1.730   4.405   1.158
 7126SOL    HW222278   1.846   4.427   1.045
 7127SOL     OW22279   2.623   0.267   4.384
 7127SOL    HW122280   2.584   0.298   4.470
 7127SOL    HW222281   2.720   0.290   4.380
 7128SOL     OW22282   3.034   3.784   1.742
 7128SOL    HW122283   3.002   3.874   1.772
 7128SOL    HW222284   3.051   3.727   1.822
 7129SOL     OW22285   2.520   1.844   1.225
 7129SOL    HW122286   2.478   1.814   1.311
 7129SOL    HW222287   2.505   1.774   1.155
 7130SOL     OW22288   2.709   0.067   2.874
 7130SOL    HW122289   2.673   7.006   2.843
 7130SOL    HW222290   2.804   0.057   2.901
 7131SOL     OW22291   3.001   1.615   3.601
 7131SOL    HW122292   3.091   1.610   3.644
 7131SOL    HW222293   2.931   1.622   3.672
 7132SOL     OW22294   3.222   4.107   1.967
 7132SOL    HW122295   3.180   4.176   1.909
 7132SOL    HW222296   3.172   4.100   2.053
 7133SOL     OW22297   5.868   4.060   2.159
 7133SOL    HW122298   5.904   3.970   2.182
 7133SOL    HW222299   5.822   4.056   2.070
 7134SOL     OW22300   5.372   4.685   2.806
 7134SOL    HW122301   5.402   4.630   2.884
 7134SOL    HW222302   5.437   4.674   2.730
 7135SOL     OW22303   0.454   2.086   5.811
 7135SOL    HW122304   0.365   2.042   5.802
 7135SOL    HW222305   0.488   2.112   5.721
 7136SOL     OW22306   2.237   1.962   6.431
 7136SOL    HW122307   2.263   1.876   6.386
 7136SOL    HW222308   2.315   1.997   6.482
 7137SOL     OW22309   4.630   1.963   5.118
 7137SOL    HW122310   4.641   2.061   5.129
 7137SOL    HW222311   4.720   1.919   5.119
 7138SOL     OW22312   1.960   2.935   6.909
 7138SOL    HW122313   1.888   2.966   6.970
 7138SOL    HW222314   1.920   2.899   6.824
 7139SOL     OW22315   2.868   1.451   0.579
 7139SOL    HW122316   2.883   1.529   0.519
 7139SOL    HW222317   2.871   1.366   0.526
 7140SOL     OW22318   6.843   4.144   5.195
 7140SOL    HW122319   6.803   4.053   5.201
 7140SOL    HW222320   6.806   4.192   5.116
 7141SOL     OW22321   1.327   6.469   1.931
 7141SOL    HW122322   1.406   6.449   1.874
 7141SOL    HW222323   1.283   6.553   1.900
 7142SOL     OW22324   3.646   6.444   3.439
 7142SOL    HW122325   3.704   6.458   3.520
 7142SOL    HW222326   3.552   6.429   3.468
 7143SOL     OW22327   2.467   2.249   4.118
 7143SOL    HW122328   2.384   2.258   4.174
 7143SOL    HW222329   2.516   2.335   4.116
 7144SOL     OW22330   1.519   3.211   3.821
 7144SOL    HW122331   1.593   3.214   3.754
 7144SOL    HW222332   1.439   3.260   3.784
 7145SOL     OW22333   4.354   6.272   5.823
 7145SOL    HW122334   4.351   6.244   5.727
 7145SOL    HW222335   4.295   6.352   5.836
 7146SOL     OW22336   3.089   5.115   1.983
 7146SOL    HW122337   3.071   5.155   2.073
 7146SOL    HW222338   3.051   5.022   1.980
 7147SOL     OW22339   0.169   0.845   3.040
 7147SOL    HW122340   0.238   0.917   3.045
 7147SOL    HW222341   0.105   0.865   2.965
 7148SOL     OW22342   0.180   1.311   0.902
 7148SOL    HW122343   0.270   1.336   0.938
 7148SOL    HW222344   0.114   1.310   0.977
 7149SOL     OW22345   0.532   0.756   4.690
 7149SOL    HW122346   0.564   0.795   4.776
 7149SOL    HW222347   0.434   0.773   4.680
 7150SOL     OW22348   6.082   3.783   6.691
 7150SOL    HW122349   6.073   3.690   6.728
 7150SOL    HW222350   6.045   3.786   6.598
 7151SOL     OW22351   2.605   6.799   1.007
 7151SOL    HW122352   2.617   6.853   1.090
 7151SOL    HW222353   2.512   6.761   1.005
 7152SOL     OW22354   1.059   2.464   4.079
 7152SOL    HW122355   1.158   2.473   4.090
 7152SOL    HW222356   1.035   2.470   3.982
 7153SOL     OW22357   3.536   1.790   3.232
 7153SOL    HW122358   3.535   1.783   3.332
 7153SOL    HW222359   3.536   1.699   3.192
 7154SOL     OW22360   4.012   5.987   5.081
 7154SOL    HW122361   4.093   5.936   5.111
 7154SOL    HW222362   4.038   6.047   5.004
 7155SOL     OW22363   2.439   1.449   3.176
 7155SOL    HW122364   2.405   1.413   3.089
 7155SOL    HW222365   2.481   1.538   3.162
 7156SOL     OW22366   1.628   5.523   5.421
 7156SOL    HW122367   1.726   5.533   5.404
 7156SOL    HW222368   1.611   5.528   5.520
 7157SOL     OW22369   5.069   3.995   0.731
 7157SOL    HW122370   5.077   4.062   0.805
 7157SOL    HW222371   5.153   3.996   0.676
 7158SOL     OW22372   4.933   6.912   4.114
 7158SOL    HW122373   5.012   6.927   4.054
 7158SOL    HW222374   4.912   6.814   4.118
 7159SOL     OW22375   0.725   5.590   0.098
 7159SOL    HW122376   0.632   5.553   0.098
 7159SOL    HW222377   0.789   5.517   0.071
 7160SOL     OW22378   6.127   0.895   1.435
 7160SOL    HW122379   6.208   0.909   1.492
 7160SOL    HW222380   6.149   0.915   1.340
 7161SOL     OW22381   3.553   4.009   4.318
 7161SOL    HW122382   3.570   4.073   4.393
 7161SOL    HW222383   3.618   3.933   4.324
 7162SOL     OW22384   3.328   4.920   4.256
 7162SOL    HW122385   3.324   4.871   4.343
 7162SOL    HW222386   3.289   5.011   4.268
 7163SOL     OW22387   1.552   6.445   3.000
 7163SOL    HW122388   1.557   6.541   3.029
 7163SOL    HW222389   1.520   6.389   3.077
 7164SOL     OW22390   2.318   2.188   4.567
 7164SOL    HW122391   2.295   2.251   4.642
 7164SOL    HW222392   2.417   2.177   4.562
 7165SOL     OW22393   5.251   5.913   2.316
 7165SOL    HW122394   5.168   5.933   2.369
 7165SOL    HW222395   5.274   5.992   2.260
 7166SOL     OW22396   4.107   5.857   2.280
 7166SOL    HW122397   4.183   5.792   2.276
 7166SOL    HW222398   4.021   5.809   2.258
 7167SOL     OW22399   5.153   3.448   6.248
 7167SOL    HW122400   5.203   3.533   6.265
 7167SOL    HW222401   5.188   3.376   6.307
 7168SOL     OW22402   0.756   1.749   3.911
 7168SOL    HW122403   0.772   1.665   3.963
 7168SOL    HW222404   0.748   1.826   3.974
 7169SOL     OW22405   1.808   2.764   6.475
 7169SOL    HW122406   1.831   2.691   6.411
 7169SOL    HW222407   1.714   2.793   6.460
 7170SOL     OW22408   5.575   4.801   3.735
 7170SOL    HW122409   5.651   4.768   3.791
 7170SOL    HW222410   5.564   4.899   3.748
 7171SOL     OW22411   4.142   3.064   5.333
 7171SOL    HW122412   4.233   3.088   5.365
 7171SOL    HW222413   4.130   2.965   5.335
 7172SOL     OW22414   0.247   6.980   1.768
 7172SOL    HW122415   0.212   6.900   1.817
 7172SOL    HW222416   0.249   0.032   1.829
 7173SOL     OW22417   6.396   6.478   4.605
 7173SOL    HW122418   6.478   6.478   4.662
 7173SOL    HW222419   6.402   6.552   4.538
 7174SOL     OW22420   0.784   6.008   6.078
 7174SOL    HW122421   0.868   5.983   6.029
 7174SOL    HW222422   0.711   6.026   6.011
 7175SOL     OW22423   6.075   3.513   5.727
 7175SOL    HW122424   6.062   3.567   5.810
 7175SOL    HW222425   6.029   3.558   5.650
 7176SOL     OW22426   0.342   3.229   1.645
 7176SOL    HW122427   0.416   3.289   1.615
 7176SOL    HW222428   0.372   3.134   1.639
 7177SOL     OW22429   1.148   5.496   2.064
 7177SOL    HW122430   1.088   5.485   1.985
 7177SOL    HW222431   1.242   5.507   2.032
 7178SOL     OW22432   6.653   1.477   6.607
 7178SOL    HW122433   6.557   1.494   6.628
 7178SOL    HW222434   6.677   1.521   6.521
 7179SOL     OW22435   1.665   4.839   6.221
 7179SOL    HW122436   1.671   4.763   6.156
 7179SOL    HW222437   1.595   4.818   6.290
 7180SOL     OW22438   0.147   0.018   2.555
 7180SOL    HW122439   0.055   7.012   2.575
 7180SOL    HW222440   0.154   0.116   2.577
 7181SOL     OW22441   5.670   6.359   2.456
 7181SOL    HW122442   5.763   6.394   2.467
 7181SOL    HW222443   5.605   6.435   2.463
 7182SOL     OW22444   4.188   3.726   5.936
 7182SOL    HW122445   4.160   3.667   6.012
 7182SOL    HW222446   4.140   3.697   5.853
 7183SOL     OW22447   2.150   3.579   3.804
 7183SOL    HW122448   2.130   3.676   3.818
 7183SOL    HW222449   2.232   3.570   3.748
 7184SOL     OW22450   2.357   5.465   3.509
 7184SOL    HW122451   2.308   5.535   3.456
 7184SOL    HW222452   2.441   5.505   3.547
 7185SOL     OW22453   4.212   2.987   6.915
 7185SOL    HW122454   4.201   2.983   6.816
 7185SOL    HW222455   4.194   2.897   6.955
 7186SOL     OW22456   0.376   6.615   4.584
 7186SOL    HW122457   0.355   6.609   4.486
 7186SOL    HW222458   0.397   6.710   4.607
 7187SOL     OW22459   1.557   5.341   0.926
 7187SOL    HW122460   1.585   5.251   0.893
 7187SOL    HW222461   1.604   5.412   0.873
 7188SOL     OW22462   4.944   6.922   2.049
 7188SOL    HW122463   4.903   6.843   2.004
 7188SOL    HW222464   4.884   7.001   2.038
 7189SOL     OW22465   6.599   0.818   5.369
 7189SOL    HW122466   6.673   0.751   5.357
 7189SOL    HW222467   6.589   0.872   5.286
 7190SOL     OW22468   4.267   5.252   3.000
 7190SOL    HW122469   4.186   5.213   3.044
 7190SOL    HW222470   4.274   5.218   2.907
 7191SOL     OW22471   0.796   3.223   1.888
 7191SOL    HW122472   0.848   3.303   1.857
 7191SOL    HW222473   0.772   3.166   1.809
 7192SOL     OW22474   3.677   4.610   6.831
 7192SOL    HW122475   3.665   4.611   6.930
 7192SOL    HW222476   3.590   4.589   6.787
 7193SOL     OW22477   5.318   1.451   4.329
 7193SOL    HW122478   5.351   1.526   4.272
 7193SOL    HW222479   5.226   1.474   4.364
 7194SOL     OW22480   3.190   1.711   1.515
 7194SOL    HW122481   3.289   1.697   1.514
 7194SOL    HW222482   3.170   1.807   1.498
 7195SOL     OW22483   0.336   6.317   1.793
 7195SOL    HW122484   0.281   6.373   1.855
 7195SOL    HW222485   0.331   6.221   1.822
 7196SOL     OW22486   3.557   3.258   1.125
 7196SOL    HW122487   3.503   3.174   1.118
 7196SOL    HW222488   3.631   3.244   1.191
 7197SOL     OW22489   1.264   1.276   4.208
 7197SOL    HW122490   1.326   1.317   4.275
 7197SOL    HW222491   1.317   1.244   4.129
 7198SOL     OW22492   0.396   6.507   5.956
 7198SOL    HW122493   0.391   6.585   6.019
 7198SOL    HW222494   0.392   6.539   5.862
 7199SOL     OW22495   5.377   6.022   2.604
 7199SOL    HW122496   5.396   6.018   2.702
 7199SOL    HW222497   5.382   5.930   2.566
 7200SOL     OW22498   2.558   2.004   2.220
 7200SOL    HW122499   2.600   1.973   2.135
 7200SOL    HW222500   2.618   2.070   2.266
 7201SOL     OW22501   2.156   4.654   3.350
 7201SOL    HW122502   2.177   4.689   3.440
 7201SOL    HW222503   2.145   4.730   3.286
 7202SOL     OW22504   3.103   0.364   5.615
 7202SOL    HW122505   3.138   0.356   5.708
 7202SOL    HW222506   3.107   0.460   5.586
 7203SOL     OW22507   5.744   0.082   0.126
 7203SOL    HW122508   5.818   0.130   0.078
 7203SOL    HW222509   5.783   0.015   0.188
 7204SOL     OW22510   5.756   1.882   3.068
 7204SOL    HW122511   5.696   1.853   2.993
 7204SOL    HW222512   5.808   1.804   3.102
 7205SOL     OW22513   1.689   4.259   1.289
 7205SOL    HW122514   1.709   4.200   1.368
 7205SOL    HW222515   1.601   4.304   1.303
 7206SOL     OW22516   5.948   1.349   1.726
 7206SOL    HW122517   5.864   1.404   1.734
 7206SOL    HW222518   6.027   1.409   1.724
 7207SOL     OW22519   4.071   6.355   1.663
 7207SOL    HW122520   4.077   6.451   1.634
 7207SOL    HW222521   3.977   6.323   1.650
 7208SOL     OW22522   2.979   0.595   5.109
 7208SOL    HW122523   2.945   0.662   5.174
 7208SOL    HW222524   3.030   0.524   5.157
 7209SOL     OW22525   3.050   3.473   4.213
 7209SOL    HW122526   3.138   3.490   4.169
 7209SOL    HW222527   2.977   3.473   4.144
 7210SOL     OW22528   4.697   6.998   4.223
 7210SOL    HW122529   4.789   6.986   4.188
 7210SOL    HW222530   4.700   0.016   4.312
 7211SOL     OW22531   1.110   4.943   2.038
 7211SOL    HW122532   1.174   5.019   2.052
 7211SOL    HW222533   1.139   4.864   2.093
 7212SOL     OW22534   5.103   6.541   3.117
 7212SOL    HW122535   5.141   6.521   3.207
 7212SOL    HW222536   5.178   6.557   3.052
 7213SOL     OW22537   5.201   6.442   4.810
 7213SOL    HW122538   5.139   6.520   4.804
 7213SOL    HW222539   5.158   6.369   4.863
 7214SOL     OW22540   0.666   4.334   5.227
 7214SOL    HW122541   0.651   4.398   5.303
 7214SOL    HW222542   0.595   4.347   5.158
 7215SOL     OW22543   1.127   3.140   2.028
 7215SOL    HW122544   1.185   3.067   2.065
 7215SOL    HW222545   1.143   3.148   1.929
 7216SOL     OW22546   3.033   1.392   2.309
 7216SOL    HW122547   2.940   1.428   2.316
 7216SOL    HW222548   3.089   1.456   2.257
 7217SOL     OW22549   0.581   2.889   2.060
 7217SOL    HW122550   0.485   2.916   2.061
 7217SOL    HW222551   0.622   2.908   2.150
 7218SOL     OW22552   6.270   2.695   5.119
 7218SOL    HW122553   6.200   2.747   5.069
 7218SOL    HW222554   6.307   2.624   5.059
 7219SOL     OW22555   3.395   0.854   1.451
 7219SOL    HW122556   3.475   0.873   1.507
 7219SOL    HW222557   3.318   0.828   1.509
 7220SOL     OW22558   6.474   1.260   2.727
 7220SOL    HW122559   6.401   1.314   2.686
 7220SOL    HW222560   6.547   1.320   2.759
 7221SOL     OW22561   6.397   4.250   5.615
 7221SOL    HW122562   6.491   4.217   5.624
 7221SOL    HW222563   6.340   4.178   5.577
 7222SOL     OW22564   6.979   6.827   3.729
 7222SOL    HW122565   0.006   6.867   3.803
 7222SOL    HW222566   7.014   6.735   3.709
 7223SOL     OW22567   4.780   0.528   5.020
 7223SOL    HW122568   4.772   0.443   5.073
 7223SOL    HW222569   4.742   0.604   5.074
 7224SOL     OW22570   5.863   1.199   3.867
 7224SOL    HW122571   5.842   1.274   3.930
 7224SOL    HW222572   5.869   1.113   3.918
 7225SOL     OW22573   2.932   0.403   1.579
 7225SOL    HW122574   2.970   0.331   1.521
 7225SOL    HW222575   2.832   0.400   1.576
 7226SOL     OW22576   6.250   6.784   5.093
 7226SOL    HW122577   6.341   6.787   5.053
 7226SOL    HW222578   6.255   6.810   5.190
 7227SOL     OW22579   6.875   2.536   5.686
 7227SOL    HW122580   6.831   2.555   5.774
 7227SOL    HW222581   6.874   2.438   5.669
 7228SOL     OW22582   2.611   0.898   3.477
 7228SOL    HW122583   2.551   0.821   3.498
 7228SOL    HW222584   2.649   0.887   3.385
 7229SOL     OW22585   6.971   0.230   3.449
 7229SOL    HW122586   7.006   0.191   3.364
 7229SOL    HW222587   6.872   0.216   3.454
 7230SOL     OW22588   6.485   5.732   1.437
 7230SOL    HW122589   6.436   5.646   1.420
 7230SOL    HW222590   6.421   5.808   1.427
 7231SOL     OW22591   5.909   1.138   0.166
 7231SOL    HW122592   5.818   1.101   0.187
 7231SOL    HW222593   5.934   1.112   0.072
 7232SOL     OW22594   3.897   4.014   0.929
 7232SOL    HW122595   3.831   3.975   0.993
 7232SOL    HW222596   3.935   4.098   0.968
 7233SOL     OW22597   0.762   1.857   5.573
 7233SOL    HW122598   0.691   1.802   5.618
 7233SOL    HW222599   0.789   1.813   5.488
 7234SOL     OW22600   4.756   2.004   3.677
 7234SOL    HW122601   4.787   2.097   3.658
 7234SOL    HW222602   4.667   2.007   3.722
 7235SOL     OW22603   5.832   2.860   4.665
 7235SOL    HW122604   5.776   2.845   4.584
 7235SOL    HW222605   5.775   2.852   4.747
 7236SOL     OW22606   1.749   1.508   3.112
 7236SOL    HW122607   1.710   1.587   3.159
 7236SOL    HW222608   1.703   1.496   3.024
 7237SOL     OW22609   5.389   5.136   4.785
 7237SOL    HW122610   5.381   5.157   4.883
 7237SOL    HW222611   5.481   5.158   4.753
 7238SOL     OW22612   1.672   0.647   1.448
 7238SOL    HW122613   1.679   0.674   1.544
 7238SOL    HW222614   1.749   0.588   1.424
 7239SOL     OW22615   3.760   0.918   1.860
 7239SOL    HW122616   3.738   0.930   1.763
 7239SOL    HW222617   3.857   0.892   1.869
 7240SOL     OW22618   2.964   3.203   2.261
 7240SOL    HW122619   2.879   3.224   2.212
 7240SOL    HW222620   3.037   3.263   2.228
 7241SOL     OW22621   4.186   6.929   4.510
 7241SOL    HW122622   4.286   6.918   4.510
 7241SOL    HW222623   4.150   6.908   4.600
 7242SOL     OW22624   6.031   5.414   1.076
 7242SOL    HW122625   5.998   5.405   0.981
 7242SOL    HW222626   5.976   5.482   1.124
 7243SOL     OW22627   0.303   5.860   0.583
 7243SOL    HW122628   0.382   5.800   0.596
 7243SOL    HW222629   0.229   5.830   0.643
 7244SOL     OW22630   4.846   2.086   0.959
 7244SOL    HW122631   4.881   2.034   1.037
 7244SOL    HW222632   4.870   2.040   0.874
 7245SOL     OW22633   6.020   2.095   4.276
 7245SOL    HW122634   6.091   2.104   4.207
 7245SOL    HW222635   5.938   2.145   4.248
 7246SOL     OW22636   1.090   5.809   5.592
 7246SOL    HW122637   1.120   5.883   5.652
 7246SOL    HW222638   1.023   5.753   5.641
 7247SOL     OW22639   3.643   5.487   4.051
 7247SOL    HW122640   3.659   5.497   4.149
 7247SOL    HW222641   3.570   5.549   4.022
 7248SOL     OW22642   3.122   0.929   4.309
 7248SOL    HW122643   3.210   0.899   4.345
 7248SOL    HW222644   3.128   1.025   4.281
 7249SOL     OW22645   4.788   3.738   5.628
 7249SOL    HW122646   4.692   3.721   5.649
 7249SOL    HW222647   4.814   3.684   5.548
 7250SOL     OW22648   2.621   3.601   6.514
 7250SOL    HW122649   2.572   3.685   6.535
 7250SOL    HW222650   2.558   3.535   6.473
 7251SOL     OW22651   5.656   1.086   5.249
 7251SOL    HW122652   5.608   1.004   5.219
 7251SOL    HW222653   5.590   1.151   5.289
 7252SOL     OW22654   4.439   3.709   5.334
 7252SOL    HW122655   4.516   3.676   5.280
 7252SOL    HW222656   4.359   3.651   5.316
 7253SOL     OW22657   5.316   4.613   0.971
 7253SOL    HW122658   5.316   4.515   0.950
 7253SOL    HW222659   5.332   4.626   1.069
 7254SOL     OW22660   5.584   6.511   4.500
 7254SOL    HW122661   5.624   6.531   4.411
 7254SOL    HW222662   5.485   6.504   4.492
 7255SOL     OW22663   4.024   3.070   3.114
 7255SOL    HW122664   4.121   3.077   3.136
 7255SOL    HW222665   4.012   3.077   3.015
 7256SOL     OW22666   3.429   5.629   3.976
 7256SOL    HW122667   3.401   5.724   3.964
 7256SOL    HW222668   3.362   5.569   3.932
 7257SOL     OW22669   6.252   4.682   2.706
 7257SOL    HW122670   6.290   4.774   2.709
 7257SOL    HW222671   6.300   4.629   2.636
 7258SOL     OW22672   2.793   0.544   5.549
 7258SOL    HW122673   2.803   0.486   5.630
 7258SOL    HW222674   2.722   0.506   5.490
 7259SOL     OW22675   3.422   4.305   6.065
 7259SOL    HW122676   3.387   4.217   6.097
 7259SOL    HW222677   3.493   4.338   6.127
 7260SOL     OW22678   4.775   2.528   3.037
 7260SOL    HW122679   4.765   2.581   2.952
 7260SOL    HW222680   4.786   2.431   3.014
 7261SOL     OW22681   2.491   5.142   1.050
 7261SOL    HW122682   2.498   5.239   1.028
 7261SOL    HW222683   2.473   5.090   0.967
 7262SOL     OW22684   6.442   0.871   4.766
 7262SOL    HW122685   6.439   0.966   4.797
 7262SOL    HW222686   6.534   0.848   4.734
 7263SOL     OW22687   5.255   5.499   1.809
 7263SOL    HW122688   5.211   5.502   1.720
 7263SOL    HW222689   5.195   5.539   1.878
 7264SOL     OW22690   0.656   6.381   4.163
 7264SOL    HW122691   0.669   6.442   4.241
 7264SOL    HW222692   0.691   6.426   4.080
 7265SOL     OW22693   4.274   3.276   6.747
 7265SOL    HW122694   4.260   3.319   6.658
 7265SOL    HW222695   4.228   3.188   6.750
 7266SOL     OW22696   4.099   1.467   1.888
 7266SOL    HW122697   4.153   1.472   1.804
 7266SOL    HW222698   4.046   1.382   1.889
 7267SOL     OW22699   5.430   2.352   4.523
 7267SOL    HW122700   5.510   2.376   4.578
 7267SOL    HW222701   5.460   2.320   4.434
 7268SOL     OW22702   4.212   0.109   0.491
 7268SOL    HW122703   4.210   0.193   0.547
 7268SOL    HW222704   4.303   0.069   0.495
 7269SOL     OW22705   1.205   0.917   1.721
 7269SOL    HW122706   1.226   0.821   1.704
 7269SOL    HW222707   1.172   0.928   1.815
 7270SOL     OW22708   3.338   2.024   2.190
 7270SOL    HW122709   3.371   2.058   2.278
 7270SOL    HW222710   3.245   2.057   2.175
 7271SOL     OW22711   5.943   5.352   3.869
 7271SOL    HW122712   5.994   5.311   3.794
 7271SOL    HW222713   5.887   5.428   3.834
 7272SOL     OW22714   5.922   1.799   0.981
 7272SOL    HW122715   5.892   1.774   0.888
 7272SOL    HW222716   5.952   1.716   1.029
 7273SOL     OW22717   5.946   5.564   5.339
 7273SOL    HW122718   6.041   5.567   5.371
 7273SOL    HW222719   5.890   5.625   5.395
 7274SOL     OW22720   5.322   4.577   4.114
 7274SOL    HW122721   5.391   4.591   4.185
 7274SOL    HW222722   5.354   4.619   4.029
 7275SOL     OW22723   5.946   6.606   1.818
 7275SOL    HW122724   6.012   6.627   1.746
 7275SOL    HW222725   5.935   6.507   1.825
 7276SOL     OW22726   3.682   1.756   3.760
 7276SOL    HW122727   3.771   1.743   3.805
 7276SOL    HW222728   3.643   1.843   3.788
 7277SOL     OW22729   6.300   1.807   4.060
 7277SOL    HW122730   6.247   1.891   4.063
 7277SOL    HW222731   6.287   1.762   3.971
 7278SOL     OW22732   4.035   2.030   3.853
 7278SOL    HW122733   4.036   2.123   3.890
 7278SOL    HW222734   4.074   1.966   3.920
 7279SOL     OW22735   3.815   3.421   1.465
 7279SOL    HW122736   3.754   3.487   1.420
 7279SOL    HW222737   3.804   3.428   1.564
 7280SOL     OW22738   6.805   1.847   5.315
 7280SOL    HW122739   6.833   1.758   5.350
 7280SOL    HW222740   6.717   1.838   5.267
 7281SOL     OW22741   3.464   6.390   3.003
 7281SOL    HW122742   3.477   6.321   3.075
 7281SOL    HW222743   3.371   6.383   2.967
 7282SOL     OW22744   0.077   3.222   0.958
 7282SOL    HW122745   0.078   3.312   0.914
 7282SOL    HW222746   7.013   3.181   0.949
 7283SOL     OW22747   3.399   5.837   2.754
 7283SOL    HW122748   3.372   5.912   2.693
 7283SOL    HW222749   3.382   5.863   2.849
 7284SOL     OW22750   0.498   0.461   2.948
 7284SOL    HW122751   0.485   0.396   2.873
 7284SOL    HW222752   0.440   0.541   2.934
 7285SOL     OW22753   4.860   2.444   1.982
 7285SOL    HW122754   4.822   2.507   2.050
 7285SOL    HW222755   4.906   2.368   2.028
 7286SOL     OW22756   0.054   1.366   3.905
 7286SOL    HW122757   0.026   1.317   3.988
 7286SOL    HW222758   0.124   1.433   3.928
 7287SOL     OW22759   3.430   1.790   4.477
 7287SOL    HW122760   3.478   1.793   4.389
 7287SOL    HW222761   3.332   1.784   4.461
 7288SOL     OW22762   3.058   2.064   1.862
 7288SOL    HW122763   2.991   2.111   1.804
 7288SOL    HW222764   3.040   2.086   1.958
 7289SOL     OW22765   6.657   2.472   1.890
 7289SOL    HW122766   6.582   2.466   1.824
 7289SOL    HW222767   6.661   2.387   1.943
 7290SOL     OW22768   3.587   2.047   4.837
 7290SOL    HW122769   3.494   2.082   4.823
 7290SOL    HW222770   3.587   1.979   4.910
 7291SOL     OW22771   1.206   1.274   0.464
 7291SOL    HW122772   1.188   1.197   0.525
 7291SOL    HW222773   1.119   1.312   0.432
 7292SOL     OW22774   4.210   1.238   2.386
 7292SOL    HW122775   4.259   1.151   2.377
 7292SOL    HW222776   4.199   1.279   2.295
 7293SOL     OW22777   6.210   0.836   4.359
 7293SOL    HW122778   6.226   0.809   4.453
 7293SOL    HW222779   6.173   0.929   4.356
 7294SOL     OW22780   3.663   0.396   3.193
 7294SOL    HW122781   3.592   0.326   3.185
 7294SOL    HW222782   3.739   0.360   3.247
 7295SOL     OW22783   5.419   3.871   1.644
 7295SOL    HW122784   5.447   3.835   1.555
 7295SOL    HW222785   5.344   3.936   1.632
 7296SOL     OW22786   3.544   6.081   2.229
 7296SOL    HW122787   3.608   6.034   2.167
 7296SOL    HW222788   3.467   6.021   2.248
 7297SOL     OW22789   3.701   6.888   0.962
 7297SOL    HW122790   3.772   6.954   0.938
 7297SOL    HW222791   3.732   6.796   0.938
 7298SOL     OW22792   4.176   5.026   1.587
 7298SOL    HW122793   4.145   5.049   1.495
 7298SOL    HW222794   4.175   4.927   1.598
 7299SOL     OW22795   0.414   3.338   6.860
 7299SOL    HW122796   0.434   3.386   6.774
 7299SOL    HW222797   0.475   3.372   6.932
 7300SOL     OW22798   0.966   3.924   1.396
 7300SOL    HW122799   0.946   4.010   1.443
 7300SOL    HW222800   0.916   3.849   1.441
 7301SOL     OW22801   4.390   1.831   0.462
 7301SOL    HW122802   4.354   1.744   0.429
 7301SOL    HW222803   4.320   1.902   0.455
 7302SOL     OW22804   5.622   1.887   6.287
 7302SOL    HW122805   5.601   1.791   6.269
 7302SOL    HW222806   5.703   1.894   6.345
 7303SOL     OW22807   3.173   1.983   1.505
 7303SOL    HW122808   3.215   2.071   1.526
 7303SOL    HW222809   3.093   1.969   1.563
 7304SOL     OW22810   2.537   0.065   0.396
 7304SOL    HW122811   2.478   0.040   0.474
 7304SOL    HW222812   2.630   0.035   0.414
 7305SOL     OW22813   6.854   6.805   6.335
 7305SOL    HW122814   6.774   6.860   6.309
 7305SOL    HW222815   6.842   6.712   6.300
 7306SOL     OW22816   1.384   3.326   0.844
 7306SOL    HW122817   1.422   3.413   0.812
 7306SOL    HW222818   1.449   3.282   0.907
 7307SOL     OW22819   3.218   6.417   1.926
 7307SOL    HW122820   3.301   6.468   1.902
 7307SOL    HW222821   3.239   6.350   1.997
 7308SOL     OW22822   4.094   1.276   2.995
 7308SOL    HW122823   4.187   1.311   2.978
 7308SOL    HW222824   4.079   1.194   2.940
 7309SOL     OW22825   2.223   4.545   3.985
 7309SOL    HW122826   2.203   4.535   3.887
 7309SOL    HW222827   2.148   4.594   4.029
 7310SOL     OW22828   2.592   3.339   6.913
 7310SOL    HW122829   2.587   3.425   6.863
 7310SOL    HW222830   2.619   3.265   6.850
 7311SOL     OW22831   0.791   6.341   5.887
 7311SOL    HW122832   0.845   6.373   5.964
 7311SOL    HW222833   0.840   6.267   5.840
 7312SOL     OW22834   6.318   1.873   4.642
 7312SOL    HW122835   6.317   1.776   4.667
 7312SOL    HW222836   6.412   1.904   4.630
 7313SOL     OW22837   3.510   1.195   2.801
 7313SOL    HW122838   3.500   1.275   2.741
 7313SOL    HW222839   3.583   1.136   2.765
 7314SOL     OW22840   1.962   5.544   5.121
 7314SOL    HW122841   2.058   5.535   5.094
 7314SOL    HW222842   1.916   5.455   5.111
 7315SOL     OW22843   2.269   5.578   2.857
 7315SOL    HW122844   2.246   5.620   2.945
 7315SOL    HW222845   2.368   5.563   2.853
 7316SOL     OW22846   4.031   0.712   1.927
 7316SOL    HW122847   3.948   0.670   1.889
 7316SOL    HW222848   4.098   0.725   1.855
 7317SOL     OW22849   6.144   1.915   1.123
 7317SOL    HW122850   6.142   2.008   1.160
 7317SOL    HW222851   6.058   1.897   1.075
 7318SOL     OW22852   5.246   6.121   1.227
 7318SOL    HW122853   5.283   6.038   1.185
 7318SOL    HW222854   5.147   6.122   1.214
 7319SOL     OW22855   4.813   5.918   6.214
 7319SOL    HW122856   4.850   6.002   6.175
 7319SOL    HW222857   4.768   5.865   6.141
 7320SOL     OW22858   1.155   2.985   6.985
 7320SOL    HW122859   1.112   2.896   6.966
 7320SOL    HW222860   1.110   3.028   0.036
 7321SOL     OW22861   2.131   2.636   5.451
 7321SOL    HW122862   2.067   2.610   5.523
 7321SOL    HW222863   2.190   2.710   5.484
 7322SOL     OW22864   1.917   1.760   4.204
 7322SOL    HW122865   2.012   1.763   4.172
 7322SOL    HW222866   1.875   1.673   4.176
 7323SOL     OW22867   2.160   2.092   1.103
 7323SOL    HW122868   2.225   2.166   1.088
 7323SOL    HW222869   2.180   2.046   1.189
 7324SOL     OW22870   4.950   3.676   4.508
 7324SOL    HW122871   4.905   3.680   4.597
 7324SOL    HW222872   5.009   3.595   4.503
 7325SOL     OW22873   4.328   1.107   6.406
 7325SOL    HW122874   4.238   1.064   6.408
 7325SOL    HW222875   4.398   1.038   6.384
 7326SOL     OW22876   3.547   6.426   0.603
 7326SOL    HW122877   3.516   6.371   0.525
 7326SOL    HW222878   3.470   6.445   0.664
 7327SOL     OW22879   1.533   4.212   2.880
 7327SOL    HW122880   1.548   4.288   2.944
 7327SOL    HW222881   1.614   4.154   2.876
 7328SOL     OW22882   4.831   5.251   6.209
 7328SOL    HW122883   4.835   5.274   6.307
 7328SOL    HW222884   4.892   5.312   6.159
 7329SOL     OW22885   2.597   4.048   0.314
 7329SOL    HW122886   2.665   3.974   0.307
 7329SOL    HW222887   2.554   4.045   0.404
 7330SOL     OW22888   2.365   3.310   0.763
 7330SOL    HW122889   2.282   3.276   0.719
 7330SOL    HW222890   2.433   3.333   0.694
 7331SOL     OW22891   4.906   1.276   2.423
 7331SOL    HW122892   4.888   1.191   2.374
 7331SOL    HW222893   4.996   1.311   2.398
 7332SOL     OW22894   2.932   6.974   5.561
 7332SOL    HW122895   2.860   6.928   5.613
 7332SOL    HW222896   2.899   0.035   5.527
 7333SOL     OW22897   6.120   1.505   1.324
 7333SOL    HW122898   6.087   1.416   1.355
 7333SOL    HW222899   6.198   1.534   1.380
 7334SOL     OW22900   1.345   4.663   4.658
 7334SOL    HW122901   1.393   4.625   4.578
 7334SOL    HW222902   1.260   4.707   4.627
 7335SOL     OW22903   0.586   2.957   2.846
 7335SOL    HW122904   0.653   2.900   2.800
 7335SOL    HW222905   0.613   2.969   2.942
 7336SOL     OW22906   2.177   0.700   0.552
 7336SOL    HW122907   2.148   0.755   0.631
 7336SOL    HW222908   2.276   0.682   0.559
 7337SOL     OW22909   3.600   1.315   3.048
 7337SOL    HW122910   3.552   1.268   2.974
 7337SOL    HW222911   3.683   1.358   3.012
 7338SOL     OW22912   5.257   3.596   0.568
 7338SOL    HW122913   5.284   3.573   0.661
 7338SOL    HW222914   5.172   3.648   0.568
 7339SOL     OW22915   6.974   6.620   4.091
 7339SOL    HW122916   6.950   6.539   4.036
 7339SOL    HW222917   6.899   6.640   4.154
 7340SOL     OW22918   2.876   6.688   6.860
 7340SOL    HW122919   2.818   6.608   6.867
 7340SOL    HW222920   2.937   6.693   6.939
 7341SOL     OW22921   6.258   5.534   3.636
 7341SOL    HW122922   6.279   5.558   3.731
 7341SOL    HW222923   6.207   5.609   3.593
 7342SOL     OW22924   0.191   5.505   0.517
 7342SOL    HW122925   0.203   5.484   0.614
 7342SOL    HW222926   0.187   5.420   0.465
 7343SOL     OW22927   0.134   2.504   3.097
 7343SOL    HW122928   0.121   2.406   3.084
 7343SOL    HW222929   0.231   2.526   3.090
 7344SOL     OW22930   2.163   1.283   6.601
 7344SOL    HW122931   2.167   1.366   6.546
 7344SOL    HW222932   2.074   1.238   6.588
 7345SOL     OW22933   1.948   0.008   6.629
 7345SOL    HW122934   1.943   7.020   6.530
 7345SOL    HW222935   1.952   6.946   6.675
 7346SOL     OW22936   3.426   4.885   3.767
 7346SOL    HW122937   3.465   4.799   3.798
 7346SOL    HW222938   3.485   4.961   3.795
 7347SOL     OW22939   6.330   2.897   3.327
 7347SOL    HW122940   6.328   2.874   3.424
 7347SOL    HW222941   6.263   2.969   3.308
 7348SOL     OW22942   5.782   0.753   6.093
 7348SOL    HW122943   5.783   0.664   6.048
 7348SOL    HW222944   5.863   0.805   6.066
 7349SOL     OW22945   3.781   1.787   1.166
 7349SOL    HW122946   3.863   1.819   1.214
 7349SOL    HW222947   3.787   1.812   1.069
 7350SOL     OW22948   2.164   1.152   3.307
 7350SOL    HW122949   2.085   1.091   3.314
 7350SOL    HW222950   2.132   1.246   3.294
 7351SOL     OW22951   4.781   4.297   0.742
 7351SOL    HW122952   4.797   4.395   0.756
 7351SOL    HW222953   4.803   4.273   0.647
 7352SOL     OW22954   6.444   0.901   3.380
 7352SOL    HW122955   6.491   0.975   3.429
 7352SOL    HW222956   6.464   0.813   3.425
 7353SOL     OW22957   5.418   1.663   5.472
 7353SOL    HW122958   5.346   1.602   5.442
 7353SOL    HW222959   5.406   1.684   5.569
 7354SOL     OW22960   5.792   4.273   5.147
 7354SOL    HW122961   5.747   4.255   5.235
 7354SOL    HW222962   5.761   4.205   5.080
 7355SOL     OW22963   6.697   5.730   0.649
 7355SOL    HW122964   6.711   5.821   0.609
 7355SOL    HW222965   6.616   5.732   0.707
 7356SOL     OW22966   0.081   1.718   6.004
 7356SOL    HW122967   0.038   1.793   5.953
 7356SOL    HW222968   0.179   1.732   6.008
 7357SOL     OW22969   1.009   1.405   0.660
 7357SOL    HW122970   0.927   1.371   0.705
 7357SOL    HW222971   0.985   1.480   0.598
 7358SOL     OW22972   3.688   0.795   3.740
 7358SOL    HW122973   3.683   0.872   3.803
 7358SOL    HW222974   3.599   0.748   3.738
 7359SOL     OW22975   3.031   3.608   3.785
 7359SOL    HW122976   3.009   3.542   3.713
 7359SOL    HW222977   3.072   3.690   3.745
 7360SOL     OW22978   0.757   4.482   6.702
 7360SOL    HW122979   0.721   4.500   6.610
 7360SOL    HW222980   0.798   4.391   6.704
 7361SOL     OW22981   4.448   6.556   1.173
 7361SOL    HW122982   4.448   6.614   1.254
 7361SOL    HW222983   4.415   6.464   1.197
 7362SOL     OW22984   1.112   5.647   6.488
 7362SOL    HW122985   1.114   5.653   6.588
 7362SOL    HW222986   1.189   5.590   6.457
 7363SOL     OW22987   4.485   2.516   6.481
 7363SOL    HW122988   4.490   2.443   6.549
 7363SOL    HW222989   4.576   2.536   6.446
 7364SOL     OW22990   5.031   6.927   0.917
 7364SOL    HW122991   4.987   6.850   0.963
 7364SOL    HW222992   5.049   6.999   0.984
 7365SOL     OW22993   4.231   6.815   1.315
 7365SOL    HW122994   4.142   6.770   1.314
 7365SOL    HW222995   4.296   6.759   1.367
 7366SOL     OW22996   1.771   0.299   0.405
 7366SOL    HW122997   1.761   0.383   0.352
 7366SOL    HW222998   1.775   0.321   0.502
 7367SOL     OW22999   4.296   2.660   6.775
 7367SOL    HW123000   4.333   2.721   6.705
 7367SOL    HW223001   4.209   2.697   6.809
 7368SOL     OW23002   3.186   3.043   4.455
 7368SOL    HW123003   3.240   3.038   4.539
 7368SOL    HW223004   3.153   3.136   4.442
 7369SOL     OW23005   6.177   0.713   6.523
 7369SOL    HW123006   6.081   0.717   6.552
 7369SOL    HW223007   6.182   0.730   6.424
 7370SOL     OW23008   0.590   5.918   0.800
 7370SOL    HW123009   0.522   5.889   0.867
 7370SOL    HW223010   0.558   5.895   0.708
 7371SOL     OW23011   1.483   5.125   4.238
 7371SOL    HW123012   1.565   5.079   4.204
 7371SOL    HW223013   1.484   5.125   4.338
 7372SOL     OW23014   3.393   0.617   5.054
 7372SOL    HW123015   3.358   0.603   5.146
 7372SOL    HW223016   3.389   0.714   5.031
 7373SOL     OW23017   3.407   0.637   1.273
 7373SOL    HW123018   3.426   0.718   1.329
 7373SOL    HW223019   3.365   0.665   1.187
 7374SOL     OW23020   2.270   3.633   6.590
 7374SOL    HW123021   2.179   3.632   6.632
 7374SOL    HW223022   2.305   3.727   6.591
 7375SOL     OW23023   2.801   6.090   3.703
 7375SOL    HW123024   2.788   6.182   3.740
 7375SOL    HW223025   2.867   6.093   3.628
 7376SOL     OW23026   3.240   3.868   6.525
 7376SOL    HW123027   3.275   3.941   6.584
 7376SOL    HW223028   3.195   3.908   6.445
 7377SOL     OW23029   6.393   6.047   1.700
 7377SOL    HW123030   6.328   6.068   1.627
 7377SOL    HW223031   6.344   6.011   1.780
 7378SOL     OW23032   0.689   1.520   5.238
 7378SOL    HW123033   0.710   1.573   5.156
 7378SOL    HW223034   0.762   1.531   5.305
 7379SOL     OW23035   4.422   0.416   0.407
 7379SOL    HW123036   4.400   0.394   0.312
 7379SOL    HW223037   4.518   0.443   0.415
 7380SOL     OW23038   6.593   2.671   6.436
 7380SOL    HW123039   6.521   2.607   6.464
 7380SOL    HW223040   6.614   2.733   6.511
 7381SOL     OW23041   5.268   2.100   0.065
 7381SOL    HW123042   5.332   2.174   0.043
 7381SOL    HW223043   5.300   2.015   0.024
 7382SOL     OW23044   0.974   5.288   3.801
 7382SOL    HW123045   0.941   5.193   3.802
 7382SOL    HW223046   0.901   5.347   3.765
 7383SOL     OW23047   1.797   4.253   2.673
 7383SOL    HW123048   1.752   4.281   2.588
 7383SOL    HW223049   1.780   4.322   2.744
 7384SOL     OW23050   6.221   1.964   0.832
 7384SOL    HW123051   6.288   1.893   0.854
 7384SOL    HW223052   6.158   1.930   0.763
 7385SOL     OW23053   5.228   0.450   2.112
 7385SOL    HW123054   5.245   0.363   2.065
 7385SOL    HW223055   5.313   0.501   2.119
 7386SOL     OW23056   6.524   1.659   5.944
 7386SOL    HW123057   6.563   1.594   5.877
 7386SOL    HW223058   6.572   1.746   5.936
 7387SOL     OW23059   5.270   6.144   3.223
 7387SOL    HW123060   5.348   6.160   3.162
 7387SOL    HW223061   5.211   6.073   3.184
 7388SOL     OW23062   5.409   3.749   5.041
 7388SOL    HW123063   5.381   3.792   5.127
 7388SOL    HW223064   5.330   3.705   4.999
 7389SOL     OW23065   0.787   3.232   5.193
 7389SOL    HW123066   0.763   3.141   5.161
 7389SOL    HW223067   0.886   3.240   5.203
 7390SOL     OW23068   4.460   0.212   0.213
 7390SOL    HW123069   4.400   0.137   0.185
 7390SOL    HW223070   4.523   0.235   0.139
 7391SOL     OW23071   0.507   5.041   0.209
 7391SOL    HW123072   0.501   4.999   0.119
 7391SOL    HW223073   0.488   4.973   0.280
 7392SOL     OW23074   2.401   4.607   2.128
 7392SOL    HW123075   2.317   4.595   2.074
 7392SOL    HW223076   2.475   4.636   2.067
 7393SOL     OW23077   0.902   3.844   0.021
 7393SOL    HW123078   0.804   3.862   0.010
 7393SOL    HW223079   0.914   3.751   0.056
 7394SOL     OW23080   2.090   3.045   6.117
 7394SOL    HW123081   2.132   3.024   6.206
 7394SOL    HW223082   2.122   2.978   6.049
 7395SOL     OW23083   2.715   0.892   6.968
 7395SOL    HW123084   2.800   0.849   6.998
 7395SOL    HW223085   2.651   0.821   6.937
 7396SOL     OW23086   6.893   6.797   2.101
 7396SOL    HW123087   6.872   6.835   2.190
 7396SOL    HW223088   6.825   6.828   2.034
 7397SOL     OW23089   6.313   3.884   4.564
 7397SOL    HW123090   6.286   3.875   4.468
 7397SOL    HW223091   6.275   3.807   4.616
 7398SOL     OW23092   4.442   6.490   3.195
 7398SOL    HW123093   4.354   6.516   3.235
 7398SOL    HW223094   4.515   6.506   3.261
 7399SOL     OW23095   5.062   5.228   4.201
 7399SOL    HW123096   5.017   5.164   4.264
 7399SOL    HW223097   5.158   5.202   4.190
 7400SOL     OW23098   2.958   3.922   0.384
 7400SOL    HW123099   3.014   4.004   0.372
 7400SOL    HW223100   2.960   3.867   0.300
 7401SOL     OW23101   6.007   2.958   4.917
 7401SOL    HW123102   5.957   2.954   4.831
 7401SOL    HW223103   5.988   2.877   4.972
 7402SOL     OW23104   1.927   6.211   4.551
 7402SOL    HW123105   1.971   6.124   4.569
 7402SOL    HW223106   1.873   6.205   4.467
 7403SOL     OW23107   2.392   3.102   1.653
 7403SOL    HW123108   2.458   3.172   1.679
 7403SOL    HW223109   2.409   3.074   1.558
 7404SOL     OW23110   1.128   2.177   3.016
 7404SOL    HW123111   1.089   2.096   3.058
 7404SOL    HW223112   1.061   2.252   3.019
 7405SOL     OW23113   3.839   4.870   6.038
 7405SOL    HW123114   3.790   4.857   5.952
 7405SOL    HW223115   3.938   4.868   6.021
 7406SOL     OW23116   0.714   6.151   2.824
 7406SOL    HW123117   0.708   6.147   2.924
 7406SOL    HW223118   0.622   6.157   2.786
 7407SOL     OW23119   3.116   1.495   5.888
 7407SOL    HW123120   3.196   1.553   5.872
 7407SOL    HW223121   3.129   1.406   5.843
 7408SOL     OW23122   0.814   3.677   5.648
 7408SOL    HW123123   0.744   3.691   5.578
 7408SOL    HW223124   0.798   3.740   5.724
 7409SOL     OW23125   2.553   6.668   4.629
 7409SOL    HW123126   2.503   6.656   4.715
 7409SOL    HW223127   2.602   6.584   4.607
 7410SOL     OW23128   4.565   6.044   5.886
 7410SOL    HW123129   4.621   6.000   5.816
 7410SOL    HW223130   4.506   6.112   5.843
 7411SOL     OW23131   5.458   4.047   5.735
 7411SOL    HW123132   5.466   3.964   5.790
 7411SOL    HW223133   5.390   4.108   5.776
 7412SOL     OW23134   2.053   1.349   0.060
 7412SOL    HW123135   1.965   1.395   0.073
 7412SOL    HW223136   2.096   1.383   7.003
 7413SOL     OW23137   6.873   3.629   3.842
 7413SOL    HW123138   6.855   3.719   3.882
 7413SOL    HW223139   6.933   3.578   3.903
 7414SOL     OW23140   0.506   5.301   1.544
 7414SOL    HW123141   0.451   5.246   1.481
 7414SOL    HW223142   0.577   5.349   1.493
 7415SOL     OW23143   3.485   1.570   3.088
 7415SOL    HW123144   3.554   1.498   3.084
 7415SOL    HW223145   3.489   1.624   3.004
 7416SOL     OW23146   6.669   6.887   2.957
 7416SOL    HW123147   6.647   6.821   2.886
 7416SOL    HW223148   6.695   6.974   2.915
 7417SOL     OW23149   0.127   4.992   0.982
 7417SOL    HW123150   0.111   4.893   0.988
 7417SOL    HW223151   0.215   5.008   0.939
 7418SOL     OW23152   1.233   3.373   0.248
 7418SOL    HW123153   1.283   3.338   0.326
 7418SOL    HW223154   1.294   3.378   0.168
 7419SOL     OW23155   6.098   2.438   5.223
 7419SOL    HW123156   6.097   2.338   5.217
 7419SOL    HW223157   6.005   2.472   5.216
 7420SOL     OW23158   6.730   5.700   2.068
 7420SOL    HW123159   6.762   5.607   2.084
 7420SOL    HW223160   6.713   5.713   1.970
 7421SOL     OW23161   3.947   1.715   1.733
 7421SOL    HW123162   3.899   1.802   1.723
 7421SOL    HW223163   3.883   1.645   1.766
 7422SOL     OW23164   0.887   1.662   0.963
 7422SOL    HW123165   0.918   1.686   1.055
 7422SOL    HW223166   0.812   1.722   0.936
 7423SOL     OW23167   2.754   4.267   0.304
 7423SOL    HW123168   2.700   4.199   0.355
 7423SOL    HW223169   2.816   4.313   0.368
 7424SOL     OW23170   4.870   0.360   4.320
 7424SOL    HW123171   4.908   0.450   4.340
 7424SOL    HW223172   4.834   0.358   4.227
 7425SOL     OW23173   3.281   0.329   4.491
 7425SOL    HW123174   3.267   0.272   4.572
 7425SOL    HW223175   3.283   0.271   4.409
 7426SOL     OW23176   0.280   0.893   6.709
 7426SOL    HW123177   0.376   0.914   6.730
 7426SOL    HW223178   0.257   0.803   6.745
 7427SOL     OW23179   5.566   5.402   5.141
 7427SOL    HW123180   5.479   5.408   5.092
 7427SOL    HW223181   5.549   5.389   5.239
 7428SOL     OW23182   4.646   0.919   5.656
 7428SOL    HW123183   4.610   0.831   5.689
 7428SOL    HW223184   4.734   0.937   5.699
 7429SOL     OW23185   6.497   6.454   3.824
 7429SOL    HW123186   6.571   6.397   3.789
 7429SOL    HW223187   6.431   6.473   3.751
 7430SOL     OW23188   0.747   3.930   3.985
 7430SOL    HW123189   0.679   3.956   4.053
 7430SOL    HW223190   0.751   3.831   3.977
 7431SOL     OW23191   0.152   4.097   2.516
 7431SOL    HW123192   0.174   4.100   2.613
 7431SOL    HW223193   0.056   4.070   2.505
 7432SOL     OW23194   1.706   6.527   5.394
 7432SOL    HW123195   1.764   6.607   5.378
 7432SOL    HW223196   1.755   6.461   5.451
 7433SOL     OW23197   0.358   6.822   0.864
 7433SOL    HW123198   0.366   6.777   0.953
 7433SOL    HW223199   0.275   6.877   0.861
 7434SOL     OW23200   4.407   6.461   0.281
 7434SOL    HW123201   4.329   6.409   0.246
 7434SOL    HW223202   4.374   6.538   0.336
 7435SOL     OW23203   1.560   5.465   0.276
 7435SOL    HW123204   1.525   5.442   0.185
 7435SOL    HW223205   1.539   5.392   0.340
 7436SOL     OW23206   4.344   3.924   0.004
 7436SOL    HW123207   4.433   3.897   0.040
 7436SOL    HW223208   4.355   4.003   6.970
 7437SOL     OW23209   7.002   6.372   4.958
 7437SOL    HW123210   0.022   6.411   5.037
 7437SOL    HW223211   0.043   6.339   4.892
 7438SOL     OW23212   5.358   3.859   1.217
 7438SOL    HW123213   5.310   3.944   1.238
 7438SOL    HW223214   5.321   3.821   1.132
 7439SOL     OW23215   1.411   6.672   2.724
 7439SOL    HW123216   1.390   6.574   2.723
 7439SOL    HW223217   1.334   6.722   2.684
 7440SOL     OW23218   0.987   1.155   3.868
 7440SOL    HW123219   1.039   1.229   3.827
 7440SOL    HW223220   0.996   1.073   3.811
 7441SOL     OW23221   6.366   0.166   3.796
 7441SOL    HW123222   6.270   0.191   3.800
 7441SOL    HW223223   6.405   0.169   3.889
 7442SOL     OW23224   1.729   1.036   6.468
 7442SOL    HW123225   1.791   0.966   6.431
 7442SOL    HW223226   1.642   0.993   6.494
 7443SOL     OW23227   0.101   2.310   1.967
 7443SOL    HW123228   0.026   2.250   1.938
 7443SOL    HW223229   0.086   2.402   1.930
 7444SOL     OW23230   0.875   2.591   5.233
 7444SOL    HW123231   0.846   2.682   5.262
 7444SOL    HW223232   0.907   2.539   5.313
 7445SOL     OW23233   6.119   2.891   1.864
 7445SOL    HW123234   6.144   2.800   1.830
 7445SOL    HW223235   6.161   2.906   1.953
 7446SOL     OW23236   5.979   3.488   3.140
 7446SOL    HW123237   5.995   3.418   3.070
 7446SOL    HW223238   5.909   3.551   3.108
 7447SOL     OW23239   0.432   3.652   6.672
 7447SOL    HW123240   0.408   3.579   6.609
 7447SOL    HW223241   0.349   3.699   6.702
 7448SOL     OW23242   0.314   0.212   6.181
 7448SOL    HW123243   0.313   0.284   6.250
 7448SOL    HW223244   0.239   0.225   6.117
 7449SOL     OW23245   3.966   6.854   1.795
 7449SOL    HW123246   3.939   6.881   1.888
 7449SOL    HW223247   3.886   6.855   1.736
 7450SOL     OW23248   3.507   1.443   1.684
 7450SOL    HW123249   3.471   1.448   1.777
 7450SOL    HW223250   3.491   1.352   1.647
 7451SOL     OW23251   1.197   0.712   2.670
 7451SOL    HW123252   1.255   0.667   2.601
 7451SOL    HW223253   1.171   0.646   2.740
 7452SOL     OW23254   1.783   5.659   3.497
 7452SOL    HW123255   1.762   5.755   3.480
 7452SOL    HW223256   1.703   5.603   3.475
 7453SOL     OW23257   6.586   4.661   5.349
 7453SOL    HW123258   6.523   4.584   5.361
 7453SOL    HW223259   6.662   4.633   5.291
 7454SOL     OW23260   1.293   3.028   6.759
 7454SOL    HW123261   1.321   3.119   6.732
 7454SOL    HW223262   1.224   3.034   6.831
 7455SOL     OW23263   5.113   0.293   0.539
 7455SOL    HW123264   5.043   0.307   0.609
 7455SOL    HW223265   5.173   0.218   0.568
 7456SOL     OW23266   0.970   4.020   6.193
 7456SOL    HW123267   0.966   4.061   6.102
 7456SOL    HW223268   0.988   3.922   6.185
 7457SOL     OW23269   0.082   6.343   6.042
 7457SOL    HW123270   0.001   6.320   6.095
 7457SOL    HW223271   0.079   6.440   6.016
 7458SOL     OW23272   2.687   0.457   0.923
 7458SOL    HW123273   2.688   0.381   0.858
 7458SOL    HW223274   2.779   0.496   0.929
 7459SOL     OW23275   3.708   6.224   4.397
 7459SOL    HW123276   3.763   6.260   4.321
 7459SOL    HW223277   3.676   6.300   4.454
 7460SOL     OW23278   0.920   5.395   0.036
 7460SOL    HW123279   0.902   5.298   0.024
 7460SOL    HW223280   1.006   5.406   0.086
 7461SOL     OW23281   4.107   0.726   4.344
 7461SOL    HW123282   4.177   0.674   4.393
 7461SOL    HW223283   4.144   0.756   4.256
 7462SOL     OW23284   2.324   1.604   3.452
 7462SOL    HW123285   2.301   1.508   3.469
 7462SOL    HW223286   2.282   1.634   3.366
 7463SOL     OW23287   3.675   4.141   2.289
 7463SOL    HW123288   3.635   4.191   2.366
 7463SOL    HW223289   3.622   4.159   2.206
 7464SOL     OW23290   4.645   6.131   0.051
 7464SOL    HW123291   4.601   6.125   6.988
 7464SOL    HW223292   4.653   6.228   0.077
 7465SOL     OW23293   4.139   0.540   3.025
 7465SOL    HW123294   4.096   0.549   3.115
 7465SOL    HW223295   4.234   0.512   3.035
 7466SOL     OW23296   6.035   0.029   0.342
 7466SOL    HW123297   6.037   0.082   0.427
 7466SOL    HW223298   6.091   0.075   0.273
 7467SOL     OW23299   4.774   2.465   0.876
 7467SOL    HW123300   4.768   2.494   0.971
 7467SOL    HW223301   4.696   2.406   0.854
 7468SOL     OW23302   5.738   4.205   4.407
 7468SOL    HW123303   5.679   4.164   4.337
 7468SOL    HW223304   5.796   4.274   4.364
 7469SOL     OW23305   5.026   1.377   2.156
 7469SOL    HW123306   5.051   1.288   2.117
 7469SOL    HW223307   5.105   1.439   2.152
 7470SOL     OW23308   6.905   3.231   3.334
 7470SOL    HW123309   6.884   3.137   3.304
 7470SOL    HW223310   7.003   3.242   3.343
 7471SOL     OW23311   6.505   4.926   5.288
 7471SOL    HW123312   6.554   4.848   5.326
 7471SOL    HW223313   6.526   4.935   5.191
 7472SOL     OW23314   3.994   5.113   3.014
 7472SOL    HW123315   3.904   5.073   3.034
 7472SOL    HW223316   4.030   5.072   2.930
 7473SOL     OW23317   1.444   3.024   5.571
 7473SOL    HW123318   1.462   3.121   5.556
 7473SOL    HW223319   1.370   3.013   5.636
 7474SOL     OW23320   2.652   1.559   3.014
 7474SOL    HW123321   2.662   1.488   3.084
 7474SOL    HW223322   2.712   1.636   3.036
 7475SOL     OW23323   4.644   0.677   6.358
 7475SOL    HW123324   4.622   0.734   6.438
 7475SOL    HW223325   4.743   0.674   6.347
 7476SOL     OW23326   2.044   6.883   5.042
 7476SOL    HW123327   1.996   6.795   5.032
 7476SOL    HW223328   2.129   6.869   5.092
 7477SOL     OW23329   4.961   3.827   4.281
 7477SOL    HW123330   4.955   3.758   4.353
 7477SOL    HW223331   4.893   3.899   4.298
 7478SOL     OW23332   0.655   4.504   1.632
 7478SOL    HW123333   0.745   4.544   1.616
 7478SOL    HW223334   0.616   4.544   1.715
 7479SOL     OW23335   3.793   0.300   4.844
 7479SOL    HW123336   3.789   0.310   4.944
 7479SOL    HW223337   3.700   0.297   4.807
 7480SOL     OW23338   5.982   5.308   0.358
 7480SOL    HW123339   6.018   5.400   0.371
 7480SOL    HW223340   6.051   5.241   0.385
 7481SOL     OW23341   6.173   6.224   0.322
 7481SOL    HW123342   6.109   6.270   0.262
 7481SOL    HW223343   6.263   6.221   0.278
 7482SOL     OW23344   5.073   0.265   4.807
 7482SOL    HW123345   5.041   0.356   4.781
 7482SOL    HW223346   5.070   0.204   4.728
 7483SOL     OW23347   3.759   0.436   6.406
 7483SOL    HW123348   3.766   0.343   6.369
 7483SOL    HW223349   3.696   0.436   6.484
 7484SOL     OW23350   3.595   6.957   1.905
 7484SOL    HW123351   3.571   0.027   1.902
 7484SOL    HW223352   3.532   6.909   1.966
 7485SOL     OW23353   0.991   6.248   4.854
 7485SOL    HW123354   0.947   6.317   4.796
 7485SOL    HW223355   1.079   6.282   4.886
 7486SOL     OW23356   0.923   1.808   5.341
 7486SOL    HW123357   1.012   1.764   5.356
 7486SOL    HW223358   0.934   1.907   5.351
 7487SOL     OW23359   3.430   5.174   3.783
 7487SOL    HW123360   3.406   5.176   3.685
 7487SOL    HW223361   3.514   5.226   3.797
 7488SOL     OW23362   4.460   0.660   5.069
 7488SOL    HW123363   4.367   0.627   5.086
 7488SOL    HW223364   4.506   0.678   5.156
 7489SOL     OW23365   6.985   3.252   4.097
 7489SOL    HW123366   6.964   3.193   4.018
 7489SOL    HW223367   6.981   3.348   4.069
 7490SOL     OW23368   5.772   0.167   3.079
 7490SOL    HW123369   5.870   0.150   3.070
 7490SOL    HW223370   5.738   0.206   2.993
 7491SOL     OW23371   0.147   6.882   0.527
 7491SOL    HW123372   0.066   6.833   0.559
 7491SOL    HW223373   0.160   6.965   0.581
 7492SOL     OW23374   2.813   1.897   3.622
 7492SOL    HW123375   2.725   1.852   3.637
 7492SOL    HW223376   2.850   1.871   3.533
 7493SOL     OW23377   5.047   4.604   6.513
 7493SOL    HW123378   4.979   4.676   6.525
 7493SOL    HW223379   5.138   4.640   6.533
 7494SOL     OW23380   4.878   1.793   1.574
 7494SOL    HW123381   4.923   1.815   1.661
 7494SOL    HW223382   4.782   1.821   1.578
 7495SOL     OW23383   1.023   1.816   2.651
 7495SOL    HW123384   1.116   1.844   2.629
 7495SOL    HW223385   0.977   1.888   2.703
 7496SOL     OW23386   0.545   5.598   5.600
 7496SOL    HW123387   0.532   5.503   5.573
 7496SOL    HW223388   0.481   5.657   5.551
 7497SOL     OW23389   1.945   4.973   2.534
 7497SOL    HW123390   1.860   5.005   2.491
 7497SOL    HW223391   1.976   4.890   2.488
 7498SOL     OW23392   5.873   2.097   4.513
 7498SOL    HW123393   5.779   2.080   4.486
 7498SOL    HW223394   5.930   2.110   4.432
 7499SOL     OW23395   3.754   4.897   3.749
 7499SOL    HW123396   3.779   4.909   3.844
 7499SOL    HW223397   3.830   4.855   3.699
 7500SOL     OW23398   4.968   4.073   2.004
 7500SOL    HW123399   4.904   4.074   1.927
 7500SOL    HW223400   5.028   4.152   1.998
 7501SOL     OW23401   0.572   4.427   3.939
 7501SOL    HW123402   0.641   4.380   3.995
 7501SOL    HW223403   0.485   4.377   3.944
 7502SOL     OW23404   1.954   2.188   3.857
 7502SOL    HW123405   1.993   2.104   3.820
 7502SOL    HW223406   1.856   2.190   3.838
 7503SOL     OW23407   2.408   2.999   6.754
 7503SOL    HW123408   2.497   3.037   6.780
 7503SOL    HW223409   2.382   2.927   6.819
 7504SOL     OW23410   3.924   5.438   3.951
 7504SOL    HW123411   3.968   5.497   3.883
 7504SOL    HW223412   3.837   5.479   3.979
 7505SOL     OW23413   1.979   1.170   4.256
 7505SOL    HW123414   1.924   1.227   4.317
 7505SOL    HW223415   2.076   1.195   4.265
 7506SOL     OW23416   4.515   1.154   3.238
 7506SOL    HW123417   4.530   1.158   3.336
 7506SOL    HW223418   4.597   1.185   3.190
 7507SOL     OW23419   2.365   0.259   5.424
 7507SOL    HW123420   2.281   0.268   5.478
 7507SOL    HW223421   2.351   0.192   5.352
 7508SOL     OW23422   5.380   5.175   3.741
 7508SOL    HW123423   5.302   5.232   3.763
 7508SOL    HW223424   5.402   5.185   3.644
 7509SOL     OW23425   4.108   4.263   6.227
 7509SOL    HW123426   4.146   4.355   6.238
 7509SOL    HW223427   4.166   4.211   6.164
 7510SOL     OW23428   3.599   3.510   4.677
 7510SOL    HW123429   3.555   3.479   4.593
 7510SOL    HW223430   3.563   3.601   4.702
 7511SOL     OW23431   1.336   1.660   2.496
 7511SOL    HW123432   1.288   1.642   2.411
 7511SOL    HW223433   1.327   1.757   2.520
 7512SOL     OW23434   1.738   3.224   2.487
 7512SOL    HW123435   1.700   3.137   2.518
 7512SOL    HW223436   1.733   3.228   2.387
 7513SOL     OW23437   1.441   3.506   6.328
 7513SOL    HW123438   1.442   3.580   6.395
 7513SOL    HW223439   1.531   3.461   6.326
 7514SOL     OW23440   3.468   5.508   3.653
 7514SOL    HW123441   3.418   5.488   3.569
 7514SOL    HW223442   3.473   5.607   3.666
 7515SOL     OW23443   0.215   4.841   2.778
 7515SOL    HW123444   0.209   4.749   2.816
 7515SOL    HW223445   0.206   4.908   2.851
 7516SOL     OW23446   1.991   2.330   1.461
 7516SOL    HW123447   1.920   2.320   1.391
 7516SOL    HW223448   2.062   2.391   1.428
 7517SOL     OW23449   0.397   4.797   1.737
 7517SOL    HW123450   0.455   4.810   1.656
 7517SOL    HW223451   0.440   4.840   1.816
 7518SOL     OW23452   5.267   4.065   3.387
 7518SOL    HW123453   5.252   4.071   3.486
 7518SOL    HW223454   5.322   4.143   3.357
 7519SOL     OW23455   1.907   0.143   4.090
 7519SOL    HW123456   1.867   0.117   4.003
 7519SOL    HW223457   1.843   0.198   4.142
 7520SOL     OW23458   2.307   6.800   3.745
 7520SOL    HW123459   2.231   6.766   3.689
 7520SOL    HW223460   2.271   6.842   3.828
 7521SOL     OW23461   4.612   3.473   5.424
 7521SOL    HW123462   4.624   3.501   5.329
 7521SOL    HW223463   4.532   3.519   5.463
 7522SOL     OW23464   1.905   0.144   2.560
 7522SOL    HW123465   1.986   0.126   2.617
 7522SOL    HW223466   1.919   0.107   2.469
 7523SOL     OW23467   6.654   6.507   6.043
 7523SOL    HW123468   6.688   6.516   5.949
 7523SOL    HW223469   6.613   6.417   6.055
 7524SOL     OW23470   6.378   1.156   4.860
 7524SOL    HW123471   6.443   1.227   4.832
 7524SOL    HW223472   6.287   1.177   4.822
 7525SOL     OW23473   1.070   0.304   0.862
 7525SOL    HW123474   1.020   0.371   0.916
 7525SOL    HW223475   1.045   0.212   0.891
 7526SOL     OW23476   3.462   3.515   5.265
 7526SOL    HW123477   3.498   3.435   5.216
 7526SOL    HW223478   3.524   3.540   5.339
 7527SOL     OW23479   3.908   5.936   1.921
 7527SOL    HW123480   3.921   5.855   1.864
 7527SOL    HW223481   3.973   6.007   1.894
 7528SOL     OW23482   5.938   3.109   6.899
 7528SOL    HW123483   5.895   3.046   6.835
 7528SOL    HW223484   5.926   3.076   6.993
 7529SOL     OW23485   2.083   0.079   4.602
 7529SOL    HW123486   2.153   0.139   4.642
 7529SOL    HW223487   2.119   0.036   4.519
 7530SOL     OW23488   6.698   3.143   2.881
 7530SOL    HW123489   6.791   3.110   2.869
 7530SOL    HW223490   6.642   3.073   2.925
 7531SOL     OW23491   2.345   1.429   4.286
 7531SOL    HW123492   2.401   1.508   4.259
 7531SOL    HW223493   2.308   1.445   4.378
 7532SOL     OW23494   4.808   4.872   2.078
 7532SOL    HW123495   4.768   4.797   2.129
 7532SOL    HW223496   4.891   4.904   2.124
 7533SOL     OW23497   3.571   0.872   4.991
 7533SOL    HW123498   3.625   0.956   4.994
 7533SOL    HW223499   3.604   0.814   4.917
 7534SOL     OW23500   5.168   6.920   3.965
 7534SOL    HW123501   5.217   6.946   4.048
 7534SOL    HW223502   5.215   6.845   3.919
 7535SOL     OW23503   2.805   4.878   0.644
 7535SOL    HW123504   2.823   4.892   0.547
 7535SOL    HW223505   2.708   4.858   0.657
 7536SOL     OW23506   4.157   5.785   5.874
 7536SOL    HW123507   4.098   5.841   5.815
 7536SOL    HW223508   4.212   5.844   5.932
 7537SOL     OW23509   1.877   4.727   5.288
 7537SOL    HW123510   1.806   4.665   5.320
 7537SOL    HW223511   1.900   4.792   5.361
 7538SOL     OW23512   3.316   4.083   4.621
 7538SOL    HW123513   3.224   4.091   4.658
 7538SOL    HW223514   3.311   4.068   4.522
 7539SOL     OW23515   0.942   2.205   4.616
 7539SOL    HW123516   0.994   2.232   4.535
 7539SOL    HW223517   0.982   2.247   4.697
 7540SOL     OW23518   2.002   1.138   0.246
 7540SOL    HW123519   1.977   1.196   0.169
 7540SOL    HW223520   2.077   1.180   0.297
 7541SOL     OW23521   0.153   2.863   5.404
 7541SOL    HW123522   0.064   2.822   5.422
 7541SOL    HW223523   0.151   2.911   5.316
 7542SOL     OW23524   1.515   0.127   5.755
 7542SOL    HW123525   1.556   0.189   5.822
 7542SOL    HW223526   1.566   0.041   5.755
 7543SOL     OW23527   2.897   2.562   0.326
 7543SOL    HW123528   2.853   2.489   0.378
 7543SOL    HW223529   2.976   2.597   0.376
 7544SOL     OW23530   1.464   1.982   2.398
 7544SOL    HW123531   1.546   1.951   2.350
 7544SOL    HW223532   1.387   1.984   2.334
 7545SOL     OW23533   3.977   0.340   3.860
 7545SOL    HW123534   3.974   0.275   3.784
 7545SOL    HW223535   3.933   0.299   3.941
 7546SOL     OW23536   5.288   0.256   5.532
 7546SOL    HW123537   5.241   0.191   5.592
 7546SOL    HW223538   5.293   0.217   5.439
 7547SOL     OW23539   3.117   0.520   0.010
 7547SOL    HW123540   3.136   0.582   0.086
 7547SOL    HW223541   3.020   0.525   7.013
 7548SOL     OW23542   1.853   3.138   1.350
 7548SOL    HW123543   1.755   3.140   1.328
 7548SOL    HW223544   1.866   3.169   1.445
 7549SOL     OW23545   5.596   0.604   2.749
 7549SOL    HW123546   5.542   0.682   2.719
 7549SOL    HW223547   5.606   0.539   2.673
 7550SOL     OW23548   1.349   5.759   0.611
 7550SOL    HW123549   1.306   5.668   0.612
 7550SOL    HW223550   1.445   5.750   0.639
 7551SOL     OW23551   5.139   3.728   6.393
 7551SOL    HW123552   5.109   3.759   6.483
 7551SOL    HW223553   5.238   3.743   6.383
 7552SOL     OW23554   3.940   5.762   3.783
 7552SOL    HW123555   3.986   5.743   3.870
 7552SOL    HW223556   4.006   5.762   3.709
 7553SOL     OW23557   4.290   4.172   6.048
 7553SOL    HW123558   4.370   4.166   6.109
 7553SOL    HW223559   4.278   4.086   6.000
 7554SOL     OW23560   0.074   1.309   1.148
 7554SOL    HW123561   0.094   1.313   1.246
 7554SOL    HW223562   7.015   1.358   1.129
 7555SOL     OW23563   1.554   5.788   5.537
 7555SOL    HW123564   1.460   5.757   5.524
 7555SOL    HW223565   1.562   5.831   5.627
 7556SOL     OW23566   6.422   4.073   3.538
 7556SOL    HW123567   6.407   4.092   3.441
 7556SOL    HW223568   6.508   4.024   3.549
 7557SOL     OW23569   4.329   3.951   0.677
 7557SOL    HW123570   4.311   3.952   0.775
 7557SOL    HW223571   4.252   3.908   0.630
 7558SOL     OW23572   1.809   2.716   3.279
 7558SOL    HW123573   1.886   2.669   3.235
 7558SOL    HW223574   1.838   2.808   3.307
 7559SOL     OW23575   1.029   5.100   6.995
 7559SOL    HW123576   0.937   5.134   6.977
 7559SOL    HW223577   1.061   5.048   6.916
 7560SOL     OW23578   4.736   0.423   5.611
 7560SOL    HW123579   4.804   0.496   5.619
 7560SOL    HW223580   4.762   0.347   5.672
 7561SOL     OW23581   6.966   4.272   0.175
 7561SOL    HW123582   6.918   4.184   0.173
 7561SOL    HW223583   0.037   4.257   0.162
 7562SOL     OW23584   4.623   5.780   4.741
 7562SOL    HW123585   4.657   5.734   4.658
 7562SOL    HW223586   4.629   5.879   4.729
 7563SOL     OW23587   2.263   1.185   4.191
 7563SOL    HW123588   2.280   1.273   4.234
 7563SOL    HW223589   2.314   1.180   4.104
 7564SOL     OW23590   5.913   5.643   4.288
 7564SOL    HW123591   5.994   5.588   4.264
 7564SOL    HW223592   5.937   5.740   4.287
 7565SOL     OW23593   4.799   5.639   0.013
 7565SOL    HW123594   4.783   5.589   0.098
 7565SOL    HW223595   4.734   5.716   0.007
 7566SOL     OW23596   1.369   5.649   4.280
 7566SOL    HW123597   1.392   5.614   4.371
 7566SOL    HW223598   1.352   5.572   4.219
 7567SOL     OW23599   2.538   3.362   0.550
 7567SOL    HW123600   2.630   3.401   0.561
 7567SOL    HW223601   2.510   3.372   0.454
 7568SOL     OW23602   3.816   4.868   2.964
 7568SOL    HW123603   3.842   4.775   2.942
 7568SOL    HW223604   3.815   4.923   2.880
 7569SOL     OW23605   3.841   6.872   2.041
 7569SOL    HW123606   3.777   6.885   1.966
 7569SOL    HW223607   3.846   6.956   2.095
 7570SOL     OW23608   5.933   4.815   4.761
 7570SOL    HW123609   5.977   4.901   4.786
 7570SOL    HW223610   5.996   4.761   4.705
 7571SOL     OW23611   5.573   3.904   0.892
 7571SOL    HW123612   5.666   3.883   0.923
 7571SOL    HW223613   5.557   4.003   0.898
 7572SOL     OW23614   6.861   1.185   2.940
 7572SOL    HW123615   6.803   1.120   2.990
 7572SOL    HW223616   6.935   1.216   3.000
 7573SOL     OW23617   3.206   5.405   5.302
 7573SOL    HW123618   3.241   5.458   5.224
 7573SOL    HW223619   3.108   5.421   5.311
 7574SOL     OW23620   4.835   6.473   2.092
 7574SOL    HW123621   4.800   6.470   2.186
 7574SOL    HW223622   4.776   6.418   2.033
 7575SOL     OW23623   4.769   2.581   5.169
 7575SOL    HW123624   4.748   2.665   5.119
 7575SOL    HW223625   4.828   2.523   5.113
 7576SOL     OW23626   6.894   3.377   1.795
 7576SOL    HW123627   6.937   3.344   1.879
 7576SOL    HW223628   6.806   3.332   1.783
 7577SOL     OW23629   4.577   1.368   4.768
 7577SOL    HW123630   4.548   1.365   4.672
 7577SOL    HW223631   4.583   1.275   4.804
 7578SOL     OW23632   2.236   5.470   5.068
 7578SOL    HW123633   2.312   5.406   5.082
 7578SOL    HW223634   2.203   5.462   4.974
 7579SOL     OW23635   4.277   2.332   3.776
 7579SOL    HW123636   4.258   2.279   3.693
 7579SOL    HW223637   4.207   2.313   3.845
 7580SOL     OW23638   2.033   3.432   2.323
 7580SOL    HW123639   2.102   3.374   2.368
 7580SOL    HW223640   2.077   3.487   2.253
 7581SOL     OW23641   5.401   0.329   0.655
 7581SOL    HW123642   5.457   0.292   0.580
 7581SOL    HW223643   5.320   0.373   0.617
 7582SOL     OW23644   3.521   2.528   0.962
 7582SOL    HW123645   3.482   2.436   0.963
 7582SOL    HW223646   3.611   2.526   1.006
 7583SOL     OW23647   6.800   4.139   2.803
 7583SOL    HW123648   6.865   4.182   2.866
 7583SOL    HW223649   6.750   4.067   2.851
 7584SOL     OW23650   2.486   1.314   1.679
 7584SOL    HW123651   2.420   1.383   1.709
 7584SOL    HW223652   2.573   1.359   1.658
 7585SOL     OW23653   1.755   4.556   6.376
 7585SOL    HW123654   1.834   4.606   6.340
 7585SOL    HW223655   1.675   4.574   6.319
 7586SOL     OW23656   1.968   2.147   2.799
 7586SOL    HW123657   1.951   2.150   2.897
 7586SOL    HW223658   1.940   2.058   2.763
 7587SOL     OW23659   2.621   1.196   5.641
 7587SOL    HW123660   2.618   1.289   5.606
 7587SOL    HW223661   2.680   1.140   5.582
 7588SOL     OW23662   0.617   4.212   1.703
 7588SOL    HW123663   0.630   4.310   1.690
 7588SOL    HW223664   0.526   4.186   1.671
 7589SOL     OW23665   4.863   6.692   6.583
 7589SOL    HW123666   4.916   6.658   6.660
 7589SOL    HW223667   4.925   6.718   6.509
 7590SOL     OW23668   1.541   0.694   5.838
 7590SOL    HW123669   1.465   0.722   5.898
 7590SOL    HW223670   1.522   0.723   5.745
 7591SOL     OW23671   6.245   5.813   6.719
 7591SOL    HW123672   6.250   5.770   6.629
 7591SOL    HW223673   6.189   5.757   6.780
 7592SOL     OW23674   4.686   4.954   5.913
 7592SOL    HW123675   4.771   4.903   5.922
 7592SOL    HW223676   4.657   4.987   6.003
 7593SOL     OW23677   5.511   4.180   0.953
 7593SOL    HW123678   5.592   4.185   1.012
 7593SOL    HW223679   5.514   4.254   0.886
 7594SOL     OW23680   1.015   6.895   3.758
 7594SOL    HW123681   1.084   6.837   3.715
 7594SOL    HW223682   1.004   6.869   3.853
 7595SOL     OW23683   6.193   2.649   6.967
 7595SOL    HW123684   6.238   2.574   6.918
 7595SOL    HW223685   6.248   2.732   6.959
 7596SOL     OW23686   4.730   5.319   2.106
 7596SOL    HW123687   4.658   5.370   2.153
 7596SOL    HW223688   4.754   5.239   2.161
 7597SOL     OW23689   2.117   5.869   1.564
 7597SOL    HW123690   2.194   5.816   1.529
 7597SOL    HW223691   2.118   5.960   1.522
 7598SOL     OW23692   6.538   0.992   1.907
 7598SOL    HW123693   6.489   1.031   1.985
 7598SOL    HW223694   6.591   0.913   1.938
 7599SOL     OW23695   5.819   2.873   1.885
 7599SOL    HW123696   5.735   2.867   1.831
 7599SOL    HW223697   5.893   2.825   1.836
 7600SOL     OW23698   2.566   2.434   3.106
 7600SOL    HW123699   2.574   2.352   3.163
 7600SOL    HW223700   2.628   2.427   3.028
 7601SOL     OW23701   2.427   0.639   5.396
 7601SOL    HW123702   2.452   0.693   5.476
 7601SOL    HW223703   2.460   0.685   5.313
 7602SOL     OW23704   2.372   3.474   5.542
 7602SOL    HW123705   2.379   3.391   5.487
 7602SOL    HW223706   2.435   3.543   5.506
 7603SOL     OW23707   6.637   1.150   2.126
 7603SOL    HW123708   6.598   1.111   2.210
 7603SOL    HW223709   6.715   1.095   2.097
 7604SOL     OW23710   5.027   5.413   0.037
 7604SOL    HW123711   5.092   5.434   6.991
 7604SOL    HW223712   4.948   5.366   7.025
 7605SOL     OW23713   5.883   3.776   6.435
 7605SOL    HW123714   5.906   3.858   6.383
 7605SOL    HW223715   5.948   3.703   6.412
 7606SOL     OW23716   5.785   1.945   3.503
 7606SOL    HW123717   5.744   1.892   3.429
 7606SOL    HW223718   5.721   1.949   3.580
 7607SOL     OW23719   4.907   6.707   6.120
 7607SOL    HW123720   4.842   6.635   6.094
 7607SOL    HW223721   4.916   6.772   6.044
 7608SOL     OW23722   3.331   3.307   4.858
 7608SOL    HW123723   3.262   3.235   4.865
 7608SOL    HW223724   3.357   3.319   4.762
 7609SOL     OW23725   1.803   2.834   3.571
 7609SOL    HW123726   1.756   2.878   3.648
 7609SOL    HW223727   1.759   2.860   3.486
 7610SOL     OW23728   5.739   0.493   2.070
 7610SOL    HW123729   5.754   0.506   2.168
 7610SOL    HW223730   5.788   0.411   2.040
 7611SOL     OW23731   2.281   1.738   1.663
 7611SOL    HW123732   2.368   1.739   1.712
 7611SOL    HW223733   2.246   1.644   1.658
 7612SOL     OW23734   4.438   1.802   2.927
 7612SOL    HW123735   4.342   1.774   2.931
 7612SOL    HW223736   4.446   1.889   2.879
 7613SOL     OW23737   5.826   0.597   2.888
 7613SOL    HW123738   5.730   0.601   2.859
 7613SOL    HW223739   5.840   0.515   2.943
 7614SOL     OW23740   4.448   1.132   0.457
 7614SOL    HW123741   4.391   1.132   0.539
 7614SOL    HW223742   4.536   1.175   0.477
 7615SOL     OW23743   4.099   4.763   6.204
 7615SOL    HW123744   4.102   4.777   6.303
 7615SOL    HW223745   4.113   4.666   6.184
 7616SOL     OW23746   0.015   4.815   3.377
 7616SOL    HW123747   0.015   4.717   3.399
 7616SOL    HW223748   7.000   4.830   3.288
 7617SOL     OW23749   3.326   5.871   3.025
 7617SOL    HW123750   3.313   5.772   3.016
 7617SOL    HW223751   3.241   5.913   3.057
 7618SOL     OW23752   2.281   1.942   0.681
 7618SOL    HW123753   2.185   1.913   0.679
 7618SOL    HW223754   2.287   2.039   0.658
 7619SOL     OW23755   6.016   3.640   6.202
 7619SOL    HW123756   6.047   3.615   6.110
 7619SOL    HW223757   6.078   3.602   6.270
 7620SOL     OW23758   3.313   5.988   1.686
 7620SOL    HW123759   3.352   6.047   1.616
 7620SOL    HW223760   3.267   5.911   1.642
 7621SOL     OW23761   1.888   2.622   0.837
 7621SOL    HW123762   1.890   2.691   0.765
 7621SOL    HW223763   1.959   2.554   0.821
 7622SOL     OW23764   4.228   1.776   1.349
 7622SOL    HW123765   4.175   1.728   1.419
 7622SOL    HW223766   4.172   1.850   1.311
 7623SOL     OW23767   5.842   6.533   5.240
 7623SOL    HW123768   5.841   6.448   5.294
 7623SOL    HW223769   5.846   6.611   5.302
 7624SOL     OW23770   6.936   0.850   4.351
 7624SOL    HW123771   6.894   0.913   4.285
 7624SOL    HW223772   6.982   0.903   4.423
 7625SOL     OW23773   3.528   5.979   0.940
 7625SOL    HW123774   3.616   5.934   0.956
 7625SOL    HW223775   3.538   6.045   0.866
 7626SOL     OW23776   2.542   4.363   5.308
 7626SOL    HW123777   2.520   4.410   5.223
 7626SOL    HW223778   2.541   4.428   5.384
 7627SOL     OW23779   6.925   1.260   0.294
 7627SOL    HW123780   6.865   1.188   0.329
 7627SOL    HW223781   6.938   1.331   0.363
 7628SOL     OW23782   4.653   1.928   1.291
 7628SOL    HW123783   4.632   2.025   1.280
 7628SOL    HW223784   4.737   1.906   1.241
 7629SOL     OW23785   6.116   6.115   3.110
 7629SOL    HW123786   6.160   6.028   3.133
 7629SOL    HW223787   6.065   6.104   3.024
 7630SOL     OW23788   6.444   1.366   1.989
 7630SOL    HW123789   6.470   1.428   1.915
 7630SOL    HW223790   6.504   1.382   2.068
 7631SOL     OW23791   1.325   1.041   3.244
 7631SOL    HW123792   1.384   0.964   3.264
 7631SOL    HW223793   1.329   1.107   3.319
 7632SOL     OW23794   4.500   0.736   5.343
 7632SOL    HW123795   4.492   0.704   5.437
 7632SOL    HW223796   4.448   0.821   5.333
 7633SOL     OW23797   5.789   4.053   6.785
 7633SOL    HW123798   5.705   4.098   6.752
 7633SOL    HW223799   5.775   3.954   6.788
 7634SOL     OW23800   1.167   2.506   2.446
 7634SOL    HW123801   1.104   2.457   2.386
 7634SOL    HW223802   1.126   2.593   2.475
 7635SOL     OW23803   2.521   5.035   5.943
 7635SOL    HW123804   2.545   5.108   5.879
 7635SOL    HW223805   2.505   4.950   5.892
 7636SOL     OW23806   1.857   0.106   3.559
 7636SOL    HW123807   1.768   0.139   3.591
 7636SOL    HW223808   1.928   0.172   3.583
 7637SOL     OW23809   2.740   6.312   3.851
 7637SOL    HW123810   2.749   6.409   3.873
 7637SOL    HW223811   2.763   6.257   3.931
 7638SOL     OW23812   4.275   4.591   1.760
 7638SOL    HW123813   4.326   4.532   1.698
 7638SOL    HW223814   4.185   4.551   1.777
 7639SOL     OW23815   0.369   2.007   4.277
 7639SOL    HW123816   0.394   1.919   4.318
 7639SOL    HW223817   0.450   2.065   4.270
 7640SOL     OW23818   2.426   3.522   5.848
 7640SOL    HW123819   2.507   3.491   5.799
 7640SOL    HW223820   2.452   3.587   5.919
 7641SOL     OW23821   5.958   2.902   3.214
 7641SOL    HW123822   5.965   2.859   3.124
 7641SOL    HW223823   6.042   2.952   3.234
 7642SOL     OW23824   1.618   1.749   2.621
 7642SOL    HW123825   1.637   1.819   2.690
 7642SOL    HW223826   1.528   1.767   2.580
 7643SOL     OW23827   5.682   3.355   3.658
 7643SOL    HW123828   5.692   3.425   3.587
 7643SOL    HW223829   5.756   3.366   3.725
 7644SOL     OW23830   6.703   3.373   3.810
 7644SOL    HW123831   6.718   3.322   3.726
 7644SOL    HW223832   6.778   3.437   3.824
 7645SOL     OW23833   3.248   2.962   0.086
 7645SOL    HW123834   3.172   3.023   0.107
 7645SOL    HW223835   3.269   2.907   0.167
 7646SOL     OW23836   1.175   0.624   1.626
 7646SOL    HW123837   1.081   0.618   1.660
 7646SOL    HW223838   1.174   0.624   1.526
 7647SOL     OW23839   2.316   5.035   0.287
 7647SOL    HW123840   2.307   5.084   0.374
 7647SOL    HW223841   2.225   5.020   0.247
 7648SOL     OW23842   3.469   1.228   3.730
 7648SOL    HW123843   3.472   1.203   3.827
 7648SOL    HW223844   3.375   1.226   3.697
 7649SOL     OW23845   3.194   1.502   1.697
 7649SOL    HW123846   3.140   1.528   1.777
 7649SOL    HW223847   3.186   1.573   1.627
 7650SOL     OW23848   5.906   4.743   0.495
 7650SOL    HW123849   5.862   4.679   0.431
 7650SOL    HW223850   5.990   4.702   0.530
 7651SOL     OW23851   4.930   2.308   6.313
 7651SOL    HW123852   5.022   2.339   6.337
 7651SOL    HW223853   4.935   2.213   6.283
 7652SOL     OW23854   1.063   3.679   3.000
 7652SOL    HW123855   0.995   3.739   3.042
 7652SOL    HW223856   1.092   3.717   2.913
 7653SOL     OW23857   4.603   2.333   2.083
 7653SOL    HW123858   4.625   2.430   2.071
 7653SOL    HW223859   4.610   2.309   2.180
 7654SOL     OW23860   5.129   3.677   3.961
 7654SOL    HW123861   5.126   3.594   4.016
 7654SOL    HW223862   5.214   3.679   3.908
 7655SOL     OW23863   5.347   5.220   5.644
 7655SOL    HW123864   5.386   5.304   5.681
 7655SOL    HW223865   5.250   5.216   5.665
 7656SOL     OW23866   1.025   0.207   4.662
 7656SOL    HW123867   1.120   0.238   4.655
 7656SOL    HW223868   1.000   0.199   4.759
 7657SOL     OW23869   4.006   1.620   3.784
 7657SOL    HW123870   3.945   1.543   3.764
 7657SOL    HW223871   4.034   1.664   3.699
 7658SOL     OW23872   3.848   0.400   6.106
 7658SOL    HW123873   3.916   0.335   6.139
 7658SOL    HW223874   3.757   0.357   6.106
 7659SOL     OW23875   5.317   6.081   6.635
 7659SOL    HW123876   5.296   5.997   6.587
 7659SOL    HW223877   5.234   6.137   6.644
 7660SOL     OW23878   5.623   4.712   4.089
 7660SOL    HW123879   5.597   4.808   4.094
 7660SOL    HW223880   5.696   4.701   4.021
 7661SOL     OW23881   5.929   3.349   4.478
 7661SOL    HW123882   5.932   3.271   4.541
 7661SOL    HW223883   6.018   3.360   4.434
 7662SOL     OW23884   6.200   5.584   3.121
 7662SOL    HW123885   6.185   5.502   3.176
 7662SOL    HW223886   6.298   5.593   3.101
 7663SOL     OW23887   0.273   6.143   0.324
 7663SOL    HW123888   0.234   6.217   0.268
 7663SOL    HW223889   0.213   6.127   0.402
 7664SOL     OW23890   2.854   5.812   5.266
 7664SOL    HW123891   2.853   5.764   5.354
 7664SOL    HW223892   2.882   5.907   5.280
 7665SOL     OW23893   2.571   5.622   4.044
 7665SOL    HW123894   2.472   5.638   4.046
 7665SOL    HW223895   2.594   5.552   4.111
 7666SOL     OW23896   2.434   0.645   1.902
 7666SOL    HW123897   2.448   0.617   1.997
 7666SOL    HW223898   2.378   0.577   1.855
 7667SOL     OW23899   5.667   6.542   5.657
 7667SOL    HW123900   5.651   6.460   5.602
 7667SOL    HW223901   5.650   6.623   5.602
 7668SOL     OW23902   3.161   4.080   1.570
 7668SOL    HW123903   3.120   4.052   1.482
 7668SOL    HW223904   3.105   4.153   1.610
 7669SOL     OW23905   4.567   6.178   4.918
 7669SOL    HW123906   4.556   6.209   5.013
 7669SOL    HW223907   4.546   6.081   4.912
 7670SOL     OW23908   1.255   5.957   0.806
 7670SOL    HW123909   1.162   5.925   0.827
 7670SOL    HW223910   1.290   5.906   0.728
 7671SOL     OW23911   5.284   1.884   4.752
 7671SOL    HW123912   5.297   1.924   4.843
 7671SOL    HW223913   5.344   1.931   4.686
 7672SOL     OW23914   5.967   0.517   1.803
 7672SOL    HW123915   5.973   0.578   1.723
 7672SOL    HW223916   5.914   0.436   1.779
 7673SOL     OW23917   0.125   3.980   6.901
 7673SOL    HW123918   0.144   3.928   6.984
 7673SOL    HW223919   0.151   4.076   6.914
 7674SOL     OW23920   6.233   0.247   5.361
 7674SOL    HW123921   6.273   0.159   5.334
 7674SOL    HW223922   6.140   0.254   5.325
 7675SOL     OW23923   4.953   0.006   3.155
 7675SOL    HW123924   4.981   7.003   3.064
 7675SOL    HW223925   5.031   0.047   3.202
 7676SOL     OW23926   0.937   0.873   1.287
 7676SOL    HW123927   0.986   0.942   1.339
 7676SOL    HW223928   0.996   0.838   1.214
 7677SOL     OW23929   1.545   2.080   3.048
 7677SOL    HW123930   1.551   2.002   2.986
 7677SOL    HW223931   1.631   2.131   3.046
 7678SOL     OW23932   5.532   6.857   5.922
 7678SOL    HW123933   5.442   6.842   5.962
 7678SOL    HW223934   5.523   6.886   5.827
 7679SOL     OW23935   1.182   5.126   4.192
 7679SOL    HW123936   1.275   5.135   4.227
 7679SOL    HW223937   1.147   5.217   4.169
 7680SOL     OW23938   5.450   0.907   6.613
 7680SOL    HW123939   5.451   0.884   6.516
 7680SOL    HW223940   5.449   1.007   6.624
 7681SOL     OW23941   2.985   2.458   6.360
 7681SOL    HW123942   2.914   2.495   6.420
 7681SOL    HW223943   2.946   2.384   6.304
 7682SOL     OW23944   2.748   6.976   0.638
 7682SOL    HW123945   2.835   6.978   0.687
 7682SOL    HW223946   2.753   6.910   0.563
 7683SOL     OW23947   6.932   2.370   3.476
 7683SOL    HW123948   7.022   2.403   3.449
 7683SOL    HW223949   6.911   2.286   3.427
 7684SOL     OW23950   4.057   2.441   5.808
 7684SOL    HW123951   4.049   2.342   5.792
 7684SOL    HW223952   3.997   2.467   5.884
 7685SOL     OW23953   3.956   3.987   1.486
 7685SOL    HW123954   4.015   3.909   1.503
 7685SOL    HW223955   4.010   4.071   1.488
 7686SOL     OW23956   3.281   0.920   3.351
 7686SOL    HW123957   3.259   0.987   3.281
 7686SOL    HW223958   3.282   0.829   3.310
 7687SOL     OW23959   4.763   4.696   6.121
 7687SOL    HW123960   4.690   4.738   6.067
 7687SOL    HW223961   4.820   4.640   6.062
 7688SOL     OW23962   6.498   0.550   3.296
 7688SOL    HW123963   6.586   0.530   3.252
 7688SOL    HW223964   6.434   0.477   3.276
 7689SOL     OW23965   3.542   6.190   4.989
 7689SOL    HW123966   3.632   6.222   5.019
 7689SOL    HW223967   3.499   6.259   4.931
 7690SOL     OW23968   0.657   5.428   1.969
 7690SOL    HW123969   0.682   5.483   2.049
 7690SOL    HW223970   0.734   5.372   1.941
 7691SOL     OW23971   6.115   3.713   5.952
 7691SOL    HW123972   6.146   3.793   5.901
 7691SOL    HW223973   6.193   3.656   5.976
 7692SOL     OW23974   1.330   6.498   1.121
 7692SOL    HW123975   1.382   6.545   1.192
 7692SOL    HW223976   1.248   6.456   1.161
 7693SOL     OW23977   5.469   1.749   0.457
 7693SOL    HW123978   5.459   1.822   0.524
 7693SOL    HW223979   5.502   1.788   0.370
 7694SOL     OW23980   5.659   5.116   3.772
 7694SOL    HW123981   5.565   5.148   3.758
 7694SOL    HW223982   5.680   5.115   3.870
 7695SOL     OW23983   4.805   0.414   6.673
 7695SOL    HW123984   4.849   0.377   6.591
 7695SOL    HW223985   4.762   0.501   6.651
 7696SOL     OW23986   1.340   4.227   5.526
 7696SOL    HW123987   1.302   4.195   5.438
 7696SOL    HW223988   1.352   4.149   5.587
 7697SOL     OW23989   4.633   1.314   2.390
 7697SOL    HW123990   4.584   1.389   2.433
 7697SOL    HW223991   4.731   1.335   2.388
 7698SOL     OW23992   6.843   2.900   5.405
 7698SOL    HW123993   6.778   2.889   5.480
 7698SOL    HW223994   6.900   2.817   5.399
 7699SOL     OW23995   3.133   4.136   0.283
 7699SOL    HW123996   3.228   4.114   0.305
 7699SOL    HW223997   3.116   4.115   0.187
 7700SOL     OW23998   5.656   6.577   4.235
 7700SOL    HW123999   5.640   6.592   4.137
 7700SOL    HW224000   5.748   6.541   4.248
 7701SOL     OW24001   6.948   2.262   5.326
 7701SOL    HW124002   7.010   2.292   5.254
 7701SOL    HW224003   6.998   2.253   5.412
 7702SOL     OW24004   1.962   6.628   6.445
 7702SOL    HW124005   1.930   6.597   6.356
 7702SOL    HW224006   2.062   6.629   6.446
 7703SOL     OW24007   0.966   2.446   5.429
 7703SOL    HW124008   0.905   2.369   5.411
 7703SOL    HW224009   1.061   2.416   5.421
 7704SOL     OW24010   2.445   4.262   1.225
 7704SOL    HW124011   2.463   4.340   1.284
 7704SOL    HW224012   2.416   4.184   1.281
 7705SOL     OW24013   3.679   3.955   4.799
 7705SOL    HW124014   3.604   4.022   4.794
 7705SOL    HW224015   3.696   3.932   4.894
 7706SOL     OW24016   6.568   0.823   5.649
 7706SOL    HW124017   6.593   0.733   5.687
 7706SOL    HW224018   6.592   0.825   5.551
 7707SOL     OW24019   6.931   5.906   6.971
 7707SOL    HW124020   6.990   5.978   7.009
 7707SOL    HW224021   6.837   5.940   6.964
 7708SOL     OW24022   4.970   1.249   5.026
 7708SOL    HW124023   5.030   1.328   5.035
 7708SOL    HW224024   4.992   1.198   4.943
 7709SOL     OW24025   3.948   2.241   1.840
 7709SOL    HW124026   3.854   2.275   1.834
 7709SOL    HW224027   4.009   2.304   1.792
 7710SOL     OW24028   2.809   2.070   6.664
 7710SOL    HW124029   2.831   2.112   6.752
 7710SOL    HW224030   2.751   1.990   6.678
 7711SOL     OW24031   4.756   5.643   4.509
 7711SOL    HW124032   4.752   5.679   4.416
 7711SOL    HW224033   4.836   5.681   4.556
 7712SOL     OW24034   5.287   4.740   6.585
 7712SOL    HW124035   5.324   4.784   6.666
 7712SOL    HW224036   5.343   4.765   6.505
 7713SOL     OW24037   0.618   5.586   6.295
 7713SOL    HW124038   0.649   5.624   6.207
 7713SOL    HW224039   0.531   5.628   6.320
 7714SOL     OW24040   5.346   3.669   4.490
 7714SOL    HW124041   5.407   3.707   4.559
 7714SOL    HW224042   5.299   3.743   4.442
 7715SOL     OW24043   3.845   1.966   1.895
 7715SOL    HW124044   3.853   1.919   1.983
 7715SOL    HW224045   3.871   2.061   1.905
 7716SOL     OW24046   4.255   2.349   4.179
 7716SOL    HW124047   4.323   2.277   4.197
 7716SOL    HW224048   4.268   2.423   4.245
 7717SOL     OW24049   3.379   0.213   6.610
 7717SOL    HW124050   3.356   0.159   6.691
 7717SOL    HW224051   3.308   0.281   6.595
 7718SOL     OW24052   2.964   6.316   4.473
 7718SOL    HW124053   2.880   6.371   4.472
 7718SOL    HW224054   2.946   6.227   4.431
 7719SOL     OW24055   5.984   2.739   5.090
 7719SOL    HW124056   5.959   2.647   5.063
 7719SOL    HW224057   6.001   2.741   5.189
 7720SOL     OW24058   6.095   6.194   2.000
 7720SOL    HW124059   6.103   6.254   2.080
 7720SOL    HW224060   6.013   6.219   1.948
 7721SOL     OW24061   1.017   4.842   2.822
 7721SOL    HW124062   1.051   4.823   2.730
 7721SOL    HW224063   1.049   4.931   2.852
 7722SOL     OW24064   0.757   6.120   4.199
 7722SOL    HW124065   0.719   6.210   4.175
 7722SOL    HW224066   0.692   6.071   4.257
 7723SOL     OW24067   6.900   2.030   0.240
 7723SOL    HW124068   6.959   2.055   0.317
 7723SOL    HW224069   6.837   1.957   0.269
 7724SOL     OW24070   2.063   6.606   6.912
 7724SOL    HW124071   2.057   6.622   7.011
 7724SOL    HW224072   2.122   6.528   6.894
 7725SOL     OW24073   4.916   3.359   4.313
 7725SOL    HW124074   5.010   3.331   4.295
 7725SOL    HW224075   4.886   3.325   4.402
 7726SOL     OW24076   5.167   4.273   3.005
 7726SOL    HW124077   5.133   4.272   3.099
 7726SOL    HW224078   5.263   4.299   3.004
 7727SOL     OW24079   5.542   3.096   2.245
 7727SOL    HW124080   5.489   3.033   2.189
 7727SOL    HW224081   5.575   3.171   2.188
 7728SOL     OW24082   2.222   2.777   2.545
 7728SOL    HW124083   2.277   2.724   2.609
 7728SOL    HW224084   2.125   2.754   2.557
 7729SOL     OW24085   4.999   2.140   0.060
 7729SOL    HW124086   5.092   2.103   0.053
 7729SOL    HW224087   4.997   2.211   0.131
 7730SOL     OW24088   4.390   0.292   2.205
 7730SOL    HW124089   4.367   0.381   2.167
 7730SOL    HW224090   4.380   0.295   2.305
 7731SOL     OW24091   0.169   1.573   4.212
 7731SOL    HW124092   0.070   1.573   4.225
 7731SOL    HW224093   0.214   1.603   4.296
 7732SOL     OW24094   4.168   4.949   0.730
 7732SOL    HW124095   4.243   5.015   0.723
 7732SOL    HW224096   4.116   4.949   0.645
 7733SOL     OW24097   2.785   6.455   0.411
 7733SOL    HW124098   2.817   6.499   0.495
 7733SOL    HW224099   2.799   6.516   0.333
 7734SOL     OW24100   1.568   2.930   2.281
 7734SOL    HW124101   1.590   2.922   2.378
 7734SOL    HW224102   1.509   3.010   2.266
 7735SOL     OW24103   5.102   4.138   0.977
 7735SOL    HW124104   5.050   4.063   1.017
 7735SOL    HW224105   5.062   4.225   1.005
 7736SOL     OW24106   5.794   4.315   6.280
 7736SOL    HW124107   5.784   4.388   6.213
 7736SOL    HW224108   5.795   4.355   6.372
 7737SOL     OW24109   4.520   2.752   0.286
 7737SOL    HW124110   4.562   2.717   0.202
 7737SOL    HW224111   4.479   2.841   0.267
 7738SOL     OW24112   2.433   5.091   0.034
 7738SOL    HW124113   2.396   5.073   0.125
 7738SOL    HW224114   2.385   5.036   6.993
 7739SOL     OW24115   5.611   3.462   2.766
 7739SOL    HW124116   5.633   3.560   2.771
 7739SOL    HW224117   5.579   3.440   2.674
 7740SOL     OW24118   0.466   6.330   3.793
 7740SOL    HW124119   0.447   6.425   3.770
 7740SOL    HW224120   0.543   6.297   3.737
 7741SOL     OW24121   2.883   5.710   4.386
 7741SOL    HW124122   2.840   5.629   4.426
 7741SOL    HW224123   2.812   5.772   4.352
 7742SOL     OW24124   6.789   0.983   4.143
 7742SOL    HW124125   6.707   0.964   4.196
 7742SOL    HW224126   6.767   0.981   4.045
 7743SOL     OW24127   4.931   3.147   2.115
 7743SOL    HW124128   4.857   3.089   2.080
 7743SOL    HW224129   4.957   3.116   2.206
 7744SOL     OW24130   0.190   6.232   4.808
 7744SOL    HW124131   0.274   6.179   4.796
 7744SOL    HW224132   0.195   6.316   4.755
 7745SOL     OW24133   5.021   3.364   5.248
 7745SOL    HW124134   4.974   3.336   5.164
 7745SOL    HW224135   5.108   3.406   5.225
 7746SOL     OW24136   1.909   0.583   6.568
 7746SOL    HW124137   1.872   0.588   6.661
 7746SOL    HW224138   1.885   0.495   6.528
 7747SOL     OW24139   4.990   5.313   0.862
 7747SOL    HW124140   5.064   5.380   0.858
 7747SOL    HW224141   5.003   5.253   0.941
 7748SOL     OW24142   2.228   4.377   6.144
 7748SOL    HW124143   2.204   4.309   6.075
 7748SOL    HW224144   2.155   4.445   6.151
 7749SOL     OW24145   5.592   3.246   6.217
 7749SOL    HW124146   5.628   3.154   6.205
 7749SOL    HW224147   5.640   3.292   6.292
 7750SOL     OW24148   4.731   5.492   2.547
 7750SOL    HW124149   4.752   5.396   2.527
 7750SOL    HW224150   4.735   5.507   2.646
 7751SOL     OW24151   0.540   2.902   1.201
 7751SOL    HW124152   0.619   2.904   1.263
 7751SOL    HW224153   0.510   2.808   1.189
 7752SOL     OW24154   3.954   1.375   3.243
 7752SOL    HW124155   3.966   1.286   3.289
 7752SOL    HW224156   4.001   1.374   3.155
 7753SOL     OW24157   4.212   1.315   5.424
 7753SOL    HW124158   4.179   1.376   5.496
 7753SOL    HW224159   4.236   1.226   5.464
 7754SOL     OW24160   5.139   5.492   1.561
 7754SOL    HW124161   5.111   5.396   1.565
 7754SOL    HW224162   5.058   5.550   1.555
 7755SOL     OW24163   0.199   4.750   5.422
 7755SOL    HW124164   0.165   4.785   5.510
 7755SOL    HW224165   0.299   4.759   5.419
 7756SOL     OW24166   2.199   4.014   2.018
 7756SOL    HW124167   2.122   4.078   2.024
 7756SOL    HW224168   2.262   4.032   2.094
 7757SOL     OW24169   6.940   3.936   0.706
 7757SOL    HW124170   6.977   3.968   0.619
 7757SOL    HW224171   6.908   4.014   0.759
 7758SOL     OW24172   0.407   1.574   5.896
 7758SOL    HW124173   0.337   1.526   5.842
 7758SOL    HW224174   0.364   1.643   5.954
 7759SOL     OW24175   3.752   1.318   2.450
 7759SOL    HW124176   3.704   1.235   2.424
 7759SOL    HW224177   3.690   1.396   2.446
 7760SOL     OW24178   4.867   3.010   6.728
 7760SOL    HW124179   4.861   3.090   6.787
 7760SOL    HW224180   4.950   3.017   6.672
 7761SOL     OW24181   5.405   5.153   3.482
 7761SOL    HW124182   5.469   5.094   3.433
 7761SOL    HW224183   5.426   5.249   3.463
 7762SOL     OW24184   5.002   1.796   1.877
 7762SOL    HW124185   4.962   1.806   1.968
 7762SOL    HW224186   4.993   1.702   1.846
 7763SOL     OW24187   2.289   0.674   3.207
 7763SOL    HW124188   2.385   0.662   3.231
 7763SOL    HW224189   2.232   0.657   3.287
 7764SOL     OW24190   3.758   5.069   5.640
 7764SOL    HW124191   3.711   4.981   5.654
 7764SOL    HW224192   3.689   5.140   5.622
 7765SOL     OW24193   5.263   4.107   4.728
 7765SOL    HW124194   5.253   4.177   4.799
 7765SOL    HW224195   5.354   4.066   4.734
 7766SOL     OW24196   6.411   2.352   6.272
 7766SOL    HW124197   6.326   2.325   6.319
 7766SOL    HW224198   6.389   2.419   6.201
 7767SOL     OW24199   4.325   0.246   4.050
 7767SOL    HW124200   4.424   0.248   4.033
 7767SOL    HW224201   4.304   0.170   4.112
 7768SOL     OW24202   3.109   5.956   4.441
 7768SOL    HW124203   3.031   5.971   4.502
 7768SOL    HW224204   3.142   5.863   4.452
 7769SOL     OW24205   3.459   2.683   6.954
 7769SOL    HW124206   3.366   2.658   6.979
 7769SOL    HW224207   3.458   2.735   6.868
 7770SOL     OW24208   1.095   3.516   3.614
 7770SOL    HW124209   1.055   3.498   3.704
 7770SOL    HW224210   1.152   3.598   3.620
 7771SOL     OW24211   0.944   3.672   5.331
 7771SOL    HW124212   1.014   3.742   5.325
 7771SOL    HW224213   0.860   3.704   5.287
 7772SOL     OW24214   5.417   6.018   1.800
 7772SOL    HW124215   5.328   5.976   1.819
 7772SOL    HW224216   5.438   6.009   1.703
 7773SOL     OW24217   3.142   0.368   6.593
 7773SOL    HW124218   3.124   0.391   6.497
 7773SOL    HW224219   3.100   0.438   6.652
 7774SOL     OW24220   5.328   0.888   3.031
 7774SOL    HW124221   5.233   0.919   3.025
 7774SOL    HW224222   5.387   0.965   3.058
 7775SOL     OW24223   3.518   1.766   1.260
 7775SOL    HW124224   3.617   1.776   1.248
 7775SOL    HW224225   3.500   1.708   1.340
 7776SOL     OW24226   3.423   0.916   4.082
 7776SOL    HW124227   3.519   0.945   4.087
 7776SOL    HW224228   3.408   0.838   4.142
 7777SOL     OW24229   5.452   5.108   3.088
 7777SOL    HW124230   5.378   5.045   3.064
 7777SOL    HW224231   5.421   5.202   3.078
 7778SOL     OW24232   1.071   4.243   2.308
 7778SOL    HW124233   1.054   4.282   2.398
 7778SOL    HW224234   1.053   4.145   2.310
 7779SOL     OW24235   3.374   6.245   2.450
 7779SOL    HW124236   3.350   6.278   2.542
 7779SOL    HW224237   3.291   6.233   2.397
 7780SOL     OW24238   6.976   5.729   4.076
 7780SOL    HW124239   6.891   5.688   4.042
 7780SOL    HW224240   6.962   5.765   4.168
 7781SOL     OW24241   2.337   2.760   0.411
 7781SOL    HW124242   2.314   2.711   0.326
 7781SOL    HW224243   2.382   2.846   0.388
 7782SOL     OW24244   5.918   3.859   4.686
 7782SOL    HW124245   5.888   3.763   4.687
 7782SOL    HW224246   5.929   3.892   4.780
 7783SOL     OW24247   1.346   6.531   4.011
 7783SOL    HW124248   1.414   6.533   4.084
 7783SOL    HW224249   1.295   6.618   4.011
 7784SOL     OW24250   1.762   2.339   2.717
 7784SOL    HW124251   1.767   2.410   2.787
 7784SOL    HW224252   1.838   2.274   2.730
 7785SOL     OW24253   6.666   6.537   2.557
 7785SOL    HW124254   6.761   6.568   2.563
 7785SOL    HW224255   6.661   6.456   2.499
 7786SOL     OW24256   5.013   1.058   6.495
 7786SOL    HW124257   4.932   1.045   6.553
 7786SOL    HW224258   5.072   1.127   6.536
 7787SOL     OW24259   1.355   2.974   1.266
 7787SOL    HW124260   1.296   2.924   1.204
 7787SOL    HW224261   1.375   2.918   1.347
 7788SOL     OW24262   0.794   4.096   2.139
 7788SOL    HW124263   0.739   4.179   2.133
 7788SOL    HW224264   0.780   4.040   2.057
 7789SOL     OW24265   3.644   0.849   5.870
 7789SOL    HW124266   3.656   0.788   5.948
 7789SOL    HW224267   3.589   0.928   5.898
 7790SOL     OW24268   3.794   4.886   4.034
 7790SOL    HW124269   3.816   4.913   4.128
 7790SOL    HW224270   3.695   4.891   4.021
 7791SOL     OW24271   2.433   6.252   1.931
 7791SOL    HW124272   2.526   6.250   1.892
 7791SOL    HW224273   2.403   6.158   1.950
 7792SOL     OW24274   1.557   1.532   2.207
 7792SOL    HW124275   1.635   1.506   2.151
 7792SOL    HW224276   1.521   1.450   2.253
 7793SOL     OW24277   4.757   1.759   0.854
 7793SOL    HW124278   4.670   1.783   0.899
 7793SOL    HW224279   4.777   1.663   0.869
 7794SOL     OW24280   1.625   0.896   3.180
 7794SOL    HW124281   1.697   0.847   3.229
 7794SOL    HW224282   1.573   0.832   3.123
 7795SOL     OW24283   3.821   3.688   1.343
 7795SOL    HW124284   3.900   3.642   1.304
 7795SOL    HW224285   3.838   3.710   1.439
 7796SOL     OW24286   4.338   1.487   0.393
 7796SOL    HW124287   4.273   1.444   0.456
 7796SOL    HW224288   4.291   1.556   0.339
 7797SOL     OW24289   1.373   6.397   2.788
 7797SOL    HW124290   1.291   6.350   2.821
 7797SOL    HW224291   1.437   6.408   2.864
 7798SOL     OW24292   2.067   3.466   1.267
 7798SOL    HW124293   1.996   3.470   1.196
 7798SOL    HW224294   2.157   3.476   1.225
 7799SOL     OW24295   2.447   6.531   3.910
 7799SOL    HW124296   2.393   6.450   3.933
 7799SOL    HW224297   2.396   6.587   3.845
 7800SOL     OW24298   1.520   1.409   2.471
 7800SOL    HW124299   1.450   1.480   2.477
 7800SOL    HW224300   1.605   1.441   2.514
 7801SOL     OW24301   1.833   2.064   1.104
 7801SOL    HW124302   1.915   2.067   1.161
 7801SOL    HW224303   1.793   1.973   1.109
 7802SOL     OW24304   6.190   4.800   4.163
 7802SOL    HW124305   6.254   4.783   4.238
 7802SOL    HW224306   6.175   4.898   4.154
 7803SOL     OW24307   3.253   2.547   6.351
 7803SOL    HW124308   3.259   2.593   6.440
 7803SOL    HW224309   3.157   2.527   6.330
 7804SOL     OW24310   2.689   1.789   5.345
 7804SOL    HW124311   2.739   1.706   5.323
 7804SOL    HW224312   2.739   1.868   5.309
 7805SOL     OW24313   5.465   3.120   6.787
 7805SOL    HW124314   5.528   3.136   6.863
 7805SOL    HW224315   5.418   3.206   6.764
 7806SOL     OW24316   6.152   2.114   5.330
 7806SOL    HW124317   6.217   2.049   5.291
 7806SOL    HW224318   6.059   2.085   5.307
 7807SOL     OW24319   1.856   5.618   5.796
 7807SOL    HW124320   1.772   5.582   5.836
 7807SOL    HW224321   1.883   5.701   5.845
 7808SOL     OW24322   0.272   3.131   3.960
 7808SOL    HW124323   0.273   3.195   4.036
 7808SOL    HW224324   0.205   3.161   3.892
 7809SOL     OW24325   4.390   6.652   2.504
 7809SOL    HW124326   4.294   6.679   2.514
 7809SOL    HW224327   4.436   6.714   2.441
 7810SOL     OW24328   1.911   6.984   5.600
 7810SOL    HW124329   1.860   0.004   5.672
 7810SOL    HW224330   1.848   6.933   5.542
 7811SOL     OW24331   1.247   5.792   3.173
 7811SOL    HW124332   1.296   5.756   3.093
 7811SOL    HW224333   1.230   5.890   3.160
 7812SOL     OW24334   2.887   1.341   5.528
 7812SOL    HW124335   2.901   1.326   5.430
 7812SOL    HW224336   2.866   1.437   5.545
 7813SOL     OW24337   5.638   1.371   0.771
 7813SOL    HW124338   5.590   1.284   0.790
 7813SOL    HW224339   5.726   1.371   0.819
 7814SOL     OW24340   6.245   2.686   1.737
 7814SOL    HW124341   6.253   2.590   1.764
 7814SOL    HW224342   6.331   2.733   1.756
 7815SOL     OW24343   4.672   5.301   3.661
 7815SOL    HW124344   4.642   5.211   3.629
 7815SOL    HW224345   4.624   5.372   3.610
 7816SOL     OW24346   1.321   1.213   5.374
 7816SOL    HW124347   1.321   1.130   5.318
 7816SOL    HW224348   1.307   1.293   5.316
 7817SOL     OW24349   4.252   1.695   6.440
 7817SOL    HW124350   4.248   1.653   6.349
 7817SOL    HW224351   4.298   1.784   6.434
 7818SOL     OW24352   5.719   0.862   3.179
 7818SOL    HW124353   5.696   0.895   3.271
 7818SOL    HW224354   5.738   0.764   3.182
 7819SOL     OW24355   2.172   2.715   4.518
 7819SOL    HW124356   2.191   2.666   4.433
 7819SOL    HW224357   2.095   2.777   4.505
 7820SOL     OW24358   1.716   1.051   5.869
 7820SOL    HW124359   1.690   1.115   5.942
 7820SOL    HW224360   1.637   1.036   5.809
 7821SOL     OW24361   3.715   5.760   6.854
 7821SOL    HW124362   3.677   5.675   6.818
 7821SOL    HW224363   3.785   5.740   6.922
 7822SOL     OW24364   0.847   1.186   4.651
 7822SOL    HW124365   0.946   1.185   4.646
 7822SOL    HW224366   0.817   1.266   4.702
 7823SOL     OW24367   2.880   2.955   6.123
 7823SOL    HW124368   2.816   2.902   6.067
 7823SOL    HW224369   2.938   3.012   6.063
 7824SOL     OW24370   5.996   4.319   2.845
 7824SOL    HW124371   5.964   4.368   2.765
 7824SOL    HW224372   6.024   4.226   2.820
 7825SOL     OW24373   3.601   3.117   2.974
 7825SOL    HW124374   3.510   3.127   3.014
 7825SOL    HW224375   3.627   3.021   2.973
 7826SOL     OW24376   6.353   0.163   0.910
 7826SOL    HW124377   6.405   0.105   0.973
 7826SOL    HW224378   6.306   0.105   0.843
 7827SOL     OW24379   4.470   3.665   0.409
 7827SOL    HW124380   4.447   3.595   0.476
 7827SOL    HW224381   4.565   3.695   0.423
 7828SOL     OW24382   1.380   6.568   0.850
 7828SOL    HW124383   1.363   6.550   0.947
 7828SOL    HW224384   1.348   6.660   0.828
 7829SOL     OW24385   3.660   3.840   2.561
 7829SOL    HW124386   3.750   3.865   2.525
 7829SOL    HW224387   3.593   3.907   2.531
 7830SOL     OW24388   6.501   4.048   0.653
 7830SOL    HW124389   6.523   3.984   0.726
 7830SOL    HW224390   6.582   4.064   0.597
 7831SOL     OW24391   2.290   2.243   0.652
 7831SOL    HW124392   2.206   2.228   0.704
 7831SOL    HW224393   2.269   2.290   0.566
 7832SOL     OW24394   3.585   3.008   6.185
 7832SOL    HW124395   3.637   3.077   6.135
 7832SOL    HW224396   3.495   2.997   6.143
 7833SOL     OW24397   6.695   6.753   1.891
 7833SOL    HW124398   6.711   6.679   1.956
 7833SOL    HW224399   6.770   6.756   1.825
 7834SOL     OW24400   5.593   1.166   1.028
 7834SOL    HW124401   5.516   1.229   1.041
 7834SOL    HW224402   5.558   1.074   1.014
 7835SOL     OW24403   2.261   2.026   4.182
 7835SOL    HW124404   2.264   2.112   4.233
 7835SOL    HW224405   2.273   2.045   4.085
 7836SOL     OW24406   2.063   0.547   6.844
 7836SOL    HW124407   2.020   0.466   6.805
 7836SOL    HW224408   2.000   0.592   6.906
 7837SOL     OW24409   5.485   5.620   2.265
 7837SOL    HW124410   5.530   5.534   2.243
 7837SOL    HW224411   5.514   5.690   2.200
 7838SOL     OW24412   3.619   6.064   3.990
 7838SOL    HW124413   3.703   6.012   3.976
 7838SOL    HW224414   3.592   6.107   3.904
 7839SOL     OW24415   6.608   4.629   3.237
 7839SOL    HW124416   6.553   4.674   3.165
 7839SOL    HW224417   6.642   4.699   3.300
 7840SOL     OW24418   4.585   3.187   5.882
 7840SOL    HW124419   4.603   3.133   5.964
 7840SOL    HW224420   4.669   3.194   5.828
 7841SOL     OW24421   1.148   2.508   6.049
 7841SOL    HW124422   1.243   2.496   6.078
 7841SOL    HW224423   1.137   2.597   6.005
 7842SOL     OW24424   2.552   0.858   2.726
 7842SOL    HW124425   2.605   0.773   2.722
 7842SOL    HW224426   2.494   0.857   2.808
 7843SOL     OW24427   0.346   2.630   2.304
 7843SOL    HW124428   0.246   2.624   2.311
 7843SOL    HW224429   0.388   2.557   2.358
 7844SOL     OW24430   4.242   2.174   3.552
 7844SOL    HW124431   4.170   2.104   3.548
 7844SOL    HW224432   4.270   2.197   3.459
 7845SOL     OW24433   0.207   1.097   4.366
 7845SOL    HW124434   0.160   1.040   4.434
 7845SOL    HW224435   0.224   1.043   4.283
 7846SOL     OW24436   4.511   0.333   2.480
 7846SOL    HW124437   4.608   0.329   2.457
 7846SOL    HW224438   4.488   0.426   2.511
 7847SOL     OW24439   0.204   6.918   6.794
 7847SOL    HW124440   0.281   6.970   6.830
 7847SOL    HW224441   0.237   6.830   6.758
 7848SOL     OW24442   3.644   3.989   1.550
 7848SOL    HW124443   3.742   3.989   1.565
 7848SOL    HW224444   3.599   3.931   1.618
 7849SOL     OW24445   5.207   4.344   4.892
 7849SOL    HW124446   5.172   4.424   4.942
 7849SOL    HW224447   5.304   4.358   4.870
 7850SOL     OW24448   0.743   2.740   5.005
 7850SOL    HW124449   0.842   2.741   4.994
 7850SOL    HW224450   0.710   2.646   4.990
 7851SOL     OW24451   3.791   6.518   1.022
 7851SOL    HW124452   3.705   6.546   1.066
 7851SOL    HW224453   3.774   6.499   0.925
 7852SOL     OW24454   2.977   0.100   0.102
 7852SOL    HW124455   2.887   0.142   0.088
 7852SOL    HW224456   3.045   0.151   0.050
 7853SOL     OW24457   2.198   2.315   0.365
 7853SOL    HW124458   2.223   2.241   0.302
 7853SOL    HW224459   2.100   2.311   0.383
 7854SOL     OW24460   3.815   4.074   3.770
 7854SOL    HW124461   3.856   4.136   3.703
 7854SOL    HW224462   3.875   3.995   3.783
 7855SOL     OW24463   2.880   0.309   4.795
 7855SOL    HW124464   2.896   0.220   4.837
 7855SOL    HW224465   2.927   0.313   4.707
 7856SOL     OW24466   2.578   3.691   6.916
 7856SOL    HW124467   2.528   3.734   6.992
 7856SOL    HW224468   2.518   3.625   6.871
 7857SOL     OW24469   0.478   2.827   4.776
 7857SOL    HW124470   0.379   2.838   4.781
 7857SOL    HW224471   0.514   2.806   4.868
 7858SOL     OW24472   5.402   3.237   2.751
 7858SOL    HW124473   5.414   3.336   2.761
 7858SOL    HW224474   5.430   3.209   2.660
 7859SOL     OW24475   0.380   6.748   0.558
 7859SOL    HW124476   0.285   6.775   0.540
 7859SOL    HW224477   0.409   6.785   0.647
 7860SOL     OW24478   4.671   6.396   1.066
 7860SOL    HW124479   4.763   6.356   1.065
 7860SOL    HW224480   4.678   6.495   1.077
 7861SOL     OW24481   5.777   3.700   0.540
 7861SOL    HW124482   5.751   3.794   0.518
 7861SOL    HW224483   5.696   3.641   0.536
 7862SOL     OW24484   3.119   4.603   1.735
 7862SOL    HW124485   3.038   4.575   1.785
 7862SOL    HW224486   3.179   4.656   1.795
 7863SOL     OW24487   4.246   6.012   2.894
 7863SOL    HW124488   4.176   6.061   2.947
 7863SOL    HW224489   4.204   5.973   2.813
 7864SOL     OW24490   1.132   5.354   5.206
 7864SOL    HW124491   1.130   5.330   5.303
 7864SOL    HW224492   1.050   5.408   5.184
 7865SOL     OW24493   4.652   0.394   3.210
 7865SOL    HW124494   4.673   0.490   3.193
 7865SOL    HW224495   4.664   0.374   3.308
 7866SOL     OW24496   2.863   2.520   5.751
 7866SOL    HW124497   2.820   2.595   5.801
 7866SOL    HW224498   2.808   2.498   5.671
 7867SOL     OW24499   6.040   3.340   1.368
 7867SOL    HW124500   6.011   3.256   1.415
 7867SOL    HW224501   5.995   3.419   1.409
 7868SOL     OW24502   4.759   0.138   0.354
 7868SOL    HW124503   4.686   0.097   0.299
 7868SOL    HW224504   4.831   0.172   0.293
 7869SOL     OW24505   6.342   1.590   4.211
 7869SOL    HW124506   6.315   1.679   4.176
 7869SOL    HW224507   6.432   1.597   4.255
 7870SOL     OW24508   6.808   0.417   2.798
 7870SOL    HW124509   6.809   0.387   2.703
 7870SOL    HW224510   6.882   0.482   2.814
 7871SOL     OW24511   5.526   3.025   4.424
 7871SOL    HW124512   5.591   3.086   4.469
 7871SOL    HW224513   5.568   2.935   4.412
 7872SOL     OW24514   6.949   4.106   4.157
 7872SOL    HW124515   0.001   4.052   4.126
 7872SOL    HW224516   6.866   4.072   4.113
 7873SOL     OW24517   6.919   5.626   4.560
 7873SOL    HW124518   6.943   5.698   4.625
 7873SOL    HW224519   6.986   5.552   4.566
 7874SOL     OW24520   6.068   0.396   0.115
 7874SOL    HW124521   6.143   0.439   0.064
 7874SOL    HW224522   6.091   0.301   0.134
 7875SOL     OW24523   4.611   3.210   0.378
 7875SOL    HW124524   4.678   3.282   0.356
 7875SOL    HW224525   4.536   3.212   0.313
 7876SOL     OW24526   0.498   1.725   4.817
 7876SOL    HW124527   0.585   1.703   4.862
 7876SOL    HW224528   0.516   1.775   4.732
 7877SOL     OW24529   5.848   3.606   2.575
 7877SOL    HW124530   5.863   3.508   2.586
 7877SOL    HW224531   5.935   3.655   2.584
 7878SOL     OW24532   3.636   4.114   1.199
 7878SOL    HW124533   3.565   4.139   1.134
 7878SOL    HW224534   3.687   4.035   1.165
 7879SOL     OW24535   6.806   1.232   4.901
 7879SOL    HW124536   6.728   1.274   4.853
 7879SOL    HW224537   6.822   1.141   4.863
 7880SOL     OW24538   1.491   6.132   6.262
 7880SOL    HW124539   1.461   6.067   6.332
 7880SOL    HW224540   1.450   6.221   6.279
 7881SOL     OW24541   0.871   5.468   4.474
 7881SOL    HW124542   0.877   5.413   4.557
 7881SOL    HW224543   0.788   5.524   4.477
 7882SOL     OW24544   1.732   4.705   1.401
 7882SOL    HW124545   1.665   4.745   1.464
 7882SOL    HW224546   1.746   4.767   1.324
 7883SOL     OW24547   3.220   1.704   2.431
 7883SOL    HW124548   3.223   1.638   2.356
 7883SOL    HW224549   3.246   1.659   2.516
 7884SOL     OW24550   1.078   2.923   4.674
 7884SOL    HW124551   1.104   2.990   4.743
 7884SOL    HW224552   0.984   2.940   4.644
 7885SOL     OW24553   6.048   5.415   2.295
 7885SOL    HW124554   5.998   5.436   2.379
 7885SOL    HW224555   6.124   5.353   2.315
 7886SOL     OW24556   4.175   4.767   2.741
 7886SOL    HW124557   4.098   4.812   2.695
 7886SOL    HW224558   4.236   4.727   2.673
 7887SOL     OW24559   1.006   3.237   0.884
 7887SOL    HW124560   1.075   3.165   0.883
 7887SOL    HW224561   0.915   3.196   0.893
 7888SOL     OW24562   6.868   1.617   4.894
 7888SOL    HW124563   6.810   1.550   4.942
 7888SOL    HW224564   6.923   1.667   4.961
 7889SOL     OW24565   5.433   5.227   0.564
 7889SOL    HW124566   5.411   5.266   0.475
 7889SOL    HW224567   5.396   5.286   0.636
 7890SOL     OW24568   2.266   3.016   3.103
 7890SOL    HW124569   2.192   3.081   3.084
 7890SOL    HW224570   2.268   2.996   3.201
 7891SOL     OW24571   6.522   1.258   4.521
 7891SOL    HW124572   6.572   1.185   4.568
 7891SOL    HW224573   6.512   1.336   4.582
 7892SOL     OW24574   1.367   1.576   5.011
 7892SOL    HW124575   1.330   1.640   5.078
 7892SOL    HW224576   1.466   1.589   5.004
 7893SOL     OW24577   6.040   6.316   0.971
 7893SOL    HW124578   6.040   6.370   1.056
 7893SOL    HW224579   6.104   6.240   0.979
 7894SOL     OW24580   3.492   1.094   6.190
 7894SOL    HW124581   3.493   1.096   6.090
 7894SOL    HW224582   3.399   1.074   6.222
 7895SOL     OW24583   6.193   6.732   2.641
 7895SOL    HW124584   6.147   6.821   2.646
 7895SOL    HW224585   6.130   6.660   2.670
 7896SOL     OW24586   2.560   1.786   0.521
 7896SOL    HW124587   2.537   1.762   0.615
 7896SOL    HW224588   2.637   1.850   0.522
 7897SOL     OW24589   4.805   1.282   1.129
 7897SOL    HW124590   4.762   1.197   1.099
 7897SOL    HW224591   4.736   1.339   1.174
 7898SOL     OW24592   4.835   6.506   3.153
 7898SOL    HW124593   4.807   6.444   3.079
 7898SOL    HW224594   4.932   6.528   3.143
 7899SOL     OW24595   5.847   4.338   3.097
 7899SOL    HW124596   5.855   4.345   2.997
 7899SOL    HW224597   5.793   4.414   3.131
 7900SOL     OW24598   0.416   3.500   0.413
 7900SOL    HW124599   0.405   3.423   0.476
 7900SOL    HW224600   0.445   3.466   0.324
 7901SOL     OW24601   0.532   2.187   0.252
 7901SOL    HW124602   0.608   2.222   0.307
 7901SOL    HW224603   0.493   2.107   0.296
 7902SOL     OW24604   1.539   6.919   1.342
 7902SOL    HW124605   1.493   7.008   1.352
 7902SOL    HW224606   1.626   6.920   1.391
 7903SOL     OW24607   3.099   2.023   5.584
 7903SOL    HW124608   3.088   2.123   5.583
 7903SOL    HW224609   3.194   2.000   5.605
 7904SOL     OW24610   4.830   3.038   2.514
 7904SOL    HW124611   4.858   3.053   2.609
 7904SOL    HW224612   4.908   3.051   2.453
 7905SOL     OW24613   6.248   2.183   1.478
 7905SOL    HW124614   6.262   2.091   1.513
 7905SOL    HW224615   6.335   2.232   1.476
 7906SOL     OW24616   0.863   5.505   6.471
 7906SOL    HW124617   0.954   5.548   6.475
 7906SOL    HW224618   0.807   5.553   6.404
 7907SOL     OW24619   5.933   6.417   3.000
 7907SOL    HW124620   6.032   6.411   3.013
 7907SOL    HW224621   5.913   6.481   2.926
 7908SOL     OW24622   2.043   0.512   6.137
 7908SOL    HW124623   2.103   0.440   6.171
 7908SOL    HW224624   2.098   0.592   6.113
 7909SOL     OW24625   6.764   3.077   1.590
 7909SOL    HW124626   6.833   3.142   1.560
 7909SOL    HW224627   6.720   3.036   1.511
 7910SOL     OW24628   1.644   4.791   4.987
 7910SOL    HW124629   1.544   4.787   4.979
 7910SOL    HW224630   1.670   4.875   5.036
 7911SOL     OW24631   5.918   4.643   5.769
 7911SOL    HW124632   5.849   4.575   5.794
 7911SOL    HW224633   6.009   4.609   5.793
 7912SOL     OW24634   5.833   5.718   0.642
 7912SOL    HW124635   5.828   5.745   0.738
 7912SOL    HW224636   5.818   5.799   0.584
 7913SOL     OW24637   1.608   5.102   6.763
 7913SOL    HW124638   1.591   5.056   6.850
 7913SOL    HW224639   1.701   5.138   6.761
 7914SOL     OW24640   1.041   6.985   4.476
 7914SOL    HW124641   1.029   7.004   4.573
 7914SOL    HW224642   0.984   0.022   4.423
 7915SOL     OW24643   2.819   5.007   2.156
 7915SOL    HW124644   2.775   5.022   2.068
 7915SOL    HW224645   2.814   4.910   2.180
 7916SOL     OW24646   0.927   0.030   3.533
 7916SOL    HW124647   0.882   0.108   3.576
 7916SOL    HW224648   0.939   6.984   3.600
 7917SOL     OW24649   4.939   1.799   2.133
 7917SOL    HW124650   4.900   1.878   2.180
 7917SOL    HW224651   4.878   1.721   2.142
 7918SOL     OW24652   1.874   3.048   2.848
 7918SOL    HW124653   1.894   2.986   2.772
 7918SOL    HW224654   1.870   3.142   2.814
 7919SOL     OW24655   0.719   6.456   4.691
 7919SOL    HW124656   0.634   6.469   4.741
 7919SOL    HW224657   0.788   6.520   4.726
 7920SOL     OW24658   5.066   0.269   1.483
 7920SOL    HW124659   5.096   0.180   1.516
 7920SOL    HW224660   5.065   0.268   1.383
 7921SOL     OW24661   5.339   2.712   0.470
 7921SOL    HW124662   5.294   2.623   0.466
 7921SOL    HW224663   5.274   2.783   0.443
 7922SOL     OW24664   2.468   6.995   2.605
 7922SOL    HW124665   2.499   0.015   2.523
 7922SOL    HW224666   2.473   0.031   2.683
 7923SOL     OW24667   4.701   0.494   0.371
 7923SOL    HW124668   4.780   0.476   0.429
 7923SOL    HW224669   4.698   0.591   0.348
 7924SOL     OW24670   5.734   6.181   0.255
 7924SOL    HW124671   5.808   6.120   0.225
 7924SOL    HW224672   5.662   6.128   0.298
 7925SOL     OW24673   1.338   4.856   6.380
 7925SOL    HW124674   1.393   4.869   6.463
 7925SOL    HW224675   1.298   4.765   6.381
 7926SOL     OW24676   5.299   5.954   5.882
 7926SOL    HW124677   5.378   6.000   5.924
 7926SOL    HW224678   5.301   5.857   5.905
 7927SOL     OW24679   4.762   6.829   3.801
 7927SOL    HW124680   4.804   6.802   3.888
 7927SOL    HW224681   4.809   6.783   3.726
 7928SOL     OW24682   5.900   1.968   3.949
 7928SOL    HW124683   5.941   1.998   3.863
 7928SOL    HW224684   5.841   2.041   3.985
 7929SOL     OW24685   4.715   4.094   5.829
 7929SOL    HW124686   4.783   4.146   5.881
 7929SOL    HW224687   4.684   4.016   5.883
 7930SOL     OW24688   4.131   5.646   6.860
 7930SOL    HW124689   4.122   5.568   6.798
 7930SOL    HW224690   4.213   5.634   6.916
 7931SOL     OW24691   5.127   1.292   0.936
 7931SOL    HW124692   5.107   1.197   0.956
 7931SOL    HW224693   5.144   1.303   0.838
 7932SOL     OW24694   1.206   3.856   1.350
 7932SOL    HW124695   1.214   3.828   1.255
 7932SOL    HW224696   1.115   3.892   1.367
 7933SOL     OW24697   1.146   1.726   6.953
 7933SOL    HW124698   1.096   1.673   6.885
 7933SOL    HW224699   1.084   1.791   6.997
 7934SOL     OW24700   0.042   5.483   0.798
 7934SOL    HW124701   6.979   5.498   0.757
 7934SOL    HW224702   0.032   5.428   0.881
 7935SOL     OW24703   6.725   3.387   3.035
 7935SOL    HW124704   6.657   3.420   3.101
 7935SOL    HW224705   6.758   3.296   3.064
 7936SOL     OW24706   2.575   6.257   3.347
 7936SOL    HW124707   2.650   6.191   3.363
 7936SOL    HW224708   2.554   6.304   3.432
 7937SOL     OW24709   4.338   0.970   1.225
 7937SOL    HW124710   4.287   1.027   1.289
 7937SOL    HW224711   4.428   1.010   1.208
 7938SOL     OW24712   2.439   6.859   3.031
 7938SOL    HW124713   2.504   6.862   3.107
 7938SOL    HW224714   2.486   6.886   2.947
 7939SOL     OW24715   1.445   0.881   2.636
 7939SOL    HW124716   1.365   0.821   2.636
 7939SOL    HW224717   1.526   0.829   2.663
 7940SOL     OW24718   6.365   1.711   5.056
 7940SOL    HW124719   6.292   1.714   4.988
 7940SOL    HW224720   6.424   1.632   5.038
 7941SOL     OW24721   3.445   6.960   0.997
 7941SOL    HW124722   3.425   0.026   1.028
 7941SOL    HW224723   3.544   6.948   0.990
 7942SOL     OW24724   1.271   4.320   0.628
 7942SOL    HW124725   1.349   4.335   0.568
 7942SOL    HW224726   1.198   4.385   0.604
 7943SOL     OW24727   1.254   6.314   6.094
 7943SOL    HW124728   1.214   6.230   6.130
 7943SOL    HW224729   1.299   6.364   6.168
 7944SOL     OW24730   1.918   1.832   1.478
 7944SOL    HW124731   1.831   1.829   1.528
 7944SOL    HW224732   1.945   1.740   1.452
 7945SOL     OW24733   6.219   3.458   2.728
 7945SOL    HW124734   6.170   3.420   2.649
 7945SOL    HW224735   6.311   3.485   2.699
 7946SOL     OW24736   4.296   1.595   6.192
 7946SOL    HW124737   4.385   1.554   6.175
 7946SOL    HW224738   4.253   1.620   6.106
 7947SOL     OW24739   7.020   3.703   6.125
 7947SOL    HW124740   0.076   3.755   6.105
 7947SOL    HW224741   0.010   3.606   6.105
 7948SOL     OW24742   1.344   6.056   1.045
 7948SOL    HW124743   1.302   6.034   0.957
 7948SOL    HW224744   1.287   6.021   1.119
 7949SOL     OW24745   2.825   5.694   5.510
 7949SOL    HW124746   2.784   5.630   5.444
 7949SOL    HW224747   2.874   5.642   5.580
 7950SOL     OW24748   6.662   4.211   5.709
 7950SOL    HW124749   6.713   4.264   5.641
 7950SOL    HW224750   6.654   4.263   5.794
 7951SOL     OW24751   4.077   0.113   2.906
 7951SOL    HW124752   3.987   0.145   2.875
 7951SOL    HW224753   4.108   0.039   2.846
 7952SOL     OW24754   6.533   3.416   5.009
 7952SOL    HW124755   6.436   3.395   5.026
 7952SOL    HW224756   6.585   3.403   5.093
 7953SOL     OW24757   1.760   0.059   0.303
 7953SOL    HW124758   1.779   0.152   0.332
 7953SOL    HW224759   1.706   0.012   0.372
 7954SOL     OW24760   3.507   3.136   0.051
 7954SOL    HW124761   3.573   3.063   0.034
 7954SOL    HW224762   3.422   3.097   0.086
 7955SOL     OW24763   0.534   1.325   6.752
 7955SOL    HW124764   0.513   1.280   6.664
 7955SOL    HW224765   0.622   1.371   6.745
 7956SOL     OW24766   0.213   7.013   0.278
 7956SOL    HW124767   0.186   0.082   0.287
 7956SOL    HW224768   0.197   6.965   0.364
 7957SOL     OW24769   5.201   1.254   5.752
 7957SOL    HW124770   5.191   1.334   5.693
 7957SOL    HW224771   5.114   1.205   5.757
 7958SOL     OW24772   4.398   2.412   0.087
 7958SOL    HW124773   4.435   2.326   0.122
 7958SOL    HW224774   4.471   2.463   0.041
 7959SOL     OW24775   4.870   2.888   7.022
 7959SOL    HW124776   4.882   2.964   0.060
 7959SOL    HW224777   4.842   2.924   6.933
 7960SOL     OW24778   0.991   1.435   4.986
 7960SOL    HW124779   0.994   1.525   5.029
 7960SOL    HW224780   0.907   1.426   4.932
 7961SOL     OW24781   6.044   0.172   0.734
 7961SOL    HW124782   5.961   0.176   0.789
 7961SOL    HW224783   6.072   0.264   0.708
 7962SOL     OW24784   6.192   6.529   4.895
 7962SOL    HW124785   6.174   6.598   4.966
 7962SOL    HW224786   6.194   6.573   4.806
 7963SOL     OW24787   5.651   6.320   3.084
 7963SOL    HW124788   5.740   6.316   3.129
 7963SOL    HW224789   5.664   6.316   2.985
 7964SOL     OW24790   6.618   3.249   1.231
 7964SOL    HW124791   6.561   3.290   1.160
 7964SOL    HW224792   6.699   3.306   1.245
 7965SOL     OW24793   4.845   1.584   6.694
 7965SOL    HW124794   4.763   1.635   6.670
 7965SOL    HW224795   4.819   1.496   6.735
 7966SOL     OW24796   5.933   3.201   5.046
 7966SOL    HW124797   5.947   3.165   5.138
 7966SOL    HW224798   5.969   3.136   4.979
 7967SOL     OW24799   1.530   4.602   1.012
 7967SOL    HW124800   1.619   4.563   1.034
 7967SOL    HW224801   1.477   4.536   0.960
 7968SOL     OW24802   2.057   2.717   3.655
 7968SOL    HW124803   2.080   2.620   3.641
 7968SOL    HW224804   1.977   2.741   3.600
 7969SOL     OW24805   3.251   4.583   6.456
 7969SOL    HW124806   3.292   4.496   6.427
 7969SOL    HW224807   3.323   4.643   6.491
 7970SOL     OW24808   6.658   2.856   3.838
 7970SOL    HW124809   6.630   2.951   3.852
 7970SOL    HW224810   6.581   2.795   3.860
 7971SOL     OW24811   3.259   1.055   6.697
 7971SOL    HW124812   3.261   0.956   6.684
 7971SOL    HW224813   3.181   1.080   6.755
 7972SOL     OW24814   3.989   3.941   4.449
 7972SOL    HW124815   3.971   3.970   4.543
 7972SOL    HW224816   4.067   3.991   4.413
 7973SOL     OW24817   6.526   5.077   2.174
 7973SOL    HW124818   6.475   5.134   2.109
 7973SOL    HW224819   6.516   4.981   2.148
 7974SOL     OW24820   0.585   3.554   4.833
 7974SOL    HW124821   0.520   3.479   4.821
 7974SOL    HW224822   0.572   3.595   4.923
 7975SOL     OW24823   4.463   0.098   6.869
 7975SOL    HW124824   4.375   0.135   6.841
 7975SOL    HW224825   4.461   7.025   6.867
 7976SOL     OW24826   0.871   0.549   0.358
 7976SOL    HW124827   0.883   0.585   0.450
 7976SOL    HW224828   0.813   0.468   0.362
 7977SOL     OW24829   5.286   4.991   2.826
 7977SOL    HW124830   5.190   4.970   2.803
 7977SOL    HW224831   5.333   5.022   2.743
 7978SOL     OW24832   6.988   3.752   1.418
 7978SOL    HW124833   7.002   3.687   1.493
 7978SOL    HW224834   0.037   3.818   1.417
 7979SOL     OW24835   3.033   2.645   5.515
 7979SOL    HW124836   2.996   2.736   5.495
 7979SOL    HW224837   3.049   2.637   5.613
 7980SOL     OW24838   3.542   5.349   1.805
 7980SOL    HW124839   3.461   5.291   1.795
 7980SOL    HW224840   3.622   5.301   1.767
 7981SOL     OW24841   1.551   3.587   4.744
 7981SOL    HW124842   1.572   3.632   4.830
 7981SOL    HW224843   1.612   3.621   4.672
 7982SOL     OW24844   6.927   1.002   6.812
 7982SOL    HW124845   6.941   0.946   6.893
 7982SOL    HW224846   6.852   1.067   6.828
 7983SOL     OW24847   3.684   0.908   2.111
 7983SOL    HW124848   3.672   0.993   2.163
 7983SOL    HW224849   3.710   0.930   2.017
 7984SOL     OW24850   6.559   2.975   3.030
 7984SOL    HW124851   6.581   3.016   3.118
 7984SOL    HW224852   6.467   2.937   3.033
 7985SOL     OW24853   3.148   2.855   5.747
 7985SOL    HW124854   3.101   2.942   5.731
 7985SOL    HW224855   3.119   2.818   5.836
 7986SOL     OW24856   3.858   0.983   3.904
 7986SOL    HW124857   3.933   1.014   3.962
 7986SOL    HW224858   3.852   1.040   3.823
 7987SOL     OW24859   1.076   3.176   6.491
 7987SOL    HW124860   1.016   3.136   6.422
 7987SOL    HW224861   1.042   3.153   6.583
 7988SOL     OW24862   6.324   0.791   0.865
 7988SOL    HW124863   6.231   0.824   0.884
 7988SOL    HW224864   6.323   0.732   0.785
 7989SOL     OW24865   0.294   4.740   1.397
 7989SOL    HW124866   0.216   4.679   1.410
 7989SOL    HW224867   0.348   4.743   1.482
 7990SOL     OW24868   4.401   4.998   4.691
 7990SOL    HW124869   4.461   5.056   4.636
 7990SOL    HW224870   4.453   4.958   4.766
 7991SOL     OW24871   5.600   0.762   4.336
 7991SOL    HW124872   5.674   0.737   4.399
 7991SOL    HW224873   5.615   0.717   4.248
 7992SOL     OW24874   1.769   0.432   6.812
 7992SOL    HW124875   1.677   0.415   6.776
 7992SOL    HW224876   1.774   0.402   6.907
 7993SOL     OW24877   6.517   6.360   0.729
 7993SOL    HW124878   6.596   6.336   0.785
 7993SOL    HW224879   6.442   6.390   0.788
 7994SOL     OW24880   0.274   0.827   4.669
 7994SOL    HW124881   0.176   0.813   4.652
 7994SOL    HW224882   0.290   0.922   4.695
 7995SOL     OW24883   0.264   5.722   1.196
 7995SOL    HW124884   0.201   5.645   1.208
 7995SOL    HW224885   0.212   5.807   1.196
 7996SOL     OW24886   2.079   6.554   3.535
 7996SOL    HW124887   2.082   6.555   3.435
 7996SOL    HW224888   2.087   6.459   3.567
 7997SOL     OW24889   2.159   1.441   5.805
 7997SOL    HW124890   2.094   1.489   5.865
 7997SOL    HW224891   2.203   1.367   5.857
 7998SOL     OW24892   2.187   0.601   1.018
 7998SOL    HW124893   2.201   0.544   0.938
 7998SOL    HW224894   2.266   0.593   1.079
 7999SOL     OW24895   0.206   0.668   3.246
 7999SOL    HW124896   0.275   0.683   3.316
 7999SOL    HW224897   0.207   0.744   3.181
 8000SOL     OW24898   4.304   5.934   0.655
 8000SOL    HW124899   4.244   5.863   0.621
 8000SOL    HW224900   4.359   5.971   0.580
 8001SOL     OW24901   4.944   4.344   1.728
 8001SOL    HW124902   4.989   4.357   1.817
 8001SOL    HW224903   4.849   4.374   1.734
 8002SOL     OW24904   1.180   0.508   4.830
 8002SOL    HW124905   1.222   0.469   4.747
 8002SOL    HW224906   1.155   0.603   4.812
 8003SOL     OW24907   2.812   5.530   3.234
 8003SOL    HW124908   2.873   5.496   3.305
 8003SOL    HW224909   2.719   5.538   3.271
 8004SOL     OW24910   2.146   3.322   4.102
 8004SOL    HW124911   2.094   3.334   4.017
 8004SOL    HW224912   2.177   3.411   4.135
 8005SOL     OW24913   2.826   0.185   3.958
 8005SOL    HW124914   2.804   0.100   3.910
 8005SOL    HW224915   2.741   0.226   3.993
 8006SOL     OW24916   5.223   5.367   6.212
 8006SOL    HW124917   5.148   5.342   6.151
 8006SOL    HW224918   5.229   5.300   6.286
 8007SOL     OW24919   6.905   0.686   0.688
 8007SOL    HW124920   6.838   0.738   0.740
 8007SOL    HW224921   6.951   0.746   0.622
 8008SOL     OW24922   4.526   4.689   0.923
 8008SOL    HW124923   4.432   4.692   0.888
 8008SOL    HW224924   4.557   4.594   0.926
 8009SOL     OW24925   6.800   1.216   1.308
 8009SOL    HW124926   6.805   1.265   1.221
 8009SOL    HW224927   6.724   1.151   1.305
 8010SOL     OW24928   3.544   0.519   6.170
 8010SOL    HW124929   3.600   0.593   6.133
 8010SOL    HW224930   3.601   0.461   6.228
 8011SOL     OW24931   3.834   2.172   2.725
 8011SOL    HW124932   3.876   2.141   2.639
 8011SOL    HW224933   3.901   2.223   2.778
 8012SOL     OW24934   6.325   0.693   4.930
 8012SOL    HW124935   6.291   0.630   4.860
 8012SOL    HW224936   6.373   0.769   4.886
 8013SOL     OW24937   3.843   0.113   3.252
 8013SOL    HW124938   3.799   0.144   3.336
 8013SOL    HW224939   3.904   0.036   3.273
 8014SOL     OW24940   2.417   2.599   3.276
 8014SOL    HW124941   2.489   2.542   3.238
 8014SOL    HW224942   2.378   2.657   3.205
 8015SOL     OW24943   3.333   6.769   4.773
 8015SOL    HW124944   3.399   6.699   4.746
 8015SOL    HW224945   3.344   6.849   4.713
 8016SOL     OW24946   3.382   2.697   5.468
 8016SOL    HW124947   3.382   2.615   5.526
 8016SOL    HW224948   3.329   2.679   5.385
 8017SOL     OW24949   6.357   6.052   1.154
 8017SOL    HW124950   6.345   6.116   1.079
 8017SOL    HW224951   6.399   6.099   1.232
 8018SOL     OW24952   2.831   3.778   1.045
 8018SOL    HW124953   2.894   3.767   1.122
 8018SOL    HW224954   2.852   3.711   0.974
 8019SOL     OW24955   2.210   3.579   0.512
 8019SOL    HW124956   2.146   3.516   0.466
 8019SOL    HW224957   2.301   3.570   0.470
 8020SOL     OW24958   0.036   0.405   6.830
 8020SOL    HW124959   7.001   0.326   6.837
 8020SOL    HW224960   0.126   0.374   6.799
 8021SOL     OW24961   1.030   3.441   0.665
 8021SOL    HW124962   0.995   3.526   0.704
 8021SOL    HW224963   1.020   3.367   0.731
 8022SOL     OW24964   3.997   6.616   2.320
 8022SOL    HW124965   4.073   6.680   2.314
 8022SOL    HW224966   4.025   6.526   2.287
 8023SOL     OW24967   4.068   5.307   2.398
 8023SOL    HW124968   4.094   5.228   2.454
 8023SOL    HW224969   3.981   5.345   2.431
 8024SOL     OW24970   2.519   1.147   6.608
 8024SOL    HW124971   2.468   1.232   6.613
 8024SOL    HW224972   2.455   1.070   6.612
 8025SOL     OW24973   0.851   6.449   1.371
 8025SOL    HW124974   0.797   6.386   1.315
 8025SOL    HW224975   0.810   6.458   1.461
 8026SOL     OW24976   0.754   6.645   6.398
 8026SOL    HW124977   0.725   6.552   6.375
 8026SOL    HW224978   0.745   6.659   6.497
 8027SOL     OW24979   4.151   0.134   6.729
 8027SOL    HW124980   4.149   0.143   6.629
 8027SOL    HW224981   4.139   0.038   6.754
 8028SOL     OW24982   3.828   6.141   6.469
 8028SOL    HW124983   3.751   6.119   6.529
 8028SOL    HW224984   3.897   6.191   6.520
 8029SOL     OW24985   0.427   0.154   1.879
 8029SOL    HW124986   0.471   0.066   1.894
 8029SOL    HW224987   0.430   0.177   1.782
 8030SOL     OW24988   0.283   4.019   1.109
 8030SOL    HW124989   0.344   4.093   1.081
 8030SOL    HW224990   0.291   3.944   1.043
 8031SOL     OW24991   6.753   0.261   2.278
 8031SOL    HW124992   6.742   0.167   2.311
 8031SOL    HW224993   6.748   0.324   2.356
 8032SOL     OW24994   0.164   2.939   0.455
 8032SOL    HW124995   0.073   2.901   0.442
 8032SOL    HW224996   0.158   3.023   0.509
 8033SOL     OW24997   3.387   4.325   1.282
 8033SOL    HW124998   3.289   4.321   1.262
 8033SOL    HW224999   3.409   4.414   1.321
 8034SOL     OW25000   0.911   0.059   5.687
 8034SOL    HW125001   0.891   0.068   5.785
 8034SOL    HW225002   0.850   7.017   5.647
 8035SOL     OW25003   6.021   0.162   4.507
 8035SOL    HW125004   5.945   0.100   4.487
 8035SOL    HW225005   5.995   0.223   4.582
 8036SOL     OW25006   4.850   3.813   3.954
 8036SOL    HW125007   4.782   3.782   4.020
 8036SOL    HW225008   4.925   3.747   3.950
 8037SOL     OW25009   2.375   1.597   6.061
 8037SOL    HW125010   2.358   1.640   5.972
 8037SOL    HW225011   2.448   1.529   6.053
 8038SOL     OW25012   6.470   5.673   2.144
 8038SOL    HW125013   6.563   5.693   2.113
 8038SOL    HW225014   6.407   5.677   2.066
 8039SOL     OW25015   1.980   2.382   5.123
 8039SOL    HW125016   2.032   2.461   5.155
 8039SOL    HW225017   2.043   2.308   5.100
 8040SOL     OW25018   0.492   6.418   6.502
 8040SOL    HW125019   0.539   6.406   6.414
 8040SOL    HW225020   0.443   6.335   6.526
 8041SOL     OW25021   3.275   1.457   2.909
 8041SOL    HW125022   3.327   1.400   2.845
 8041SOL    HW225023   3.330   1.475   2.990
 8042SOL     OW25024   3.774   3.817   5.977
 8042SOL    HW125025   3.829   3.813   6.061
 8042SOL    HW225026   3.715   3.898   5.980
 8043SOL     OW25027   4.907   4.868   0.047
 8043SOL    HW125028   4.837   4.841   0.114
 8043SOL    HW225029   4.929   4.790   7.016
 8044SOL     OW25030   1.392   3.302   1.615
 8044SOL    HW125031   1.363   3.275   1.523
 8044SOL    HW225032   1.342   3.247   1.682
 8045SOL     OW25033   6.219   3.617   5.448
 8045SOL    HW125034   6.164   3.616   5.365
 8045SOL    HW225035   6.271   3.702   5.452
 8046SOL     OW25036   0.157   4.174   1.280
 8046SOL    HW125037   0.211   4.122   1.213
 8046SOL    HW225038   0.075   4.209   1.236
 8047SOL     OW25039   3.267   6.223   6.724
 8047SOL    HW125040   3.256   6.295   6.792
 8047SOL    HW225041   3.272   6.263   6.632
 8048SOL     OW25042   3.963   1.780   6.712
 8048SOL    HW125043   3.898   1.729   6.656
 8048SOL    HW225044   3.933   1.876   6.719
 8049SOL     OW25045   1.966   1.326   0.631
 8049SOL    HW125046   1.906   1.298   0.557
 8049SOL    HW225047   1.928   1.296   0.719
 8050SOL     OW25048   0.460   5.442   6.001
 8050SOL    HW125049   0.451   5.392   6.087
 8050SOL    HW225050   0.552   5.481   5.994
 8051SOL     OW25051   4.708   6.533   2.779
 8051SOL    HW125052   4.623   6.504   2.823
 8051SOL    HW225053   4.786   6.508   2.838
 8052SOL     OW25054   2.944   1.631   3.234
 8052SOL    HW125055   2.881   1.681   3.175
 8052SOL    HW225056   3.003   1.573   3.179
 8053SOL     OW25057   0.976   2.535   6.557
 8053SOL    HW125058   1.059   2.484   6.578
 8053SOL    HW225059   0.985   2.577   6.466
 8054SOL     OW25060   5.334   3.870   5.298
 8054SOL    HW125061   5.318   3.814   5.379
 8054SOL    HW225062   5.256   3.929   5.282
 8055SOL     OW25063   6.502   6.974   6.966
 8055SOL    HW125064   6.579   7.010   7.020
 8055SOL    HW225065   6.430   0.016   6.960
 8056SOL     OW25066   2.620   1.754   3.880
 8056SOL    HW125067   2.710   1.716   3.857
 8056SOL    HW225068   2.549   1.692   3.848
 8057SOL     OW25069   3.024   2.110   2.126
 8057SOL    HW125070   3.038   2.110   2.225
 8057SOL    HW225071   2.972   2.191   2.100
 8058SOL     OW25072   3.799   6.265   1.654
 8058SOL    HW125073   3.740   6.339   1.624
 8058SOL    HW225074   3.768   6.231   1.743
 8059SOL     OW25075   4.065   3.663   5.662
 8059SOL    HW125076   3.987   3.626   5.712
 8059SOL    HW225077   4.032   3.721   5.588
 8060SOL     OW25078   0.532   0.980   6.143
 8060SOL    HW125079   0.521   0.954   6.047
 8060SOL    HW225080   0.614   0.938   6.181
 8061SOL     OW25081   6.976   1.072   1.724
 8061SOL    HW125082   6.881   1.101   1.734
 8061SOL    HW225083   0.010   1.146   1.752
 8062SOL     OW25084   4.609   4.724   5.593
 8062SOL    HW125085   4.555   4.763   5.667
 8062SOL    HW225086   4.706   4.733   5.614
 8063SOL     OW25087   2.097   4.411   2.990
 8063SOL    HW125088   2.133   4.322   2.963
 8063SOL    HW225089   2.162   4.483   2.965
 8064SOL     OW25090   7.012   2.377   0.484
 8064SOL    HW125091   6.932   2.319   0.464
 8064SOL    HW225092   0.027   2.405   0.398
 8065SOL     OW25093   4.901   6.993   6.433
 8065SOL    HW125094   4.942   0.019   6.507
 8065SOL    HW225095   4.966   6.924   6.402
 8066SOL     OW25096   0.370   0.280   5.918
 8066SOL    HW125097   0.448   0.337   5.894
 8066SOL    HW225098   0.379   0.250   6.013
 8067SOL     OW25099   5.426   0.491   4.372
 8067SOL    HW125100   5.502   0.556   4.369
 8067SOL    HW225101   5.449   0.415   4.433
 8068SOL     OW25102   6.869   3.827   1.832
 8068SOL    HW125103   6.871   3.768   1.751
 8068SOL    HW225104   6.943   3.801   1.894
 8069SOL     OW25105   1.312   2.459   2.016
 8069SOL    HW125106   1.217   2.429   2.023
 8069SOL    HW225107   1.342   2.499   2.103
 8070SOL     OW25108   5.517   3.752   1.436
 8070SOL    HW125109   5.479   3.785   1.349
 8070SOL    HW225110   5.610   3.720   1.421
 8071SOL     OW25111   3.240   0.647   5.909
 8071SOL    HW125112   3.329   0.602   5.900
 8071SOL    HW225113   3.223   0.703   5.828
 8072SOL     OW25114   2.240   2.409   5.539
 8072SOL    HW125115   2.204   2.480   5.479
 8072SOL    HW225116   2.338   2.397   5.521
 8073SOL     OW25117   5.544   0.387   6.269
 8073SOL    HW125118   5.496   0.300   6.280
 8073SOL    HW225119   5.514   0.451   6.340
 8074SOL     OW25120   6.541   0.795   0.579
 8074SOL    HW125121   6.469   0.739   0.618
 8074SOL    HW225122   6.594   0.837   0.653
 8075SOL     OW25123   0.330   0.212   1.011
 8075SOL    HW125124   0.329   0.274   1.090
 8075SOL    HW225125   0.249   0.229   0.955
 8076SOL     OW25126   6.542   6.339   0.452
 8076SOL    HW125127   6.517   6.343   0.549
 8076SOL    HW225128   6.642   6.330   0.444
 8077SOL     OW25129   6.139   4.255   1.281
 8077SOL    HW125130   6.155   4.257   1.380
 8077SOL    HW225131   6.184   4.333   1.239
 8078SOL     OW25132   6.326   1.210   1.483
 8078SOL    HW125133   6.359   1.195   1.390
 8078SOL    HW225134   6.231   1.242   1.480
 8079SOL     OW25135   0.415   0.947   0.064
 8079SOL    HW125136   0.443   0.874   0.002
 8079SOL    HW225137   0.491   0.971   0.124
 8080SOL     OW25138   1.740   3.859   3.709
 8080SOL    HW125139   1.839   3.873   3.705
 8080SOL    HW225140   1.693   3.937   3.667
 8081SOL     OW25141   6.574   0.314   5.608
 8081SOL    HW125142   6.563   0.308   5.508
 8081SOL    HW225143   6.559   0.223   5.648
 8082SOL     OW25144   4.226   2.113   4.586
 8082SOL    HW125145   4.244   2.018   4.613
 8082SOL    HW225146   4.169   2.157   4.656
 8083SOL     OW25147   6.826   2.781   4.501
 8083SOL    HW125148   6.921   2.807   4.484
 8083SOL    HW225149   6.774   2.861   4.531
 8084SOL     OW25150   5.085   1.599   6.533
 8084SOL    HW125151   4.990   1.628   6.543
 8084SOL    HW225152   5.129   1.654   6.462
 8085SOL     OW25153   1.729   6.070   4.019
 8085SOL    HW125154   1.672   6.065   4.102
 8085SOL    HW225155   1.711   5.990   3.962
 8086SOL     OW25156   6.941   2.142   2.594
 8086SOL    HW125157   6.966   2.185   2.681
 8086SOL    HW225158   6.956   2.043   2.600
 8087SOL     OW25159   0.029   1.335   6.639
 8087SOL    HW125160   0.060   1.388   6.561
 8087SOL    HW225161   0.058   1.239   6.628
 8088SOL     OW25162   0.004   7.011   5.189
 8088SOL    HW125163   7.008   6.920   5.225
 8088SOL    HW225164   0.073   0.026   5.248
 8089SOL     OW25165   6.619   1.611   6.950
 8089SOL    HW125166   6.519   1.616   6.957
 8089SOL    HW225167   6.659   1.692   6.992
 8090SOL     OW25168   4.470   2.550   5.035
 8090SOL    HW125169   4.384   2.597   5.018
 8090SOL    HW225170   4.468   2.459   4.992
 8091SOL     OW25171   0.328   3.853   4.625
 8091SOL    HW125172   0.324   3.951   4.607
 8091SOL    HW225173   0.424   3.825   4.636
 8092SOL     OW25174   4.655   0.211   5.757
 8092SOL    HW125175   4.569   0.169   5.730
 8092SOL    HW225176   4.728   0.143   5.755
 8093SOL     OW25177   3.270   6.277   3.353
 8093SOL    HW125178   3.245   6.320   3.439
 8093SOL    HW225179   3.366   6.248   3.357
 8094SOL     OW25180   2.123   3.829   4.452
 8094SOL    HW125181   2.081   3.918   4.435
 8094SOL    HW225182   2.125   3.777   4.367
 8095SOL     OW25183   1.168   5.293   4.922
 8095SOL    HW125184   1.127   5.300   5.013
 8095SOL    HW225185   1.252   5.347   4.919
 8096SOL     OW25186   0.798   4.930   1.136
 8096SOL    HW125187   0.831   4.903   1.046
 8096SOL    HW225188   0.812   4.856   1.201
 8097SOL     OW25189   4.518   6.463   6.807
 8097SOL    HW125190   4.473   6.389   6.856
 8097SOL    HW225191   4.617   6.448   6.806
 8098SOL     OW25192   2.190   5.993   4.857
 8098SOL    HW125193   2.223   5.914   4.908
 8098SOL    HW225194   2.266   6.036   4.808
 8099SOL     OW25195   2.093   4.193   2.533
 8099SOL    HW125196   2.050   4.106   2.508
 8099SOL    HW225197   2.043   4.236   2.607
 8100SOL     OW25198   0.095   0.237   0.365
 8100SOL    HW125199   0.110   0.264   0.270
 8100SOL    HW225200   0.008   0.274   0.397
 8101SOL     OW25201   1.951   6.037   0.395
 8101SOL    HW125202   1.906   6.104   0.336
 8101SOL    HW225203   2.037   6.009   0.352
 8102SOL     OW25204   0.755   4.275   4.074
 8102SOL    HW125205   0.724   4.182   4.092
 8102SOL    HW225206   0.854   4.276   4.065
 8103SOL     OW25207   4.265   0.654   1.330
 8103SOL    HW125208   4.258   0.567   1.380
 8103SOL    HW225209   4.325   0.716   1.381
 8104SOL     OW25210   1.150   5.764   6.787
 8104SOL    HW125211   1.118   5.810   6.870
 8104SOL    HW225212   1.125   5.667   6.791
 8105SOL     OW25213   6.905   6.790   3.145
 8105SOL    HW125214   6.831   6.800   3.078
 8105SOL    HW225215   6.878   6.726   3.216
 8106SOL     OW25216   3.101   6.998   6.112
 8106SOL    HW125217   3.028   0.010   6.168
 8106SOL    HW225218   3.093   0.008   6.019
 8107SOL     OW25219   1.047   6.910   0.113
 8107SOL    HW125220   1.106   6.930   0.191
 8107SOL    HW225221   1.075   6.823   0.071
 8108SOL     OW25222   1.623   1.158   0.232
 8108SOL    HW125223   1.572   1.156   0.145
 8108SOL    HW225224   1.568   1.205   0.301
 8109SOL     OW25225   6.882   3.354   2.120
 8109SOL    HW125226   6.823   3.433   2.129
 8109SOL    HW225227   6.943   3.347   2.199
 8110SOL     OW25228   4.459   4.614   0.504
 8110SOL    HW125229   4.531   4.664   0.552
 8110SOL    HW225230   4.427   4.667   0.426
 8111SOL     OW25231   6.232   1.386   2.310
 8111SOL    HW125232   6.135   1.408   2.320
 8111SOL    HW225233   6.243   1.314   2.242
 8112SOL     OW25234   1.927   5.274   6.194
 8112SOL    HW125235   1.912   5.208   6.268
 8112SOL    HW225236   1.861   5.349   6.204
 8113SOL     OW25237   4.919   4.984   6.215
 8113SOL    HW125238   4.900   5.081   6.198
 8113SOL    HW225239   4.838   4.941   6.255
 8114SOL     OW25240   1.912   3.583   2.711
 8114SOL    HW125241   1.850   3.640   2.765
 8114SOL    HW225242   1.937   3.631   2.627
 8115SOL     OW25243   1.690   2.012   5.894
 8115SOL    HW125244   1.691   1.944   5.967
 8115SOL    HW225245   1.774   2.066   5.896
 8116SOL     OW25246   3.958   3.365   1.991
 8116SOL    HW125247   4.044   3.314   1.992
 8116SOL    HW225248   3.914   3.358   2.081
 8117SOL     OW25249   1.703   6.710   3.946
 8117SOL    HW125250   1.744   6.753   3.866
 8117SOL    HW225251   1.652   6.778   3.998
 8118SOL     OW25252   6.677   2.828   6.651
 8118SOL    HW125253   6.694   2.906   6.590
 8118SOL    HW225254   6.758   2.810   6.706
 8119SOL     OW25255   5.179   5.840   6.576
 8119SOL    HW125256   5.244   5.770   6.607
 8119SOL    HW225257   5.101   5.843   6.639
 8120SOL     OW25258   2.457   6.124   2.508
 8120SOL    HW125259   2.452   6.182   2.426
 8120SOL    HW225260   2.455   6.028   2.481
 8121SOL     OW25261   1.741   2.662   2.311
 8121SOL    HW125262   1.678   2.629   2.380
 8121SOL    HW225263   1.697   2.659   2.221
 8122SOL     OW25264   0.814   4.508   1.276
 8122SOL    HW125265   0.879   4.464   1.338
 8122SOL    HW225266   0.825   4.608   1.281
 8123SOL     OW25267   6.799   2.036   6.506
 8123SOL    HW125268   6.741   1.956   6.514
 8123SOL    HW225269   6.769   2.092   6.429
 8124SOL     OW25270   6.054   6.308   5.527
 8124SOL    HW125271   6.121   6.358   5.472
 8124SOL    HW225272   6.093   6.221   5.557
 8125SOL     OW25273   0.960   5.435   1.546
 8125SOL    HW125274   0.991   5.398   1.633
 8125SOL    HW225275   0.878   5.387   1.516
 8126SOL     OW25276   3.238   5.799   5.034
 8126SOL    HW125277   3.203   5.807   5.128
 8126SOL    HW225278   3.180   5.853   4.973
 8127SOL     OW25279   3.950   1.720   6.344
 8127SOL    HW125280   4.023   1.679   6.398
 8127SOL    HW225281   3.925   1.659   6.269
 8128SOL     OW25282   3.058   3.420   0.865
 8128SOL    HW125283   3.154   3.425   0.838
 8128SOL    HW225284   3.046   3.345   0.930
 8129SOL     OW25285   0.636   2.322   3.247
 8129SOL    HW125286   0.620   2.226   3.224
 8129SOL    HW225287   0.632   2.334   3.346
 8130SOL     OW25288   6.946   6.166   6.776
 8130SOL    HW125289   6.876   6.205   6.834
 8130SOL    HW225290   7.002   6.239   6.736
 8131SOL     OW25291   1.626   2.477   0.732
 8131SOL    HW125292   1.558   2.455   0.801
 8131SOL    HW225293   1.660   2.570   0.748
 8132SOL     OW25294   6.347   1.577   4.686
 8132SOL    HW125295   6.287   1.533   4.753
 8132SOL    HW225296   6.322   1.545   4.594
 8133SOL     OW25297   3.851   5.263   1.208
 8133SOL    HW125298   3.870   5.328   1.282
 8133SOL    HW225299   3.783   5.197   1.238
 8134SOL     OW25300   5.795   2.444   6.184
 8134SOL    HW125301   5.846   2.358   6.183
 8134SOL    HW225302   5.751   2.455   6.273
 8135SOL     OW25303   2.236   6.744   2.023
 8135SOL    HW125304   2.276   6.724   1.934
 8135SOL    HW225305   2.181   6.827   2.017
 8136SOL     OW25306   4.500   4.806   2.135
 8136SOL    HW125307   4.472   4.724   2.085
 8136SOL    HW225308   4.553   4.778   2.215
 8137SOL     OW25309   4.717   1.604   6.360
 8137SOL    HW125310   4.731   1.689   6.410
 8137SOL    HW225311   4.758   1.528   6.411
 8138SOL     OW25312   5.474   1.436   2.193
 8138SOL    HW125313   5.442   1.368   2.259
 8138SOL    HW225314   5.427   1.523   2.210
 8139SOL     OW25315   0.823   1.506   3.751
 8139SOL    HW125316   0.736   1.492   3.705
 8139SOL    HW225317   0.816   1.477   3.846
 8140SOL     OW25318   5.308   2.784   3.263
 8140SOL    HW125319   5.246   2.754   3.190
 8140SOL    HW225320   5.295   2.727   3.344
 8141SOL     OW25321   6.117   3.578   3.914
 8141SOL    HW125322   6.072   3.658   3.953
 8141SOL    HW225323   6.215   3.582   3.931
 8142SOL     OW25324   6.964   6.197   0.063
 8142SOL    HW125325   6.871   6.191   0.098
 8142SOL    HW225326   6.979   6.288   0.024
 8143SOL     OW25327   6.375   3.120   5.294
 8143SOL    HW125328   6.367   3.095   5.197
 8143SOL    HW225329   6.356   3.217   5.305
 8144SOL     OW25330   5.004   6.314   6.963
 8144SOL    HW125331   5.066   6.363   7.025
 8144SOL    HW225332   4.970   6.232   7.010
 8145SOL     OW25333   4.472   6.535   3.620
 8145SOL    HW125334   4.464   6.627   3.659
 8145SOL    HW225335   4.546   6.535   3.552
 8146SOL     OW25336   3.623   1.819   4.678
 8146SOL    HW125337   3.551   1.815   4.610
 8146SOL    HW225338   3.608   1.898   4.738
 8147SOL     OW25339   5.492   1.008   3.333
 8147SOL    HW125340   5.477   1.094   3.284
 8147SOL    HW225341   5.446   1.012   3.421
 8148SOL     OW25342   6.994   4.312   2.680
 8148SOL    HW125343   6.903   4.315   2.721
 8148SOL    HW225344   0.023   4.243   2.726
 8149SOL     OW25345   3.647   5.340   3.805
 8149SOL    HW125346   3.629   5.403   3.729
 8149SOL    HW225347   3.636   5.388   3.892
 8150SOL     OW25348   0.998   6.167   0.853
 8150SOL    HW125349   1.021   6.194   0.946
 8150SOL    HW225350   1.013   6.244   0.791
 8151SOL     OW25351   0.313   1.468   4.638
 8151SOL    HW125352   0.221   1.508   4.637
 8151SOL    HW225353   0.347   1.464   4.732
 8152SOL     OW25354   1.159   0.568   3.265
 8152SOL    HW125355   1.127   0.558   3.359
 8152SOL    HW225356   1.095   0.627   3.215
 8153SOL     OW25357   2.145   6.882   0.063
 8153SOL    HW125358   2.151   6.783   0.080
 8153SOL    HW225359   2.229   6.926   0.093
 8154SOL     OW25360   2.261   6.689   2.877
 8154SOL    HW125361   2.319   6.609   2.893
 8154SOL    HW225362   2.289   6.763   2.939
 8155SOL     OW25363   2.909   3.329   4.563
 8155SOL    HW125364   2.820   3.303   4.525
 8155SOL    HW225365   2.931   3.422   4.534
 8156SOL     OW25366   6.991   0.556   5.570
 8156SOL    HW125367   6.938   0.512   5.643
 8156SOL    HW225368   7.016   0.487   5.502
 8157SOL     OW25369   5.794   2.140   6.685
 8157SOL    HW125370   5.761   2.123   6.777
 8157SOL    HW225371   5.887   2.177   6.689
 8158SOL     OW25372   1.703   5.334   2.251
 8158SOL    HW125373   1.686   5.314   2.154
 8158SOL    HW225374   1.802   5.337   2.268
 8159SOL     OW25375   0.421   5.674   0.806
 8159SOL    HW125376   0.454   5.708   0.895
 8159SOL    HW225377   0.498   5.648   0.749
 8160SOL     OW25378   4.192   1.829   1.805
 8160SOL    HW125379   4.174   1.913   1.857
 8160SOL    HW225380   4.108   1.776   1.797
 8161SOL     OW25381   4.204   2.697   1.332
 8161SOL    HW125382   4.149   2.683   1.414
 8161SOL    HW225383   4.143   2.705   1.253
 8162SOL     OW25384   5.734   0.847   1.666
 8162SOL    HW125385   5.726   0.774   1.734
 8162SOL    HW225386   5.710   0.934   1.708
 8163SOL     OW25387   2.071   3.325   5.405
 8163SOL    HW125388   2.098   3.360   5.315
 8163SOL    HW225389   2.053   3.401   5.467
 8164SOL     OW25390   4.875   3.321   1.687
 8164SOL    HW125391   4.905   3.391   1.621
 8164SOL    HW225392   4.911   3.232   1.660
 8165SOL     OW25393   2.197   4.794   1.819
 8165SOL    HW125394   2.237   4.875   1.863
 8165SOL    HW225395   2.150   4.822   1.735
 8166SOL     OW25396   4.035   6.577   1.488
 8166SOL    HW125397   3.941   6.605   1.468
 8166SOL    HW225398   4.063   6.507   1.422
 8167SOL     OW25399   5.259   2.601   4.450
 8167SOL    HW125400   5.172   2.568   4.486
 8167SOL    HW225401   5.332   2.538   4.476
 8168SOL     OW25402   2.581   1.942   2.691
 8168SOL    HW125403   2.494   1.987   2.708
 8168SOL    HW225404   2.635   1.997   2.627
 8169SOL     OW25405   5.487   4.188   5.138
 8169SOL    HW125406   5.432   4.271   5.136
 8169SOL    HW225407   5.556   4.195   5.210
 8170SOL     OW25408   1.268   5.015   3.970
 8170SOL    HW125409   1.203   5.036   4.043
 8170SOL    HW225410   1.332   5.091   3.960
 8171SOL     OW25411   1.880   1.219   6.573
 8171SOL    HW125412   1.821   1.295   6.548
 8171SOL    HW225413   1.842   1.134   6.536
 8172SOL     OW25414   0.224   6.087   0.945
 8172SOL    HW125415   0.148   6.113   1.005
 8172SOL    HW225416   0.194   6.093   0.849
 8173SOL     OW25417   5.936   3.291   0.344
 8173SOL    HW125418   5.980   3.270   0.431
 8173SOL    HW225419   6.002   3.336   0.283
 8174SOL     OW25420   5.498   6.572   2.409
 8174SOL    HW125421   5.406   6.567   2.450
 8174SOL    HW225422   5.490   6.570   2.309
 8175SOL     OW25423   1.982   2.321   4.102
 8175SOL    HW125424   1.921   2.267   4.159
 8175SOL    HW225425   1.996   2.273   4.015
 8176SOL     OW25426   3.925   5.911   3.476
 8176SOL    HW125427   4.004   5.865   3.515
 8176SOL    HW225428   3.877   5.849   3.414
 8177SOL     OW25429   1.350   6.385   5.846
 8177SOL    HW125430   1.428   6.442   5.871
 8177SOL    HW225431   1.287   6.379   5.923
 8178SOL     OW25432   2.463   6.837   5.805
 8178SOL    HW125433   2.492   6.743   5.786
 8178SOL    HW225434   2.498   6.898   5.735
 8179SOL     OW25435   3.992   0.319   0.380
 8179SOL    HW125436   4.037   0.305   0.468
 8179SOL    HW225437   4.059   0.350   0.313
 8180SOL     OW25438   4.977   4.249   5.384
 8180SOL    HW125439   4.963   4.300   5.468
 8180SOL    HW225440   4.889   4.221   5.346
 8181SOL     OW25441   2.573   2.391   2.435
 8181SOL    HW125442   2.478   2.417   2.423
 8181SOL    HW225443   2.602   2.411   2.529
 8182SOL     OW25444   5.441   2.846   6.027
 8182SOL    HW125445   5.526   2.797   6.041
 8182SOL    HW225446   5.367   2.800   6.076
 8183SOL     OW25447   2.286   2.953   3.378
 8183SOL    HW125448   2.269   2.960   3.476
 8183SOL    HW225449   2.370   2.903   3.362
 8184SOL     OW25450   6.106   6.094   4.416
 8184SOL    HW125451   6.022   6.118   4.367
 8184SOL    HW225452   6.084   6.032   4.491
 8185SOL     OW25453   1.431   2.032   3.359
 8185SOL    HW125454   1.508   2.084   3.322
 8185SOL    HW225455   1.355   2.094   3.377
 8186SOL     OW25456   4.351   4.142   6.875
 8186SOL    HW125457   4.258   4.162   6.904
 8186SOL    HW225458   4.354   4.138   6.775
 8187SOL     OW25459   2.185   2.091   5.914
 8187SOL    HW125460   2.165   2.050   6.004
 8187SOL    HW225461   2.231   2.023   5.857
 8188SOL     OW25462   4.946   2.706   2.478
 8188SOL    HW125463   4.874   2.771   2.503
 8188SOL    HW225464   5.024   2.717   2.539
 8189SOL     OW25465   6.696   5.133   2.629
 8189SOL    HW125466   6.650   5.113   2.715
 8189SOL    HW225467   6.764   5.062   2.610
 8190SOL     OW25468   6.175   3.622   2.342
 8190SOL    HW125469   6.197   3.682   2.265
 8190SOL    HW225470   6.167   3.677   2.425
 8191SOL     OW25471   6.023   5.032   1.718
 8191SOL    HW125472   6.049   5.068   1.808
 8191SOL    HW225473   6.073   4.948   1.700
 8192SOL     OW25474   1.233   2.683   0.890
 8192SOL    HW125475   1.179   2.618   0.837
 8192SOL    HW225476   1.286   2.741   0.828
 8193SOL     OW25477   3.954   6.755   5.719
 8193SOL    HW125478   3.959   6.851   5.692
 8193SOL    HW225479   3.966   6.697   5.638
 8194SOL     OW25480   1.991   0.871   2.508
 8194SOL    HW125481   1.926   0.947   2.512
 8194SOL    HW225482   2.078   0.900   2.548
 8195SOL     OW25483   5.582   1.449   1.554
 8195SOL    HW125484   5.631   1.413   1.474
 8195SOL    HW225485   5.488   1.473   1.528
 8196SOL     OW25486   1.711   0.879   0.542
 8196SOL    HW125487   1.615   0.903   0.554
 8196SOL    HW225488   1.737   0.892   0.446
 8197SOL     OW25489   0.716   0.103   0.709
 8197SOL    HW125490   0.780   0.144   0.643
 8197SOL    HW225491   0.645   0.170   0.732
 8198SOL     OW25492   3.529   0.630   3.023
 8198SOL    HW125493   3.455   0.639   3.090
 8198SOL    HW225494   3.588   0.553   3.049
 8199SOL     OW25495   5.610   4.577   1.241
 8199SOL    HW125496   5.686   4.597   1.180
 8199SOL    HW225497   5.621   4.485   1.280
 8200SOL     OW25498   4.201   3.463   1.786
 8200SOL    HW125499   4.224   3.414   1.702
 8200SOL    HW225500   4.215   3.561   1.772
 8201SOL     OW25501   0.405   0.961   5.514
 8201SOL    HW125502   0.478   1.002   5.459
 8201SOL    HW225503   0.425   0.864   5.528
 8202SOL     OW25504   1.875   3.765   4.757
 8202SOL    HW125505   1.959   3.810   4.726
 8202SOL    HW225506   1.820   3.739   4.677
 8203SOL     OW25507   6.059   4.256   0.010
 8203SOL    HW125508   6.102   4.192   6.974
 8203SOL    HW225509   5.975   4.291   6.997
 8204SOL     OW25510   3.225   0.564   0.851
 8204SOL    HW125511   3.251   0.643   0.796
 8204SOL    HW225512   3.220   0.482   0.794
 8205SOL     OW25513   4.491   6.834   3.431
 8205SOL    HW125514   4.562   6.812   3.364
 8205SOL    HW225515   4.517   6.795   3.520
 8206SOL     OW25516   3.575   1.875   5.051
 8206SOL    HW125517   3.590   1.776   5.047
 8206SOL    HW225518   3.635   1.915   5.120
 8207SOL     OW25519   2.964   6.032   6.820
 8207SOL    HW125520   2.945   5.947   6.772
 8207SOL    HW225521   2.997   6.100   6.756
 8208SOL     OW25522   1.887   6.413   0.216
 8208SOL    HW125523   1.837   6.480   0.161
 8208SOL    HW225524   1.950   6.461   0.278
 8209SOL     OW25525   0.643   5.384   5.238
 8209SOL    HW125526   0.723   5.339   5.277
 8209SOL    HW225527   0.595   5.320   5.177
 8210SOL     OW25528   2.370   1.370   0.164
 8210SOL    HW125529   2.436   1.438   0.196
 8210SOL    HW225530   2.319   1.407   0.087
 8211SOL     OW25531   3.755   4.088   3.212
 8211SOL    HW125532   3.816   4.022   3.255
 8211SOL    HW225533   3.668   4.089   3.261
 8212SOL     OW25534   4.368   4.814   6.788
 8212SOL    HW125535   4.401   4.801   6.882
 8212SOL    HW225536   4.334   4.907   6.777
 8213SOL     OW25537   4.630   4.432   1.744
 8213SOL    HW125538   4.572   4.400   1.819
 8213SOL    HW225539   4.663   4.524   1.764
 8214SOL     OW25540   4.107   5.405   3.672
 8214SOL    HW125541   4.025   5.349   3.679
 8214SOL    HW225542   4.138   5.407   3.577
 8215SOL     OW25543   2.757   6.329   6.296
 8215SOL    HW125544   2.738   6.263   6.369
 8215SOL    HW225545   2.741   6.286   6.208
 8216SOL     OW25546   5.326   5.657   0.870
 8216SOL    HW125547   5.265   5.612   0.935
 8216SOL    HW225548   5.277   5.733   0.827
 8217SOL     OW25549   3.391   6.531   3.706
 8217SOL    HW125550   3.315   6.474   3.674
 8217SOL    HW225551   3.359   6.626   3.716
 8218SOL     OW25552   1.929   6.689   4.121
 8218SOL    HW125553   1.861   6.702   4.049
 8218SOL    HW225554   1.985   6.609   4.101
 8219SOL     OW25555   3.866   3.465   3.403
 8219SOL    HW125556   3.920   3.382   3.386
 8219SOL    HW225557   3.814   3.488   3.321
 8220SOL     OW25558   4.111   4.181   5.606
 8220SOL    HW125559   4.112   4.132   5.694
 8220SOL    HW225560   4.096   4.278   5.622
 8221SOL     OW25561   6.365   3.832   4.169
 8221SOL    HW125562   6.358   3.825   4.069
 8221SOL    HW225563   6.461   3.836   4.195
 8222SOL     OW25564   5.637   2.167   6.260
 8222SOL    HW125565   5.615   2.200   6.169
 8222SOL    HW225566   5.629   2.068   6.263
 8223SOL     OW25567   1.171   6.637   5.654
 8223SOL    HW125568   1.122   6.551   5.647
 8223SOL    HW225569   1.259   6.629   5.607
 8224SOL     OW25570   5.576   1.216   6.067
 8224SOL    HW125571   5.504   1.181   6.007
 8224SOL    HW225572   5.613   1.300   6.027
 8225SOL     OW25573   5.791   2.785   0.191
 8225SOL    HW125574   5.708   2.798   0.138
 8225SOL    HW225575   5.817   2.689   0.189
 8226SOL     OW25576   3.964   1.069   6.940
 8226SOL    HW125577   3.975   0.971   6.924
 8226SOL    HW225578   4.000   1.119   6.861
 8227SOL     OW25579   4.966   3.295   2.804
 8227SOL    HW125580   4.990   3.290   2.707
 8227SOL    HW225581   5.046   3.272   2.859
 8228SOL     OW25582   3.133   1.321   4.889
 8228SOL    HW125583   3.152   1.286   4.797
 8228SOL    HW225584   3.166   1.415   4.897
 8229SOL     OW25585   4.365   4.748   1.163
 8229SOL    HW125586   4.427   4.697   1.103
 8229SOL    HW225587   4.283   4.773   1.112
 8230SOL     OW25588   6.147   0.807   6.276
 8230SOL    HW125589   6.088   0.867   6.223
 8230SOL    HW225590   6.231   0.789   6.226
 8231SOL     OW25591   3.370   1.375   2.379
 8231SOL    HW125592   3.310   1.365   2.299
 8231SOL    HW225593   3.440   1.444   2.360
 8232SOL     OW25594   4.239   6.715   3.466
 8232SOL    HW125595   4.252   6.625   3.425
 8232SOL    HW225596   4.319   6.772   3.446
 8233SOL     OW25597   2.368   1.367   6.725
 8233SOL    HW125598   2.349   1.382   6.822
 8233SOL    HW225599   2.292   1.317   6.684
 8234SOL     OW25600   1.365   2.747   0.076
 8234SOL    HW125601   1.373   2.779   7.009
 8234SOL    HW225602   1.349   2.826   0.136
 8235SOL     OW25603   0.562   6.922   1.295
 8235SOL    HW125604   0.619   6.886   1.368
 8235SOL    HW225605   0.520   6.846   1.245
 8236SOL     OW25606   1.192   0.113   1.147
 8236SOL    HW125607   1.148   0.072   1.067
 8236SOL    HW225608   1.145   0.198   1.172
 8237SOL     OW25609   4.204   5.170   5.296
 8237SOL    HW125610   4.152   5.247   5.258
 8237SOL    HW225611   4.263   5.203   5.369
 8238SOL     OW25612   6.860   5.312   0.234
 8238SOL    HW125613   6.790   5.350   0.174
 8238SOL    HW225614   6.912   5.386   0.276
 8239SOL     OW25615   4.580   2.223   5.135
 8239SOL    HW125616   4.482   2.240   5.141
 8239SOL    HW225617   4.628   2.277   5.205
 8240SOL     OW25618   3.561   3.688   4.931
 8240SOL    HW125619   3.462   3.684   4.923
 8240SOL    HW225620   3.588   3.778   4.967
 8241SOL     OW25621   1.167   3.092   5.457
 8241SOL    HW125622   1.258   3.061   5.430
 8241SOL    HW225623   1.137   3.041   5.538
 8242SOL     OW25624   0.392   2.488   3.218
 8242SOL    HW125625   0.488   2.471   3.243
 8242SOL    HW225626   0.389   2.560   3.148
 8243SOL     OW25627   1.332   6.605   3.165
 8243SOL    HW125628   1.318   6.644   3.256
 8243SOL    HW225629   1.258   6.635   3.105
 8244SOL     OW25630   5.562   0.834   3.613
 8244SOL    HW125631   5.641   0.858   3.557
 8244SOL    HW225632   5.562   0.888   3.697
 8245SOL     OW25633   5.356   3.250   2.049
 8245SOL    HW125634   5.280   3.184   2.049
 8245SOL    HW225635   5.330   3.329   2.103
 8246SOL     OW25636   1.812   4.316   6.493
 8246SOL    HW125637   1.872   4.248   6.453
 8246SOL    HW225638   1.804   4.395   6.431
 8247SOL     OW25639   2.221   4.788   3.622
 8247SOL    HW125640   2.141   4.848   3.625
 8247SOL    HW225641   2.303   4.840   3.646
 8248SOL     OW25642   0.120   6.090   2.694
 8248SOL    HW125643   0.211   6.130   2.687
 8248SOL    HW225644   0.099   6.070   2.790
 8249SOL     OW25645   3.246   0.982   6.241
 8249SOL    HW125646   3.167   1.042   6.228
 8249SOL    HW225647   3.219   0.901   6.293
 8250SOL     OW25648   1.420   1.739   6.911
 8250SOL    HW125649   1.475   1.801   6.967
 8250SOL    HW225650   1.323   1.761   6.923
 8251SOL     OW25651   1.195   2.039   5.927
 8251SOL    HW125652   1.140   1.965   5.965
 8251SOL    HW225653   1.158   2.127   5.956
 8252SOL     OW25654   0.543   2.221   6.790
 8252SOL    HW125655   0.494   2.238   6.875
 8252SOL    HW225656   0.621   2.283   6.784
 8253SOL     OW25657   6.010   4.659   6.094
 8253SOL    HW125658   6.052   4.654   6.003
 8253SOL    HW225659   5.972   4.750   6.109
 8254SOL     OW25660   5.288   4.891   6.858
 8254SOL    HW125661   5.229   4.844   6.924
 8254SOL    HW225662   5.383   4.866   6.876
 8255SOL     OW25663   1.522   0.112   5.498
 8255SOL    HW125664   1.523   0.157   5.587
 8255SOL    HW225665   1.540   0.179   5.426
 8256SOL     OW25666   1.319   5.712   2.924
 8256SOL    HW125667   1.236   5.656   2.922
 8256SOL    HW225668   1.348   5.731   2.830
 8257SOL     OW25669   4.877   3.562   3.680
 8257SOL    HW125670   4.779   3.578   3.670
 8257SOL    HW225671   4.927   3.645   3.654
 8258SOL     OW25672   0.464   3.343   3.641
 8258SOL    HW125673   0.411   3.388   3.713
 8258SOL    HW225674   0.465   3.244   3.658
 8259SOL     OW25675   5.533   2.682   4.048
 8259SOL    HW125676   5.623   2.726   4.046
 8259SOL    HW225677   5.466   2.744   4.089
 8260SOL     OW25678   4.758   2.018   6.650
 8260SOL    HW125679   4.775   2.113   6.624
 8260SOL    HW225680   4.787   2.003   6.744
 8261SOL     OW25681   5.921   2.149   2.857
 8261SOL    HW125682   5.997   2.188   2.909
 8261SOL    HW225683   5.881   2.072   2.908
 8262SOL     OW25684   4.754   4.081   2.228
 8262SOL    HW125685   4.790   4.032   2.148
 8262SOL    HW225686   4.697   4.157   2.197
 8263SOL     OW25687   6.336   1.636   7.000
 8263SOL    HW125688   6.278   1.711   0.005
 8263SOL    HW225689   6.286   1.550   7.006
 8264SOL     OW25690   3.188   0.667   1.597
 8264SOL    HW125691   3.177   0.575   1.560
 8264SOL    HW225692   3.106   0.721   1.578
 8265SOL     OW25693   4.425   5.707   0.313
 8265SOL    HW125694   4.507   5.689   0.367
 8265SOL    HW225695   4.397   5.624   0.265
 8266SOL     OW25696   4.222   2.028   3.212
 8266SOL    HW125697   4.147   2.072   3.163
 8266SOL    HW225698   4.273   2.096   3.264
 8267SOL     OW25699   2.012   2.956   3.329
 8267SOL    HW125700   1.980   3.008   3.249
 8267SOL    HW225701   2.112   2.953   3.328
 8268SOL     OW25702   2.548   5.311   1.453
 8268SOL    HW125703   2.599   5.248   1.394
 8268SOL    HW225704   2.467   5.264   1.490
 8269SOL     OW25705   6.901   1.567   4.231
 8269SOL    HW125706   6.854   1.482   4.208
 8269SOL    HW225707   6.843   1.644   4.207
 8270SOL     OW25708   3.315   4.614   0.262
 8270SOL    HW125709   3.314   4.700   0.210
 8270SOL    HW225710   3.345   4.632   0.355
 8271SOL     OW25711   3.567   6.899   5.473
 8271SOL    HW125712   3.546   6.804   5.497
 8271SOL    HW225713   3.583   6.952   5.557
 8272SOL     OW25714   1.074   0.336   2.052
 8272SOL    HW125715   1.111   0.427   2.069
 8272SOL    HW225716   1.148   0.269   2.050
 8273SOL     OW25717   4.446   6.708   6.100
 8273SOL    HW125718   4.523   6.650   6.127
 8273SOL    HW225719   4.376   6.652   6.055
 8274SOL     OW25720   5.726   6.594   3.905
 8274SOL    HW125721   5.757   6.584   3.810
 8274SOL    HW225722   5.629   6.571   3.911
 8275SOL     OW25723   5.046   0.594   5.058
 8275SOL    HW125724   4.948   0.576   5.047
 8275SOL    HW225725   5.059   0.678   5.111
 8276SOL     OW25726   5.576   2.972   0.871
 8276SOL    HW125727   5.642   2.918   0.819
 8276SOL    HW225728   5.623   3.015   0.948
 8277SOL     OW25729   1.429   0.160   1.381
 8277SOL    HW125730   1.376   0.242   1.402
 8277SOL    HW225731   1.525   0.185   1.370
 8278SOL     OW25732   1.499   0.955   1.038
 8278SOL    HW125733   1.468   0.864   1.014
 8278SOL    HW225734   1.420   1.016   1.048
 8279SOL     OW25735   5.752   5.301   5.724
 8279SOL    HW125736   5.805   5.269   5.802
 8279SOL    HW225737   5.807   5.294   5.641
 8280SOL     OW25738   5.802   4.007   0.018
 8280SOL    HW125739   5.815   4.048   6.955
 8280SOL    HW225740   5.859   3.926   0.027
 8281SOL     OW25741   3.495   4.858   6.323
 8281SOL    HW125742   3.461   4.834   6.233
 8281SOL    HW225743   3.507   4.775   6.377
 8282SOL     OW25744   4.094   2.747   1.065
 8282SOL    HW125745   4.004   2.752   1.021
 8282SOL    HW225746   4.152   2.683   1.015
 8283SOL     OW25747   0.351   0.283   3.133
 8283SOL    HW125748   0.413   0.338   3.077
 8283SOL    HW225749   0.365   0.306   3.230
 8284SOL     OW25750   5.483   2.071   1.863
 8284SOL    HW125751   5.520   1.980   1.882
 8284SOL    HW225752   5.413   2.065   1.793
 8285SOL     OW25753   0.488   4.283   0.651
 8285SOL    HW125754   0.566   4.344   0.637
 8285SOL    HW225755   0.409   4.317   0.601
 8286SOL     OW25756   6.210   2.009   6.632
 8286SOL    HW125757   6.255   1.971   6.551
 8286SOL    HW225758   6.147   1.943   6.670
 8287SOL     OW25759   0.048   0.554   3.479
 8287SOL    HW125760   0.056   0.455   3.489
 8287SOL    HW225761   0.082   0.582   3.390
 8288SOL     OW25762   2.830   0.363   2.177
 8288SOL    HW125763   2.877   0.445   2.144
 8288SOL    HW225764   2.739   0.358   2.136
 8289SOL     OW25765   5.944   6.712   0.067
 8289SOL    HW125766   5.881   6.636   0.052
 8289SOL    HW225767   5.981   6.706   0.160
 8290SOL     OW25768   4.965   2.590   1.757
 8290SOL    HW125769   4.914   2.552   1.834
 8290SOL    HW225770   4.901   2.635   1.694
 8291SOL     OW25771   5.028   5.668   6.150
 8291SOL    HW125772   4.980   5.709   6.073
 8291SOL    HW225773   5.063   5.740   6.210
 8292SOL     OW25774   6.958   3.877   5.442
 8292SOL    HW125775   6.973   3.783   5.473
 8292SOL    HW225776   7.003   3.940   5.505
 8293SOL     OW25777   2.681   5.470   4.245
 8293SOL    HW125778   2.634   5.406   4.305
 8293SOL    HW225779   2.780   5.460   4.257
 8294SOL     OW25780   6.857   3.443   6.096
 8294SOL    HW125781   6.927   3.410   6.032
 8294SOL    HW225782   6.767   3.441   6.051
 8295SOL     OW25783   4.094   5.253   2.111
 8295SOL    HW125784   4.001   5.244   2.074
 8295SOL    HW225785   4.090   5.262   2.210
 8296SOL     OW25786   4.070   6.911   2.434
 8296SOL    HW125787   4.134   6.948   2.367
 8296SOL    HW225788   4.036   6.985   2.492
 8297SOL     OW25789   5.554   4.407   2.055
 8297SOL    HW125790   5.542   4.316   2.094
 8297SOL    HW225791   5.643   4.412   2.008
 8298SOL     OW25792   6.781   6.978   1.114
 8298SOL    HW125793   6.852   0.021   1.123
 8298SOL    HW225794   6.817   6.899   1.066
 8299SOL     OW25795   1.039   2.874   6.357
 8299SOL    HW125796   1.077   2.791   6.316
 8299SOL    HW225797   1.008   2.936   6.285
 8300SOL     OW25798   5.262   5.560   3.888
 8300SOL    HW125799   5.195   5.516   3.947
 8300SOL    HW225800   5.262   5.659   3.905
 8301SOL     OW25801   6.554   5.668   0.400
 8301SOL    HW125802   6.456   5.660   0.386
 8301SOL    HW225803   6.574   5.677   0.497
 8302SOL     OW25804   3.474   6.757   5.810
 8302SOL    HW125805   3.526   6.834   5.847
 8302SOL    HW225806   3.384   6.752   5.853
 8303SOL     OW25807   1.420   5.225   3.874
 8303SOL    HW125808   1.471   5.166   3.812
 8303SOL    HW225809   1.338   5.260   3.827
 8304SOL     OW25810   5.818   2.907   3.995
 8304SOL    HW125811   5.860   2.889   3.906
 8304SOL    HW225812   5.799   3.004   4.004
 8305SOL     OW25813   4.426   6.829   5.488
 8305SOL    HW125814   4.521   6.798   5.494
 8305SOL    HW225815   4.407   6.891   5.565
 8306SOL     OW25816   4.683   1.043   3.957
 8306SOL    HW125817   4.748   1.118   3.941
 8306SOL    HW225818   4.729   0.956   3.941
 8307SOL     OW25819   6.897   5.080   4.257
 8307SOL    HW125820   6.988   5.070   4.296
 8307SOL    HW225821   6.877   5.177   4.243
 8308SOL     OW25822   1.789   5.585   0.353
 8308SOL    HW125823   1.696   5.549   0.342
 8308SOL    HW225824   1.837   5.531   0.422
 8309SOL     OW25825   6.234   4.486   2.897
 8309SOL    HW125826   6.235   4.565   2.835
 8309SOL    HW225827   6.146   4.440   2.890
 8310SOL     OW25828   2.053   6.520   2.855
 8310SOL    HW125829   2.121   6.589   2.881
 8310SOL    HW225830   2.091   6.429   2.870
 8311SOL     OW25831   4.980   6.127   1.676
 8311SOL    HW125832   4.999   6.125   1.775
 8311SOL    HW225833   4.884   6.150   1.662
 8312SOL     OW25834   6.690   1.702   0.679
 8312SOL    HW125835   6.781   1.669   0.659
 8312SOL    HW225836   6.633   1.696   0.597
 8313SOL     OW25837   4.642   2.676   5.889
 8313SOL    HW125838   4.713   2.641   5.829
 8313SOL    HW225839   4.631   2.614   5.967
 8314SOL     OW25840   4.103   5.789   4.045
 8314SOL    HW125841   4.138   5.813   4.136
 8314SOL    HW225842   4.171   5.812   3.976
 8315SOL     OW25843   2.970   2.571   6.669
 8315SOL    HW125844   2.879   2.540   6.641
 8315SOL    HW225845   3.017   2.612   6.591
 8316SOL     OW25846   1.765   1.271   4.698
 8316SOL    HW125847   1.806   1.361   4.681
 8316SOL    HW225848   1.778   1.246   4.794
 8317SOL     OW25849   1.059   1.767   5.745
 8317SOL    HW125850   0.994   1.695   5.720
 8317SOL    HW225851   1.151   1.740   5.716
 8318SOL     OW25852   4.699   6.390   5.581
 8318SOL    HW125853   4.662   6.311   5.533
 8318SOL    HW225854   4.741   6.359   5.667
 8319SOL     OW25855   2.692   6.093   6.733
 8319SOL    HW125856   2.775   6.097   6.790
 8319SOL    HW225857   2.619   6.048   6.784
 8320SOL     OW25858   3.963   4.904   5.575
 8320SOL    HW125859   3.906   4.985   5.592
 8320SOL    HW225860   4.011   4.879   5.659
 8321SOL     OW25861   0.518   0.674   0.802
 8321SOL    HW125862   0.547   0.619   0.723
 8321SOL    HW225863   0.541   0.770   0.786
 8322SOL     OW25864   1.875   1.176   1.367
 8322SOL    HW125865   1.878   1.083   1.405
 8322SOL    HW225866   1.830   1.175   1.278
 8323SOL     OW25867   5.747   4.936   0.053
 8323SOL    HW125868   5.761   4.839   0.072
 8323SOL    HW225869   5.663   4.966   0.099
 8324SOL     OW25870   5.571   6.688   6.330
 8324SOL    HW125871   5.627   6.675   6.413
 8324SOL    HW225872   5.631   6.701   6.251
 8325SOL     OW25873   1.456   6.396   4.658
 8325SOL    HW125874   1.521   6.323   4.676
 8325SOL    HW225875   1.364   6.358   4.649
 8326SOL     OW25876   2.246   2.106   6.796
 8326SOL    HW125877   2.342   2.080   6.786
 8326SOL    HW225878   2.218   2.163   6.719
 8327SOL     OW25879   0.777   6.086   4.719
 8327SOL    HW125880   0.876   6.089   4.733
 8327SOL    HW225881   0.749   6.164   4.663
 8328SOL     OW25882   0.974   6.714   1.018
 8328SOL    HW125883   0.925   6.628   1.005
 8328SOL    HW225884   0.989   6.729   1.116
 8329SOL     OW25885   1.505   2.414   5.103
 8329SOL    HW125886   1.500   2.470   5.021
 8329SOL    HW225887   1.589   2.437   5.154
 8330SOL     OW25888   3.178   0.046   0.245
 8330SOL    HW125889   3.097   0.051   0.187
 8330SOL    HW225890   3.159   7.014   0.323
 8331SOL     OW25891   2.131   2.601   5.910
 8331SOL    HW125892   2.180   2.687   5.897
 8331SOL    HW225893   2.102   2.564   5.822
 8332SOL     OW25894   5.764   3.725   1.227
 8332SOL    HW125895   5.788   3.814   1.188
 8332SOL    HW225896   5.846   3.668   1.231
 8333SOL     OW25897   3.000   4.474   6.493
 8333SOL    HW125898   3.054   4.391   6.477
 8333SOL    HW225899   3.061   4.553   6.492
 8334SOL     OW25900   3.595   2.332   5.349
 8334SOL    HW125901   3.543   2.410   5.316
 8334SOL    HW225902   3.547   2.247   5.326
 8335SOL     OW25903   5.357   4.040   6.075
 8335SOL    HW125904   5.391   3.962   6.023
 8335SOL    HW225905   5.434   4.100   6.100
 8336SOL     OW25906   1.088   4.292   3.386
 8336SOL    HW125907   1.103   4.371   3.327
 8336SOL    HW225908   1.024   4.229   3.341
 8337SOL     OW25909   6.550   1.040   4.274
 8337SOL    HW125910   6.521   0.949   4.303
 8337SOL    HW225911   6.520   1.108   4.341
 8338SOL     OW25912   2.424   5.891   1.013
 8338SOL    HW125913   2.395   5.884   1.108
 8338SOL    HW225914   2.345   5.908   0.955
 8339SOL     OW25915   6.384   0.874   1.579
 8339SOL    HW125916   6.362   0.817   1.658
 8339SOL    HW225917   6.476   0.911   1.589
 8340SOL     OW25918   5.968   2.556   6.818
 8340SOL    HW125919   5.914   2.498   6.879
 8340SOL    HW225920   6.032   2.611   6.872
 8341SOL     OW25921   3.560   0.406   1.073
 8341SOL    HW125922   3.546   0.487   1.016
 8341SOL    HW225923   3.624   0.427   1.146
 8342SOL     OW25924   4.668   1.075   0.962
 8342SOL    HW125925   4.747   1.045   0.909
 8342SOL    HW225926   4.588   1.020   0.936
 8343SOL     OW25927   5.159   5.810   2.982
 8343SOL    HW125928   5.132   5.794   3.077
 8343SOL    HW225929   5.078   5.825   2.926
 8344SOL     OW25930   2.337   4.723   6.044
 8344SOL    HW125931   2.363   4.737   5.949
 8344SOL    HW225932   2.418   4.696   6.097
 8345SOL     OW25933   6.348   0.473   3.719
 8345SOL    HW125934   6.265   0.417   3.714
 8345SOL    HW225935   6.428   0.414   3.719
 8346SOL     OW25936   5.892   3.968   3.960
 8346SOL    HW125937   5.986   4.001   3.946
 8346SOL    HW225938   5.829   4.027   3.910
 8347SOL     OW25939   1.410   1.944   6.303
 8347SOL    HW125940   1.432   1.871   6.238
 8347SOL    HW225941   1.316   1.974   6.291
 8348SOL     OW25942   3.030   5.907   1.037
 8348SOL    HW125943   3.113   5.958   1.013
 8348SOL    HW225944   2.970   5.902   0.958
 8349SOL     OW25945   4.838   5.402   1.649
 8349SOL    HW125946   4.780   5.346   1.708
 8349SOL    HW225947   4.836   5.497   1.680
 8350SOL     OW25948   1.522   0.273   6.821
 8350SOL    HW125949   1.540   0.263   6.919
 8350SOL    HW225950   1.553   0.191   6.773
 8351SOL     OW25951   6.880   2.919   3.037
 8351SOL    HW125952   6.891   2.921   3.137
 8351SOL    HW225953   6.889   2.825   3.005
 8352SOL     OW25954   2.970   6.506   6.381
 8352SOL    HW125955   2.882   6.463   6.359
 8352SOL    HW225956   2.958   6.571   6.456
 8353SOL     OW25957   0.514   5.807   2.745
 8353SOL    HW125958   0.443   5.791   2.813
 8353SOL    HW225959   0.512   5.735   2.677
 8354SOL     OW25960   4.628   2.341   3.318
 8354SOL    HW125961   4.627   2.436   3.286
 8354SOL    HW225962   4.683   2.285   3.256
 8355SOL     OW25963   3.310   5.257   6.156
 8355SOL    HW125964   3.349   5.319   6.224
 8355SOL    HW225965   3.379   5.188   6.130
 8356SOL     OW25966   2.826   4.175   1.158
 8356SOL    HW125967   2.729   4.150   1.166
 8356SOL    HW225968   2.834   4.262   1.111
 8357SOL     OW25969   2.970   0.030   4.790
 8357SOL    HW125970   3.015   6.969   4.806
 8357SOL    HW225971   2.876   0.015   4.761
 8358SOL     OW25972   0.174   0.185   4.703
 8358SOL    HW125973   0.090   0.203   4.651
 8358SOL    HW225974   0.151   0.136   4.787
 8359SOL     OW25975   4.861   1.837   5.188
 8359SOL    HW125976   4.918   1.904   5.237
 8359SOL    HW225977   4.909   1.807   5.106
 8360SOL     OW25978   3.290   6.721   1.760
 8360SOL    HW125979   3.295   6.758   1.853
 8360SOL    HW225980   3.368   6.661   1.745
 8361SOL     OW25981   5.122   1.092   0.427
 8361SOL    HW125982   5.053   1.086   0.499
 8361SOL    HW225983   5.100   1.027   0.354
 8362SOL     OW25984   0.429   3.893   1.408
 8362SOL    HW125985   0.441   3.847   1.321
 8362SOL    HW225986   0.506   3.954   1.425
 8363SOL     OW25987   1.359   2.423   1.661
 8363SOL    HW125988   1.453   2.390   1.661
 8363SOL    HW225989   1.319   2.410   1.570
 8364SOL     OW25990   7.014   2.079   3.929
 8364SOL    HW125991   0.084   2.057   3.925
 8364SOL    HW225992   6.970   2.051   3.843
 8365SOL     OW25993   1.806   2.602   1.630
 8365SOL    HW125994   1.900   2.589   1.598
 8365SOL    HW225995   1.801   2.580   1.727
 8366SOL     OW25996   5.188   5.918   1.898
 8366SOL    HW125997   5.161   5.830   1.937
 8366SOL    HW225998   5.127   5.990   1.931
 8367SOL     OW25999   1.915   4.162   3.705
 8367SOL    HW126000   1.867   4.184   3.620
 8367SOL    HW226001   2.004   4.206   3.705
 8368SOL     OW26002   6.975   3.951   5.787
 8368SOL    HW126003   7.017   3.866   5.819
 8368SOL    HW226004   6.922   3.934   5.705
 8369SOL     OW26005   1.341   0.038   6.911
 8369SOL    HW126006   1.417   0.082   6.959
 8369SOL    HW226007   1.373   6.979   6.871
 8370SOL     OW26008   2.887   3.328   0.088
 8370SOL    HW126009   2.907   3.321   7.017
 8370SOL    HW226010   2.929   3.250   0.135
 8371SOL     OW26011   2.978   4.168   5.721
 8371SOL    HW126012   2.904   4.220   5.679
 8371SOL    HW226013   3.051   4.230   5.750
 8372SOL     OW26014   1.470   0.286   1.787
 8372SOL    HW126015   1.412   0.205   1.787
 8372SOL    HW226016   1.531   0.284   1.708
 8373SOL     OW26017   5.476   1.095   4.038
 8373SOL    HW126018   5.441   1.187   4.051
 8373SOL    HW226019   5.455   1.040   4.119
 8374SOL     OW26020   1.097   1.817   3.320
 8374SOL    HW126021   1.081   1.721   3.341
 8374SOL    HW226022   1.193   1.839   3.333
 8375SOL     OW26023   1.552   2.059   5.023
 8375SOL    HW126024   1.648   2.087   5.019
 8375SOL    HW226025   1.526   2.044   5.118
 8376SOL     OW26026   0.778   1.948   4.089
 8376SOL    HW126027   0.681   1.961   4.071
 8376SOL    HW226028   0.828   2.032   4.066
 8377SOL     OW26029   3.231   5.169   0.935
 8377SOL    HW126030   3.141   5.195   0.900
 8377SOL    HW226031   3.268   5.243   0.991
 8378SOL     OW26032   4.279   5.243   4.982
 8378SOL    HW126033   4.263   5.284   4.892
 8378SOL    HW226034   4.201   5.263   5.041
 8379SOL     OW26035   6.367   2.585   2.165
 8379SOL    HW126036   6.331   2.659   2.108
 8379SOL    HW226037   6.394   2.622   2.254
 8380SOL     OW26038   1.196   5.935   2.285
 8380SOL    HW126039   1.175   6.032   2.282
 8380SOL    HW226040   1.193   5.903   2.380
 8381SOL     OW26041   1.276   2.305   2.589
 8381SOL    HW126042   1.222   2.258   2.519
 8381SOL    HW226043   1.270   2.404   2.575
 8382SOL     OW26044   0.772   6.563   1.594
 8382SOL    HW126045   0.678   6.530   1.604
 8382SOL    HW226046   0.823   6.545   1.678
 8383SOL     OW26047   2.553   6.999   5.613
 8383SOL    HW126048   2.605   7.010   5.529
 8383SOL    HW226049   2.549   0.059   5.662
 8384SOL     OW26050   0.387   3.233   3.095
 8384SOL    HW126051   0.336   3.150   3.074
 8384SOL    HW226052   0.361   3.306   3.032
 8385SOL     OW26053   4.335   2.248   2.057
 8385SOL    HW126054   4.433   2.252   2.036
 8385SOL    HW226055   4.312   2.322   2.121
 8386SOL     OW26056   0.515   5.598   1.496
 8386SOL    HW126057   0.460   5.677   1.466
 8386SOL    HW226058   0.612   5.618   1.483
 8387SOL     OW26059   0.546   1.668   3.324
 8387SOL    HW126060   0.595   1.584   3.345
 8387SOL    HW226061   0.553   1.731   3.401
 8388SOL     OW26062   3.755   5.203   1.724
 8388SOL    HW126063   3.850   5.174   1.721
 8388SOL    HW226064   3.718   5.206   1.631
 8389SOL     OW26065   1.149   2.867   3.867
 8389SOL    HW126066   1.138   2.827   3.776
 8389SOL    HW226067   1.240   2.908   3.874
 8390SOL     OW26068   3.134   0.748   6.351
 8390SOL    HW126069   3.143   0.689   6.271
 8390SOL    HW226070   3.037   0.760   6.374
 8391SOL     OW26071   4.458   6.033   1.114
 8391SOL    HW126072   4.405   5.978   1.049
 8391SOL    HW226073   4.443   5.998   1.206
 8392SOL     OW26074   4.049   5.339   0.205
 8392SOL    HW126075   4.136   5.317   0.249
 8392SOL    HW226076   4.059   5.332   0.106
 8393SOL     OW26077   0.766   5.747   1.524
 8393SOL    HW126078   0.859   5.781   1.537
 8393SOL    HW226079   0.739   5.691   1.602
 8394SOL     OW26080   1.545   1.373   3.396
 8394SOL    HW126081   1.643   1.370   3.418
 8394SOL    HW226082   1.500   1.293   3.435
 8395SOL     OW26083   1.586   6.201   6.014
 8395SOL    HW126084   1.574   6.144   6.096
 8395SOL    HW226085   1.668   6.170   5.965
 8396SOL     OW26086   4.116   2.492   0.847
 8396SOL    HW126087   4.107   2.570   0.784
 8396SOL    HW226088   4.208   2.493   0.887
 8397SOL     OW26089   1.565   4.414   3.089
 8397SOL    HW126090   1.482   4.433   3.142
 8397SOL    HW226091   1.633   4.369   3.147
 8398SOL     OW26092   5.551   1.686   6.630
 8398SOL    HW126093   5.505   1.602   6.660
 8398SOL    HW226094   5.494   1.765   6.652
 8399SOL     OW26095   5.551   6.087   5.961
 8399SOL    HW126096   5.589   6.120   6.048
 8399SOL    HW226097   5.623   6.043   5.908
 8400SOL     OW26098   6.154   6.469   3.864
 8400SOL    HW126099   6.086   6.433   3.800
 8400SOL    HW226100   6.223   6.399   3.883
 8401SOL     OW26101   3.120   3.542   5.161
 8401SOL    HW126102   3.191   3.612   5.165
 8401SOL    HW226103   3.030   3.584   5.178
 8402SOL     OW26104   5.186   0.398   5.259
 8402SOL    HW126105   5.116   0.358   5.318
 8402SOL    HW226106   5.144   0.462   5.196
 8403SOL     OW26107   0.780   2.271   5.402
 8403SOL    HW126108   0.718   2.343   5.372
 8403SOL    HW226109   0.730   2.208   5.462
 8404SOL     OW26110   5.017   5.414   5.787
 8404SOL    HW126111   4.947   5.392   5.720
 8404SOL    HW226112   5.088   5.469   5.745
 8405SOL     OW26113   1.947   2.601   5.631
 8405SOL    HW126114   1.917   2.667   5.699
 8405SOL    HW226115   1.874   2.586   5.564
 8406SOL     OW26116   5.246   3.649   1.691
 8406SOL    HW126117   5.314   3.721   1.700
 8406SOL    HW226118   5.187   3.648   1.771
 8407SOL     OW26119   4.883   3.680   3.170
 8407SOL    HW126120   4.850   3.725   3.253
 8407SOL    HW226121   4.929   3.747   3.112
 8408SOL     OW26122   4.877   3.595   4.145
 8408SOL    HW126123   4.879   3.523   4.214
 8408SOL    HW226124   4.913   3.680   4.183
 8409SOL     OW26125   1.647   1.478   3.872
 8409SOL    HW126126   1.646   1.554   3.806
 8409SOL    HW226127   1.724   1.417   3.851
 8410SOL     OW26128   2.271   4.638   2.378
 8410SOL    HW126129   2.301   4.554   2.424
 8410SOL    HW226130   2.315   4.644   2.288
 8411SOL     OW26131   1.804   3.557   3.250
 8411SOL    HW126132   1.762   3.630   3.304
 8411SOL    HW226133   1.776   3.565   3.155
 8412SOL     OW26134   6.255   2.799   2.519
 8412SOL    HW126135   6.253   2.870   2.448
 8412SOL    HW226136   6.302   2.718   2.485
 8413SOL     OW26137   2.242   5.284   1.073
 8413SOL    HW126138   2.266   5.240   1.159
 8413SOL    HW226139   2.325   5.322   1.031
 8414SOL     OW26140   6.066   0.766   3.879
 8414SOL    HW126141   5.999   0.699   3.847
 8414SOL    HW226142   6.138   0.776   3.810
 8415SOL     OW26143   6.689   4.743   1.462
 8415SOL    HW126144   6.687   4.725   1.364
 8415SOL    HW226145   6.760   4.811   1.481
 8416SOL     OW26146   4.340   4.946   2.517
 8416SOL    HW126147   4.411   4.972   2.452
 8416SOL    HW226148   4.342   4.847   2.531
 8417SOL     OW26149   1.545   5.660   6.913
 8417SOL    HW126150   1.555   5.567   6.878
 8417SOL    HW226151   1.517   5.657   7.009
 8418SOL     OW26152   5.571   5.724   2.694
 8418SOL    HW126153   5.592   5.816   2.727
 8418SOL    HW226154   5.536   5.730   2.600
 8419SOL     OW26155   4.798   0.334   4.055
 8419SOL    HW126156   4.743   0.385   3.989
 8419SOL    HW226157   4.853   0.266   4.007
 8420SOL     OW26158   4.037   2.163   5.737
 8420SOL    HW126159   4.000   2.070   5.738
 8420SOL    HW226160   4.118   2.167   5.795
 8421SOL     OW26161   0.439   1.236   1.243
 8421SOL    HW126162   0.532   1.216   1.213
 8421SOL    HW226163   0.441   1.276   1.335
 8422SOL     OW26164   3.096   0.143   1.760
 8422SOL    HW126165   3.182   0.098   1.786
 8422SOL    HW226166   3.033   0.141   1.837
 8423SOL     OW26167   2.323   3.501   1.210
 8423SOL    HW126168   2.410   3.459   1.237
 8423SOL    HW226169   2.336   3.599   1.198
 8424SOL     OW26170   2.745   2.394   1.449
 8424SOL    HW126171   2.808   2.433   1.516
 8424SOL    HW226172   2.666   2.454   1.438
 8425SOL     OW26173   0.037   4.669   5.885
 8425SOL    HW126174   6.964   4.672   5.888
 8425SOL    HW226175   0.074   4.734   5.951
 8426SOL     OW26176   3.610   3.174   2.002
 8426SOL    HW126177   3.517   3.139   1.987
 8426SOL    HW226178   3.626   3.252   1.942
 8427SOL     OW26179   1.915   2.255   6.985
 8427SOL    HW126180   1.931   2.270   6.887
 8427SOL    HW226181   1.913   2.343   0.006
 8428SOL     OW26182   6.293   3.674   0.594
 8428SOL    HW126183   6.363   3.710   0.656
 8428SOL    HW226184   6.259   3.587   0.630
 8429SOL     OW26185   1.812   6.440   3.182
 8429SOL    HW126186   1.797   6.513   3.116
 8429SOL    HW226187   1.766   6.357   3.151
 8430SOL     OW26188   4.788   4.986   3.149
 8430SOL    HW126189   4.772   4.913   3.216
 8430SOL    HW226190   4.816   5.069   3.197
 8431SOL     OW26191   3.114   3.449   2.320
 8431SOL    HW126192   3.038   3.508   2.293
 8431SOL    HW226193   3.194   3.470   2.264
 8432SOL     OW26194   4.660   5.824   6.782
 8432SOL    HW126195   4.635   5.794   6.690
 8432SOL    HW226196   4.585   5.878   6.820
 8433SOL     OW26197   0.539   1.196   3.728
 8433SOL    HW126198   0.591   1.169   3.809
 8433SOL    HW226199   0.550   1.294   3.713
 8434SOL     OW26200   5.692   6.699   6.577
 8434SOL    HW126201   5.773   6.642   6.589
 8434SOL    HW226202   5.711   6.792   6.609
 8435SOL     OW26203   4.801   2.250   1.169
 8435SOL    HW126204   4.808   2.203   1.081
 8435SOL    HW226205   4.885   2.236   1.220
 8436SOL     OW26206   3.024   4.284   1.674
 8436SOL    HW126207   2.979   4.332   1.749
 8436SOL    HW226208   3.029   4.344   1.594
 8437SOL     OW26209   0.342   1.842   0.818
 8437SOL    HW126210   0.322   1.762   0.762
 8437SOL    HW226211   0.436   1.872   0.802
 8438SOL     OW26212   2.203   5.548   0.749
 8438SOL    HW126213   2.260   5.600   0.813
 8438SOL    HW226214   2.117   5.597   0.735
 8439SOL     OW26215   5.033   0.758   1.244
 8439SOL    HW126216   5.011   0.728   1.337
 8439SOL    HW226217   4.951   0.750   1.187
 8440SOL     OW26218   0.948   3.168   4.124
 8440SOL    HW126219   0.943   3.140   4.028
 8440SOL    HW226220   1.027   3.228   4.136
 8441SOL     OW26221   4.392   5.926   1.646
 8441SOL    HW126222   4.439   5.983   1.713
 8441SOL    HW226223   4.293   5.939   1.655
 8442SOL     OW26224   2.710   2.644   1.072
 8442SOL    HW126225   2.734   2.577   1.002
 8442SOL    HW226226   2.767   2.627   1.153
 8443SOL     OW26227   7.017   1.737   1.420
 8443SOL    HW126228   6.985   1.664   1.480
 8443SOL    HW226229   0.084   1.719   1.391
 8444SOL     OW26230   4.548   1.592   3.423
 8444SOL    HW126231   4.489   1.583   3.343
 8444SOL    HW226232   4.571   1.688   3.437
 8445SOL     OW26233   4.858   5.528   2.034
 8445SOL    HW126234   4.805   5.447   2.059
 8445SOL    HW226235   4.850   5.597   2.105
 8446SOL     OW26236   6.999   3.426   3.049
 8446SOL    HW126237   6.900   3.423   3.043
 8446SOL    HW226238   0.010   3.336   3.031
 8447SOL     OW26239   4.519   4.313   1.097
 8447SOL    HW126240   4.570   4.346   1.018
 8447SOL    HW226241   4.555   4.224   1.125
 8448SOL     OW26242   1.636   4.520   5.749
 8448SOL    HW126243   1.615   4.496   5.654
 8448SOL    HW226244   1.721   4.476   5.776
 8449SOL     OW26245   1.212   0.788   5.195
 8449SOL    HW126246   1.246   0.812   5.104
 8449SOL    HW226247   1.123   0.830   5.210
 8450SOL     OW26248   1.946   5.656   0.761
 8450SOL    HW126249   1.864   5.701   0.726
 8450SOL    HW226250   1.958   5.678   0.858
 8451SOL     OW26251   3.053   3.537   0.615
 8451SOL    HW126252   2.980   3.495   0.561
 8451SOL    HW226253   3.058   3.493   0.705
 8452SOL     OW26254   0.054   5.953   1.161
 8452SOL    HW126255   7.025   6.036   1.152
 8452SOL    HW226256   7.021   5.873   1.158
 8453SOL     OW26257   6.808   4.903   5.175
 8453SOL    HW126258   6.805   4.806   5.201
 8453SOL    HW226259   6.826   4.910   5.076
 8454SOL     OW26260   2.031   0.105   4.938
 8454SOL    HW126261   2.013   0.016   4.980
 8454SOL    HW226262   2.113   0.099   4.881
 8455SOL     OW26263   5.972   2.444   0.733
 8455SOL    HW126264   6.048   2.392   0.772
 8455SOL    HW226265   5.921   2.490   0.807
 8456SOL     OW26266   5.392   4.806   3.510
 8456SOL    HW126267   5.476   4.798   3.564
 8456SOL    HW226268   5.406   4.871   3.436
 8457SOL     OW26269   6.701   6.312   5.583
 8457SOL    HW126270   6.714   6.231   5.526
 8457SOL    HW226271   6.673   6.389   5.526
 8458SOL     OW26272   1.474   1.979   1.216
 8458SOL    HW126273   1.422   1.989   1.301
 8458SOL    HW226274   1.411   1.959   1.141
 8459SOL     OW26275   2.360   5.275   3.295
 8459SOL    HW126276   2.388   5.276   3.391
 8459SOL    HW226277   2.418   5.338   3.243
 8460SOL     OW26278   3.789   1.460   1.698
 8460SOL    HW126279   3.827   1.445   1.608
 8460SOL    HW226280   3.689   1.455   1.694
 8461SOL     OW26281   5.495   3.893   3.290
 8461SOL    HW126282   5.474   3.821   3.225
 8461SOL    HW226283   5.418   3.957   3.296
 8462SOL     OW26284   1.527   4.131   0.780
 8462SOL    HW126285   1.563   4.172   0.696
 8462SOL    HW226286   1.560   4.037   0.787
 8463SOL     OW26287   7.027   0.101   1.258
 8463SOL    HW126288   7.010   0.197   1.236
 8463SOL    HW226289   0.083   0.070   1.212
 8464SOL     OW26290   6.486   3.127   6.708
 8464SOL    HW126291   6.524   3.124   6.800
 8464SOL    HW226292   6.559   3.111   6.641
 8465SOL     OW26293   4.788   3.686   1.203
 8465SOL    HW126294   4.839   3.610   1.163
 8465SOL    HW226295   4.690   3.671   1.188
 8466SOL     OW26296   0.535   1.228   5.599
 8466SOL    HW126297   0.520   1.250   5.696
 8466SOL    HW226298   0.495   1.139   5.579
 8467SOL     OW26299   3.121   1.235   1.005
 8467SOL    HW126300   3.132   1.295   1.085
 8467SOL    HW226301   3.069   1.283   0.935
 8468SOL     OW26302   5.310   4.097   0.563
 8468SOL    HW126303   5.330   4.194   0.546
 8468SOL    HW226304   5.375   4.040   0.512
 8469SOL     OW26305   4.163   3.309   5.196
 8469SOL    HW126306   4.063   3.308   5.200
 8469SOL    HW226307   4.198   3.223   5.232
 8470SOL     OW26308   1.337   6.018   1.684
 8470SOL    HW126309   1.273   6.070   1.741
 8470SOL    HW226310   1.424   6.068   1.678
 8471SOL     OW26311   4.207   1.459   3.976
 8471SOL    HW126312   4.228   1.364   3.954
 8471SOL    HW226313   4.167   1.504   3.895
 8472SOL     OW26314   5.600   1.568   6.353
 8472SOL    HW126315   5.653   1.587   6.436
 8472SOL    HW226316   5.605   1.471   6.332
 8473SOL     OW26317   5.571   5.318   5.977
 8473SOL    HW126318   5.540   5.388   6.040
 8473SOL    HW226319   5.550   5.345   5.883
 8474SOL     OW26320   2.965   3.912   4.999
 8474SOL    HW126321   3.003   3.986   5.055
 8474SOL    HW226322   2.883   3.876   5.044
 8475SOL     OW26323   0.073   1.588   3.027
 8475SOL    HW126324   0.040   1.610   2.935
 8475SOL    HW226325   0.133   1.661   3.058
 8476SOL     OW26326   6.360   1.180   1.763
 8476SOL    HW126327   6.359   1.183   1.663
 8476SOL    HW226328   6.433   1.118   1.794
 8477SOL     OW26329   5.702   0.882   0.460
 8477SOL    HW126330   5.728   0.945   0.388
 8477SOL    HW226331   5.759   0.897   0.540
 8478SOL     OW26332   0.931   6.383   6.174
 8478SOL    HW126333   0.983   6.469   6.171
 8478SOL    HW226334   0.991   6.309   6.202
 8479SOL     OW26335   1.039   2.728   0.200
 8479SOL    HW126336   0.968   2.739   0.270
 8479SOL    HW226337   0.997   2.729   0.109
 8480SOL     OW26338   3.147   4.245   0.883
 8480SOL    HW126339   3.230   4.300   0.873
 8480SOL    HW226340   3.073   4.286   0.829
 8481SOL     OW26341   4.801   2.664   2.818
 8481SOL    HW126342   4.736   2.740   2.817
 8481SOL    HW226343   4.886   2.692   2.774
 8482SOL     OW26344   4.374   0.253   6.541
 8482SOL    HW126345   4.314   0.267   6.462
 8482SOL    HW226346   4.432   0.333   6.553
 8483SOL     OW26347   3.979   4.892   3.600
 8483SOL    HW126348   3.947   4.894   3.505
 8483SOL    HW226349   4.075   4.864   3.602
 8484SOL     OW26350   6.490   6.303   5.294
 8484SOL    HW126351   6.525   6.219   5.252
 8484SOL    HW226352   6.410   6.282   5.349
 8485SOL     OW26353   4.312   0.670   6.034
 8485SOL    HW126354   4.241   0.690   5.967
 8485SOL    HW226355   4.281   0.697   6.125
 8486SOL     OW26356   5.683   2.333   4.684
 8486SOL    HW126357   5.690   2.239   4.716
 8486SOL    HW226358   5.755   2.388   4.728
 8487SOL     OW26359   6.524   2.173   6.112
 8487SOL    HW126360   6.487   2.237   6.179
 8487SOL    HW226361   6.606   2.129   6.150
 8488SOL     OW26362   4.016   4.993   2.234
 8488SOL    HW126363   3.920   5.016   2.218
 8488SOL    HW226364   4.041   4.916   2.176
 8489SOL     OW26365   6.426   2.055   2.322
 8489SOL    HW126366   6.328   2.048   2.307
 8489SOL    HW226367   6.445   2.128   2.387
 8490SOL     OW26368   3.175   6.925   0.486
 8490SOL    HW126369   3.217   6.838   0.511
 8490SOL    HW226370   3.216   6.998   0.541
 8491SOL     OW26371   3.436   5.178   2.257
 8491SOL    HW126372   3.390   5.237   2.190
 8491SOL    HW226373   3.407   5.203   2.349
 8492SOL     OW26374   6.371   6.312   4.034
 8492SOL    HW126375   6.424   6.355   3.960
 8492SOL    HW226376   6.399   6.217   4.044
 8493SOL     OW26377   5.193   0.489   5.703
 8493SOL    HW126378   5.277   0.460   5.657
 8493SOL    HW226379   5.213   0.567   5.763
 8494SOL     OW26380   0.151   3.363   2.019
 8494SOL    HW126381   0.154   3.293   1.947
 8494SOL    HW226382   0.087   3.334   2.090
 8495SOL     OW26383   5.931   5.556   6.035
 8495SOL    HW126384   5.881   5.514   6.111
 8495SOL    HW226385   6.024   5.578   6.065
 8496SOL     OW26386   4.782   1.750   2.733
 8496SOL    HW126387   4.788   1.850   2.736
 8496SOL    HW226388   4.806   1.713   2.823
 8497SOL     OW26389   6.395   0.829   2.302
 8497SOL    HW126390   6.405   0.742   2.253
 8497SOL    HW226391   6.299   0.841   2.330
 8498SOL     OW26392   4.577   6.057   4.144
 8498SOL    HW126393   4.495   6.108   4.118
 8498SOL    HW226394   4.598   5.990   4.073
 8499SOL     OW26395   6.025   0.148   5.124
 8499SOL    HW126396   5.980   0.108   5.204
 8499SOL    HW226397   6.111   0.101   5.108
 8500SOL     OW26398   1.245   0.821   6.603
 8500SOL    HW126399   1.212   0.871   6.683
 8500SOL    HW226400   1.211   0.866   6.520
 8501SOL     OW26401   3.358   0.991   5.548
 8501SOL    HW126402   3.296   0.971   5.471
 8501SOL    HW226403   3.394   1.084   5.538
 8502SOL     OW26404   6.272   2.869   0.320
 8502SOL    HW126405   6.184   2.881   0.367
 8502SOL    HW226406   6.317   2.787   0.356
 8503SOL     OW26407   4.839   2.541   5.788
 8503SOL    HW126408   4.896   2.459   5.779
 8503SOL    HW226409   4.898   2.622   5.784
 8504SOL     OW26410   1.362   0.070   2.917
 8504SOL    HW126411   1.299   0.086   2.841
 8504SOL    HW226412   1.456   0.078   2.884
 8505SOL     OW26413   5.415   1.769   2.865
 8505SOL    HW126414   5.453   1.850   2.908
 8505SOL    HW226415   5.317   1.762   2.885
 8506SOL     OW26416   1.613   0.388   5.895
 8506SOL    HW126417   1.564   0.472   5.873
 8506SOL    HW226418   1.711   0.406   5.896
 8507SOL     OW26419   4.205   4.903   5.425
 8507SOL    HW126420   4.120   4.867   5.464
 8507SOL    HW226421   4.186   4.992   5.383
 8508SOL     OW26422   3.558   0.876   6.590
 8508SOL    HW126423   3.638   0.830   6.551
 8508SOL    HW226424   3.508   0.811   6.648
 8509SOL     OW26425   4.980   2.284   2.213
 8509SOL    HW126426   4.968   2.270   2.312
 8509SOL    HW226427   4.947   2.204   2.164
 8510SOL     OW26428   0.867   2.060   4.838
 8510SOL    HW126429   0.858   2.087   4.742
 8510SOL    HW226430   0.951   2.097   4.876
 8511SOL     OW26431   6.043   2.115   3.760
 8511SOL    HW126432   6.131   2.162   3.763
 8511SOL    HW226433   5.980   2.166   3.702
 8512SOL     OW26434   2.103   0.143   5.575
 8512SOL    HW126435   2.044   0.216   5.542
 8512SOL    HW226436   2.047   0.068   5.610
 8513SOL     OW26437   4.315   5.470   6.997
 8513SOL    HW126438   4.239   5.412   6.968
 8513SOL    HW226439   4.326   5.464   0.070
 8514SOL     OW26440   3.162   5.844   4.709
 8514SOL    HW126441   3.255   5.866   4.679
 8514SOL    HW226442   3.153   5.745   4.720
 8515SOL     OW26443   5.742   2.266   2.187
 8515SOL    HW126444   5.657   2.230   2.226
 8515SOL    HW226445   5.735   2.365   2.176
 8516SOL     OW26446   6.513   1.589   1.821
 8516SOL    HW126447   6.548   1.652   1.752
 8516SOL    HW226448   6.497   1.639   1.906
 8517SOL     OW26449   1.374   3.590   5.349
 8517SOL    HW126450   1.284   3.546   5.345
 8517SOL    HW226451   1.445   3.520   5.360
 8518SOL     OW26452   2.849   5.873   0.839
 8518SOL    HW126453   2.760   5.907   0.807
 8518SOL    HW226454   2.866   5.783   0.799
 8519SOL     OW26455   2.662   5.543   3.676
 8519SOL    HW126456   2.643   5.628   3.726
 8519SOL    HW226457   2.749   5.552   3.628
 8520SOL     OW26458   3.599   6.080   6.593
 8520SOL    HW126459   3.526   6.128   6.545
 8520SOL    HW226460   3.563   5.996   6.634
 8521SOL     OW26461   1.815   1.105   2.494
 8521SOL    HW126462   1.725   1.126   2.533
 8521SOL    HW226463   1.872   1.188   2.495
 8522SOL     OW26464   2.222   6.767   4.769
 8522SOL    HW126465   2.195   6.715   4.689
 8522SOL    HW226466   2.141   6.803   4.815
 8523SOL     OW26467   1.981   6.746   6.701
 8523SOL    HW126468   1.965   6.691   6.619
 8523SOL    HW226469   2.017   6.688   6.774
 8524SOL     OW26470   1.961   1.803   0.392
 8524SOL    HW126471   1.953   1.884   0.334
 8524SOL    HW226472   1.925   1.822   0.483
 8525SOL     OW26473   5.422   3.522   4.126
 8525SOL    HW126474   5.339   3.488   4.082
 8525SOL    HW226475   5.451   3.606   4.080
 8526SOL     OW26476   1.188   3.558   1.938
 8526SOL    HW126477   1.148   3.630   1.995
 8526SOL    HW226478   1.215   3.481   1.996
 8527SOL     OW26479   4.643   6.948   4.682
 8527SOL    HW126480   4.632   0.008   4.729
 8527SOL    HW226481   4.732   6.944   4.638
 8528SOL     OW26482   5.598   1.164   6.985
 8528SOL    HW126483   5.617   1.259   7.006
 8528SOL    HW226484   5.618   1.107   0.038
 8529SOL     OW26485   6.969   6.775   5.280
 8529SOL    HW126486   7.002   6.704   5.341
 8529SOL    HW226487   6.961   6.739   5.187
 8530SOL     OW26488   2.101   4.948   6.005
 8530SOL    HW126489   2.098   4.855   5.969
 8530SOL    HW226490   2.137   4.945   6.099
 8531SOL     OW26491   4.120   5.372   1.804
 8531SOL    HW126492   4.054   5.424   1.858
 8531SOL    HW226493   4.117   5.276   1.830
 8532SOL     OW26494   1.505   4.339   0.486
 8532SOL    HW126495   1.549   4.249   0.490
 8532SOL    HW226496   1.495   4.368   0.391
 8533SOL     OW26497   3.633   6.449   5.437
 8533SOL    HW126498   3.563   6.492   5.496
 8533SOL    HW226499   3.664   6.515   5.369
 8534SOL     OW26500   2.083   2.447   0.769
 8534SOL    HW126501   2.087   2.351   0.797
 8534SOL    HW226502   2.176   2.485   0.766
 8535SOL     OW26503   0.831   3.370   6.061
 8535SOL    HW126504   0.766   3.301   6.093
 8535SOL    HW226505   0.917   3.325   6.036
 8536SOL     OW26506   5.879   0.523   5.965
 8536SOL    HW126507   5.837   0.434   5.980
 8536SOL    HW226508   5.864   0.552   5.870
 8537SOL     OW26509   4.313   6.323   3.575
 8537SOL    HW126510   4.364   6.406   3.554
 8537SOL    HW226511   4.309   6.265   3.493
 8538SOL     OW26512   5.118   6.929   5.387
 8538SOL    HW126513   5.063   6.848   5.404
 8538SOL    HW226514   5.155   6.927   5.294
 8539SOL     OW26515   1.081   3.131   2.951
 8539SOL    HW126516   1.032   3.214   2.924
 8539SOL    HW226517   1.152   3.154   3.017
 8540SOL     OW26518   4.679   6.781   6.326
 8540SOL    HW126519   4.675   6.681   6.323
 8540SOL    HW226520   4.735   6.815   6.251
 8541SOL     OW26521   2.646   6.753   5.384
 8541SOL    HW126522   2.677   6.806   5.305
 8541SOL    HW226523   2.725   6.721   5.436
 8542SOL     OW26524   1.186   5.114   5.736
 8542SOL    HW126525   1.153   5.154   5.822
 8542SOL    HW226526   1.286   5.119   5.733
 8543SOL     OW26527   3.409   2.203   5.590
 8543SOL    HW126528   3.384   2.109   5.615
 8543SOL    HW226529   3.394   2.217   5.492
 8544SOL     OW26530   5.802   3.772   5.416
 8544SOL    HW126531   5.808   3.781   5.317
 8544SOL    HW226532   5.833   3.681   5.444
 8545SOL     OW26533   2.850   0.533   6.253
 8545SOL    HW126534   2.831   0.585   6.170
 8545SOL    HW226535   2.787   0.560   6.326
 8546SOL     OW26536   3.351   0.951   3.606
 8546SOL    HW126537   3.445   0.982   3.592
 8546SOL    HW226538   3.308   0.930   3.518
 8547SOL     OW26539   5.537   6.465   6.076
 8547SOL    HW126540   5.607   6.537   6.074
 8547SOL    HW226541   5.495   6.457   5.985
 8548SOL     OW26542   1.401   4.524   4.401
 8548SOL    HW126543   1.349   4.516   4.316
 8548SOL    HW226544   1.392   4.440   4.454
 8549SOL     OW26545   2.841   0.463   3.659
 8549SOL    HW126546   2.883   0.374   3.640
 8549SOL    HW226547   2.828   0.473   3.758
 8550SOL     OW26548   0.220   4.293   5.044
 8550SOL    HW126549   0.210   4.223   4.973
 8550SOL    HW226550   0.191   4.382   5.008
 8551SOL     OW26551   3.895   1.543   4.499
 8551SOL    HW126552   3.906   1.451   4.459
 8551SOL    HW226553   3.802   1.552   4.535
 8552SOL     OW26554   3.546   1.773   2.252
 8552SOL    HW126555   3.566   1.865   2.285
 8552SOL    HW226556   3.476   1.778   2.180
 8553SOL     OW26557   5.000   3.694   0.570
 8553SOL    HW126558   4.984   3.656   0.661
 8553SOL    HW226559   4.995   3.793   0.574
 8554SOL     OW26560   1.518   1.219   6.802
 8554SOL    HW126561   1.585   1.187   6.868
 8554SOL    HW226562   1.479   1.306   6.833
 8555SOL     OW26563   3.269   1.777   3.639
 8555SOL    HW126564   3.350   1.759   3.583
 8555SOL    HW226565   3.285   1.859   3.694
 8556SOL     OW26566   0.077   4.859   5.230
 8556SOL    HW126567   0.127   4.829   5.312
 8556SOL    HW226568   7.024   4.913   5.258
 8557SOL     OW26569   6.458   1.026   0.454
 8557SOL    HW126570   6.395   1.080   0.510
 8557SOL    HW226571   6.492   0.948   0.507
 8558SOL     OW26572   2.739   6.672   3.600
 8558SOL    HW126573   2.678   6.630   3.532
 8558SOL    HW226574   2.692   6.749   3.644
 8559SOL     OW26575   1.296   3.121   3.113
 8559SOL    HW126576   1.328   3.214   3.132
 8559SOL    HW226577   1.259   3.081   3.197
 8560SOL     OW26578   3.378   3.999   1.274
 8560SOL    HW126579   3.280   3.986   1.257
 8560SOL    HW226580   3.425   3.911   1.262
 8561SOL     OW26581   4.076   0.648   2.786
 8561SOL    HW126582   4.145   0.603   2.729
 8561SOL    HW226583   4.093   0.628   2.882
 8562SOL     OW26584   5.279   2.563   6.466
 8562SOL    HW126585   5.181   2.565   6.483
 8562SOL    HW226586   5.327   2.532   6.548
 8563SOL     OW26587   1.494   5.059   2.820
 8563SOL    HW126588   1.530   5.126   2.755
 8563SOL    HW226589   1.444   4.988   2.771
 8564SOL     OW26590   3.790   6.672   0.017
 8564SOL    HW126591   3.731   6.594   7.023
 8564SOL    HW226592   3.739   6.741   0.068
 8565SOL     OW26593   0.707   5.416   1.217
 8565SOL    HW126594   0.647   5.496   1.216
 8565SOL    HW226595   0.758   5.411   1.132
 8566SOL     OW26596   3.614   1.060   3.514
 8566SOL    HW126597   3.629   0.992   3.443
 8566SOL    HW226598   3.592   1.148   3.472
 8567SOL     OW26599   1.534   2.541   1.293
 8567SOL    HW126600   1.620   2.490   1.290
 8567SOL    HW226601   1.533   2.601   1.373
 8568SOL     OW26602   5.983   0.185   6.007
 8568SOL    HW126603   5.908   0.235   6.050
 8568SOL    HW226604   6.066   0.241   6.007
 8569SOL     OW26605   5.189   1.276   6.549
 8569SOL    HW126606   5.106   1.315   6.588
 8569SOL    HW226607   5.212   1.324   6.465
 8570SOL     OW26608   1.626   1.976   3.576
 8570SOL    HW126609   1.697   1.927   3.525
 8570SOL    HW226610   1.546   1.988   3.518
 8571SOL     OW26611   1.419   0.677   3.267
 8571SOL    HW126612   1.332   0.631   3.284
 8571SOL    HW226613   1.435   0.683   3.169
 8572SOL     OW26614   3.337   3.924   5.545
 8572SOL    HW126615   3.377   3.996   5.601
 8572SOL    HW226616   3.237   3.931   5.548
 8573SOL     OW26617   1.348   6.038   5.976
 8573SOL    HW126618   1.297   6.025   6.061
 8573SOL    HW226619   1.417   6.109   5.988
 8574SOL     OW26620   6.037   1.383   5.257
 8574SOL    HW126621   6.135   1.369   5.272
 8574SOL    HW226622   5.997   1.302   5.215
 8575SOL     OW26623   2.876   5.985   4.606
 8575SOL    HW126624   2.854   5.896   4.647
 8575SOL    HW226625   2.799   6.015   4.549
 8576SOL     OW26626   1.362   3.787   5.137
 8576SOL    HW126627   1.370   3.700   5.185
 8576SOL    HW226628   1.300   3.776   5.059
 8577SOL     OW26629   1.733   0.611   0.599
 8577SOL    HW126630   1.813   0.588   0.544
 8577SOL    HW226631   1.723   0.711   0.602
 8578SOL     OW26632   1.232   0.367   6.112
 8578SOL    HW126633   1.286   0.445   6.145
 8578SOL    HW226634   1.276   0.282   6.143
 8579SOL     OW26635   3.669   6.463   2.032
 8579SOL    HW126636   3.693   6.552   2.069
 8579SOL    HW226637   3.607   6.416   2.095
 8580SOL     OW26638   2.516   0.448   1.707
 8580SOL    HW126639   2.519   0.387   1.629
 8580SOL    HW226640   2.608   0.472   1.736
 8581SOL     OW26641   3.916   4.004   2.273
 8581SOL    HW126642   3.975   4.042   2.202
 8581SOL    HW226643   3.831   4.058   2.279
 8582SOL     OW26644   4.828   5.629   5.719
 8582SOL    HW126645   4.807   5.564   5.792
 8582SOL    HW226646   4.821   5.583   5.631
 8583SOL     OW26647   3.613   6.830   3.039
 8583SOL    HW126648   3.712   6.841   3.028
 8583SOL    HW226649   3.594   6.753   3.100
 8584SOL     OW26650   6.333   1.927   5.227
 8584SOL    HW126651   6.418   1.979   5.223
 8584SOL    HW226652   6.332   1.859   5.153
 8585SOL     OW26653   4.778   2.100   2.072
 8585SOL    HW126654   4.724   2.183   2.059
 8585SOL    HW226655   4.737   2.043   2.143
 8586SOL     OW26656   6.666   6.076   5.454
 8586SOL    HW126657   6.576   6.063   5.412
 8586SOL    HW226658   6.714   5.989   5.458
 8587SOL     OW26659   6.903   1.359   0.563
 8587SOL    HW126660   6.980   1.307   0.602
 8587SOL    HW226661   6.892   1.445   0.613
 8588SOL     OW26662   1.775   1.103   5.306
 8588SOL    HW126663   1.862   1.100   5.356
 8588SOL    HW226664   1.741   1.010   5.292
 8589SOL     OW26665   5.700   2.699   6.808
 8589SOL    HW126666   5.795   2.673   6.789
 8589SOL    HW226667   5.663   2.750   6.730
 8590SOL     OW26668   1.364   1.413   3.132
 8590SOL    HW126669   1.399   1.388   3.042
 8590SOL    HW226670   1.433   1.466   3.181
 8591SOL     OW26671   1.048   3.984   5.079
 8591SOL    HW126672   1.025   3.888   5.097
 8591SOL    HW226673   0.967   4.040   5.095
 8592SOL     OW26674   0.352   2.049   4.751
 8592SOL    HW126675   0.267   1.999   4.734
 8592SOL    HW226676   0.427   2.004   4.703
 8593SOL     OW26677   6.434   1.412   0.573
 8593SOL    HW126678   6.383   1.326   0.575
 8593SOL    HW226679   6.446   1.440   0.478
 8594SOL     OW26680   6.017   4.017   6.367
 8594SOL    HW126681   6.023   4.071   6.283
 8594SOL    HW226682   5.987   4.075   6.442
 8595SOL     OW26683   5.413   6.246   2.412
 8595SOL    HW126684   5.424   6.157   2.458
 8595SOL    HW226685   5.496   6.300   2.426
 8596SOL     OW26686   0.704   2.096   5.928
 8596SOL    HW126687   0.609   2.087   5.899
 8596SOL    HW226688   0.754   2.013   5.904
 8597SOL     OW26689   5.898   2.258   5.808
 8597SOL    HW126690   5.931   2.164   5.794
 8597SOL    HW226691   5.920   2.286   5.902
 8598SOL     OW26692   6.745   0.995   6.105
 8598SOL    HW126693   6.777   1.084   6.136
 8598SOL    HW226694   6.646   0.998   6.090
 8599SOL     OW26695   5.796   3.674   5.140
 8599SOL    HW126696   5.698   3.675   5.120
 8599SOL    HW226697   5.848   3.693   5.057
 8600SOL     OW26698   4.468   2.724   1.422
 8600SOL    HW126699   4.495   2.722   1.518
 8600SOL    HW226700   4.369   2.716   1.415
 8601SOL     OW26701   4.950   5.684   2.463
 8601SOL    HW126702   4.879   5.727   2.520
 8601SOL    HW226703   4.951   5.727   2.373
 8602SOL     OW26704   1.680   6.901   5.454
 8602SOL    HW126705   1.650   6.818   5.500
 8602SOL    HW226706   1.615   6.975   5.472
 8603SOL     OW26707   0.551   0.926   6.776
 8603SOL    HW126708   0.623   0.857   6.774
 8603SOL    HW226709   0.575   0.999   6.840
 8604SOL     OW26710   1.782   5.029   6.370
 8604SOL    HW126711   1.728   4.970   6.310
 8604SOL    HW226712   1.752   5.017   6.464
 8605SOL     OW26713   6.569   4.296   3.617
 8605SOL    HW126714   6.502   4.222   3.612
 8605SOL    HW226715   6.589   4.330   3.525
 8606SOL     OW26716   1.081   0.472   6.346
 8606SOL    HW126717   1.122   0.492   6.435
 8606SOL    HW226718   1.118   0.385   6.312
 8607SOL     OW26719   2.975   3.071   1.296
 8607SOL    HW126720   3.001   3.046   1.390
 8607SOL    HW226721   2.892   3.128   1.300
 8608SOL     OW26722   2.026   6.294   1.721
 8608SOL    HW126723   2.091   6.348   1.774
 8608SOL    HW226724   1.974   6.235   1.782
 8609SOL     OW26725   5.441   2.383   4.935
 8609SOL    HW126726   5.466   2.287   4.935
 8609SOL    HW226727   5.485   2.430   5.011
 8610SOL     OW26728   6.782   5.165   2.147
 8610SOL    HW126729   6.850   5.101   2.109
 8610SOL    HW226730   6.694   5.118   2.156
 8611SOL     OW26731   1.982   1.551   5.312
 8611SOL    HW126732   1.886   1.525   5.324
 8611SOL    HW226733   2.041   1.478   5.344
 8612SOL     OW26734   3.469   3.164   5.292
 8612SOL    HW126735   3.451   3.066   5.303
 8612SOL    HW226736   3.565   3.178   5.265
 8613SOL     OW26737   3.665   3.213   3.484
 8613SOL    HW126738   3.653   3.243   3.389
 8613SOL    HW226739   3.581   3.232   3.535
 8614SOL     OW26740   0.748   2.562   3.745
 8614SOL    HW126741   0.790   2.612   3.820
 8614SOL    HW226742   0.813   2.553   3.670
 8615SOL     OW26743   3.916   1.325   5.449
 8615SOL    HW126744   4.008   1.305   5.417
 8615SOL    HW226745   3.919   1.403   5.512
 8616SOL     OW26746   5.770   4.364   5.523
 8616SOL    HW126747   5.745   4.450   5.567
 8616SOL    HW226748   5.852   4.326   5.567
 8617SOL     OW26749   1.164   6.945   3.084
 8617SOL    HW126750   1.242   6.997   3.047
 8617SOL    HW226751   1.126   6.993   3.162
 8618SOL     OW26752   5.887   4.131   0.810
 8618SOL    HW126753   5.961   4.063   0.813
 8618SOL    HW226754   5.842   4.128   0.721
 8619SOL     OW26755   5.127   5.245   0.213
 8619SOL    HW126756   5.071   5.309   0.161
 8619SOL    HW226757   5.091   5.236   0.305
 8620SOL     OW26758   1.419   6.401   3.774
 8620SOL    HW126759   1.470   6.315   3.774
 8620SOL    HW226760   1.400   6.429   3.868
 8621SOL     OW26761   6.153   3.576   1.711
 8621SOL    HW126762   6.066   3.546   1.672
 8621SOL    HW226763   6.147   3.572   1.811
 8622SOL     OW26764   0.881   5.753   1.251
 8622SOL    HW126765   0.831   5.750   1.338
 8622SOL    HW226766   0.831   5.808   1.185
 8623SOL     OW26767   2.295   1.978   3.119
 8623SOL    HW126768   2.227   1.929   3.065
 8623SOL    HW226769   2.310   2.069   3.080
 8624SOL     OW26770   3.223   3.914   5.239
 8624SOL    HW126771   3.206   3.864   5.324
 8624SOL    HW226772   3.157   3.988   5.229
 8625SOL     OW26773   4.473   3.482   5.985
 8625SOL    HW126774   4.455   3.506   5.889
 8625SOL    HW226775   4.411   3.409   6.013
 8626SOL     OW26776   4.599   1.958   1.667
 8626SOL    HW126777   4.633   1.870   1.700
 8626SOL    HW226778   4.503   1.948   1.640
 8627SOL     OW26779   0.958   0.268   2.687
 8627SOL    HW126780   0.931   0.364   2.696
 8627SOL    HW226781   0.912   0.228   2.608
 8628SOL     OW26782   1.553   6.989   1.065
 8628SOL    HW126783   1.515   6.954   1.151
 8628SOL    HW226784   1.511   0.050   1.044
 8629SOL     OW26785   0.173   0.133   4.359
 8629SOL    HW126786   0.135   0.042   4.370
 8629SOL    HW226787   0.272   0.127   4.341
 8630SOL     OW26788   4.749   2.481   1.546
 8630SOL    HW126789   4.731   2.401   1.604
 8630SOL    HW226790   4.845   2.481   1.519
 8631SOL     OW26791   1.718   6.387   6.288
 8631SOL    HW126792   1.759   6.331   6.360
 8631SOL    HW226793   1.631   6.345   6.259
 8632SOL     OW26794   6.134   5.839   3.975
 8632SOL    HW126795   6.055   5.878   4.024
 8632SOL    HW226796   6.218   5.877   4.013
 8633SOL     OW26797   6.567   3.161   5.802
 8633SOL    HW126798   6.567   3.258   5.828
 8633SOL    HW226799   6.473   3.130   5.791
 8634SOL     OW26800   5.158   5.036   6.335
 8634SOL    HW126801   5.208   4.958   6.373
 8634SOL    HW226802   5.069   5.006   6.301
 8635SOL     OW26803   4.846   2.270   6.595
 8635SOL    HW126804   4.860   2.283   6.496
 8635SOL    HW226805   4.928   2.297   6.644
 8636SOL     OW26806   3.918   6.139   1.448
 8636SOL    HW126807   3.895   6.144   1.545
 8636SOL    HW226808   3.836   6.112   1.396
 8637SOL     OW26809   2.793   2.584   0.059
 8637SOL    HW126810   2.854   2.622   7.016
 8637SOL    HW226811   2.839   2.587   0.148
 8638SOL     OW26812   5.015   2.516   4.545
 8638SOL    HW126813   4.931   2.563   4.519
 8638SOL    HW226814   4.999   2.417   4.547
 8639SOL     OW26815   2.928   4.617   0.379
 8639SOL    HW126816   2.905   4.651   0.288
 8639SOL    HW226817   2.895   4.681   0.448
 8640SOL     OW26818   3.869   2.449   0.201
 8640SOL    HW126819   3.960   2.460   0.162
 8640SOL    HW226820   3.866   2.489   0.292
 8641SOL     OW26821   2.948   4.814   3.404
 8641SOL    HW126822   2.945   4.898   3.459
 8641SOL    HW226823   2.855   4.781   3.389
 8642SOL     OW26824   2.385   6.121   3.180
 8642SOL    HW126825   2.322   6.198   3.193
 8642SOL    HW226826   2.465   6.133   3.238
 8643SOL     OW26827   4.077   6.335   1.369
 8643SOL    HW126828   4.137   6.300   1.298
 8643SOL    HW226829   4.026   6.260   1.410
 8644SOL     OW26830   6.108   2.787   6.253
 8644SOL    HW126831   6.193   2.796   6.304
 8644SOL    HW226832   6.117   2.713   6.186
 8645SOL     OW26833   4.863   4.913   2.467
 8645SOL    HW126834   4.932   4.850   2.431
 8645SOL    HW226835   4.812   4.868   2.540
 8646SOL     OW26836   0.188   2.026   5.279
 8646SOL    HW126837   0.132   2.099   5.240
 8646SOL    HW226838   0.163   1.939   5.238
 8647SOL     OW26839   2.047   5.285   1.660
 8647SOL    HW126840   2.045   5.230   1.743
 8647SOL    HW226841   2.103   5.366   1.675
 8648SOL     OW26842   5.398   5.343   0.303
 8648SOL    HW126843   5.460   5.341   0.224
 8648SOL    HW226844   5.320   5.283   0.285
 8649SOL     OW26845   5.581   1.733   1.720
 8649SOL    HW126846   5.485   1.758   1.732
 8649SOL    HW226847   5.588   1.651   1.663
 8650SOL     OW26848   2.259   0.955   5.474
 8650SOL    HW126849   2.317   0.895   5.529
 8650SOL    HW226850   2.298   0.964   5.382
 8651SOL     OW26851   3.839   1.898   2.152
 8651SOL    HW126852   3.848   1.996   2.171
 8651SOL    HW226853   3.754   1.864   2.191
 8652SOL     OW26854   6.932   2.227   4.143
 8652SOL    HW126855   7.022   2.254   4.177
 8652SOL    HW226856   6.943   2.169   4.062
 8653SOL     OW26857   5.742   1.416   0.121
 8653SOL    HW126858   5.797   1.334   0.136
 8653SOL    HW226859   5.711   1.452   0.209
 8654SOL     OW26860   0.542   4.908   2.949
 8654SOL    HW126861   0.589   4.863   2.872
 8654SOL    HW226862   0.461   4.856   2.974
 8655SOL     OW26863   1.255   0.069   4.938
 8655SOL    HW126864   1.292   0.068   5.031
 8655SOL    HW226865   1.157   0.092   4.942
 8656SOL     OW26866   4.406   5.654   0.935
 8656SOL    HW126867   4.448   5.637   0.846
 8656SOL    HW226868   4.390   5.752   0.947
 8657SOL     OW26869   3.306   1.649   2.703
 8657SOL    HW126870   3.326   1.713   2.777
 8657SOL    HW226871   3.235   1.585   2.732
 8658SOL     OW26872   6.345   3.656   1.064
 8658SOL    HW126873   6.319   3.750   1.040
 8658SOL    HW226874   6.299   3.631   1.150
 8659SOL     OW26875   3.981   0.719   3.304
 8659SOL    HW126876   4.021   0.775   3.231
 8659SOL    HW226877   4.023   0.628   3.302
 8660SOL     OW26878   0.031   3.543   1.645
 8660SOL    HW126879   0.093   3.605   1.694
 8660SOL    HW226880   6.989   3.509   1.709
 8661SOL     OW26881   6.146   3.777   2.553
 8661SOL    HW126882   6.226   3.835   2.564
 8661SOL    HW226883   6.064   3.834   2.542
 8662SOL     OW26884   1.532   2.188   2.684
 8662SOL    HW126885   1.476   2.238   2.618
 8662SOL    HW226886   1.612   2.243   2.709
 8663SOL     OW26887   3.484   4.895   2.972
 8663SOL    HW126888   3.461   4.851   3.058
 8663SOL    HW226889   3.401   4.911   2.919
 8664SOL     OW26890   3.152   6.314   4.092
 8664SOL    HW126891   3.158   6.409   4.125
 8664SOL    HW226892   3.193   6.253   4.160
 8665SOL     OW26893   6.436   4.155   6.535
 8665SOL    HW126894   6.512   4.091   6.542
 8665SOL    HW226895   6.352   4.112   6.569
 8666SOL     OW26896   4.723   0.627   3.117
 8666SOL    HW126897   4.683   0.716   3.138
 8666SOL    HW226898   4.766   0.631   3.026
 8667SOL     OW26899   5.312   2.068   2.094
 8667SOL    HW126900   5.391   2.094   2.039
 8667SOL    HW226901   5.234   2.126   2.070
 8668SOL     OW26902   4.573   1.938   4.417
 8668SOL    HW126903   4.515   2.006   4.459
 8668SOL    HW226904   4.638   1.902   4.484
 8669SOL     OW26905   0.233   6.140   6.211
 8669SOL    HW126906   0.227   6.235   6.179
 8669SOL    HW226907   0.196   6.079   6.141
 8670SOL     OW26908   0.044   5.413   5.525
 8670SOL    HW126909   0.133   5.457   5.534
 8670SOL    HW226910   0.056   5.316   5.504
 8671SOL     OW26911   0.048   2.871   3.575
 8671SOL    HW126912   0.113   2.946   3.578
 8671SOL    HW226913   0.045   2.825   3.663
 8672SOL     OW26914   6.508   1.360   2.388
 8672SOL    HW126915   6.516   1.263   2.365
 8672SOL    HW226916   6.412   1.384   2.400
 8673SOL     OW26917   1.058   1.221   1.517
 8673SOL    HW126918   0.977   1.193   1.567
 8673SOL    HW226919   1.054   1.320   1.500
 8674SOL     OW26920   0.367   3.312   3.389
 8674SOL    HW126921   0.420   3.328   3.472
 8674SOL    HW226922   0.429   3.292   3.313
 8675SOL     OW26923   4.603   2.895   5.180
 8675SOL    HW126924   4.608   2.855   5.088
 8675SOL    HW226925   4.672   2.968   5.188
 8676SOL     OW26926   4.318   2.164   0.644
 8676SOL    HW126927   4.252   2.188   0.716
 8676SOL    HW226928   4.411   2.167   0.682
 8677SOL     OW26929   2.877   0.755   0.143
 8677SOL    HW126930   2.845   0.833   0.197
 8677SOL    HW226931   2.841   0.670   0.181
 8678SOL     OW26932   3.092   1.990   0.335
 8678SOL    HW126933   3.156   1.989   0.412
 8678SOL    HW226934   3.090   1.899   0.292
 8679SOL     OW26935   1.783   1.788   6.628
 8679SOL    HW126936   1.696   1.827   6.598
 8679SOL    HW226937   1.847   1.789   6.552
 8680SOL     OW26938   0.099   0.498   0.864
 8680SOL    HW126939   0.053   0.575   0.820
 8680SOL    HW226940   0.173   0.532   0.922
 8681SOL     OW26941   5.567   4.896   1.069
 8681SOL    HW126942   5.606   4.876   1.159
 8681SOL    HW226943   5.590   4.823   1.005
 8682SOL     OW26944   2.462   0.887   2.988
 8682SOL    HW126945   2.363   0.899   2.986
 8682SOL    HW226946   2.484   0.795   3.021
 8683SOL     OW26947   2.494   4.496   3.838
 8683SOL    HW126948   2.498   4.517   3.935
 8683SOL    HW226949   2.495   4.397   3.825
 8684SOL     OW26950   2.242   4.076   3.498
 8684SOL    HW126951   2.278   4.014   3.569
 8684SOL    HW226952   2.265   4.170   3.522
 8685SOL     OW26953   5.085   3.606   5.021
 8685SOL    HW126954   4.986   3.591   5.022
 8685SOL    HW226955   5.125   3.568   5.105
 8686SOL     OW26956   1.097   5.082   2.925
 8686SOL    HW126957   1.193   5.102   2.943
 8686SOL    HW226958   1.051   5.057   3.010
 8687SOL     OW26959   5.479   4.459   5.631
 8687SOL    HW126960   5.489   4.552   5.596
 8687SOL    HW226961   5.431   4.403   5.563
 8688SOL     OW26962   0.757   4.156   4.782
 8688SOL    HW126963   0.781   4.214   4.860
 8688SOL    HW226964   0.835   4.099   4.758
 8689SOL     OW26965   4.522   3.429   1.037
 8689SOL    HW126966   4.506   3.375   1.120
 8689SOL    HW226967   4.613   3.409   1.001
 8690SOL     OW26968   1.447   2.233   1.912
 8690SOL    HW126969   1.420   2.327   1.933
 8690SOL    HW226970   1.399   2.171   1.974
 8691SOL     OW26971   3.514   1.549   6.850
 8691SOL    HW126972   3.508   1.454   6.820
 8691SOL    HW226973   3.431   1.573   6.900
 8692SOL     OW26974   5.183   2.275   4.663
 8692SOL    HW126975   5.183   2.330   4.747
 8692SOL    HW226976   5.268   2.291   4.613
 8693SOL     OW26977   0.217   0.518   5.694
 8693SOL    HW126978   0.134   0.524   5.638
 8693SOL    HW226979   0.195   0.536   5.790
 8694SOL     OW26980   4.012   4.050   5.392
 8694SOL    HW126981   4.068   4.104   5.455
 8694SOL    HW226982   4.069   3.980   5.348
 8695SOL     OW26983   3.701   4.971   1.176
 8695SOL    HW126984   3.665   4.884   1.210
 8695SOL    HW226985   3.794   4.957   1.141
 8696SOL     OW26986   3.248   5.993   6.501
 8696SOL    HW126987   3.165   5.977   6.448
 8696SOL    HW226988   3.258   6.091   6.519
 8697SOL     OW26989   1.408   3.519   4.974
 8697SOL    HW126990   1.359   3.451   4.919
 8697SOL    HW226991   1.484   3.476   5.021
 8698SOL     OW26992   5.130   3.879   0.169
 8698SOL    HW126993   5.070   3.837   0.101
 8698SOL    HW226994   5.142   3.815   0.246
 8699SOL     OW26995   2.771   2.174   1.274
 8699SOL    HW126996   2.789   2.237   1.350
 8699SOL    HW226997   2.857   2.130   1.247
 8700SOL     OW26998   0.117   1.928   4.473
 8700SOL    HW126999   0.168   1.875   4.541
 8700SOL    HW227000   0.179   1.955   4.399
 8701SOL     OW27001   1.829   3.610   6.426
 8701SOL    HW127002   1.749   3.660   6.460
 8701SOL    HW227003   1.805   3.514   6.413
 8702SOL     OW27004   5.800   4.040   1.547
 8702SOL    HW127005   5.739   4.040   1.469
 8702SOL    HW227006   5.753   4.078   1.627
 8703SOL     OW27007   1.886   5.594   2.233
 8703SOL    HW127008   1.983   5.615   2.235
 8703SOL    HW227009   1.855   5.564   2.323
 8704SOL     OW27010   6.577   1.179   4.054
 8704SOL    HW127011   6.555   1.112   4.125
 8704SOL    HW227012   6.675   1.198   4.056
 8705SOL     OW27013   3.522   2.289   0.540
 8705SOL    HW127014   3.499   2.207   0.593
 8705SOL    HW227015   3.563   2.357   0.601
 8706SOL     OW27016   4.741   2.880   5.718
 8706SOL    HW127017   4.840   2.877   5.731
 8706SOL    HW227018   4.697   2.819   5.784
 8707SOL     OW27019   0.869   0.846   3.780
 8707SOL    HW127020   0.828   0.911   3.715
 8707SOL    HW227021   0.843   0.872   3.873
 8708SOL     OW27022   5.760   2.401   0.570
 8708SOL    HW127023   5.767   2.338   0.491
 8708SOL    HW227024   5.848   2.403   0.618
 8709SOL     OW27025   6.633   6.270   3.673
 8709SOL    HW127026   6.625   6.249   3.575
 8709SOL    HW227027   6.646   6.186   3.724
 8710SOL     OW27028   2.438   2.521   3.844
 8710SOL    HW127029   2.526   2.476   3.861
 8710SOL    HW227030   2.439   2.565   3.754
 8711SOL     OW27031   1.981   1.317   2.479
 8711SOL    HW127032   2.052   1.290   2.414
 8711SOL    HW227033   1.950   1.410   2.458
 8712SOL     OW27034   1.710   3.730   4.528
 8712SOL    HW127035   1.713   3.664   4.453
 8712SOL    HW227036   1.742   3.819   4.495
 8713SOL     OW27037   0.052   3.798   2.657
 8713SOL    HW127038   0.011   3.707   2.651
 8713SOL    HW227039   0.151   3.791   2.645
 8714SOL     OW27040   6.779   3.987   6.568
 8714SOL    HW127041   6.801   4.064   6.627
 8714SOL    HW227042   6.843   3.984   6.492
 8715SOL     OW27043   2.561   5.265   0.755
 8715SOL    HW127044   2.564   5.323   0.836
 8715SOL    HW227045   2.655   5.244   0.726
 8716SOL     OW27046   5.656   0.515   2.356
 8716SOL    HW127047   5.575   0.555   2.313
 8716SOL    HW227048   5.629   0.436   2.411
 8717SOL     OW27049   3.453   2.036   0.632
 8717SOL    HW127050   3.501   1.995   0.554
 8717SOL    HW227051   3.420   1.965   0.693
 8718SOL     OW27052   2.903   5.450   6.251
 8718SOL    HW127053   2.816   5.499   6.240
 8718SOL    HW227054   2.906   5.373   6.187
 8719SOL     OW27055   3.007   1.845   4.908
 8719SOL    HW127056   3.077   1.866   4.977
 8719SOL    HW227057   3.031   1.889   4.822
 8720SOL     OW27058   0.655   6.019   4.960
 8720SOL    HW127059   0.704   6.043   4.876
 8720SOL    HW227060   0.671   6.090   5.029
 8721SOL     OW27061   1.097   0.761   1.108
 8721SOL    HW127062   1.152   0.826   1.055
 8721SOL    HW227063   1.009   0.747   1.063
 8722SOL     OW27064   4.055   1.265   0.344
 8722SOL    HW127065   4.108   1.208   0.281
 8722SOL    HW227066   4.098   1.262   0.434
 8723SOL     OW27067   4.118   6.170   3.137
 8723SOL    HW127068   4.142   6.245   3.075
 8723SOL    HW227069   4.022   6.145   3.123
 8724SOL     OW27070   3.163   0.935   5.370
 8724SOL    HW127071   3.221   0.920   5.290
 8724SOL    HW227072   3.090   0.867   5.372
 8725SOL     OW27073   6.774   0.835   2.284
 8725SOL    HW127074   6.746   0.905   2.219
 8725SOL    HW227075   6.865   0.801   2.260
 8726SOL     OW27076   6.665   1.197   0.582
 8726SOL    HW127077   6.664   1.153   0.492
 8726SOL    HW227078   6.747   1.254   0.591
 8727SOL     OW27079   4.765   5.532   6.768
 8727SOL    HW127080   4.776   5.619   6.817
 8727SOL    HW227081   4.828   5.530   6.690
 8728SOL     OW27082   6.130   6.403   4.191
 8728SOL    HW127083   6.166   6.384   4.283
 8728SOL    HW227084   6.194   6.367   4.123
 8729SOL     OW27085   5.756   6.009   5.786
 8729SOL    HW127086   5.779   5.935   5.849
 8729SOL    HW227087   5.828   6.078   5.790
 8730SOL     OW27088   3.903   4.788   1.666
 8730SOL    HW127089   3.938   4.699   1.637
 8730SOL    HW227090   3.927   4.804   1.761
 8731SOL     OW27091   0.317   2.397   3.935
 8731SOL    HW127092   0.398   2.451   3.912
 8731SOL    HW227093   0.271   2.437   4.014
 8732SOL     OW27094   5.330   6.384   5.438
 8732SOL    HW127095   5.418   6.420   5.407
 8732SOL    HW227096   5.267   6.375   5.361
 8733SOL     OW27097   6.552   4.396   2.088
 8733SOL    HW127098   6.487   4.330   2.050
 8733SOL    HW227099   6.641   4.352   2.097
 8734SOL     OW27100   1.170   5.201   1.175
 8734SOL    HW127101   1.177   5.296   1.204
 8734SOL    HW227102   1.168   5.196   1.075
 8735SOL     OW27103   1.134   3.093   6.157
 8735SOL    HW127104   1.166   3.102   6.252
 8735SOL    HW227105   1.168   3.170   6.103
 8736SOL     OW27106   1.679   6.190   3.194
 8736SOL    HW127107   1.735   6.149   3.266
 8736SOL    HW227108   1.606   6.245   3.235
 8737SOL     OW27109   0.078   5.577   6.544
 8737SOL    HW127110   0.023   5.546   6.621
 8737SOL    HW227111   0.055   5.672   6.522
 8738SOL     OW27112   2.170   3.172   2.247
 8738SOL    HW127113   2.199   3.154   2.341
 8738SOL    HW227114   2.170   3.086   2.195
 8739SOL     OW27115   4.509   4.531   2.729
 8739SOL    HW127116   4.571   4.453   2.719
 8739SOL    HW227117   4.513   4.564   2.824
 8740SOL     OW27118   2.761   1.562   3.426
 8740SOL    HW127119   2.820   1.561   3.506
 8740SOL    HW227120   2.818   1.561   3.343
 8741SOL     OW27121   1.721   2.183   2.337
 8741SOL    HW127122   1.746   2.091   2.368
 8741SOL    HW227123   1.749   2.195   2.242
 8742SOL     OW27124   1.879   3.137   1.904
 8742SOL    HW127125   1.962   3.191   1.919
 8742SOL    HW227126   1.900   3.040   1.916
 8743SOL     OW27127   0.865   3.545   7.010
 8743SOL    HW127128   0.825   3.465   6.966
 8743SOL    HW227129   0.902   3.519   0.073
 8744SOL     OW27130   3.390   4.111   6.284
 8744SOL    HW127131   3.303   4.061   6.285
 8744SOL    HW227132   3.387   4.185   6.351
 8745SOL     OW27133   5.801   1.733   6.493
 8745SOL    HW127134   5.728   1.763   6.555
 8745SOL    HW227135   5.862   1.811   6.473
 8746SOL     OW27136   4.130   4.931   4.767
 8746SOL    HW127137   4.221   4.963   4.743
 8746SOL    HW227138   4.132   4.887   4.857
 8747SOL     OW27139   0.690   6.988   2.196
 8747SOL    HW127140   0.638   6.929   2.257
 8747SOL    HW227141   0.773   7.019   2.242
 8748SOL     OW27142   5.624   1.651   4.184
 8748SOL    HW127143   5.526   1.643   4.207
 8748SOL    HW227144   5.666   1.721   4.242
 8749SOL     OW27145   2.853   1.874   4.252
 8749SOL    HW127146   2.938   1.923   4.267
 8749SOL    HW227147   2.790   1.932   4.199
 8750SOL     OW27148   4.046   3.560   1.247
 8750SOL    HW127149   4.093   3.479   1.212
 8750SOL    HW227150   4.061   3.637   1.185
 8751SOL     OW27151   2.157   0.197   0.589
 8751SOL    HW127152   2.160   0.227   0.494
 8751SOL    HW227153   2.250   0.194   0.626
 8752SOL     OW27154   0.359   3.272   6.067
 8752SOL    HW127155   0.331   3.271   6.163
 8752SOL    HW227156   0.296   3.216   6.014
 8753SOL     OW27157   2.182   1.785   1.060
 8753SOL    HW127158   2.202   1.879   1.033
 8753SOL    HW227159   2.258   1.726   1.033
 8754SOL     OW27160   1.136   6.037   5.753
 8754SOL    HW127161   1.191   6.046   5.836
 8754SOL    HW227162   1.041   6.065   5.774
 8755SOL     OW27163   0.823   2.356   1.701
 8755SOL    HW127164   0.843   2.359   1.799
 8755SOL    HW227165   0.755   2.426   1.679
 8756SOL     OW27166   1.666   1.806   2.238
 8756SOL    HW127167   1.594   1.738   2.247
 8756SOL    HW227168   1.727   1.781   2.162
 8757SOL     OW27169   5.736   5.872   4.530
 8757SOL    HW127170   5.680   5.824   4.462
 8757SOL    HW227171   5.730   5.971   4.513
 8758SOL     OW27172   3.614   5.432   6.380
 8758SOL    HW127173   3.532   5.481   6.348
 8758SOL    HW227174   3.652   5.379   6.304
 8759SOL     OW27175   6.578   1.363   1.637
 8759SOL    HW127176   6.481   1.354   1.614
 8759SOL    HW227177   6.587   1.422   1.717
 8760SOL     OW27178   1.977   2.087   4.450
 8760SOL    HW127179   2.057   2.036   4.482
 8760SOL    HW227180   1.910   2.093   4.524
 8761SOL     OW27181   4.772   2.820   3.264
 8761SOL    HW127182   4.769   2.840   3.362
 8761SOL    HW227183   4.689   2.771   3.238
 8762SOL     OW27184   4.503   6.220   3.164
 8762SOL    HW127185   4.532   6.205   3.070
 8762SOL    HW227186   4.496   6.319   3.182
 8763SOL     OW27187   6.805   1.398   5.438
 8763SOL    HW127188   6.787   1.460   5.362
 8763SOL    HW227189   6.842   1.312   5.403
 8764SOL     OW27190   3.468   4.829   6.042
 8764SOL    HW127191   3.500   4.923   6.028
 8764SOL    HW227192   3.405   4.805   5.969
 8765SOL     OW27193   4.808   6.657   4.013
 8765SOL    HW127194   4.710   6.638   4.011
 8765SOL    HW227195   4.856   6.577   4.050
 8766SOL     OW27196   5.975   0.296   4.782
 8766SOL    HW127197   6.030   0.310   4.864
 8766SOL    HW227198   5.908   0.369   4.774
 8767SOL     OW27199   1.975   1.036   5.000
 8767SOL    HW127200   1.999   0.948   5.040
 8767SOL    HW227201   2.013   1.110   5.056
 8768SOL     OW27202   6.726   1.666   1.057
 8768SOL    HW127203   6.659   1.674   1.131
 8768SOL    HW227204   6.711   1.740   0.991
 8769SOL     OW27205   6.521   6.750   6.004
 8769SOL    HW127206   6.539   6.652   6.000
 8769SOL    HW227207   6.608   6.800   6.003
 8770SOL     OW27208   4.565   1.503   0.255
 8770SOL    HW127209   4.482   1.488   0.308
 8770SOL    HW227210   4.644   1.497   0.315
 8771SOL     OW27211   0.596   2.403   6.373
 8771SOL    HW127212   0.629   2.458   6.297
 8771SOL    HW227213   0.584   2.308   6.343
 8772SOL     OW27214   0.652   6.731   3.502
 8772SOL    HW127215   0.637   6.756   3.406
 8772SOL    HW227216   0.739   6.682   3.510
 8773SOL     OW27217   0.218   1.083   3.712
 8773SOL    HW127218   0.292   1.126   3.764
 8773SOL    HW227219   0.181   1.149   3.647
 8774SOL     OW27220   1.314   2.181   6.915
 8774SOL    HW127221   1.270   2.093   6.898
 8774SOL    HW227222   1.339   2.188   7.012
 8775SOL     OW27223   5.193   2.026   2.789
 8775SOL    HW127224   5.202   1.991   2.696
 8775SOL    HW227225   5.163   1.953   2.850
 8776SOL     OW27226   5.222   2.466   1.622
 8776SOL    HW127227   5.138   2.521   1.625
 8776SOL    HW227228   5.301   2.527   1.621
 8777SOL     OW27229   6.781   2.079   4.324
 8777SOL    HW127230   6.854   2.103   4.260
 8777SOL    HW227231   6.820   2.042   4.408
 8778SOL     OW27232   2.272   3.891   6.896
 8778SOL    HW127233   2.175   3.914   6.897
 8778SOL    HW227234   2.287   3.804   6.941
 8779SOL     OW27235   4.054   5.884   3.149
 8779SOL    HW127236   4.068   5.983   3.145
 8779SOL    HW227237   3.974   5.864   3.205
 8780SOL     OW27238   0.979   4.131   4.308
 8780SOL    HW127239   1.077   4.133   4.327
 8780SOL    HW227240   0.964   4.125   4.209
 8781SOL     OW27241   3.457   1.821   1.749
 8781SOL    HW127242   3.362   1.825   1.719
 8781SOL    HW227243   3.469   1.878   1.830
 8782SOL     OW27244   6.810   2.595   0.354
 8782SOL    HW127245   6.801   2.580   0.256
 8782SOL    HW227246   6.745   2.537   0.403
 8783SOL     OW27247   3.828   3.772   5.293
 8783SOL    HW127248   3.769   3.740   5.367
 8783SOL    HW227249   3.913   3.810   5.331
 8784SOL     OW27250   4.514   0.917   6.338
 8784SOL    HW127251   4.602   0.914   6.290
 8784SOL    HW227252   4.529   0.907   6.436
 8785SOL     OW27253   0.126   6.068   6.457
 8785SOL    HW127254   0.169   6.147   6.500
 8785SOL    HW227255   0.119   6.082   6.358
 8786SOL     OW27256   5.568   2.592   3.164
 8786SOL    HW127257   5.593   2.502   3.128
 8786SOL    HW227258   5.583   2.661   3.093
 8787SOL     OW27259   3.386   4.876   2.501
 8787SOL    HW127260   3.441   4.889   2.419
 8787SOL    HW227261   3.293   4.848   2.475
 8788SOL     OW27262   0.056   6.030   3.804
 8788SOL    HW127263   0.002   6.114   3.795
 8788SOL    HW227264   0.005   5.954   3.764
 8789SOL     OW27265   1.433   3.419   0.037
 8789SOL    HW127266   1.421   3.348   6.995
 8789SOL    HW227267   1.519   3.405   0.085
 8790SOL     OW27268   5.026   3.022   5.155
 8790SOL    HW127269   5.102   3.084   5.135
 8790SOL    HW227270   4.999   2.974   5.072
 8791SOL     OW27271   4.294   6.099   5.162
 8791SOL    HW127272   4.381   6.148   5.177
 8791SOL    HW227273   4.313   6.009   5.124
 8792SOL     OW27274   5.685   5.103   0.635
 8792SOL    HW127275   5.656   5.008   0.649
 8792SOL    HW227276   5.605   5.162   0.641
 8793SOL     OW27277   6.120   7.023   5.546
 8793SOL    HW127278   6.113   0.055   5.627
 8793SOL    HW227279   6.041   0.013   5.487
 8794SOL     OW27280   0.330   2.221   3.166
 8794SOL    HW127281   0.343   2.315   3.201
 8794SOL    HW227282   0.242   2.215   3.119
 8795SOL     OW27283   1.575   0.035   6.692
 8795SOL    HW127284   1.527   6.977   6.713
 8795SOL    HW227285   1.672   0.016   6.676
 8796SOL     OW27286   5.665   4.583   4.502
 8796SOL    HW127287   5.618   4.520   4.564
 8796SOL    HW227288   5.697   4.663   4.553
 8797SOL     OW27289   4.916   6.174   5.056
 8797SOL    HW127290   4.929   6.170   4.957
 8797SOL    HW227291   4.852   6.247   5.080
 8798SOL     OW27292   1.576   5.910   5.809
 8798SOL    HW127293   1.586   5.833   5.872
 8798SOL    HW227294   1.491   5.958   5.829
 8799SOL     OW27295   1.696   6.523   1.884
 8799SOL    HW127296   1.644   6.509   1.800
 8799SOL    HW227297   1.742   6.438   1.909
 8800SOL     OW27298   6.558   5.722   3.839
 8800SOL    HW127299   6.502   5.754   3.763
 8800SOL    HW227300   6.550   5.623   3.847
 8801SOL     OW27301   4.755   3.308   5.579
 8801SOL    HW127302   4.791   3.376   5.642
 8801SOL    HW227303   4.695   3.352   5.512
 8802SOL     OW27304   1.222   6.617   6.768
 8802SOL    HW127305   1.153   6.670   6.718
 8802SOL    HW227306   1.285   6.576   6.703
 8803SOL     OW27307   5.304   5.390   5.047
 8803SOL    HW127308   5.292   5.323   5.120
 8803SOL    HW227309   5.217   5.403   5.000
 8804SOL     OW27310   1.486   0.034   2.076
 8804SOL    HW127311   1.525   0.120   2.043
 8804SOL    HW227312   1.560   6.999   2.103
 8805SOL     OW27313   5.141   4.732   2.080
 8805SOL    HW127314   5.167   4.778   1.995
 8805SOL    HW227315   5.105   4.800   2.144
 8806SOL     OW27316   1.145   0.962   1.995
 8806SOL    HW127317   1.105   1.054   2.001
 8806SOL    HW227318   1.161   0.926   2.087
 8807SOL     OW27319   6.208   2.433   1.812
 8807SOL    HW127320   6.141   2.362   1.793
 8807SOL    HW227321   6.230   2.433   1.910
 8808SOL     OW27322   1.565   1.744   0.354
 8808SOL    HW127323   1.641   1.686   0.383
 8808SOL    HW227324   1.481   1.715   0.399
 8809SOL     OW27325   0.703   3.742   2.985
 8809SOL    HW127326   0.667   3.692   3.064
 8809SOL    HW227327   0.755   3.821   3.016
 8810SOL     OW27328   6.649   2.310   4.427
 8810SOL    HW127329   6.691   2.237   4.372
 8810SOL    HW227330   6.556   2.327   4.393
 8811SOL     OW27331   3.693   5.169   2.140
 8811SOL    HW127332   3.607   5.179   2.190
 8811SOL    HW227333   3.724   5.074   2.146
 8812SOL     OW27334   5.841   0.547   0.321
 8812SOL    HW127335   5.916   0.601   0.283
 8812SOL    HW227336   5.756   0.572   0.276
 8813SOL     OW27337   1.531   2.885   1.804
 8813SOL    HW127338   1.594   2.813   1.834
 8813SOL    HW227339   1.571   2.934   1.727
 8814SOL     OW27340   5.491   0.020   4.734
 8814SOL    HW127341   5.433   0.085   4.783
 8814SOL    HW227342   5.580   0.013   4.779
 8815SOL     OW27343   5.144   1.005   0.975
 8815SOL    HW127344   5.098   0.943   0.911
 8815SOL    HW227345   5.088   1.016   1.057
 8816SOL     OW27346   6.674   0.228   3.412
 8816SOL    HW127347   6.669   0.129   3.401
 8816SOL    HW227348   6.686   0.271   3.323
 8817SOL     OW27349   1.272   2.262   3.644
 8817SOL    HW127350   1.339   2.333   3.668
 8817SOL    HW227351   1.244   2.273   3.549
 8818SOL     OW27352   1.411   6.424   6.289
 8818SOL    HW127353   1.410   6.483   6.370
 8818SOL    HW227354   1.432   6.479   6.208
 8819SOL     OW27355   5.104   6.117   5.943
 8819SOL    HW127356   5.020   6.071   5.914
 8819SOL    HW227357   5.183   6.061   5.917
 8820SOL     OW27358   3.738   6.625   5.837
 8820SOL    HW127359   3.655   6.679   5.825
 8820SOL    HW227360   3.813   6.667   5.786
 8821SOL     OW27361   0.512   5.361   5.499
 8821SOL    HW127362   0.427   5.324   5.461
 8821SOL    HW227363   0.577   5.376   5.425
 8822SOL     OW27364   6.308   0.065   4.817
 8822SOL    HW127365   6.316   0.049   4.916
 8822SOL    HW227366   6.214   0.046   4.788
 8823SOL     OW27367   4.736   2.156   3.156
 8823SOL    HW127368   4.754   2.158   3.057
 8823SOL    HW227369   4.659   2.095   3.175
 8824SOL     OW27370   1.703   0.263   4.245
 8824SOL    HW127371   1.640   0.268   4.167
 8824SOL    HW227372   1.757   0.347   4.249
 8825SOL     OW27373   1.144   6.960   0.367
 8825SOL    HW127374   1.144   0.016   0.423
 8825SOL    HW227375   1.111   6.883   0.422
 8826SOL     OW27376   0.485   3.910   0.428
 8826SOL    HW127377   0.530   3.843   0.486
 8826SOL    HW227378   0.529   3.999   0.438
 8827SOL     OW27379   4.850   6.367   3.516
 8827SOL    HW127380   4.869   6.274   3.485
 8827SOL    HW227381   4.935   6.412   3.541
 8828SOL     OW27382   5.318   2.569   6.074
 8828SOL    HW127383   5.333   2.470   6.079
 8828SOL    HW227384   5.329   2.600   5.980
 8829SOL     OW27385   6.133   1.089   3.034
 8829SOL    HW127386   6.080   1.169   3.061
 8829SOL    HW227387   6.153   1.034   3.115
 8830SOL     OW27388   3.335   0.767   2.865
 8830SOL    HW127389   3.320   0.859   2.901
 8830SOL    HW227390   3.408   0.723   2.918
 8831SOL     OW27391   0.754   2.772   2.749
 8831SOL    HW127392   0.744   2.739   2.843
 8831SOL    HW227393   0.849   2.761   2.720
 8832SOL     OW27394   5.788   0.270   5.145
 8832SOL    HW127395   5.775   0.298   5.240
 8832SOL    HW227396   5.881   0.236   5.133
 8833SOL     OW27397   4.832   2.835   0.821
 8833SOL    HW127398   4.892   2.785   0.884
 8833SOL    HW227399   4.868   2.827   0.728
 8834SOL     OW27400   5.652   4.633   6.255
 8834SOL    HW127401   5.704   4.600   6.334
 8834SOL    HW227402   5.695   4.601   6.171
 8835SOL     OW27403   6.556   0.934   5.136
 8835SOL    HW127404   6.462   0.966   5.148
 8835SOL    HW227405   6.620   1.008   5.156
 8836SOL     OW27406   4.221   1.133   1.391
 8836SOL    HW127407   4.132   1.138   1.347
 8836SOL    HW227408   4.264   1.224   1.390
 8837SOL     OW27409   4.540   5.002   0.380
 8837SOL    HW127410   4.570   5.037   0.469
 8837SOL    HW227411   4.469   4.933   0.393
 8838SOL     OW27412   1.910   3.992   2.408
 8838SOL    HW127413   1.898   4.059   2.336
 8838SOL    HW227414   1.929   3.902   2.367
 8839SOL     OW27415   4.286   4.581   1.373
 8839SOL    HW127416   4.366   4.555   1.428
 8839SOL    HW227417   4.317   4.631   1.292
 8840SOL     OW27418   0.481   0.686   1.677
 8840SOL    HW127419   0.476   0.640   1.766
 8840SOL    HW227420   0.399   0.740   1.662
 8841SOL     OW27421   3.702   1.272   1.365
 8841SOL    HW127422   3.684   1.371   1.370
 8841SOL    HW227423   3.679   1.239   1.274
 8842SOL     OW27424   3.439   3.324   3.644
 8842SOL    HW127425   3.403   3.417   3.638
 8842SOL    HW227426   3.479   3.310   3.735
 8843SOL     OW27427   2.280   6.161   5.445
 8843SOL    HW127428   2.333   6.118   5.372
 8843SOL    HW227429   2.339   6.174   5.525
 8844SOL     OW27430   3.531   2.870   5.849
 8844SOL    HW127431   3.618   2.851   5.803
 8844SOL    HW227432   3.524   2.968   5.868
 8845SOL     OW27433   0.425   3.622   2.333
 8845SOL    HW127434   0.407   3.531   2.370
 8845SOL    HW227435   0.403   3.624   2.235
 8846SOL     OW27436   5.412   5.450   4.203
 8846SOL    HW127437   5.348   5.511   4.157
 8846SOL    HW227438   5.385   5.439   4.299
 8847SOL     OW27439   0.597   2.212   3.754
 8847SOL    HW127440   0.691   2.189   3.727
 8847SOL    HW227441   0.598   2.258   3.842
 8848SOL     OW27442   6.293   2.191   0.983
 8848SOL    HW127443   6.229   2.190   1.061
 8848SOL    HW227444   6.277   2.111   0.926
 8849SOL     OW27445   2.855   5.476   4.546
 8849SOL    HW127446   2.815   5.414   4.614
 8849SOL    HW227447   2.911   5.423   4.482
 8850SOL     OW27448   3.358   2.726   0.933
 8850SOL    HW127449   3.441   2.685   0.969
 8850SOL    HW227450   3.278   2.678   0.970
 8851SOL     OW27451   6.890   4.941   2.604
 8851SOL    HW127452   6.911   4.928   2.700
 8851SOL    HW227453   6.976   4.953   2.553
 8852SOL     OW27454   5.151   3.492   4.544
 8852SOL    HW127455   5.225   3.553   4.513
 8852SOL    HW227456   5.142   3.416   4.480
 8853SOL     OW27457   4.989   1.781   4.976
 8853SOL    HW127458   5.059   1.723   4.935
 8853SOL    HW227459   4.910   1.785   4.915
 8854SOL     OW27460   2.896   1.281   5.835
 8854SOL    HW127461   2.867   1.367   5.878
 8854SOL    HW227462   2.869   1.281   5.739
 8855SOL     OW27463   6.201   4.897   6.272
 8855SOL    HW127464   6.254   4.827   6.223
 8855SOL    HW227465   6.104   4.884   6.255
 8856SOL     OW27466   5.862   1.460   5.513
 8856SOL    HW127467   5.831   1.465   5.418
 8856SOL    HW227468   5.932   1.390   5.522
 8857SOL     OW27469   2.130   3.297   4.606
 8857SOL    HW127470   2.126   3.393   4.580
 8857SOL    HW227471   2.053   3.275   4.665
 8858SOL     OW27472   0.133   3.443   5.486
 8858SOL    HW127473   0.071   3.366   5.501
 8858SOL    HW227474   0.103   3.522   5.540
 8859SOL     OW27475   2.550   6.510   5.700
 8859SOL    HW127476   2.623   6.487   5.636
 8859SOL    HW227477   2.581   6.495   5.794
 8860SOL     OW27478   2.042   1.563   1.165
 8860SOL    HW127479   2.105   1.488   1.147
 8860SOL    HW227480   2.065   1.641   1.107
 8861SOL     OW27481   2.202   2.692   0.652
 8861SOL    HW127482   2.115   2.726   0.618
 8861SOL    HW227483   2.271   2.700   0.581
 8862SOL     OW27484   6.585   1.904   4.615
 8862SOL    HW127485   6.605   1.991   4.661
 8862SOL    HW227486   6.669   1.850   4.609
 8863SOL     OW27487   1.891   5.685   5.335
 8863SOL    HW127488   1.830   5.761   5.313
 8863SOL    HW227489   1.919   5.639   5.250
 8864SOL     OW27490   1.902   4.149   5.819
 8864SOL    HW127491   1.934   4.122   5.728
 8864SOL    HW227492   1.980   4.160   5.880
 8865SOL     OW27493   3.113   2.163   5.861
 8865SOL    HW127494   3.084   2.068   5.874
 8865SOL    HW227495   3.074   2.199   5.776
 8866SOL     OW27496   4.999   0.291   5.427
 8866SOL    HW127497   4.976   0.229   5.502
 8866SOL    HW227498   5.023   0.380   5.464
 8867SOL     OW27499   6.270   1.042   4.010
 8867SOL    HW127500   6.339   0.973   3.986
 8867SOL    HW227501   6.246   1.033   4.106
 8868SOL     OW27502   5.257   3.522   0.834
 8868SOL    HW127503   5.198   3.454   0.790
 8868SOL    HW227504   5.200   3.587   0.885
 8869SOL     OW27505   3.274   1.942   3.193
 8869SOL    HW127506   3.349   1.908   3.136
 8869SOL    HW227507   3.222   1.865   3.229
 8870SOL     OW27508   4.665   0.851   2.192
 8870SOL    HW127509   4.679   0.933   2.246
 8870SOL    HW227510   4.753   0.810   2.169
 8871SOL     OW27511   1.715   2.193   3.725
 8871SOL    HW127512   1.778   2.250   3.671
 8871SOL    HW227513   1.653   2.145   3.664
 8872SOL     OW27514   1.093   2.246   2.018
 8872SOL    HW127515   1.120   2.297   1.936
 8872SOL    HW227516   1.009   2.194   1.998
 8873SOL     OW27517   0.063   5.812   4.701
 8873SOL    HW127518   0.049   5.893   4.644
 8873SOL    HW227519   0.037   5.833   4.795
 8874SOL     OW27520   0.893   1.536   6.442
 8874SOL    HW127521   0.977   1.581   6.471
 8874SOL    HW227522   0.827   1.605   6.412
 8875SOL     OW27523   1.224   0.821   4.696
 8875SOL    HW127524   1.239   0.896   4.632
 8875SOL    HW227525   1.210   0.736   4.644
 8876SOL     OW27526   2.996   0.880   4.724
 8876SOL    HW127527   3.085   0.858   4.686
 8876SOL    HW227528   2.934   0.802   4.712
 8877SOL     OW27529   2.867   6.900   4.332
 8877SOL    HW127530   2.866   6.823   4.396
 8877SOL    HW227531   2.959   6.939   4.328
 8878SOL     OW27532   5.617   4.966   5.156
 8878SOL    HW127533   5.624   5.047   5.097
 8878SOL    HW227534   5.688   4.900   5.131
 8879SOL     OW27535   4.502   5.552   4.460
 8879SOL    HW127536   4.596   5.586   4.468
 8879SOL    HW227537   4.444   5.623   4.419
 8880SOL     OW27538   0.556   6.624   4.903
 8880SOL    HW127539   0.650   6.621   4.939
 8880SOL    HW227540   0.499   6.562   4.957
 8881SOL     OW27541   6.920   1.527   2.307
 8881SOL    HW127542   6.857   1.468   2.358
 8881SOL    HW227543   6.889   1.622   2.312
 8882SOL     OW27544   4.996   2.652   0.321
 8882SOL    HW127545   5.008   2.712   0.400
 8882SOL    HW227546   4.900   2.652   0.294
 8883SOL     OW27547   6.157   0.867   5.536
 8883SOL    HW127548   6.176   0.965   5.540
 8883SOL    HW227549   6.235   0.820   5.494
 8884SOL     OW27550   0.212   1.662   6.578
 8884SOL    HW127551   0.306   1.666   6.610
 8884SOL    HW227552   0.198   1.579   6.524
 8885SOL     OW27553   5.581   3.517   1.601
 8885SOL    HW127554   5.496   3.465   1.609
 8885SOL    HW227555   5.560   3.612   1.577
 8886SOL     OW27556   2.990   5.759   5.918
 8886SOL    HW127557   3.074   5.708   5.936
 8886SOL    HW227558   2.926   5.700   5.868
 8887SOL     OW27559   1.878   1.522   0.944
 8887SOL    HW127560   1.789   1.477   0.942
 8887SOL    HW227561   1.925   1.498   1.030
 8888SOL     OW27562   2.770   1.808   3.082
 8888SOL    HW127563   2.846   1.868   3.058
 8888SOL    HW227564   2.703   1.858   3.136
 8889SOL     OW27565   3.352   0.787   4.380
 8889SOL    HW127566   3.437   0.823   4.418
 8889SOL    HW227567   3.368   0.696   4.341
 8890SOL     OW27568   0.225   4.250   3.345
 8890SOL    HW127569   0.165   4.171   3.333
 8890SOL    HW227570   0.171   4.334   3.339
 8891SOL     OW27571   2.873   1.503   6.035
 8891SOL    HW127572   2.971   1.497   6.015
 8891SOL    HW227573   2.846   1.599   6.042
 8892SOL     OW27574   1.203   0.082   2.704
 8892SOL    HW127575   1.263   0.138   2.647
 8892SOL    HW227576   1.109   0.118   2.697
 8893SOL     OW27577   0.441   1.186   0.734
 8893SOL    HW127578   0.490   1.158   0.652
 8893SOL    HW227579   0.359   1.237   0.708
 8894SOL     OW27580   4.556   2.807   6.182
 8894SOL    HW127581   4.632   2.807   6.246
 8894SOL    HW227582   4.579   2.751   6.102
 8895SOL     OW27583   1.985   1.353   3.059
 8895SOL    HW127584   2.039   1.428   3.022
 8895SOL    HW227585   1.897   1.388   3.092
 8896SOL     OW27586   2.120   4.226   5.184
 8896SOL    HW127587   2.211   4.190   5.205
 8896SOL    HW227588   2.070   4.159   5.129
 8897SOL     OW27589   0.977   2.575   1.534
 8897SOL    HW127590   1.041   2.639   1.576
 8897SOL    HW227591   1.014   2.544   1.446
 8898SOL     OW27592   0.539   3.012   5.307
 8898SOL    HW127593   0.486   3.084   5.263
 8898SOL    HW227594   0.485   2.970   5.380
 8899SOL     OW27595   3.218   5.480   1.687
 8899SOL    HW127596   3.257   5.392   1.715
 8899SOL    HW227597   3.142   5.464   1.624
 8900SOL     OW27598   6.888   1.787   3.520
 8900SOL    HW127599   6.795   1.761   3.492
 8900SOL    HW227600   6.882   1.842   3.604
 8901SOL     OW27601   2.048   0.087   1.698
 8901SOL    HW127602   2.049   0.162   1.632
 8901SOL    HW227603   2.096   0.008   1.660
 8902SOL     OW27604   3.330   6.367   5.722
 8902SOL    HW127605   3.409   6.426   5.704
 8902SOL    HW227606   3.314   6.362   5.820
 8903SOL     OW27607   6.640   0.093   2.601
 8903SOL    HW127608   6.598   0.012   2.559
 8903SOL    HW227609   6.586   0.174   2.578
 8904SOL     OW27610   1.344   4.839   3.140
 8904SOL    HW127611   1.302   4.789   3.217
 8904SOL    HW227612   1.399   4.776   3.086
 8905SOL     OW27613   2.207   4.097   4.776
 8905SOL    HW127614   2.240   4.073   4.868
 8905SOL    HW227615   2.112   4.126   4.782
 8906SOL     OW27616   2.215   5.083   4.596
 8906SOL    HW127617   2.237   5.061   4.692
 8906SOL    HW227618   2.116   5.092   4.586
 8907SOL     OW27619   3.535   2.400   6.650
 8907SOL    HW127620   3.562   2.311   6.614
 8907SOL    HW227621   3.568   2.472   6.589
 8908SOL     OW27622   0.978   2.681   2.970
 8908SOL    HW127623   0.885   2.695   3.002
 8908SOL    HW227624   1.038   2.751   3.010
 8909SOL     OW27625   3.576   0.254   5.578
 8909SOL    HW127626   3.543   0.168   5.618
 8909SOL    HW227627   3.543   0.262   5.484
 8910SOL     OW27628   3.846   3.064   0.185
 8910SOL    HW127629   3.840   3.107   0.275
 8910SOL    HW227630   3.866   2.967   0.196
 8911SOL     OW27631   5.348   2.130   3.368
 8911SOL    HW127632   5.349   2.129   3.468
 8911SOL    HW227633   5.389   2.215   3.336
 8912SOL     OW27634   4.941   0.785   6.681
 8912SOL    HW127635   4.950   0.880   6.711
 8912SOL    HW227636   5.032   0.745   6.669
 8913SOL     OW27637   4.387   4.047   1.320
 8913SOL    HW127638   4.339   4.048   1.233
 8913SOL    HW227639   4.324   4.018   1.393
 8914SOL     OW27640   4.656   2.310   3.839
 8914SOL    HW127641   4.642   2.259   3.755
 8914SOL    HW227642   4.746   2.355   3.836
 8915SOL     OW27643   0.998   5.222   2.206
 8915SOL    HW127644   1.063   5.265   2.143
 8915SOL    HW227645   1.017   5.251   2.299
 8916SOL     OW27646   5.814   3.327   2.566
 8916SOL    HW127647   5.744   3.389   2.532
 8916SOL    HW227648   5.779   3.276   2.644
 8917SOL     OW27649   5.400   4.794   5.078
 8917SOL    HW127650   5.372   4.708   5.120
 8917SOL    HW227651   5.468   4.839   5.135
 8918SOL     OW27652   4.783   3.915   6.228
 8918SOL    HW127653   4.795   3.827   6.182
 8918SOL    HW227654   4.858   3.977   6.204
 8919SOL     OW27655   2.236   3.362   1.618
 8919SOL    HW127656   2.198   3.333   1.530
 8919SOL    HW227657   2.279   3.284   1.663
 8920SOL     OW27658   6.715   5.406   5.539
 8920SOL    HW127659   6.811   5.429   5.520
 8920SOL    HW227660   6.711   5.340   5.613
 8921SOL     OW27661   0.762   5.423   3.722
 8921SOL    HW127662   0.691   5.358   3.750
 8921SOL    HW227663   0.754   5.506   3.777
 8922SOL     OW27664   6.956   3.889   6.353
 8922SOL    HW127665   0.008   3.944   6.380
 8922SOL    HW227666   6.985   3.818   6.288
 8923SOL     OW27667   2.500   4.529   4.376
 8923SOL    HW127668   2.527   4.503   4.469
 8923SOL    HW227669   2.406   4.501   4.359
 8924SOL     OW27670   2.191   6.467   4.935
 8924SOL    HW127671   2.286   6.478   4.905
 8924SOL    HW227672   2.131   6.457   4.855
 8925SOL     OW27673   4.776   5.387   1.373
 8925SOL    HW127674   4.763   5.392   1.472
 8925SOL    HW227675   4.806   5.295   1.348
 8926SOL     OW27676   5.901   0.228   7.008
 8926SOL    HW127677   5.942   0.212   6.918
 8926SOL    HW227678   5.939   0.311   0.021
 8927SOL     OW27679   2.460   1.586   4.581
 8927SOL    HW127680   2.407   1.662   4.617
 8927SOL    HW227681   2.543   1.621   4.537
 8928SOL     OW27682   0.942   0.083   4.959
 8928SOL    HW127683   0.860   0.130   4.928
 8928SOL    HW227684   0.932   0.058   5.055
 8929SOL     OW27685   5.284   4.083   3.706
 8929SOL    HW127686   5.216   4.150   3.735
 8929SOL    HW227687   5.308   4.025   3.784
 8930SOL     OW27688   0.495   5.604   5.308
 8930SOL    HW127689   0.533   5.522   5.265
 8930SOL    HW227690   0.553   5.683   5.288
 8931SOL     OW27691   4.485   1.265   1.515
 8931SOL    HW127692   4.552   1.337   1.535
 8931SOL    HW227693   4.521   1.177   1.544
 8932SOL     OW27694   5.637   1.051   0.222
 8932SOL    HW127695   5.566   1.116   0.251
 8932SOL    HW227696   5.600   0.958   0.224
 8933SOL     OW27697   1.513   0.359   5.330
 8933SOL    HW127698   1.482   0.446   5.292
 8933SOL    HW227699   1.604   0.338   5.296
 8934SOL     OW27700   3.932   6.754   4.275
 8934SOL    HW127701   3.903   6.773   4.369
 8934SOL    HW227702   3.854   6.722   4.222
 8935SOL     OW27703   5.719   1.726   2.810
 8935SOL    HW127704   5.686   1.654   2.748
 8935SOL    HW227705   5.770   1.794   2.758
 8936SOL     OW27706   1.388   4.075   2.235
 8936SOL    HW127707   1.470   4.033   2.196
 8936SOL    HW227708   1.382   4.053   2.332
 8937SOL     OW27709   3.328   0.164   4.942
 8937SOL    HW127710   3.266   0.243   4.942
 8937SOL    HW227711   3.309   0.107   5.021
 8938SOL     OW27712   5.646   6.363   1.286
 8938SOL    HW127713   5.569   6.349   1.223
 8938SOL    HW227714   5.672   6.460   1.285
 8939SOL     OW27715   0.001   2.986   4.930
 8939SOL    HW127716   6.942   2.952   4.969
 8939SOL    HW227717   0.035   3.062   4.985
 8940SOL     OW27718   6.450   3.131   2.591
 8940SOL    HW127719   6.505   3.049   2.574
 8940SOL    HW227720   6.473   3.201   2.523
 8941SOL     OW27721   5.802   2.142   3.188
 8941SOL    HW127722   5.785   2.066   3.125
 8941SOL    HW227723   5.840   2.107   3.273
 8942SOL     OW27724   4.633   4.906   3.833
 8942SOL    HW127725   4.644   4.829   3.895
 8942SOL    HW227726   4.669   4.989   3.876
 8943SOL     OW27727   4.128   3.432   0.738
 8943SOL    HW127728   4.152   3.428   0.835
 8943SOL    HW227729   4.130   3.340   0.699
 8944SOL     OW27730   4.911   6.542   5.099
 8944SOL    HW127731   4.898   6.475   5.026
 8944SOL    HW227732   4.922   6.633   5.060
 8945SOL     OW27733   6.302   4.951   1.566
 8945SOL    HW127734   6.356   4.879   1.521
 8945SOL    HW227735   6.239   4.991   1.500
 8946SOL     OW27736   3.449   1.483   4.724
 8946SOL    HW127737   3.398   1.485   4.637
 8946SOL    HW227738   3.543   1.511   4.707
 8947SOL     OW27739   2.605   5.248   0.399
 8947SOL    HW127740   2.506   5.237   0.412
 8947SOL    HW227741   2.654   5.201   0.473
 8948SOL     OW27742   5.440   0.380   2.837
 8948SOL    HW127743   5.363   0.400   2.776
 8948SOL    HW227744   5.474   0.466   2.875
 8949SOL     OW27745   3.496   6.310   0.993
 8949SOL    HW127746   3.516   6.402   1.026
 8949SOL    HW227747   3.492   6.247   1.071
 8950SOL     OW27748   3.528   3.964   3.005
 8950SOL    HW127749   3.552   4.026   2.931
 8950SOL    HW227750   3.612   3.927   3.047
 8951SOL     OW27751   0.446   0.803   3.962
 8951SOL    HW127752   0.377   0.834   3.896
 8951SOL    HW227753   0.466   0.706   3.946
 8952SOL     OW27754   1.202   4.064   4.859
 8952SOL    HW127755   1.164   4.049   4.950
 8952SOL    HW227756   1.259   3.986   4.833
 8953SOL     OW27757   0.483   5.286   0.741
 8953SOL    HW127758   0.421   5.347   0.791
 8953SOL    HW227759   0.527   5.224   0.805
 8954SOL     OW27760   2.405   4.524   5.473
 8954SOL    HW127761   2.353   4.546   5.391
 8954SOL    HW227762   2.372   4.438   5.511
 8955SOL     OW27763   6.146   3.192   6.123
 8955SOL    HW127764   6.201   3.117   6.087
 8955SOL    HW227765   6.188   3.227   6.207
 8956SOL     OW27766   0.681   6.158   0.488
 8956SOL    HW127767   0.663   6.068   0.529
 8956SOL    HW227768   0.717   6.220   0.558
 8957SOL     OW27769   1.611   0.188   3.582
 8957SOL    HW127770   1.526   0.136   3.589
 8957SOL    HW227771   1.591   0.285   3.590
 8958SOL     OW27772   6.629   3.658   4.893
 8958SOL    HW127773   6.605   3.569   4.933
 8958SOL    HW227774   6.724   3.679   4.913
 8959SOL     OW27775   5.088   1.860   4.090
 8959SOL    HW127776   5.092   1.837   4.187
 8959SOL    HW227777   4.994   1.856   4.058
 8960SOL     OW27778   5.231   4.920   2.452
 8960SOL    HW127779   5.208   4.848   2.518
 8960SOL    HW227780   5.255   5.003   2.501
 8961SOL     OW27781   2.236   1.720   5.429
 8961SOL    HW127782   2.319   1.773   5.441
 8961SOL    HW227783   2.190   1.748   5.345
 8962SOL     OW27784   6.888   6.062   2.173
 8962SOL    HW127785   6.865   5.995   2.243
 8962SOL    HW227786   6.807   6.115   2.149
 8963SOL     OW27787   2.251   6.179   5.998
 8963SOL    HW127788   2.260   6.121   5.918
 8963SOL    HW227789   2.154   6.198   6.015
 8964SOL     OW27790   1.376   2.776   3.615
 8964SOL    HW127791   1.457   2.788   3.558
 8964SOL    HW227792   1.398   2.715   3.691
 8965SOL     OW27793   3.616   5.991   0.322
 8965SOL    HW127794   3.523   6.012   0.350
 8965SOL    HW227795   3.617   5.904   0.272
 8966SOL     OW27796   5.195   0.013   5.628
 8966SOL    HW127797   5.160   6.988   5.705
 8966SOL    HW227798   5.168   6.996   5.542
 8967SOL     OW27799   2.869   0.291   3.055
 8967SOL    HW127800   2.947   0.333   3.101
 8967SOL    HW227801   2.882   0.192   3.053
 8968SOL     OW27802   2.894   5.138   2.803
 8968SOL    HW127803   2.935   5.055   2.765
 8968SOL    HW227804   2.811   5.160   2.753
 8969SOL     OW27805   0.004   1.316   2.597
 8969SOL    HW127806   6.961   1.373   2.554
 8969SOL    HW227807   7.000   1.221   2.596
 8970SOL     OW27808   2.383   1.668   3.745
 8970SOL    HW127809   2.346   1.644   3.656
 8970SOL    HW227810   2.384   1.587   3.803
 8971SOL     OW27811   2.983   4.718   1.176
 8971SOL    HW127812   2.930   4.801   1.161
 8971SOL    HW227813   3.001   4.706   1.274
 8972SOL     OW27814   6.208   3.995   6.550
 8972SOL    HW127815   6.138   3.977   6.619
 8972SOL    HW227816   6.166   3.991   6.459
 8973SOL     OW27817   2.536   1.648   4.121
 8973SOL    HW127818   2.578   1.708   4.053
 8973SOL    HW227819   2.540   1.690   4.211
 8974SOL     OW27820   1.998   4.442   5.085
 8974SOL    HW127821   1.917   4.433   5.143
 8974SOL    HW227822   2.065   4.372   5.111
 8975SOL     OW27823   0.561   3.093   6.158
 8975SOL    HW127824   0.494   3.157   6.120
 8975SOL    HW227825   0.526   3.056   6.244
 8976SOL     OW27826   5.811   0.421   1.551
 8976SOL    HW127827   5.783   0.504   1.502
 8976SOL    HW227828   5.911   0.419   1.558
 8977SOL     OW27829   7.006   5.043   6.153
 8977SOL    HW127830   0.008   4.953   6.119
 8977SOL    HW227831   0.005   5.052   6.249
 8978SOL     OW27832   6.506   5.708   5.343
 8978SOL    HW127833   6.601   5.696   5.312
 8978SOL    HW227834   6.479   5.628   5.397
 8979SOL     OW27835   1.886   4.566   3.632
 8979SOL    HW127836   1.846   4.608   3.714
 8979SOL    HW227837   1.883   4.631   3.556
 8980SOL     OW27838   4.395   0.675   0.839
 8980SOL    HW127839   4.342   0.591   0.826
 8980SOL    HW227840   4.357   0.725   0.917
 8981SOL     OW27841   4.067   2.126   0.151
 8981SOL    HW127842   4.088   2.157   0.059
 8981SOL    HW227843   3.968   2.130   0.166
 8982SOL     OW27844   0.416   1.056   2.306
 8982SOL    HW127845   0.506   1.012   2.301
 8982SOL    HW227846   0.359   1.006   2.372
 8983SOL     OW27847   0.838   6.888   2.547
 8983SOL    HW127848   0.921   6.878   2.492
 8983SOL    HW227849   0.861   6.883   2.644
 8984SOL     OW27850   6.112   1.111   4.270
 8984SOL    HW127851   6.168   1.172   4.325
 8984SOL    HW227852   6.083   1.159   4.187
 8985SOL     OW27853   4.958   0.355   2.116
 8985SOL    HW127854   5.036   0.417   2.108
 8985SOL    HW227855   4.968   0.299   2.198
 8986SOL     OW27856   0.423   6.470   0.081
 8986SOL    HW127857   0.506   6.416   0.096
 8986SOL    HW227858   0.448   6.560   0.044
 8987SOL     OW27859   2.698   6.260   2.562
 8987SOL    HW127860   2.758   6.206   2.621
 8987SOL    HW227861   2.607   6.220   2.561
 8988SOL     OW27862   2.397   0.230   0.697
 8988SOL    HW127863   2.459   0.296   0.655
 8988SOL    HW227864   2.450   0.162   0.747
 8989SOL     OW27865   5.730   0.955   2.049
 8989SOL    HW127866   5.696   0.871   2.007
 8989SOL    HW227867   5.826   0.944   2.073
 8990SOL     OW27868   3.968   1.067   2.861
 8990SOL    HW127869   3.954   1.122   2.779
 8990SOL    HW227870   3.905   0.989   2.859
 8991SOL     OW27871   1.271   1.970   1.035
 8991SOL    HW127872   1.320   2.032   0.975
 8991SOL    HW227873   1.224   1.900   0.980
 8992SOL     OW27874   0.166   4.816   6.081
 8992SOL    HW127875   0.164   4.814   6.181
 8992SOL    HW227876   0.232   4.885   6.051
 8993SOL     OW27877   5.111   3.963   3.975
 8993SOL    HW127878   5.042   4.032   3.993
 8993SOL    HW227879   5.067   3.872   3.973
 8994SOL     OW27880   1.187   6.216   2.235
 8994SOL    HW127881   1.222   6.302   2.272
 8994SOL    HW227882   1.239   6.191   2.153
 8995SOL     OW27883   2.048   3.595   3.462
 8995SOL    HW127884   2.075   3.505   3.498
 8995SOL    HW227885   2.101   3.615   3.380
 8996SOL     OW27886   2.481   3.936   1.203
 8996SOL    HW127887   2.417   4.003   1.242
 8996SOL    HW227888   2.430   3.870   1.148
 8997SOL     OW27889   4.414   1.223   5.135
 8997SOL    HW127890   4.360   1.256   5.057
 8997SOL    HW227891   4.491   1.284   5.151
 8998SOL     OW27892   1.039   1.581   6.743
 8998SOL    HW127893   1.030   1.665   6.690
 8998SOL    HW227894   1.115   1.526   6.708
 8999SOL     OW27895   5.370   2.652   5.798
 8999SOL    HW127896   5.433   2.722   5.832
 8999SOL    HW227897   5.411   2.606   5.720
 9000SOL     OW27898   4.584   4.550   1.220
 9000SOL    HW127899   4.537   4.465   1.195
 9000SOL    HW227900   4.555   4.579   1.311
 9001SOL     OW27901   1.052   3.763   3.321
 9001SOL    HW127902   1.111   3.830   3.277
 9001SOL    HW227903   0.963   3.761   3.275
 9002SOL     OW27904   5.453   3.389   5.711
 9002SOL    HW127905   5.356   3.365   5.701
 9002SOL    HW227906   5.477   3.457   5.642
 9003SOL     OW27907   6.447   2.791   6.803
 9003SOL    HW127908   6.459   2.816   6.900
 9003SOL    HW227909   6.537   2.780   6.761
 9004SOL     OW27910   4.761   5.485   0.831
 9004SOL    HW127911   4.827   5.411   0.828
 9004SOL    HW227912   4.678   5.454   0.877
 9005SOL     OW27913   4.907   3.161   3.270
 9005SOL    HW127914   4.880   3.227   3.200
 9005SOL    HW227915   4.951   3.209   3.346
 9006SOL     OW27916   2.677   6.731   1.671
 9006SOL    HW127917   2.745   6.802   1.655
 9006SOL    HW227918   2.720   6.652   1.713
 9007SOL     OW27919   1.420   6.570   5.303
 9007SOL    HW127920   1.516   6.551   5.323
 9007SOL    HW227921   1.414   6.626   5.220
 9008SOL     OW27922   0.375   4.116   1.617
 9008SOL    HW127923   0.312   4.151   1.686
 9008SOL    HW227924   0.340   4.031   1.579
 9009SOL     OW27925   4.117   6.239   0.008
 9009SOL    HW127926   4.101   6.337   0.020
 9009SOL    HW227927   4.052   6.203   6.969
 9010SOL     OW27928   6.703   5.988   4.417
 9010SOL    HW127929   6.745   5.900   4.397
 9010SOL    HW227930   6.758   6.061   4.377
 9011SOL     OW27931   4.736   2.616   2.132
 9011SOL    HW127932   4.692   2.629   2.044
 9011SOL    HW227933   4.742   2.703   2.180
 9012SOL     OW27934   4.772   5.128   2.306
 9012SOL    HW127935   4.821   5.049   2.344
 9012SOL    HW227936   4.674   5.107   2.303
 9013SOL     OW27937   4.493   5.889   1.987
 9013SOL    HW127938   4.403   5.859   2.018
 9013SOL    HW227939   4.490   5.987   1.967
 9014SOL     OW27940   2.712   0.575   1.827
 9014SOL    HW127941   2.633   0.592   1.886
 9014SOL    HW227942   2.732   0.657   1.773
 9015SOL     OW27943   6.133   2.340   4.503
 9015SOL    HW127944   6.072   2.298   4.571
 9015SOL    HW227945   6.214   2.283   4.491
 9016SOL     OW27946   0.191   6.093   7.019
 9016SOL    HW127947   0.247   6.155   6.965
 9016SOL    HW227948   0.103   6.136   0.012
 9017SOL     OW27949   6.763   3.568   2.851
 9017SOL    HW127950   6.740   3.506   2.926
 9017SOL    HW227951   6.786   3.658   2.888
 9018SOL     OW27952   4.677   1.761   6.593
 9018SOL    HW127953   4.713   1.834   6.650
 9018SOL    HW227954   4.593   1.791   6.548
 9019SOL     OW27955   2.075   5.907   6.965
 9019SOL    HW127956   2.099   5.901   0.035
 9019SOL    HW227957   1.978   5.886   6.954
 9020SOL     OW27958   0.923   4.683   4.377
 9020SOL    HW127959   0.921   4.590   4.339
 9020SOL    HW227960   0.834   4.726   4.365
 9021SOL     OW27961   6.083   5.341   5.752
 9021SOL    HW127962   6.058   5.360   5.658
 9021SOL    HW227963   6.097   5.243   5.764
 9022SOL     OW27964   2.877   0.222   6.479
 9022SOL    HW127965   2.862   0.224   6.578
 9022SOL    HW227966   2.961   0.271   6.457
 9023SOL     OW27967   3.084   3.928   3.861
 9023SOL    HW127968   3.142   3.856   3.899
 9023SOL    HW227969   2.994   3.924   3.905
 9024SOL     OW27970   1.091   0.007   6.213
 9024SOL    HW127971   1.181   0.051   6.216
 9024SOL    HW227972   1.054   0.000   6.305
 9025SOL     OW27973   0.289   3.334   0.198
 9025SOL    HW127974   0.358   3.366   0.133
 9025SOL    HW227975   0.198   3.347   0.160
 9026SOL     OW27976   2.844   3.417   5.542
 9026SOL    HW127977   2.940   3.446   5.537
 9026SOL    HW227978   2.806   3.411   5.450
 9027SOL     OW27979   1.661   2.937   2.533
 9027SOL    HW127980   1.586   2.907   2.593
 9027SOL    HW227981   1.738   2.875   2.543
 9028SOL     OW27982   2.451   4.430   4.710
 9028SOL    HW127983   2.418   4.439   4.804
 9028SOL    HW227984   2.456   4.520   4.667
 9029SOL     OW27985   5.567   5.401   2.724
 9029SOL    HW127986   5.557   5.384   2.822
 9029SOL    HW227987   5.478   5.423   2.685
 9030SOL     OW27988   4.134   2.282   3.100
 9030SOL    HW127989   4.140   2.221   3.021
 9030SOL    HW227990   4.049   2.265   3.149
 9031SOL     OW27991   2.837   1.220   1.817
 9031SOL    HW127992   2.780   1.278   1.876
 9031SOL    HW227993   2.905   1.172   1.873
 9032SOL     OW27994   0.689   2.892   2.315
 9032SOL    HW127995   0.735   2.967   2.362
 9032SOL    HW227996   0.734   2.806   2.339
 9033SOL     OW27997   1.020   3.885   2.681
 9033SOL    HW127998   1.060   3.839   2.602
 9033SOL    HW227999   0.920   3.875   2.678
 9034SOL     OW28000   1.719   6.838   6.817
 9034SOL    HW128001   1.645   6.773   6.835
 9034SOL    HW228002   1.791   6.793   6.765
 9035SOL     OW28003   6.256   1.262   4.446
 9035SOL    HW128004   6.348   1.232   4.473
 9035SOL    HW228005   6.248   1.361   4.461
 9036SOL     OW28006   0.623   0.985   4.913
 9036SOL    HW128007   0.721   0.983   4.891
 9036SOL    HW228008   0.575   1.041   4.845
 9037SOL     OW28009   2.468   4.471   5.810
 9037SOL    HW128010   2.558   4.472   5.853
 9037SOL    HW228011   2.435   4.565   5.800
 9038SOL     OW28012   5.106   5.134   5.733
 9038SOL    HW128013   5.052   5.215   5.756
 9038SOL    HW228014   5.140   5.093   5.818
 9039SOL     OW28015   2.288   5.169   6.776
 9039SOL    HW128016   2.315   5.121   6.692
 9039SOL    HW228017   2.264   5.102   6.846
 9040SOL     OW28018   2.891   1.535   2.710
 9040SOL    HW128019   2.880   1.623   2.757
 9040SOL    HW228020   2.801   1.494   2.694
 9041SOL     OW28021   1.604   3.269   5.944
 9041SOL    HW128022   1.699   3.239   5.954
 9041SOL    HW228023   1.543   3.190   5.957
 9042SOL     OW28024   1.822   5.420   2.539
 9042SOL    HW128025   1.832   5.339   2.597
 9042SOL    HW228026   1.781   5.393   2.452
 9043SOL     OW28027   0.125   2.055   6.855
 9043SOL    HW128028   0.150   2.145   6.891
 9043SOL    HW228029   0.055   2.065   6.784
 9044SOL     OW28030   0.253   4.004   0.494
 9044SOL    HW128031   0.334   3.948   0.477
 9044SOL    HW228032   0.171   3.948   0.485
 9045SOL     OW28033   2.294   4.827   4.543
 9045SOL    HW128034   2.268   4.922   4.560
 9045SOL    HW228035   2.214   4.776   4.509
 9046SOL     OW28036   3.709   4.330   6.398
 9046SOL    HW128037   3.761   4.264   6.453
 9046SOL    HW228038   3.715   4.305   6.302
 9047SOL     OW28039   0.592   4.054   4.166
 9047SOL    HW128040   0.495   4.062   4.189
 9047SOL    HW228041   0.641   4.013   4.244
 9048SOL     OW28042   1.514   2.346   4.726
 9048SOL    HW128043   1.446   2.283   4.763
 9048SOL    HW228044   1.533   2.418   4.792
 9049SOL     OW28045   5.023   6.362   6.050
 9049SOL    HW128046   5.077   6.283   6.020
 9049SOL    HW228047   5.083   6.442   6.056
 9050SOL     OW28048   0.163   5.216   5.782
 9050SOL    HW128049   0.173   5.205   5.684
 9050SOL    HW228050   0.207   5.302   5.810
 9051SOL     OW28051   6.054   6.645   6.071
 9051SOL    HW128052   6.013   6.607   5.989
 9051SOL    HW228053   5.998   6.622   6.151
 9052SOL     OW28054   2.756   5.052   4.992
 9052SOL    HW128055   2.850   5.018   4.982
 9052SOL    HW228056   2.753   5.149   4.968
 9053SOL     OW28057   2.608   1.140   3.039
 9053SOL    HW128058   2.646   1.186   2.958
 9053SOL    HW228059   2.543   1.070   3.010
 9054SOL     OW28060   1.814   0.148   1.135
 9054SOL    HW128061   1.903   0.170   1.094
 9054SOL    HW228062   1.767   0.081   1.079
 9055SOL     OW28063   1.133   2.541   4.605
 9055SOL    HW128064   1.171   2.526   4.697
 9055SOL    HW228065   1.204   2.580   4.546
 9056SOL     OW28066   4.558   2.427   1.814
 9056SOL    HW128067   4.643   2.428   1.867
 9056SOL    HW228068   4.530   2.333   1.797
 9057SOL     OW28069   3.619   6.460   7.004
 9057SOL    HW128070   3.696   6.396   7.006
 9057SOL    HW228071   3.576   6.458   6.913
 9058SOL     OW28072   2.367   1.820   4.319
 9058SOL    HW128073   2.310   1.871   4.255
 9058SOL    HW228074   2.429   1.883   4.366
 9059SOL     OW28075   6.653   0.732   2.039
 9059SOL    HW128076   6.650   0.676   1.957
 9059SOL    HW228077   6.674   0.675   2.119
 9060SOL     OW28078   6.548   4.845   0.522
 9060SOL    HW128079   6.542   4.945   0.524
 9060SOL    HW228080   6.561   4.811   0.615
 9061SOL     OW28081   4.722   4.366   2.158
 9061SOL    HW128082   4.640   4.342   2.107
 9061SOL    HW228083   4.790   4.405   2.095
 9062SOL     OW28084   0.460   5.525   3.077
 9062SOL    HW128085   0.452   5.479   2.989
 9062SOL    HW228086   0.502   5.463   3.143
 9063SOL     OW28087   4.702   0.423   0.664
 9063SOL    HW128088   4.625   0.396   0.722
 9063SOL    HW228089   4.768   0.348   0.659
 9064SOL     OW28090   1.103   5.555   2.936
 9064SOL    HW128091   1.035   5.628   2.941
 9064SOL    HW228092   1.109   5.510   3.026
 9065SOL     OW28093   3.681   4.206   6.885
 9065SOL    HW128094   3.660   4.114   6.853
 9065SOL    HW228095   3.596   4.258   6.892
 9066SOL     OW28096   4.942   4.645   3.644
 9066SOL    HW128097   4.887   4.713   3.595
 9066SOL    HW228098   4.921   4.649   3.742
 9067SOL     OW28099   2.018   6.945   4.229
 9067SOL    HW128100   1.984   6.863   4.182
 9067SOL    HW228101   1.977   7.026   4.187
 9068SOL     OW28102   4.902   0.062   6.095
 9068SOL    HW128103   4.839   0.112   6.155
 9068SOL    HW228104   4.990   0.051   6.141
 9069SOL     OW28105   4.867   2.010   1.823
 9069SOL    HW128106   4.931   1.936   1.844
 9069SOL    HW228107   4.826   2.044   1.908
 9070SOL     OW28108   1.562   0.797   6.368
 9070SOL    HW128109   1.507   0.818   6.288
 9070SOL    HW228110   1.659   0.804   6.344
 9071SOL     OW28111   4.610   2.324   6.735
 9071SOL    HW128112   4.694   2.308   6.684
 9071SOL    HW228113   4.617   2.282   6.826
 9072SOL     OW28114   6.247   0.552   1.776
 9072SOL    HW128115   6.149   0.554   1.792
 9072SOL    HW228116   6.287   0.641   1.798
 9073SOL     OW28117   4.662   3.073   5.523
 9073SOL    HW128118   4.696   3.162   5.555
 9073SOL    HW228119   4.684   3.003   5.591
 9074SOL     OW28120   2.338   1.110   3.937
 9074SOL    HW128121   2.436   1.094   3.925
 9074SOL    HW228122   2.303   1.162   3.859
 9075SOL     OW28123   5.127   5.488   0.466
 9075SOL    HW128124   5.104   5.440   0.550
 9075SOL    HW228125   5.226   5.501   0.460
 9076SOL     OW28126   1.488   6.240   2.588
 9076SOL    HW128127   1.457   6.302   2.660
 9076SOL    HW228128   1.457   6.147   2.609
 9077SOL     OW28129   6.392   1.733   6.211
 9077SOL    HW128130   6.456   1.705   6.139
 9077SOL    HW228131   6.310   1.677   6.206
 9078SOL     OW28132   4.977   6.789   0.229
 9078SOL    HW128133   5.050   6.801   0.162
 9078SOL    HW228134   5.002   6.837   0.313
 9079SOL     OW28135   1.313   1.091   6.256
 9079SOL    HW128136   1.268   1.076   6.168
 9079SOL    HW228137   1.253   1.144   6.315
 9080SOL     OW28138   6.850   4.285   1.720
 9080SOL    HW128139   6.808   4.216   1.662
 9080SOL    HW228140   6.859   4.249   1.813
 9081SOL     OW28141   4.921   1.350   0.590
 9081SOL    HW128142   5.008   1.329   0.635
 9081SOL    HW228143   4.855   1.378   0.660
 9082SOL     OW28144   3.456   4.519   6.738
 9082SOL    HW128145   3.426   4.426   6.718
 9082SOL    HW228146   3.377   4.576   6.762
 9083SOL     OW28147   3.756   0.585   0.689
 9083SOL    HW128148   3.834   0.549   0.740
 9083SOL    HW228149   3.781   0.597   0.593
 9084SOL     OW28150   6.493   4.307   4.786
 9084SOL    HW128151   6.403   4.265   4.770
 9084SOL    HW228152   6.561   4.262   4.729
 9085SOL     OW28153   2.606   4.791   1.007
 9085SOL    HW128154   2.570   4.705   1.044
 9085SOL    HW228155   2.536   4.836   0.952
 9086SOL     OW28156   6.726   2.552   0.795
 9086SOL    HW128157   6.707   2.507   0.707
 9086SOL    HW228158   6.703   2.489   0.870
 9087SOL     OW28159   4.844   1.516   1.533
 9087SOL    HW128160   4.745   1.518   1.542
 9087SOL    HW228161   4.878   1.609   1.523
 9088SOL     OW28162   5.757   5.926   0.033
 9088SOL    HW128163   5.767   5.868   6.980
 9088SOL    HW228164   5.719   6.015   0.006
 9089SOL     OW28165   5.528   4.964   3.316
 9089SOL    HW128166   5.570   4.876   3.292
 9089SOL    HW228167   5.518   5.019   3.233
 9090SOL     OW28168   6.190   5.804   5.892
 9090SOL    HW128169   6.257   5.838   5.958
 9090SOL    HW228170   6.190   5.704   5.893
 9091SOL     OW28171   2.808   1.939   1.643
 9091SOL    HW128172   2.826   2.030   1.680
 9091SOL    HW228173   2.749   1.946   1.563
 9092SOL     OW28174   2.226   1.907   4.986
 9092SOL    HW128175   2.227   1.816   4.943
 9092SOL    HW228176   2.310   1.955   4.963
 9093SOL     OW28177   2.288   3.822   0.292
 9093SOL    HW128178   2.353   3.748   0.274
 9093SOL    HW228179   2.302   3.854   0.386
 9094SOL     OW28180   6.459   2.826   0.696
 9094SOL    HW128181   6.531   2.874   0.747
 9094SOL    HW228182   6.497   2.791   0.610
 9095SOL     OW28183   2.103   2.703   0.052
 9095SOL    HW128184   2.102   2.633   7.007
 9095SOL    HW228185   2.106   2.793   0.010
 9096SOL     OW28186   6.464   4.139   3.267
 9096SOL    HW128187   6.551   4.102   3.233
 9096SOL    HW228188   6.389   4.101   3.214
 9097SOL     OW28189   6.447   6.225   5.594
 9097SOL    HW128190   6.547   6.231   5.589
 9097SOL    HW228191   6.418   6.132   5.570
 9098SOL     OW28192   3.854   3.651   4.801
 9098SOL    HW128193   3.930   3.636   4.737
 9098SOL    HW228194   3.794   3.722   4.764
 9099SOL     OW28195   1.427   2.368   6.747
 9099SOL    HW128196   1.397   2.296   6.809
 9099SOL    HW228197   1.381   2.454   6.771
 9100SOL     OW28198   1.557   2.996   0.317
 9100SOL    HW128199   1.609   2.991   0.231
 9100SOL    HW228200   1.602   2.939   0.386
 9101SOL     OW28201   2.054   2.149   6.513
 9101SOL    HW128202   1.989   2.146   6.437
 9101SOL    HW228203   2.127   2.082   6.497
 9102SOL     OW28204   5.041   6.672   2.343
 9102SOL    HW128205   4.966   6.634   2.398
 9102SOL    HW228206   5.051   6.618   2.260
 9103SOL     OW28207   0.636   4.663   6.216
 9103SOL    HW128208   0.565   4.593   6.222
 9103SOL    HW228209   0.726   4.620   6.219
 9104SOL     OW28210   5.450   0.156   3.012
 9104SOL    HW128211   5.434   0.209   3.095
 9104SOL    HW228212   5.450   0.218   2.933
 9105SOL     OW28213   2.544   1.969   5.947
 9105SOL    HW128214   2.564   2.060   5.909
 9105SOL    HW228215   2.472   1.926   5.893
 9106SOL     OW28216   6.267   5.351   2.057
 9106SOL    HW128217   6.320   5.333   2.140
 9106SOL    HW228218   6.253   5.449   2.047
 9107SOL     OW28219   4.997   6.593   6.798
 9107SOL    HW128220   4.919   6.569   6.857
 9107SOL    HW228221   5.066   6.521   6.805
 9108SOL     OW28222   3.257   5.760   6.997
 9108SOL    HW128223   3.253   5.661   7.013
 9108SOL    HW228224   3.351   5.791   7.006
 9109SOL     OW28225   2.847   1.283   4.475
 9109SOL    HW128226   2.899   1.204   4.506
 9109SOL    HW228227   2.751   1.258   4.466
 9110SOL     OW28228   1.408   3.376   3.227
 9110SOL    HW128229   1.334   3.426   3.183
 9110SOL    HW228230   1.462   3.439   3.283
 9111SOL     OW28231   4.301   4.032   1.600
 9111SOL    HW128232   4.232   4.102   1.616
 9111SOL    HW228233   4.389   4.063   1.637
 9112SOL     OW28234   0.933   5.726   1.961
 9112SOL    HW128235   0.933   5.668   2.042
 9112SOL    HW228236   0.985   5.682   1.888
 9113SOL     OW28237   3.070   5.530   6.851
 9113SOL    HW128238   3.121   5.447   6.829
 9113SOL    HW228239   3.088   5.600   6.782
 9114SOL     OW28240   2.618   3.647   1.704
 9114SOL    HW128241   2.584   3.741   1.697
 9114SOL    HW228242   2.558   3.594   1.762
 9115SOL     OW28243   1.635   4.084   4.613
 9115SOL    HW128244   1.710   4.150   4.605
 9115SOL    HW228245   1.641   4.038   4.702
 9116SOL     OW28246   2.088   1.769   6.131
 9116SOL    HW128247   2.172   1.746   6.181
 9116SOL    HW228248   2.060   1.862   6.154
 9117SOL     OW28249   6.995   3.389   0.139
 9117SOL    HW128250   6.913   3.389   0.195
 9117SOL    HW228251   7.017   3.483   0.111
 9118SOL     OW28252   0.417   5.868   1.017
 9118SOL    HW128253   0.356   5.807   1.068
 9118SOL    HW228254   0.370   5.955   1.000
 9119SOL     OW28255   6.454   0.383   0.775
 9119SOL    HW128256   6.396   0.305   0.795
 9119SOL    HW228257   6.543   0.371   0.820
 9120SOL     OW28258   6.248   1.014   6.698
 9120SOL    HW128259   6.330   0.967   6.665
 9120SOL    HW228260   6.167   0.959   6.676
 9121SOL     OW28261   1.735   1.647   6.844
 9121SOL    HW128262   1.715   1.712   6.917
 9121SOL    HW228263   1.738   1.695   6.756
 9122SOL     OW28264   1.203   2.318   0.896
 9122SOL    HW128265   1.155   2.377   0.831
 9122SOL    HW228266   1.282   2.367   0.933
 9123SOL     OW28267   3.357   6.604   6.731
 9123SOL    HW128268   3.300   6.524   6.750
 9123SOL    HW228269   3.300   6.685   6.720
 9124SOL     OW28270   6.626   4.712   5.781
 9124SOL    HW128271   6.644   4.805   5.813
 9124SOL    HW228272   6.698   4.683   5.718
 9125SOL     OW28273   4.636   5.595   1.277
 9125SOL    HW128274   4.685   5.610   1.191
 9125SOL    HW228275   4.687   5.529   1.333
 9126SOL     OW28276   5.870   6.770   2.416
 9126SOL    HW128277   5.962   6.786   2.382
 9126SOL    HW228278   5.827   6.695   2.365
 9127SOL     OW28279   5.359   6.067   6.210
 9127SOL    HW128280   5.337   6.163   6.226
 9127SOL    HW228281   5.276   6.012   6.218
 9128SOL     OW28282   5.139   2.867   5.349
 9128SOL    HW128283   5.108   2.926   5.275
 9128SOL    HW228284   5.074   2.792   5.362
 9129SOL     OW28285   2.052   2.011   6.950
 9129SOL    HW128286   2.134   2.052   6.910
 9129SOL    HW228287   1.993   2.084   6.985
 9130SOL     OW28288   6.329   5.830   0.991
 9130SOL    HW128289   6.388   5.773   0.933
 9130SOL    HW228290   6.374   5.843   1.080
 9131SOL     OW28291   1.067   4.520   3.700
 9131SOL    HW128292   1.086   4.546   3.605
 9131SOL    HW228293   0.992   4.454   3.703
 9132SOL     OW28294   1.773   3.093   4.428
 9132SOL    HW128295   1.756   3.048   4.340
 9132SOL    HW228296   1.770   3.192   4.415
 9133SOL     OW28297   1.501   5.319   1.386
 9133SOL    HW128298   1.504   5.356   1.293
 9133SOL    HW228299   1.518   5.393   1.452
 9134SOL     OW28300   2.794   4.958   6.031
 9134SOL    HW128301   2.848   5.020   6.089
 9134SOL    HW228302   2.699   4.987   6.031
 9135SOL     OW28303   1.183   6.343   4.159
 9135SOL    HW128304   1.220   6.417   4.103
 9135SOL    HW228305   1.231   6.341   4.247
 9136SOL     OW28306   3.603   5.543   5.527
 9136SOL    HW128307   3.606   5.588   5.437
 9136SOL    HW228308   3.595   5.612   5.599
 9137SOL     OW28309   4.252   0.313   1.841
 9137SOL    HW128310   4.282   0.239   1.902
 9137SOL    HW228311   4.152   0.314   1.836
 9138SOL     OW28312   3.451   4.234   1.033
 9138SOL    HW128313   3.454   4.306   0.963
 9138SOL    HW228314   3.412   4.272   1.117
 9139SOL     OW28315   3.424   1.268   5.498
 9139SOL    HW128316   3.346   1.325   5.524
 9139SOL    HW228317   3.421   1.250   5.399
 9140SOL     OW28318   6.726   2.221   3.682
 9140SOL    HW128319   6.687   2.313   3.672
 9140SOL    HW228320   6.715   2.190   3.776
 9141SOL     OW28321   5.479   0.472   5.776
 9141SOL    HW128322   5.445   0.540   5.841
 9141SOL    HW228323   5.524   0.517   5.700
 9142SOL     OW28324   1.435   4.197   6.028
 9142SOL    HW128325   1.472   4.213   6.119
 9142SOL    HW228326   1.426   4.285   5.980
 9143SOL     OW28327   5.631   4.060   1.357
 9143SOL    HW128328   5.552   3.998   1.353
 9143SOL    HW228329   5.599   4.155   1.351
 9144SOL     OW28330   1.450   4.923   4.681
 9144SOL    HW128331   1.402   4.836   4.680
 9144SOL    HW228332   1.457   4.956   4.775
 9145SOL     OW28333   0.175   3.610   6.478
 9145SOL    HW128334   0.170   3.661   6.564
 9145SOL    HW228335   0.097   3.547   6.474
 9146SOL     OW28336   0.382   1.850   1.589
 9146SOL    HW128337   0.466   1.897   1.617
 9146SOL    HW228338   0.305   1.913   1.594
 9147SOL     OW28339   4.865   6.386   6.268
 9147SOL    HW128340   4.937   6.336   6.317
 9147SOL    HW228341   4.898   6.410   6.177
 9148SOL     OW28342   3.189   5.377   3.149
 9148SOL    HW128343   3.280   5.338   3.162
 9148SOL    HW228344   3.147   5.338   3.067
 9149SOL     OW28345   6.195   3.178   4.602
 9149SOL    HW128346   6.211   3.230   4.518
 9149SOL    HW228347   6.278   3.128   4.626
 9150SOL     OW28348   4.572   1.462   3.042
 9150SOL    HW128349   4.641   1.393   3.061
 9150SOL    HW228350   4.524   1.485   3.127
 9151SOL     OW28351   1.223   3.368   2.136
 9151SOL    HW128352   1.197   3.283   2.090
 9151SOL    HW228353   1.290   3.349   2.207
 9152SOL     OW28354   2.130   5.147   3.350
 9152SOL    HW128355   2.214   5.174   3.302
 9152SOL    HW228356   2.100   5.221   3.409
 9153SOL     OW28357   1.217   2.818   6.598
 9153SOL    HW128358   1.155   2.849   6.525
 9153SOL    HW228359   1.242   2.896   6.656
 9154SOL     OW28360   1.769   5.846   6.906
 9154SOL    HW128361   1.767   5.767   6.968
 9154SOL    HW228362   1.685   5.899   6.918
 9155SOL     OW28363   1.232   4.012   0.238
 9155SOL    HW128364   1.260   3.921   0.267
 9155SOL    HW228365   1.194   4.062   0.316
 9156SOL     OW28366   5.134   2.212   1.956
 9156SOL    HW128367   5.052   2.215   1.898
 9156SOL    HW228368   5.193   2.289   1.935
 9157SOL     OW28369   5.283   4.228   5.810
 9157SOL    HW128370   5.265   4.304   5.747
 9157SOL    HW228371   5.289   4.263   5.904
 9158SOL     OW28372   0.325   3.740   3.185
 9158SOL    HW128373   0.399   3.674   3.174
 9158SOL    HW228374   0.299   3.776   3.095
 9159SOL     OW28375   6.685   4.762   2.610
 9159SOL    HW128376   6.699   4.698   2.686
 9159SOL    HW228377   6.770   4.813   2.594
 9160SOL     OW28378   6.820   7.012   0.407
 9160SOL    HW128379   6.853   6.921   0.382
 9160SOL    HW228380   6.875   0.021   0.482
 9161SOL     OW28381   5.338   3.802   3.091
 9161SOL    HW128382   5.299   3.877   3.038
 9161SOL    HW228383   5.270   3.728   3.098
 9162SOL     OW28384   5.103   1.772   2.360
 9162SOL    HW128385   5.038   1.735   2.427
 9162SOL    HW228386   5.064   1.766   2.268
 9163SOL     OW28387   3.145   1.149   4.668
 9163SOL    HW128388   3.220   1.145   4.601
 9163SOL    HW228389   3.086   1.070   4.656
 9164SOL     OW28390   2.579   0.292   0.240
 9164SOL    HW128391   2.541   0.215   0.292
 9164SOL    HW228392   2.515   0.369   0.242
 9165SOL     OW28393   4.902   5.840   0.312
 9165SOL    HW128394   4.893   5.740   0.314
 9165SOL    HW228395   4.961   5.869   0.388
 9166SOL     OW28396   2.700   5.623   1.692
 9166SOL    HW128397   2.702   5.649   1.595
 9166SOL    HW228398   2.608   5.592   1.715
 9167SOL     OW28399   7.026   4.180   4.840
 9167SOL    HW128400   0.008   4.081   4.826
 9167SOL    HW228401   6.953   4.198   4.905
 9168SOL     OW28402   2.836   0.523   6.986
 9168SOL    HW128403   2.773   0.573   6.926
 9168SOL    HW228404   2.796   0.515   0.050
 9169SOL     OW28405   0.227   0.017   2.962
 9169SOL    HW128406   0.147   0.076   2.948
 9169SOL    HW228407   0.198   6.949   2.972
 9170SOL     OW28408   6.200   6.244   6.996
 9170SOL    HW128409   6.151   6.297   0.038
 9170SOL    HW228410   6.256   6.306   6.941
 9171SOL     OW28411   2.954   5.574   5.703
 9171SOL    HW128412   2.895   5.545   5.779
 9171SOL    HW228413   3.000   5.495   5.665
 9172SOL     OW28414   2.588   2.507   4.161
 9172SOL    HW128415   2.518   2.567   4.122
 9172SOL    HW228416   2.609   2.537   4.254
 9173SOL     OW28417   0.462   4.924   5.374
 9173SOL    HW128418   0.437   5.015   5.343
 9173SOL    HW228419   0.490   4.868   5.296
 9174SOL     OW28420   6.941   5.693   0.251
 9174SOL    HW128421   0.002   5.726   0.219
 9174SOL    HW228422   6.953   5.603   0.294
 9175SOL     OW28423   1.509   6.687   5.565
 9175SOL    HW128424   1.475   6.644   5.481
 9175SOL    HW228425   1.548   6.617   5.624
 9176SOL     OW28426   1.589   1.603   5.573
 9176SOL    HW128427   1.657   1.659   5.620
 9176SOL    HW228428   1.618   1.586   5.479
 9177SOL     OW28429   1.504   4.590   3.487
 9177SOL    HW128430   1.548   4.629   3.568
 9177SOL    HW228431   1.570   4.587   3.412
 9178SOL     OW28432   2.033   4.366   0.413
 9178SOL    HW128433   2.052   4.400   0.321
 9178SOL    HW228434   2.017   4.444   0.474
 9179SOL     OW28435   2.539   4.618   5.172
 9179SOL    HW128436   2.474   4.642   5.099
 9179SOL    HW228437   2.625   4.587   5.131
 9180SOL     OW28438   5.474   1.751   2.596
 9180SOL    HW128439   5.460   1.761   2.694
 9180SOL    HW228440   5.404   1.802   2.546
 9181SOL     OW28441   3.783   1.487   2.202
 9181SOL    HW128442   3.797   1.391   2.175
 9181SOL    HW228443   3.736   1.535   2.129
 9182SOL     OW28444   1.943   0.080   2.279
 9182SOL    HW128445   1.922   0.178   2.279
 9182SOL    HW228446   1.995   0.057   2.197
 9183SOL     OW28447   5.105   5.852   6.302
 9183SOL    HW128448   5.160   5.864   6.385
 9183SOL    HW228449   5.019   5.902   6.312
 9184SOL     OW28450   4.679   0.057   0.075
 9184SOL    HW128451   4.593   0.066   0.024
 9184SOL    HW228452   4.751   0.107   0.026
 9185SOL     OW28453   4.650   0.998   5.201
 9185SOL    HW128454   4.638   1.051   5.285
 9185SOL    HW228455   4.562   0.987   5.155
 9186SOL     OW28456   5.213   0.086   6.888
 9186SOL    HW128457   5.305   0.048   6.900
 9186SOL    HW228458   5.218   0.186   6.886
 9187SOL     OW28459   3.040   6.546   2.405
 9187SOL    HW128460   2.944   6.533   2.431
 9187SOL    HW228461   3.048   6.537   2.306
 9188SOL     OW28462   2.340   6.197   1.017
 9188SOL    HW128463   2.434   6.230   1.002
 9188SOL    HW228464   2.277   6.274   1.010
 9189SOL     OW28465   5.465   4.907   2.044
 9189SOL    HW128466   5.540   4.841   2.038
 9189SOL    HW228467   5.393   4.882   1.978
 9190SOL     OW28468   1.219   5.524   0.636
 9190SOL    HW128469   1.221   5.514   0.735
 9190SOL    HW228470   1.140   5.475   0.599
 9191SOL     OW28471   7.021   0.535   6.219
 9191SOL    HW128472   0.033   0.617   6.262
 9191SOL    HW228473   0.011   0.538   6.121
 9192SOL     OW28474   0.775   4.003   4.411
 9192SOL    HW128475   0.804   3.907   4.411
 9192SOL    HW228476   0.851   4.060   4.381
 9193SOL     OW28477   2.370   3.527   6.811
 9193SOL    HW128478   2.360   3.434   6.776
 9193SOL    HW228479   2.342   3.593   6.741
 9194SOL     OW28480   3.048   0.455   4.538
 9194SOL    HW128481   3.042   0.550   4.506
 9194SOL    HW228482   3.125   0.410   4.493
 9195SOL     OW28483   1.711   0.808   3.787
 9195SOL    HW128484   1.654   0.853   3.717
 9195SOL    HW228485   1.724   0.870   3.864
 9196SOL     OW28486   4.896   1.845   5.865
 9196SOL    HW128487   4.966   1.847   5.794
 9196SOL    HW228488   4.911   1.920   5.929
 9197SOL     OW28489   2.367   3.733   1.064
 9197SOL    HW128490   2.306   3.800   1.022
 9197SOL    HW228491   2.393   3.664   0.996
 9198SOL     OW28492   0.534   4.760   3.890
 9198SOL    HW128493   0.554   4.679   3.945
 9198SOL    HW228494   0.552   4.741   3.794
 9199SOL     OW28495   6.063   4.184   5.206
 9199SOL    HW128496   6.092   4.189   5.301
 9199SOL    HW228497   5.964   4.196   5.200
 9200SOL     OW28498   3.143   0.743   0.210
 9200SOL    HW128499   3.060   0.787   0.177
 9200SOL    HW228500   3.223   0.794   0.179
 9201SOL     OW28501   1.896   4.336   0.720
 9201SOL    HW128502   1.929   4.353   0.627
 9201SOL    HW228503   1.799   4.357   0.725
 9202SOL     OW28504   2.575   0.935   3.884
 9202SOL    HW128505   2.512   0.865   3.920
 9202SOL    HW228506   2.654   0.943   3.944
 9203SOL     OW28507   6.554   6.690   0.578
 9203SOL    HW128508   6.587   6.615   0.635
 9203SOL    HW228509   6.540   6.657   0.485
 9204SOL     OW28510   5.478   0.324   5.228
 9204SOL    HW128511   5.382   0.336   5.200
 9204SOL    HW228512   5.485   0.243   5.286
 9205SOL     OW28513   6.880   4.923   1.527
 9205SOL    HW128514   6.977   4.937   1.545
 9205SOL    HW228515   6.827   4.999   1.564
 9206SOL     OW28516   3.478   6.726   0.757
 9206SOL    HW128517   3.463   6.628   0.769
 9206SOL    HW228518   3.416   6.777   0.818
 9207SOL     OW28519   5.458   5.548   6.857
 9207SOL    HW128520   5.455   5.574   6.953
 9207SOL    HW228521   5.470   5.629   6.800
 9208SOL     OW28522   1.391   3.606   2.822
 9208SOL    HW128523   1.312   3.608   2.762
 9208SOL    HW228524   1.452   3.531   2.795
 9209SOL     OW28525   3.087   0.426   6.346
 9209SOL    HW128526   3.162   0.444   6.282
 9209SOL    HW228527   3.007   0.479   6.318
 9210SOL     OW28528   6.605   0.351   3.642
 9210SOL    HW128529   6.631   0.324   3.549
 9210SOL    HW228530   6.653   0.293   3.708
 9211SOL     OW28531   0.288   1.840   2.651
 9211SOL    HW128532   0.350   1.835   2.573
 9211SOL    HW228533   0.261   1.748   2.678
 9212SOL     OW28534   3.318   5.276   4.742
 9212SOL    HW128535   3.372   5.333   4.803
 9212SOL    HW228536   3.292   5.192   4.789
 9213SOL     OW28537   6.076   4.569   6.544
 9213SOL    HW128538   6.170   4.604   6.550
 9213SOL    HW228539   6.070   4.483   6.595
 9214SOL     OW28540   0.408   4.969   0.595
 9214SOL    HW128541   0.364   4.917   0.668
 9214SOL    HW228542   0.476   5.031   0.634
 9215SOL     OW28543   1.446   1.267   0.760
 9215SOL    HW128544   1.478   1.312   0.677
 9215SOL    HW228545   1.524   1.247   0.819
 9216SOL     OW28546   1.879   6.937   3.377
 9216SOL    HW128547   1.860   7.008   3.444
 9216SOL    HW228548   1.792   6.901   3.341
 9217SOL     OW28549   0.492   2.865   0.237
 9217SOL    HW128550   0.522   2.836   0.328
 9217SOL    HW228551   0.439   2.949   0.245
 9218SOL     OW28552   2.264   1.249   0.408
 9218SOL    HW128553   2.244   1.319   0.477
 9218SOL    HW228554   2.268   1.291   0.318
 9219SOL     OW28555   0.261   1.384   0.610
 9219SOL    HW128556   0.178   1.328   0.622
 9219SOL    HW228557   0.304   1.361   0.523
 9220SOL     OW28558   3.113   6.172   1.479
 9220SOL    HW128559   3.173   6.202   1.405
 9220SOL    HW228560   3.139   6.216   1.564
 9221SOL     OW28561   2.617   4.808   4.911
 9221SOL    HW128562   2.648   4.903   4.909
 9221SOL    HW228563   2.688   4.751   4.954
 9222SOL     OW28564   2.651   2.362   6.254
 9222SOL    HW128565   2.683   2.386   6.162
 9222SOL    HW228566   2.622   2.267   6.256
 9223SOL     OW28567   2.796   3.089   5.300
 9223SOL    HW128568   2.702   3.062   5.278
 9223SOL    HW228569   2.819   3.172   5.249
 9224SOL     OW28570   2.208   4.871   5.166
 9224SOL    HW128571   2.220   4.971   5.163
 9224SOL    HW228572   2.115   4.848   5.136
 9225SOL     OW28573   2.080   0.075   6.936
 9225SOL    HW128574   2.096   7.017   6.987
 9225SOL    HW228575   2.158   0.093   6.876
 9226SOL     OW28576   3.780   6.505   0.760
 9226SOL    HW128577   3.731   6.434   0.710
 9226SOL    HW228578   3.875   6.507   0.730
 9227SOL     OW28579   1.801   6.900   1.461
 9227SOL    HW128580   1.818   6.930   1.555
 9227SOL    HW228581   1.888   6.894   1.411
 9228SOL     OW28582   0.529   0.481   6.739
 9228SOL    HW128583   0.556   0.563   6.789
 9228SOL    HW228584   0.607   0.448   6.685
 9229SOL     OW28585   0.484   6.021   5.838
 9229SOL    HW128586   0.396   5.982   5.864
 9229SOL    HW228587   0.488   6.116   5.868
 9230SOL     OW28588   4.912   0.637   3.988
 9230SOL    HW128589   5.005   0.603   4.001
 9230SOL    HW228590   4.851   0.561   3.969
 9231SOL     OW28591   2.092   3.326   3.497
 9231SOL    HW128592   2.071   3.233   3.527
 9231SOL    HW228593   2.098   3.330   3.398
 9232SOL     OW28594   4.594   4.926   1.301
 9232SOL    HW128595   4.547   4.847   1.263
 9232SOL    HW228596   4.576   4.931   1.400
 9233SOL     OW28597   4.785   4.542   1.036
 9233SOL    HW128598   4.866   4.496   1.071
 9233SOL    HW228599   4.716   4.550   1.108
 9234SOL     OW28600   1.894   5.819   3.733
 9234SOL    HW128601   1.807   5.803   3.780
 9234SOL    HW228602   1.919   5.736   3.682
 9235SOL     OW28603   0.599   2.397   3.529
 9235SOL    HW128604   0.620   2.459   3.605
 9235SOL    HW228605   0.581   2.306   3.565
 9236SOL     OW28606   4.011   3.003   6.020
 9236SOL    HW128607   4.109   2.983   6.012
 9236SOL    HW228608   3.960   2.917   6.025
 9237SOL     OW28609   1.844   3.536   4.101
 9237SOL    HW128610   1.803   3.627   4.111
 9237SOL    HW228611   1.819   3.499   4.012
 9238SOL     OW28612   4.354   3.450   6.549
 9238SOL    HW128613   4.283   3.520   6.541
 9238SOL    HW228614   4.375   3.413   6.458
 9239SOL     OW28615   1.357   3.721   6.481
 9239SOL    HW128616   1.309   3.783   6.420
 9239SOL    HW228617   1.291   3.671   6.538
 9240SOL     OW28618   5.124   1.158   2.049
 9240SOL    HW128619   5.215   1.169   2.010
 9240SOL    HW228620   5.124   1.081   2.113
 9241SOL     OW28621   0.775   5.762   6.881
 9241SOL    HW128622   0.791   5.745   6.978
 9241SOL    HW228623   0.701   5.702   6.849
 9242SOL     OW28624   6.547   5.816   1.673
 9242SOL    HW128625   6.509   5.906   1.656
 9242SOL    HW228626   6.548   5.763   1.588
 9243SOL     OW28627   5.871   6.236   4.935
 9243SOL    HW128628   5.888   6.140   4.912
 9243SOL    HW228629   5.838   6.284   4.854
 9244SOL     OW28630   3.385   5.429   0.121
 9244SOL    HW128631   3.456   5.447   0.052
 9244SOL    HW228632   3.426   5.433   0.212
 9245SOL     OW28633   0.686   6.567   0.998
 9245SOL    HW128634   0.664   6.635   0.928
 9245SOL    HW228635   0.604   6.548   1.052
 9246SOL     OW28636   6.821   4.835   4.121
 9246SOL    HW128637   6.814   4.932   4.144
 9246SOL    HW228638   6.771   4.816   4.037
 9247SOL     OW28639   1.829   6.681   3.064
 9247SOL    HW128640   1.890   6.735   3.006
 9247SOL    HW228641   1.762   6.741   3.107
 9248SOL     OW28642   3.861   1.982   6.248
 9248SOL    HW128643   3.817   2.034   6.321
 9248SOL    HW228644   3.913   1.906   6.287
 9249SOL     OW28645   4.180   6.486   3.302
 9249SOL    HW128646   4.138   6.557   3.245
 9249SOL    HW228647   4.144   6.396   3.275
 9250SOL     OW28648   5.677   3.532   3.459
 9250SOL    HW128649   5.690   3.527   3.360
 9250SOL    HW228650   5.640   3.622   3.483
 9251SOL     OW28651   3.839   1.751   3.100
 9251SOL    HW128652   3.912   1.753   3.168
 9251SOL    HW228653   3.835   1.839   3.054
 9252SOL     OW28654   1.458   6.573   4.244
 9252SOL    HW128655   1.407   6.532   4.320
 9252SOL    HW228656   1.439   6.671   4.240
 9253SOL     OW28657   1.140   6.810   5.454
 9253SOL    HW128658   1.140   6.748   5.532
 9253SOL    HW228659   1.109   6.901   5.483
 9254SOL     OW28660   5.695   2.965   1.519
 9254SOL    HW128661   5.721   2.870   1.499
 9254SOL    HW228662   5.624   2.965   1.590
 9255SOL     OW28663   0.082   4.753   0.540
 9255SOL    HW128664   0.120   4.661   0.540
 9255SOL    HW228665   0.007   4.758   0.605
 9256SOL     OW28666   3.986   5.087   1.778
 9256SOL    HW128667   4.057   5.067   1.711
 9256SOL    HW228668   3.957   5.002   1.822
 9257SOL     OW28669   0.708   3.486   0.771
 9257SOL    HW128670   0.782   3.535   0.816
 9257SOL    HW228671   0.735   3.391   0.755
 9258SOL     OW28672   3.910   3.082   3.983
 9258SOL    HW128673   3.939   3.115   4.073
 9258SOL    HW228674   3.811   3.092   3.974
 9259SOL     OW28675   1.312   2.337   0.512
 9259SOL    HW128676   1.317   2.409   0.443
 9259SOL    HW228677   1.403   2.303   0.533
 9260SOL     OW28678   6.242   3.845   0.285
 9260SOL    HW128679   6.241   3.900   0.368
 9260SOL    HW228680   6.207   3.753   0.305
 9261SOL     OW28681   3.651   6.917   6.434
 9261SOL    HW128682   3.712   6.996   6.444
 9261SOL    HW228683   3.617   6.890   6.524
 9262SOL     OW28684   4.818   0.659   5.476
 9262SOL    HW128685   4.803   0.669   5.377
 9262SOL    HW228686   4.824   0.750   5.518
 9263SOL     OW28687   5.929   3.656   1.999
 9263SOL    HW128688   6.012   3.601   1.997
 9263SOL    HW228689   5.857   3.612   1.945
 9264SOL     OW28690   6.288   2.331   0.109
 9264SOL    HW128691   6.375   2.298   0.144
 9264SOL    HW228692   6.214   2.296   0.166
 9265SOL     OW28693   1.563   1.635   5.291
 9265SOL    HW128694   1.480   1.690   5.287
 9265SOL    HW228695   1.609   1.637   5.202
 9266SOL     OW28696   2.209   6.108   2.274
 9266SOL    HW128697   2.144   6.159   2.331
 9266SOL    HW228698   2.245   6.030   2.326
 9267SOL     OW28699   2.872   5.155   5.605
 9267SOL    HW128700   2.947   5.222   5.601
 9267SOL    HW228701   2.869   5.114   5.696
 9268SOL     OW28702   0.894   1.144   2.444
 9268SOL    HW128703   0.872   1.049   2.466
 9268SOL    HW228704   0.885   1.158   2.345
 9269SOL     OW28705   4.471   1.764   5.709
 9269SOL    HW128706   4.392   1.822   5.689
 9269SOL    HW228707   4.488   1.762   5.808
 9270SOL     OW28708   1.183   0.009   5.671
 9270SOL    HW128709   1.087   0.031   5.688
 9270SOL    HW228710   1.235   0.017   5.756
 9271SOL     OW28711   1.059   5.000   6.429
 9271SOL    HW128712   1.094   4.975   6.339
 9271SOL    HW228713   0.985   5.067   6.419
 9272SOL     OW28714   3.045   5.145   6.683
 9272SOL    HW128715   2.952   5.134   6.717
 9272SOL    HW228716   3.110   5.120   6.755
 9273SOL     OW28717   4.326   6.489   5.645
 9273SOL    HW128718   4.418   6.451   5.642
 9273SOL    HW228719   4.317   6.560   5.575
 9274SOL     OW28720   6.015   2.334   1.526
 9274SOL    HW128721   5.939   2.332   1.462
 9274SOL    HW228722   6.083   2.266   1.499
 9275SOL     OW28723   0.363   0.787   6.251
 9275SOL    HW128724   0.433   0.851   6.219
 9275SOL    HW228725   0.394   0.742   6.335
 9276SOL     OW28726   5.032   6.288   4.520
 9276SOL    HW128727   5.122   6.268   4.481
 9276SOL    HW228728   5.031   6.263   4.617
 9277SOL     OW28729   3.097   2.640   0.532
 9277SOL    HW128730   3.005   2.651   0.568
 9277SOL    HW228731   3.121   2.543   0.529
 9278SOL     OW28732   1.376   2.842   1.510
 9278SOL    HW128733   1.438   2.916   1.534
 9278SOL    HW228734   1.413   2.755   1.543
 9279SOL     OW28735   2.985   0.014   1.223
 9279SOL    HW128736   2.937   0.084   1.276
 9279SOL    HW228737   3.059   0.057   1.170
 9280SOL     OW28738   2.193   0.962   2.918
 9280SOL    HW128739   2.094   0.964   2.909
 9280SOL    HW228740   2.222   1.037   2.978
 9281SOL     OW28741   1.918   2.813   0.605
 9281SOL    HW128742   1.819   2.805   0.593
 9281SOL    HW228743   1.956   2.868   0.531
 9282SOL     OW28744   4.440   1.900   6.514
 9282SOL    HW128745   4.489   1.970   6.463
 9282SOL    HW228746   4.428   1.929   6.609
 9283SOL     OW28747   5.794   2.344   2.731
 9283SOL    HW128748   5.734   2.398   2.791
 9283SOL    HW228749   5.850   2.283   2.787
 9284SOL     OW28750   3.364   3.454   2.211
 9284SOL    HW128751   3.367   3.355   2.196
 9284SOL    HW228752   3.437   3.498   2.157
 9285SOL     OW28753   6.143   2.473   6.627
 9285SOL    HW128754   6.233   2.518   6.631
 9285SOL    HW228755   6.088   2.502   6.706
 9286SOL     OW28756   5.710   5.805   4.967
 9286SOL    HW128757   5.686   5.890   5.014
 9286SOL    HW228758   5.716   5.731   5.033
 9287SOL     OW28759   2.968   6.410   2.052
 9287SOL    HW128760   3.061   6.417   2.017
 9287SOL    HW228761   2.908   6.371   1.981
 9288SOL     OW28762   4.571   2.070   5.993
 9288SOL    HW128763   4.669   2.057   6.008
 9288SOL    HW228764   4.558   2.142   5.924
 9289SOL     OW28765   5.283   3.516   2.580
 9289SOL    HW128766   5.204   3.456   2.569
 9289SOL    HW228767   5.285   3.553   2.673
 9290SOL     OW28768   4.600   2.213   4.277
 9290SOL    HW128769   4.590   2.117   4.253
 9290SOL    HW228770   4.527   2.240   4.340
 9291SOL     OW28771   0.814   1.763   4.786
 9291SOL    HW128772   0.823   1.753   4.687
 9291SOL    HW228773   0.859   1.848   4.815
 9292SOL     OW28774   6.564   3.242   0.164
 9292SOL    HW128775   6.480   3.296   0.162
 9292SOL    HW228776   6.590   3.225   0.259
 9293SOL     OW28777   6.403   3.802   6.599
 9293SOL    HW128778   6.330   3.870   6.605
 9293SOL    HW228779   6.435   3.796   6.504
 9294SOL     OW28780   5.439   5.786   6.717
 9294SOL    HW128781   5.515   5.812   6.657
 9294SOL    HW228782   5.395   5.869   6.752
 9295SOL     OW28783   4.581   2.012   4.010
 9295SOL    HW128784   4.622   2.103   3.999
 9295SOL    HW228785   4.509   2.015   4.078
 9296SOL     OW28786   6.751   6.705   5.510
 9296SOL    HW128787   6.808   6.686   5.590
 9296SOL    HW228788   6.785   6.653   5.432
 9297SOL     OW28789   0.322   0.595   0.980
 9297SOL    HW128790   0.352   0.542   1.059
 9297SOL    HW228791   0.398   0.604   0.915
 9298SOL     OW28792   0.580   6.249   4.572
 9298SOL    HW128793   0.652   6.317   4.583
 9298SOL    HW228794   0.525   6.271   4.491
 9299SOL     OW28795   1.620   2.704   4.081
 9299SOL    HW128796   1.669   2.789   4.102
 9299SOL    HW228797   1.598   2.656   4.166
 9300SOL     OW28798   5.733   4.142   3.833
 9300SOL    HW128799   5.712   4.212   3.901
 9300SOL    HW228800   5.660   4.138   3.765
 9301SOL     OW28801   5.966   3.976   2.451
 9301SOL    HW128802   5.877   3.998   2.490
 9301SOL    HW228803   5.954   3.945   2.356
 9302SOL     OW28804   2.130   2.466   2.547
 9302SOL    HW128805   2.186   2.499   2.471
 9302SOL    HW228806   2.037   2.448   2.514
 9303SOL     OW28807   3.891   4.306   0.754
 9303SOL    HW128808   3.846   4.220   0.730
 9303SOL    HW228809   3.892   4.315   0.854
 9304SOL     OW28810   4.244   3.526   0.295
 9304SOL    HW128811   4.291   3.535   0.383
 9304SOL    HW228812   4.267   3.604   0.237
 9305SOL     OW28813   4.903   3.335   2.360
 9305SOL    HW128814   4.829   3.286   2.314
 9305SOL    HW228815   4.933   3.411   2.302
 9306SOL     OW28816   6.326   4.657   3.596
 9306SOL    HW128817   6.316   4.713   3.514
 9306SOL    HW228818   6.419   4.621   3.602
 9307SOL     OW28819   2.262   0.697   6.157
 9307SOL    HW128820   2.312   0.728   6.076
 9307SOL    HW228821   2.324   0.645   6.216
 9308SOL     OW28822   6.662   2.008   0.591
 9308SOL    HW128823   6.566   2.033   0.579
 9308SOL    HW228824   6.695   2.044   0.679
 9309SOL     OW28825   4.550   3.082   6.459
 9309SOL    HW128826   4.536   3.088   6.558
 9309SOL    HW228827   4.498   3.155   6.414
 9310SOL     OW28828   3.982   6.034   1.036
 9310SOL    HW128829   3.990   6.131   1.011
 9310SOL    HW228830   4.053   5.982   0.989
 9311SOL     OW28831   6.588   3.213   1.729
 9311SOL    HW128832   6.488   3.203   1.721
 9311SOL    HW228833   6.633   3.149   1.668
 9312SOL     OW28834   1.491   4.465   5.476
 9312SOL    HW128835   1.435   4.516   5.411
 9312SOL    HW228836   1.446   4.378   5.498
 9313SOL     OW28837   6.216   6.522   2.291
 9313SOL    HW128838   6.216   6.597   2.225
 9313SOL    HW228839   6.277   6.544   2.367
 9314SOL     OW28840   5.397   4.852   0.191
 9314SOL    HW128841   5.455   4.931   0.173
 9314SOL    HW228842   5.304   4.870   0.157
 9315SOL     OW28843   0.295   6.737   6.615
 9315SOL    HW128844   0.340   6.647   6.612
 9315SOL    HW228845   0.211   6.734   6.562
 9316SOL     OW28846   3.859   6.019   4.487
 9316SOL    HW128847   3.812   6.090   4.436
 9316SOL    HW228848   3.809   6.000   4.572
 9317SOL     OW28849   5.301   4.412   5.171
 9317SOL    HW128850   5.211   4.436   5.135
 9317SOL    HW228851   5.336   4.487   5.227
 9318SOL     OW28852   6.292   6.643   6.201
 9318SOL    HW128853   6.207   6.680   6.162
 9318SOL    HW228854   6.370   6.674   6.147
 9319SOL     OW28855   6.826   2.853   5.060
 9319SOL    HW128856   6.896   2.783   5.075
 9319SOL    HW228857   6.784   2.878   5.147
 9320SOL     OW28858   4.047   2.908   6.392
 9320SOL    HW128859   3.986   2.851   6.338
 9320SOL    HW228860   4.092   2.974   6.332
 9321SOL     OW28861   6.261   6.226   3.306
 9321SOL    HW128862   6.335   6.261   3.249
 9321SOL    HW228863   6.188   6.191   3.248
 9322SOL     OW28864   0.910   6.528   0.139
 9322SOL    HW128865   0.928   6.579   0.055
 9322SOL    HW228866   0.995   6.517   0.190
 9323SOL     OW28867   0.122   1.451   6.413
 9323SOL    HW128868   0.199   1.404   6.369
 9323SOL    HW228869   0.065   1.494   6.344
 9324SOL     OW28870   1.841   5.417   6.931
 9324SOL    HW128871   1.841   5.486   7.003
 9324SOL    HW228872   1.779   5.444   6.858
 9325SOL     OW28873   0.357   3.079   0.333
 9325SOL    HW128874   0.338   3.176   0.348
 9325SOL    HW228875   0.286   3.023   0.376
 9326SOL     OW28876   1.981   5.746   1.005
 9326SOL    HW128877   2.012   5.841   1.009
 9326SOL    HW228878   2.033   5.692   1.071
 9327SOL     OW28879   3.879   0.875   3.571
 9327SOL    HW128880   3.884   0.808   3.497
 9327SOL    HW228881   3.798   0.858   3.626
 9328SOL     OW28882   3.949   0.984   2.246
 9328SOL    HW128883   4.016   0.969   2.319
 9328SOL    HW228884   3.997   1.000   2.160
 9329SOL     OW28885   1.147   4.372   1.947
 9329SOL    HW128886   1.196   4.286   1.936
 9329SOL    HW228887   1.053   4.354   1.975
 9330SOL     OW28888   5.435   6.544   6.609
 9330SOL    HW128889   5.521   6.588   6.636
 9330SOL    HW228890   5.397   6.590   6.529
 9331SOL     OW28891   0.531   1.569   0.322
 9331SOL    HW128892   0.570   1.551   0.232
 9331SOL    HW228893   0.453   1.631   0.313
 9332SOL     OW28894   3.567   4.165   4.567
 9332SOL    HW128895   3.608   4.192   4.654
 9332SOL    HW228896   3.468   4.173   4.573
 9333SOL     OW28897   5.671   5.577   1.245
 9333SOL    HW128898   5.675   5.493   1.192
 9333SOL    HW228899   5.617   5.645   1.196
 9334SOL     OW28900   2.688   0.019   4.664
 9334SOL    HW128901   2.661   0.093   4.726
 9334SOL    HW228902   2.658   0.039   4.571
 9335SOL     OW28903   0.885   1.080   1.668
 9335SOL    HW128904   0.937   0.995   1.665
 9335SOL    HW228905   0.790   1.062   1.643
 9336SOL     OW28906   3.514   0.178   5.287
 9336SOL    HW128907   3.418   0.200   5.304
 9336SOL    HW228908   3.539   0.096   5.339
 9337SOL     OW28909   4.628   6.793   2.897
 9337SOL    HW128910   4.554   6.860   2.893
 9337SOL    HW228911   4.599   6.709   2.850
 9338SOL     OW28912   3.751   6.903   1.669
 9338SOL    HW128913   3.694   6.918   1.750
 9338SOL    HW228914   3.799   6.988   1.646
 9339SOL     OW28915   3.980   5.675   1.173
 9339SOL    HW128916   4.027   5.589   1.153
 9339SOL    HW228917   3.899   5.657   1.229
 9340SOL     OW28918   5.884   3.294   0.762
 9340SOL    HW128919   5.801   3.265   0.809
 9340SOL    HW228920   5.885   3.393   0.752
 9341SOL     OW28921   6.763   4.947   5.870
 9341SOL    HW128922   6.820   5.028   5.876
 9341SOL    HW228923   6.675   4.963   5.915
 9342SOL     OW28924   1.082   6.630   6.130
 9342SOL    HW128925   1.052   6.645   6.036
 9342SOL    HW228926   1.162   6.569   6.130
 9343SOL     OW28927   6.473   6.066   3.968
 9343SOL    HW128928   6.447   5.984   4.020
 9343SOL    HW228929   6.404   6.085   3.898
 9344SOL     OW28930   4.207   6.344   0.805
 9344SOL    HW128931   4.283   6.405   0.782
 9344SOL    HW228932   4.241   6.270   0.863
 9345SOL     OW28933   0.043   2.636   0.620
 9345SOL    HW128934   0.019   2.543   0.593
 9345SOL    HW228935   7.001   2.672   0.682
 9346SOL     OW28936   5.828   0.091   0.969
 9346SOL    HW128937   5.758   0.159   0.988
 9346SOL    HW228938   5.904   0.102   1.033
 9347SOL     OW28939   1.623   6.666   2.114
 9347SOL    HW128940   1.650   6.762   2.112
 9347SOL    HW228941   1.639   6.625   2.024
 9348SOL     OW28942   2.309   4.788   0.445
 9348SOL    HW128943   2.338   4.732   0.367
 9348SOL    HW228944   2.266   4.872   0.412
 9349SOL     OW28945   1.709   5.840   2.478
 9349SOL    HW128946   1.731   5.782   2.556
 9349SOL    HW228947   1.784   5.906   2.463
 9350SOL     OW28948   0.412   2.869   5.502
 9350SOL    HW128949   0.319   2.869   5.466
 9350SOL    HW228950   0.420   2.802   5.575
 9351SOL     OW28951   2.922   1.494   6.395
 9351SOL    HW128952   2.980   1.426   6.352
 9351SOL    HW228953   2.955   1.586   6.373
 9352SOL     OW28954   2.225   4.915   5.675
 9352SOL    HW128955   2.216   4.816   5.683
 9352SOL    HW228956   2.158   4.959   5.734
 9353SOL     OW28957   5.802   1.154   0.604
 9353SOL    HW128958   5.727   1.108   0.652
 9353SOL    HW228959   5.889   1.124   0.641
 9354SOL     OW28960   1.132   1.699   6.400
 9354SOL    HW128961   1.213   1.648   6.427
 9354SOL    HW228962   1.147   1.742   6.311
 9355SOL     OW28963   0.734   1.400   4.808
 9355SOL    HW128964   0.669   1.387   4.882
 9355SOL    HW228965   0.712   1.484   4.758
 9356SOL     OW28966   5.193   0.058   3.759
 9356SOL    HW128967   5.188   7.025   3.838
 9356SOL    HW228968   5.134   0.023   3.686
 9357SOL     OW28969   1.129   1.994   0.466
 9357SOL    HW128970   1.102   2.076   0.518
 9357SOL    HW228971   1.091   1.999   0.374
 9358SOL     OW28972   1.173   2.755   1.661
 9358SOL    HW128973   1.236   2.810   1.606
 9358SOL    HW228974   1.212   2.737   1.751
 9359SOL     OW28975   1.025   0.002   5.220
 9359SOL    HW128976   1.039   0.070   5.292
 9359SOL    HW228977   1.078   6.946   5.241
 9360SOL     OW28978   0.583   0.438   5.904
 9360SOL    HW128979   0.524   0.515   5.930
 9360SOL    HW228980   0.662   0.436   5.965
 9361SOL     OW28981   2.017   5.802   4.396
 9361SOL    HW128982   1.960   5.861   4.338
 9361SOL    HW228983   2.109   5.798   4.357
 9362SOL     OW28984   2.365   0.775   2.438
 9362SOL    HW128985   2.426   0.835   2.385
 9362SOL    HW228986   2.290   0.744   2.380
 9363SOL     OW28987   1.769   4.577   2.483
 9363SOL    HW128988   1.724   4.497   2.443
 9363SOL    HW228989   1.826   4.621   2.413
 9364SOL     OW28990   0.487   2.510   0.546
 9364SOL    HW128991   0.441   2.467   0.624
 9364SOL    HW228992   0.421   2.531   0.475
 9365SOL     OW28993   2.738   0.885   4.915
 9365SOL    HW128994   2.795   0.856   4.839
 9365SOL    HW228995   2.642   0.877   4.890
 9366SOL     OW28996   4.169   5.938   2.652
 9366SOL    HW128997   4.243   5.894   2.601
 9366SOL    HW228998   4.128   6.010   2.596
 9367SOL     OW28999   6.226   1.031   1.180
 9367SOL    HW129000   6.199   1.005   1.088
 9367SOL    HW229001   6.305   1.092   1.176
 9368SOL     OW29002   2.755   0.488   2.834
 9368SOL    HW129003   2.662   0.512   2.860
 9368SOL    HW229004   2.787   0.412   2.891
 9369SOL     OW29005   3.954   5.221   0.637
 9369SOL    HW129006   4.021   5.236   0.710
 9369SOL    HW229007   3.927   5.309   0.598
 9370SOL     OW29008   4.156   1.757   4.936
 9370SOL    HW129009   4.067   1.799   4.953
 9370SOL    HW229010   4.220   1.826   4.901
 9371SOL     OW29011   3.858   4.740   0.583
 9371SOL    HW129012   3.919   4.791   0.522
 9371SOL    HW229013   3.827   4.801   0.656
 9372SOL     OW29014   4.369   5.593   1.366
 9372SOL    HW129015   4.323   5.608   1.279
 9372SOL    HW229016   4.468   5.598   1.352
 9373SOL     OW29017   6.536   2.745   1.148
 9373SOL    HW129018   6.510   2.791   1.233
 9373SOL    HW229019   6.489   2.788   1.071
 9374SOL     OW29020   0.284   5.463   6.306
 9374SOL    HW129021   0.219   5.468   6.230
 9374SOL    HW229022   0.237   5.426   6.386
 9375SOL     OW29023   1.462   0.973   0.013
 9375SOL    HW129024   1.472   0.882   0.052
 9375SOL    HW229025   1.507   0.977   6.951
 9376SOL     OW29026   2.586   3.725   0.654
 9376SOL    HW129027   2.614   3.800   0.714
 9376SOL    HW229028   2.655   3.712   0.583
 9377SOL     OW29029   2.119   0.596   3.418
 9377SOL    HW129030   2.045   0.656   3.388
 9377SOL    HW229031   2.108   0.575   3.515
 9378SOL     OW29032   3.725   1.084   4.858
 9378SOL    HW129033   3.658   1.134   4.803
 9378SOL    HW229034   3.781   1.028   4.798
 9379SOL     OW29035   4.337   0.049   4.732
 9379SOL    HW129036   4.351   0.143   4.702
 9379SOL    HW229037   4.397   7.015   4.682
 9380SOL     OW29038   4.825   5.440   0.521
 9380SOL    HW129039   4.800   5.428   0.617
 9380SOL    HW229040   4.903   5.381   0.499
 9381SOL     OW29041   5.648   0.865   5.543
 9381SOL    HW129042   5.742   0.866   5.576
 9381SOL    HW229043   5.599   0.946   5.576
 9382SOL     OW29044   3.318   5.513   6.336
 9382SOL    HW129045   3.354   5.605   6.356
 9382SOL    HW229046   3.268   5.479   6.416
 9383SOL     OW29047   5.596   3.645   2.225
 9383SOL    HW129048   5.624   3.578   2.156
 9383SOL    HW229049   5.514   3.693   2.194
 9384SOL     OW29050   3.625   7.022   1.273
 9384SOL    HW129051   3.616   0.003   1.372
 9384SOL    HW229052   3.541   0.029   1.230
 9385SOL     OW29053   4.019   2.052   4.365
 9385SOL    HW129054   3.956   2.011   4.431
 9385SOL    HW229055   4.082   2.113   4.413
 9386SOL     OW29056   5.239   6.707   1.605
 9386SOL    HW129057   5.274   6.649   1.531
 9386SOL    HW229058   5.140   6.694   1.613
 9387SOL     OW29059   2.060   1.755   6.538
 9387SOL    HW129060   2.131   1.821   6.514
 9387SOL    HW229061   2.034   1.768   6.634
 9388SOL     OW29062   2.604   0.215   4.835
 9388SOL    HW129063   2.540   0.276   4.881
 9388SOL    HW229064   2.683   0.268   4.803
 9389SOL     OW29065   1.969   3.773   1.676
 9389SOL    HW129066   1.873   3.795   1.689
 9389SOL    HW229067   1.983   3.737   1.584
 9390SOL     OW29068   5.385   4.640   3.835
 9390SOL    HW129069   5.293   4.655   3.798
 9390SOL    HW229070   5.449   4.704   3.792
 9391SOL     OW29071   1.437   3.875   4.538
 9391SOL    HW129072   1.526   3.912   4.564
 9391SOL    HW229073   1.447   3.816   4.458
 9392SOL     OW29074   4.967   4.652   2.408
 9392SOL    HW129075   5.006   4.693   2.490
 9392SOL    HW229076   5.035   4.593   2.365
 9393SOL     OW29077   1.557   5.681   6.336
 9393SOL    HW129078   1.607   5.749   6.283
 9393SOL    HW229079   1.579   5.691   6.433
 9394SOL     OW29080   4.246   0.319   0.631
 9394SOL    HW129081   4.288   0.312   0.721
 9394SOL    HW229082   4.299   0.383   0.574
 9395SOL     OW29083   1.685   1.323   1.055
 9395SOL    HW129084   1.695   1.395   1.124
 9395SOL    HW229085   1.670   1.235   1.100
 9396SOL     OW29086   0.734   1.241   6.108
 9396SOL    HW129087   0.777   1.252   6.197
 9396SOL    HW229088   0.771   1.161   6.061
 9397SOL     OW29089   3.855   0.965   4.666
 9397SOL    HW129090   3.917   0.975   4.588
 9397SOL    HW229091   3.860   0.870   4.700
 9398SOL     OW29092   0.362   2.126   0.598
 9398SOL    HW129093   0.412   2.043   0.574
 9398SOL    HW229094   0.340   2.177   0.515
 9399SOL     OW29095   1.096   2.328   4.424
 9399SOL    HW129096   1.106   2.421   4.460
 9399SOL    HW229097   1.187   2.288   4.411
 9400SOL     OW29098   5.495   1.965   1.265
 9400SOL    HW129099   5.513   1.999   1.358
 9400SOL    HW229100   5.573   1.987   1.206
 9401SOL     OW29101   0.162   2.405   3.414
 9401SOL    HW129102   0.224   2.397   3.336
 9401SOL    HW229103   0.191   2.481   3.472
 9402SOL     OW29104   2.835   6.310   4.749
 9402SOL    HW129105   2.828   6.367   4.667
 9402SOL    HW229106   2.905   6.240   4.735
 9403SOL     OW29107   5.472   2.242   1.017
 9403SOL    HW129108   5.405   2.167   1.017
 9403SOL    HW229109   5.444   2.311   1.083
 9404SOL     OW29110   2.163   2.610   1.108
 9404SOL    HW129111   2.150   2.514   1.085
 9404SOL    HW229112   2.079   2.646   1.150
 9405SOL     OW29113   6.566   6.090   5.140
 9405SOL    HW129114   6.531   6.098   5.047
 9405SOL    HW229115   6.665   6.076   5.138
 9406SOL     OW29116   1.563   2.234   0.633
 9406SOL    HW129117   1.586   2.328   0.659
 9406SOL    HW229118   1.637   2.196   0.577
 9407SOL     OW29119   1.584   4.444   4.720
 9407SOL    HW129120   1.594   4.489   4.809
 9407SOL    HW229121   1.492   4.404   4.714
 9408SOL     OW29122   5.704   4.322   4.080
 9408SOL    HW129123   5.651   4.390   4.029
 9408SOL    HW229124   5.731   4.361   4.168
 9409SOL     OW29125   6.009   5.369   1.780
 9409SOL    HW129126   5.926   5.368   1.724
 9409SOL    HW229127   6.022   5.460   1.819
 9410SOL     OW29128   4.444   0.367   0.853
 9410SOL    HW129129   4.447   0.393   0.950
 9410SOL    HW229130   4.510   0.294   0.837
 9411SOL     OW29131   3.281   4.084   3.050
 9411SOL    HW129132   3.320   4.168   3.088
 9411SOL    HW229133   3.355   4.024   3.019
 9412SOL     OW29134   4.660   6.869   1.422
 9412SOL    HW129135   4.693   6.861   1.516
 9412SOL    HW229136   4.720   6.930   1.371
 9413SOL     OW29137   4.472   4.574   3.043
 9413SOL    HW129138   4.413   4.503   3.006
 9413SOL    HW229139   4.431   4.664   3.027
 9414SOL     OW29140   2.813   2.058   2.517
 9414SOL    HW129141   2.853   1.969   2.495
 9414SOL    HW229142   2.814   2.116   2.435
 9415SOL     OW29143   5.484   0.586   1.306
 9415SOL    HW129144   5.577   0.571   1.340
 9415SOL    HW229145   5.459   0.511   1.245
 9416SOL     OW29146   5.909   5.337   5.506
 9416SOL    HW129147   5.954   5.260   5.460
 9416SOL    HW229148   5.905   5.415   5.444
 9417SOL     OW29149   3.685   5.492   2.286
 9417SOL    HW129150   3.592   5.520   2.308
 9417SOL    HW229151   3.726   5.446   2.366
 9418SOL     OW29152   3.079   2.052   5.146
 9418SOL    HW129153   3.173   2.021   5.161
 9418SOL    HW229154   3.080   2.142   5.102
 9419SOL     OW29155   2.127   2.601   6.816
 9419SOL    HW129156   2.086   2.513   6.793
 9419SOL    HW229157   2.081   2.674   6.766
 9420SOL     OW29158   5.602   3.640   5.635
 9420SOL    HW129159   5.672   3.682   5.578
 9420SOL    HW229160   5.628   3.646   5.731
 9421SOL     OW29161   4.196   6.080   6.725
 9421SOL    HW129162   4.109   6.124   6.748
 9421SOL    HW229163   4.256   6.146   6.681
 9422SOL     OW29164   2.279   6.534   5.561
 9422SOL    HW129165   2.281   6.633   5.544
 9422SOL    HW229166   2.354   6.508   5.621
 9423SOL     OW29167   4.386   5.468   1.796
 9423SOL    HW129168   4.318   5.395   1.799
 9423SOL    HW229169   4.379   5.517   1.710
 9424SOL     OW29170   6.980   0.288   4.149
 9424SOL    HW129171   6.896   0.240   4.123
 9424SOL    HW229172   6.965   0.338   4.235
 9425SOL     OW29173   6.624   4.397   0.840
 9425SOL    HW129174   6.627   4.399   0.940
 9425SOL    HW229175   6.703   4.346   0.806
 9426SOL     OW29176   4.375   2.832   6.421
 9426SOL    HW129177   4.433   2.798   6.346
 9426SOL    HW229178   4.426   2.829   6.506
 9427SOL     OW29179   3.973   4.847   1.934
 9427SOL    HW129180   4.027   4.792   1.997
 9427SOL    HW229181   3.893   4.884   1.981
 9428SOL     OW29182   0.747   6.397   5.637
 9428SOL    HW129183   0.706   6.321   5.589
 9428SOL    HW229184   0.753   6.376   5.735
 9429SOL     OW29185   3.106   1.980   4.273
 9429SOL    HW129186   3.116   2.067   4.322
 9429SOL    HW229187   3.195   1.936   4.264
 9430SOL     OW29188   1.548   0.843   4.623
 9430SOL    HW129189   1.638   0.800   4.625
 9430SOL    HW229190   1.545   0.918   4.689
 9431SOL     OW29191   1.060   4.542   4.823
 9431SOL    HW129192   1.073   4.603   4.745
 9431SOL    HW229193   1.123   4.465   4.816
 9432SOL     OW29194   0.128   1.636   3.626
 9432SOL    HW129195   0.068   1.661   3.551
 9432SOL    HW229196   0.075   1.626   3.710
 9433SOL     OW29197   4.571   5.688   1.811
 9433SOL    HW129198   4.561   5.759   1.880
 9433SOL    HW229199   4.486   5.635   1.805
 9434SOL     OW29200   4.058   5.622   4.337
 9434SOL    HW129201   4.155   5.648   4.340
 9434SOL    HW229202   4.048   5.540   4.281
 9435SOL     OW29203   5.812   4.120   0.555
 9435SOL    HW129204   5.731   4.061   0.552
 9435SOL    HW229205   5.875   4.095   0.482
 9436SOL     OW29206   3.259   1.199   3.083
 9436SOL    HW129207   3.168   1.175   3.116
 9436SOL    HW229208   3.291   1.281   3.133
 9437SOL     OW29209   5.193   0.931   4.435
 9437SOL    HW129210   5.274   0.925   4.377
 9437SOL    HW229211   5.194   0.858   4.503
 9438SOL     OW29212   4.889   0.268   2.832
 9438SOL    HW129213   4.791   0.250   2.839
 9438SOL    HW229214   4.926   0.286   2.923
 9439SOL     OW29215   2.273   4.074   1.344
 9439SOL    HW129216   2.266   4.121   1.433
 9439SOL    HW229217   2.221   3.989   1.348
 9440SOL     OW29218   1.418   5.824   4.744
 9440SOL    HW129219   1.362   5.842   4.825
 9440SOL    HW229220   1.448   5.910   4.704
 9441SOL     OW29221   0.419   6.286   4.320
 9441SOL    HW129222   0.335   6.307   4.269
 9441SOL    HW229223   0.498   6.310   4.264
 9442SOL     OW29224   5.820   3.024   1.069
 9442SOL    HW129225   5.902   2.992   1.020
 9442SOL    HW229226   5.804   3.120   1.048
 9443SOL     OW29227   2.816   4.093   1.617
 9443SOL    HW129228   2.902   4.043   1.632
 9443SOL    HW229229   2.764   4.049   1.544
 9444SOL     OW29230   2.001   5.684   6.381
 9444SOL    HW129231   2.099   5.673   6.398
 9444SOL    HW229232   1.981   5.781   6.366
 9445SOL     OW29233   0.412   1.006   4.156
 9445SOL    HW129234   0.421   0.919   4.107
 9445SOL    HW229235   0.480   1.010   4.229
 9446SOL     OW29236   6.474   4.587   4.246
 9446SOL    HW129237   6.560   4.566   4.200
 9446SOL    HW229238   6.452   4.515   4.312
 9447SOL     OW29239   5.075   4.971   2.201
 9447SOL    HW129240   5.064   5.069   2.184
 9447SOL    HW229241   5.142   4.957   2.273
 9448SOL     OW29242   5.485   2.004   6.680
 9448SOL    HW129243   5.506   2.101   6.668
 9448SOL    HW229244   5.463   1.963   6.592
 9449SOL     OW29245   4.467   6.799   2.303
 9449SOL    HW129246   4.424   6.758   2.223
 9449SOL    HW229247   4.526   6.874   2.274
 9450SOL     OW29248   1.389   0.292   3.088
 9450SOL    HW129249   1.353   0.374   3.042
 9450SOL    HW229250   1.414   0.224   3.019
 9451SOL     OW29251   4.017   5.017   0.479
 9451SOL    HW129252   3.992   5.107   0.516
 9451SOL    HW229253   3.949   4.987   0.413
 9452SOL     OW29254   6.037   4.198   6.186
 9452SOL    HW129255   6.109   4.241   6.241
 9452SOL    HW229256   5.953   4.251   6.195
 9453SOL     OW29257   6.467   4.774   2.468
 9453SOL    HW129258   6.443   4.693   2.415
 9453SOL    HW229259   6.545   4.753   2.528
 9454SOL     OW29260   5.985   5.197   0.677
 9454SOL    HW129261   5.970   5.271   0.742
 9454SOL    HW229262   5.897   5.154   0.655
 9455SOL     OW29263   4.566   0.500   1.644
 9455SOL    HW129264   4.541   0.418   1.593
 9455SOL    HW229265   4.660   0.491   1.677
 9456SOL     OW29266   6.802   2.119   2.882
 9456SOL    HW129267   6.869   2.063   2.931
 9456SOL    HW229268   6.844   2.205   2.854
 9457SOL     OW29269   6.334   5.831   3.704
 9457SOL    HW129270   6.307   5.765   3.774
 9457SOL    HW229271   6.292   5.920   3.724
 9458SOL     OW29272   5.862   3.895   0.316
 9458SOL    HW129273   5.820   3.914   0.227
 9458SOL    HW229274   5.918   3.812   0.309
 9459SOL     OW29275   5.077   4.769   4.875
 9459SOL    HW129276   5.155   4.732   4.826
 9459SOL    HW229277   5.011   4.807   4.811
 9460SOL     OW29278   1.520   2.703   2.136
 9460SOL    HW129279   1.524   2.791   2.183
 9460SOL    HW229280   1.460   2.641   2.187
 9461SOL     OW29281   2.547   1.655   2.035
 9461SOL    HW129282   2.564   1.675   2.131
 9461SOL    HW229283   2.474   1.715   2.001
 9462SOL     OW29284   6.847   1.567   5.984
 9462SOL    HW129285   6.795   1.560   5.899
 9462SOL    HW229286   6.906   1.648   5.980
 9463SOL     OW29287   6.361   4.670   0.444
 9463SOL    HW129288   6.360   4.672   0.344
 9463SOL    HW229289   6.429   4.735   0.478
 9464SOL     OW29290   0.732   0.184   1.836
 9464SOL    HW129291   0.675   0.116   1.880
 9464SOL    HW229292   0.781   0.142   1.759
 9465SOL     OW29293   6.423   5.894   0.228
 9465SOL    HW129294   6.455   5.821   0.288
 9465SOL    HW229295   6.449   5.982   0.266
 9466SOL     OW29296   4.485   3.962   5.338
 9466SOL    HW129297   4.458   3.866   5.342
 9466SOL    HW229298   4.443   4.012   5.413
 9467SOL     OW29299   1.115   4.091   0.483
 9467SOL    HW129300   1.165   4.152   0.545
 9467SOL    HW229301   1.126   3.997   0.514
 9468SOL     OW29302   5.966   1.140   1.238
 9468SOL    HW129303   6.062   1.111   1.228
 9468SOL    HW229304   5.922   1.082   1.306
 9469SOL     OW29305   6.786   6.856   1.567
 9469SOL    HW129306   6.734   6.938   1.545
 9469SOL    HW229307   6.727   6.792   1.617
 9470SOL     OW29308   3.279   2.831   0.686
 9470SOL    HW129309   3.212   2.779   0.632
 9470SOL    HW229310   3.335   2.768   0.738
 9471SOL     OW29311   6.670   3.073   4.891
 9471SOL    HW129312   6.690   3.070   4.989
 9471SOL    HW229313   6.572   3.065   4.877
 9472SOL     OW29314   2.020   3.418   5.856
 9472SOL    HW129315   2.076   3.358   5.913
 9472SOL    HW229316   1.949   3.460   5.912
 9473SOL     OW29317   3.072   3.776   1.224
 9473SOL    HW129318   3.143   3.783   1.154
 9473SOL    HW229319   3.071   3.684   1.262
 9474SOL     OW29320   5.831   4.522   1.051
 9474SOL    HW129321   5.786   4.596   1.001
 9474SOL    HW229322   5.783   4.436   1.034
 9475SOL     OW29323   5.320   3.343   6.749
 9475SOL    HW129324   5.231   3.322   6.707
 9475SOL    HW229325   5.334   3.442   6.749
 9476SOL     OW29326   4.058   4.056   1.216
 9476SOL    HW129327   4.034   4.134   1.159
 9476SOL    HW229328   3.996   4.051   1.295
 9477SOL     OW29329   1.482   4.879   0.990
 9477SOL    HW129330   1.516   4.784   0.992
 9477SOL    HW229331   1.427   4.896   1.071
 9478SOL     OW29332   6.490   4.201   6.137
 9478SOL    HW129333   6.464   4.229   6.045
 9478SOL    HW229334   6.414   4.218   6.200
 9479SOL     OW29335   4.431   0.944   2.035
 9479SOL    HW129336   4.357   0.879   2.055
 9479SOL    HW229337   4.515   0.894   2.013
 9480SOL     OW29338   5.791   0.444   0.637
 9480SOL    HW129339   5.780   0.516   0.569
 9480SOL    HW229340   5.773   0.480   0.728
 9481SOL     OW29341   4.721   0.114   3.255
 9481SOL    HW129342   4.789   0.051   3.216
 9481SOL    HW229343   4.766   0.174   3.321
 9482SOL     OW29344   6.350   5.046   5.049
 9482SOL    HW129345   6.319   4.968   4.996
 9482SOL    HW229346   6.316   5.039   5.143
 9483SOL     OW29347   6.048   5.138   6.601
 9483SOL    HW129348   6.090   5.227   6.583
 9483SOL    HW229349   5.960   5.133   6.552
 9484SOL     OW29350   2.038   6.429   4.700
 9484SOL    HW129351   2.057   6.487   4.620
 9484SOL    HW229352   2.005   6.340   4.669
 9485SOL     OW29353   0.591   1.256   4.997
 9485SOL    HW129354   0.607   1.157   4.995
 9485SOL    HW229355   0.595   1.289   5.091
 9486SOL     OW29356   6.850   5.723   6.278
 9486SOL    HW129357   6.924   5.751   6.339
 9486SOL    HW229358   6.822   5.630   6.300
 9487SOL     OW29359   3.139   3.583   3.099
 9487SOL    HW129360   3.228   3.594   3.142
 9487SOL    HW229361   3.146   3.601   3.001
 9488SOL     OW29362   2.048   0.755   1.483
 9488SOL    HW129363   2.139   0.786   1.454
 9488SOL    HW229364   2.049   0.738   1.581
 9489SOL     OW29365   6.265   4.274   0.184
 9489SOL    HW129366   6.231   4.276   0.278
 9489SOL    HW229367   6.188   4.287   0.121
 9490SOL     OW29368   5.614   3.246   4.806
 9490SOL    HW129369   5.706   3.276   4.834
 9490SOL    HW229370   5.605   3.255   4.707
 9491SOL     OW29371   5.701   0.257   2.847
 9491SOL    HW129372   5.690   0.214   2.757
 9491SOL    HW229373   5.626   0.321   2.862
 9492SOL     OW29374   4.646   2.443   4.075
 9492SOL    HW129375   4.631   2.377   4.149
 9492SOL    HW229376   4.627   2.399   3.987
 9493SOL     OW29377   3.113   6.238   2.570
 9493SOL    HW129378   3.095   6.152   2.618
 9493SOL    HW229379   3.119   6.220   2.471
 9494SOL     OW29380   5.072   2.588   2.252
 9494SOL    HW129381   5.027   2.501   2.231
 9494SOL    HW229382   5.012   2.641   2.312
 9495SOL     OW29383   5.220   2.685   1.372
 9495SOL    HW129384   5.175   2.764   1.329
 9495SOL    HW229385   5.293   2.652   1.312
 9496SOL     OW29386   5.953   2.708   1.358
 9496SOL    HW129387   5.974   2.655   1.441
 9496SOL    HW229388   6.034   2.760   1.331
 9497SOL     OW29389   5.356   5.281   5.310
 9497SOL    HW129390   5.426   5.280   5.382
 9497SOL    HW229391   5.301   5.364   5.319
 9498SOL     OW29392   0.961   5.317   5.478
 9498SOL    HW129393   0.903   5.399   5.472
 9498SOL    HW229394   0.949   5.274   5.567
 9499SOL     OW29395   5.457   6.074   4.539
 9499SOL    HW129396   5.452   5.974   4.535
 9499SOL    HW229397   5.553   6.102   4.548
 9500SOL     OW29398   3.145   1.508   0.846
 9500SOL    HW129399   3.116   1.601   0.865
 9500SOL    HW229400   3.065   1.452   0.826
 9501SOL     OW29401   1.860   3.995   5.243
 9501SOL    HW129402   1.941   3.964   5.194
 9501SOL    HW229403   1.796   3.919   5.254
 9502SOL     OW29404   5.745   4.282   3.457
 9502SOL    HW129405   5.836   4.243   3.470
 9502SOL    HW229406   5.690   4.220   3.402
 9503SOL     OW29407   5.545   1.478   0.312
 9503SOL    HW129408   5.514   1.552   0.372
 9503SOL    HW229409   5.554   1.394   0.366
 9504SOL     OW29410   6.643   5.903   2.248
 9504SOL    HW129411   6.556   5.930   2.205
 9504SOL    HW229412   6.689   5.836   2.190
 9505SOL     OW29413   4.505   3.777   6.662
 9505SOL    HW129414   4.540   3.856   6.610
 9505SOL    HW229415   4.437   3.729   6.606
 9506SOL     OW29416   3.489   1.060   1.899
 9506SOL    HW129417   3.498   1.159   1.889
 9506SOL    HW229418   3.556   1.015   1.840
 9507SOL     OW29419   6.365   6.375   1.725
 9507SOL    HW129420   6.293   6.368   1.655
 9507SOL    HW229421   6.417   6.290   1.727
 9508SOL     OW29422   5.161   0.922   2.166
 9508SOL    HW129423   5.152   0.865   2.085
 9508SOL    HW229424   5.258   0.944   2.182
 9509SOL     OW29425   5.701   1.475   3.886
 9509SOL    HW129426   5.607   1.492   3.918
 9509SOL    HW229427   5.748   1.563   3.875
 9510SOL     OW29428   1.443   2.864   2.658
 9510SOL    HW129429   1.456   2.917   2.742
 9510SOL    HW229430   1.371   2.797   2.673
 9511SOL     OW29431   0.919   1.706   1.348
 9511SOL    HW129432   1.004   1.688   1.298
 9511SOL    HW229433   0.844   1.718   1.283
 9512SOL     OW29434   6.692   2.112   2.215
 9512SOL    HW129435   6.608   2.067   2.245
 9512SOL    HW229436   6.720   2.180   2.282
 9513SOL     OW29437   4.904   3.925   5.119
 9513SOL    HW129438   4.861   4.001   5.169
 9513SOL    HW229439   4.929   3.956   5.028
 9514SOL     OW29440   3.611   2.963   0.927
 9514SOL    HW129441   3.534   2.990   0.985
 9514SOL    HW229442   3.598   2.999   0.835
 9515SOL     OW29443   0.103   5.737   2.949
 9515SOL    HW129444   0.183   5.792   2.975
 9515SOL    HW229445   0.040   5.731   3.027
 9516SOL     OW29446   0.600   4.435   6.419
 9516SOL    HW129447   0.523   4.497   6.405
 9516SOL    HW229448   0.628   4.397   6.331
 9517SOL     OW29449   0.147   6.795   1.931
 9517SOL    HW129450   0.223   6.737   1.962
 9517SOL    HW229451   0.067   6.777   1.988
 9518SOL     OW29452   0.982   1.174   1.135
 9518SOL    HW129453   0.981   1.265   1.093
 9518SOL    HW229454   1.072   1.157   1.174
 9519SOL     OW29455   1.762   2.552   5.440
 9519SOL    HW129456   1.736   2.595   5.353
 9519SOL    HW229457   1.712   2.466   5.451
 9520SOL     OW29458   4.314   6.280   1.551
 9520SOL    HW129459   4.230   6.290   1.604
 9520SOL    HW229460   4.292   6.287   1.453
 9521SOL     OW29461   5.452   4.256   3.360
 9521SOL    HW129462   5.518   4.232   3.289
 9521SOL    HW229463   5.419   4.349   3.344
 9522SOL     OW29464   3.102   4.851   6.253
 9522SOL    HW129465   3.164   4.918   6.294
 9522SOL    HW229466   3.123   4.842   6.156
 9523SOL     OW29467   2.336   0.396   5.185
 9523SOL    HW129468   2.374   0.406   5.277
 9523SOL    HW229469   2.268   0.322   5.185
 9524SOL     OW29470   5.283   3.427   0.343
 9524SOL    HW129471   5.276   3.445   0.245
 9524SOL    HW229472   5.234   3.498   0.394
 9525SOL     OW29473   3.801   0.009   4.553
 9525SOL    HW129474   3.800   6.936   4.555
 9525SOL    HW229475   3.853   0.044   4.632
 9526SOL     OW29476   4.541   5.418   0.967
 9526SOL    HW129477   4.522   5.342   1.030
 9526SOL    HW229478   4.479   5.494   0.987
 9527SOL     OW29479   0.312   2.358   0.753
 9527SOL    HW129480   0.212   2.362   0.752
 9527SOL    HW229481   0.343   2.276   0.706
 9528SOL     OW29482   6.689   0.914   1.485
 9528SOL    HW129483   6.725   0.982   1.550
 9528SOL    HW229484   6.646   0.961   1.408
 9529SOL     OW29485   1.708   2.982   5.072
 9529SOL    HW129486   1.724   2.940   5.161
 9529SOL    HW229487   1.793   3.024   5.039
 9530SOL     OW29488   2.590   1.235   3.947
 9530SOL    HW129489   2.641   1.249   3.861
 9530SOL    HW229490   2.649   1.189   4.013
 9531SOL     OW29491   2.767   6.807   4.074
 9531SOL    HW129492   2.817   6.847   4.151
 9531SOL    HW229493   2.704   6.875   4.036
 9532SOL     OW29494   3.229   1.557   2.157
 9532SOL    HW129495   3.267   1.645   2.131
 9532SOL    HW229496   3.255   1.488   2.089
 9533SOL     OW29497   0.848   1.660   4.516
 9533SOL    HW129498   0.755   1.621   4.514
 9533SOL    HW229499   0.854   1.733   4.448
 9534SOL     OW29500   5.971   1.828   4.661
 9534SOL    HW129501   5.885   1.865   4.696
 9534SOL    HW229502   5.962   1.811   4.563
 9535SOL     OW29503   3.261   1.819   4.731
 9535SOL    HW129504   3.207   1.797   4.651
 9535SOL    HW229505   3.265   1.740   4.792
 9536SOL     OW29506   2.328   0.054   6.309
 9536SOL    HW129507   2.399   0.049   6.379
 9536SOL    HW229508   2.259   7.010   6.326
 9537SOL     OW29509   2.008   0.493   0.489
 9537SOL    HW129510   2.075   0.566   0.504
 9537SOL    HW229511   2.024   0.451   0.399
 9538SOL     OW29512   6.025   3.800   2.838
 9538SOL    HW129513   6.090   3.728   2.812
 9538SOL    HW229514   5.943   3.758   2.877
 9539SOL     OW29515   6.888   3.667   6.568
 9539SOL    HW129516   6.910   3.763   6.552
 9539SOL    HW229517   6.922   3.639   6.657
 9540SOL     OW29518   5.661   3.665   5.916
 9540SOL    HW129519   5.725   3.708   5.979
 9540SOL    HW229520   5.693   3.573   5.894
 9541SOL     OW29521   6.559   2.449   3.662
 9541SOL    HW129522   6.460   2.446   3.671
 9541SOL    HW229523   6.585   2.528   3.606
 9542SOL     OW29524   4.716   4.252   4.684
 9542SOL    HW129525   4.793   4.310   4.656
 9542SOL    HW229526   4.636   4.309   4.698
 9543SOL     OW29527   3.926   3.000   0.508
 9543SOL    HW129528   3.870   2.968   0.585
 9543SOL    HW229529   4.019   2.967   0.520
 9544SOL     OW29530   4.585   0.148   0.798
 9544SOL    HW129531   4.647   0.097   0.739
 9544SOL    HW229532   4.503   0.094   0.816
 9545SOL     OW29533   1.143   6.775   4.338
 9545SOL    HW129534   1.230   6.812   4.305
 9545SOL    HW229535   1.093   6.845   4.389
 9546SOL     OW29536   2.612   4.701   1.991
 9546SOL    HW129537   2.591   4.771   1.923
 9546SOL    HW229538   2.711   4.689   1.997
 9547SOL     OW29539   5.284   5.983   3.754
 9547SOL    HW129540   5.308   6.007   3.660
 9547SOL    HW229541   5.356   6.015   3.816
 9548SOL     OW29542   5.704   6.966   2.495
 9548SOL    HW129543   5.775   6.897   2.480
 9548SOL    HW229544   5.620   6.938   2.448
 9549SOL     OW29545   2.241   6.122   6.880
 9549SOL    HW129546   2.174   6.067   6.930
 9549SOL    HW229547   2.228   6.108   6.782
 9550SOL     OW29548   1.665   0.786   0.144
 9550SOL    HW129549   1.652   0.840   0.060
 9550SOL    HW229550   1.737   0.829   0.199
 9551SOL     OW29551   1.549   5.696   5.207
 9551SOL    HW129552   1.596   5.784   5.219
 9551SOL    HW229553   1.569   5.637   5.285
 9552SOL     OW29554   0.399   5.409   2.844
 9552SOL    HW129555   0.299   5.417   2.839
 9552SOL    HW229556   0.440   5.450   2.762
 9553SOL     OW29557   5.636   4.923   6.423
 9553SOL    HW129558   5.667   4.833   6.455
 9553SOL    HW229559   5.582   4.967   6.495
 9554SOL     OW29560   2.649   1.669   2.453
 9554SOL    HW129561   2.602   1.596   2.501
 9554SOL    HW229562   2.583   1.736   2.419
 9555SOL     OW29563   6.798   2.450   6.392
 9555SOL    HW129564   6.756   2.455   6.483
 9555SOL    HW229565   6.728   2.462   6.322
 9556SOL     OW29566   6.747   0.842   0.921
 9556SOL    HW129567   6.697   0.919   0.880
 9556SOL    HW229568   6.822   0.877   0.977
 9557SOL     OW29569   4.899   1.553   1.796
 9557SOL    HW129570   4.852   1.476   1.839
 9557SOL    HW229571   4.890   1.547   1.697
 9558SOL     OW29572   6.852   3.439   1.272
 9558SOL    HW129573   6.869   3.537   1.287
 9558SOL    HW229574   6.939   3.392   1.258
 9559SOL     OW29575   0.689   4.452   2.655
 9559SOL    HW129576   0.716   4.361   2.686
 9559SOL    HW229577   0.590   4.463   2.665
 9560SOL     OW29578   3.681   2.501   5.760
 9560SOL    HW129579   3.705   2.483   5.664
 9560SOL    HW229580   3.761   2.486   5.817
 9561SOL     OW29581   3.615   5.546   6.756
 9561SOL    HW129582   3.624   5.449   6.776
 9561SOL    HW229583   3.617   5.560   6.657
 9562SOL     OW29584   6.139   5.138   4.199
 9562SOL    HW129585   6.133   5.172   4.105
 9562SOL    HW229586   6.223   5.172   4.241
 9563SOL     OW29587   0.454   6.947   6.513
 9563SOL    HW129588   0.541   6.926   6.558
 9563SOL    HW229589   0.382   6.888   6.550
 9564SOL     OW29590   0.868   1.021   6.009
 9564SOL    HW129591   0.838   0.957   6.079
 9564SOL    HW229592   0.968   1.019   6.003
 9565SOL     OW29593   2.719   5.968   5.500
 9565SOL    HW129594   2.788   6.013   5.442
 9565SOL    HW229595   2.709   5.873   5.470
 9566SOL     OW29596   2.926   5.109   5.333
 9566SOL    HW129597   2.845   5.067   5.293
 9566SOL    HW229598   2.906   5.137   5.427
 9567SOL     OW29599   6.147   4.610   4.558
 9567SOL    HW129600   6.075   4.541   4.564
 9567SOL    HW229601   6.233   4.571   4.592
 9568SOL     OW29602   5.727   3.412   5.847
 9568SOL    HW129603   5.744   3.360   5.931
 9568SOL    HW229604   5.669   3.358   5.786
 9569SOL     OW29605   5.938   0.144   1.367
 9569SOL    HW129606   5.978   0.216   1.424
 9569SOL    HW229607   5.995   0.132   1.285
 9570SOL     OW29608   0.966   2.257   6.843
 9570SOL    HW129609   0.908   2.257   6.925
 9570SOL    HW229610   0.944   2.335   6.786
 9571SOL     OW29611   3.412   1.809   0.756
 9571SOL    HW129612   3.385   1.726   0.707
 9571SOL    HW229613   3.460   1.785   0.840
 9572SOL     OW29614   0.465   3.993   0.711
 9572SOL    HW129615   0.411   4.025   0.634
 9572SOL    HW229616   0.561   4.019   0.698
 9573SOL     OW29617   4.758   1.698   2.357
 9573SOL    HW129618   4.692   1.663   2.423
 9573SOL    HW229619   4.766   1.633   2.281
 9574SOL     OW29620   3.209   2.046   3.751
 9574SOL    HW129621   3.249   2.098   3.827
 9574SOL    HW229622   3.166   2.110   3.688
 9575SOL     OW29623   3.753   1.552   2.966
 9575SOL    HW129624   3.776   1.638   3.011
 9575SOL    HW229625   3.837   1.510   2.931
 9576SOL     OW29626   3.662   3.234   5.481
 9576SOL    HW129627   3.569   3.201   5.465
 9576SOL    HW229628   3.700   3.188   5.561
 9577SOL     OW29629   0.377   5.133   3.876
 9577SOL    HW129630   0.434   5.077   3.937
 9577SOL    HW229631   0.424   5.219   3.857
 9578SOL     OW29632   0.155   3.936   1.436
 9578SOL    HW129633   0.246   3.902   1.413
 9578SOL    HW229634   0.142   4.027   1.396
 9579SOL     OW29635   1.329   5.141   3.022
 9579SOL    HW129636   1.343   5.063   3.084
 9579SOL    HW229637   1.407   5.149   2.960
 9580SOL     OW29638   4.178   3.894   5.278
 9580SOL    HW129639   4.276   3.883   5.297
 9580SOL    HW229640   4.150   3.826   5.210
 9581SOL     OW29641   0.924   5.697   5.768
 9581SOL    HW129642   0.826   5.689   5.782
 9581SOL    HW229643   0.965   5.746   5.845
 9582SOL     OW29644   3.673   5.795   2.874
 9582SOL    HW129645   3.700   5.830   2.784
 9582SOL    HW229646   3.754   5.787   2.932
 9583SOL     OW29647   1.585   5.137   1.661
 9583SOL    HW129648   1.498   5.186   1.668
 9583SOL    HW229649   1.661   5.202   1.664
 9584SOL     OW29650   5.390   4.267   6.925
 9584SOL    HW129651   5.362   4.198   6.991
 9584SOL    HW229652   5.442   4.224   6.851
 9585SOL     OW29653   6.342   1.294   3.393
 9585SOL    HW129654   6.348   1.297   3.293
 9585SOL    HW229655   6.257   1.248   3.419
 9586SOL     OW29656   4.874   3.915   2.395
 9586SOL    HW129657   4.818   3.981   2.346
 9586SOL    HW229658   4.818   3.836   2.421
 9587SOL     OW29659   4.669   6.142   1.581
 9587SOL    HW129660   4.606   6.080   1.629
 9587SOL    HW229661   4.618   6.193   1.511
 9588SOL     OW29662   6.265   1.641   3.529
 9588SOL    HW129663   6.361   1.615   3.525
 9588SOL    HW229664   6.213   1.570   3.576
 9589SOL     OW29665   4.041   1.896   5.511
 9589SOL    HW129666   4.044   1.842   5.426
 9589SOL    HW229667   4.062   1.992   5.489
 9590SOL     OW29668   0.123   4.997   4.335
 9590SOL    HW129669   0.221   4.982   4.347
 9590SOL    HW229670   0.080   4.913   4.303
 9591SOL     OW29671   0.374   4.578   2.114
 9591SOL    HW129672   0.433   4.534   2.182
 9591SOL    HW229673   0.289   4.526   2.105
 9592SOL     OW29674   3.933   5.731   0.452
 9592SOL    HW129675   3.837   5.742   0.479
 9592SOL    HW229676   3.972   5.821   0.434
 9593SOL     OW29677   2.055   2.009   3.259
 9593SOL    HW129678   2.034   2.017   3.356
 9593SOL    HW229679   2.152   1.990   3.247
 9594SOL     OW29680   5.724   0.305   1.292
 9594SOL    HW129681   5.804   0.247   1.303
 9594SOL    HW229682   5.718   0.369   1.369
 9595SOL     OW29683   2.030   5.743   5.566
 9595SOL    HW129684   1.988   5.730   5.477
 9595SOL    HW229685   1.968   5.711   5.638
 9596SOL     OW29686   5.209   5.515   2.243
 9596SOL    HW129687   5.159   5.487   2.325
 9596SOL    HW229688   5.297   5.553   2.269
 9597SOL     OW29689   2.189   5.300   1.380
 9597SOL    HW129690   2.140   5.386   1.390
 9597SOL    HW229691   2.124   5.225   1.370
 9598SOL     OW29692   0.417   6.049   6.404
 9598SOL    HW129693   0.340   6.091   6.356
 9598SOL    HW229694   0.389   6.024   6.497
 9599SOL     OW29695   4.101   2.156   5.466
 9599SOL    HW129696   4.047   2.152   5.550
 9599SOL    HW229697   4.064   2.227   5.406
 9600SOL     OW29698   1.448   6.578   6.512
 9600SOL    HW129699   1.442   6.482   6.540
 9600SOL    HW229700   1.538   6.615   6.535
 9601SOL     OW29701   0.941   6.664   4.647
 9601SOL    HW129702   0.924   6.630   4.555
 9601SOL    HW229703   0.952   6.763   4.645
 9602SOL     OW29704   1.201   5.632   6.126
 9602SOL    HW129705   1.245   5.613   6.038
 9602SOL    HW229706   1.152   5.550   6.157
 9603SOL     OW29707   1.117   5.614   1.394
 9603SOL    HW129708   1.076   5.694   1.350
 9603SOL    HW229709   1.046   5.563   1.443
 9604SOL     OW29710   0.079   0.787   6.239
 9604SOL    HW129711   0.038   0.853   6.302
 9604SOL    HW229712   0.178   0.788   6.249
 9605SOL     OW29713   3.418   4.585   1.412
 9605SOL    HW129714   3.341   4.615   1.356
 9605SOL    HW229715   3.385   4.548   1.498
 9606SOL     OW29716   0.147   0.944   5.396
 9606SOL    HW129717   0.084   0.926   5.472
 9606SOL    HW229718   0.239   0.959   5.432
 9607SOL     OW29719   0.286   2.590   3.578
 9607SOL    HW129720   0.229   2.641   3.642
 9607SOL    HW229721   0.363   2.550   3.627
 9608SOL     OW29722   5.878   0.995   1.485
 9608SOL    HW129723   5.831   0.944   1.557
 9608SOL    HW229724   5.971   0.959   1.475
 9609SOL     OW29725   1.472   2.094   4.042
 9609SOL    HW129726   1.460   2.061   3.948
 9609SOL    HW229727   1.561   2.065   4.077
 9610SOL     OW29728   4.685   1.085   5.462
 9610SOL    HW129729   4.671   1.015   5.532
 9610SOL    HW229730   4.766   1.138   5.483
 9611SOL     OW29731   4.347   5.133   0.906
 9611SOL    HW129732   4.421   5.078   0.866
 9611SOL    HW229733   4.380   5.177   0.989
 9612SOL     OW29734   5.794   3.599   3.894
 9612SOL    HW129735   5.738   3.681   3.886
 9612SOL    HW229736   5.848   3.587   3.811
 9613SOL     OW29737   5.756   0.504   4.767
 9613SOL    HW129738   5.825   0.549   4.825
 9613SOL    HW229739   5.679   0.476   4.824
 9614SOL     OW29740   2.615   3.047   0.502
 9614SOL    HW129741   2.533   3.096   0.472
 9614SOL    HW229742   2.628   2.966   0.446
 9615SOL     OW29743   7.005   5.278   3.955
 9615SOL    HW129744   0.008   5.189   3.989
 9615SOL    HW229745   7.004   5.343   4.031
 9616SOL     OW29746   1.106   2.172   1.115
 9616SOL    HW129747   1.115   2.240   1.042
 9616SOL    HW229748   1.154   2.089   1.089
 9617SOL     OW29749   0.635   2.974   3.558
 9617SOL    HW129750   0.732   2.991   3.540
 9617SOL    HW229751   0.613   2.880   3.535
 9618SOL     OW29752   4.971   3.832   2.150
 9618SOL    HW129753   4.982   3.910   2.089
 9618SOL    HW229754   4.966   3.864   2.244
 9619SOL     OW29755   1.142   0.165   0.520
 9619SOL    HW129756   1.179   0.143   0.611
 9619SOL    HW229757   1.139   0.264   0.508
 9620SOL     OW29758   4.069   0.966   6.397
 9620SOL    HW129759   4.044   0.959   6.494
 9620SOL    HW229760   4.027   1.048   6.358
 9621SOL     OW29761   0.108   0.990   1.476
 9621SOL    HW129762   0.057   1.019   1.557
 9621SOL    HW229763   0.061   0.912   1.434
 9622SOL     OW29764   6.510   6.764   5.048
 9622SOL    HW129765   6.563   6.771   4.963
 9622SOL    HW229766   6.557   6.813   5.121
 9623SOL     OW29767   2.638   6.567   5.962
 9623SOL    HW129768   2.633   6.468   5.971
 9623SOL    HW229769   2.572   6.610   6.025
 9624SOL     OW29770   4.804   5.321   6.481
 9624SOL    HW129771   4.844   5.300   6.570
 9624SOL    HW229772   4.835   5.411   6.451
 9625SOL     OW29773   5.195   4.739   6.059
 9625SOL    HW129774   5.215   4.718   5.963
 9625SOL    HW229775   5.225   4.663   6.116
 9626SOL     OW29776   2.185   3.002   6.372
 9626SOL    HW129777   2.247   3.080   6.369
 9626SOL    HW229778   2.206   2.946   6.453
 9627SOL     OW29779   6.963   6.092   0.669
 9627SOL    HW129780   0.033   6.114   0.676
 9627SOL    HW229781   6.941   6.068   0.574
 9628SOL     OW29782   5.894   0.935   5.642
 9628SOL    HW129783   5.941   0.942   5.730
 9628SOL    HW229784   5.958   0.902   5.573
 9629SOL     OW29785   0.382   5.400   3.692
 9629SOL    HW129786   0.419   5.367   3.605
 9629SOL    HW229787   0.362   5.498   3.684
 9630SOL     OW29788   5.809   6.926   6.666
 9630SOL    HW129789   5.876   6.978   6.614
 9630SOL    HW229790   5.850   6.895   6.752
 9631SOL     OW29791   4.692   5.895   0.823
 9631SOL    HW129792   4.636   5.916   0.742
 9631SOL    HW229793   4.635   5.850   0.892
 9632SOL     OW29794   2.737   5.077   3.046
 9632SOL    HW129795   2.658   5.069   2.986
 9632SOL    HW229796   2.815   5.112   2.994
 9633SOL     OW29797   3.275   2.833   5.141
 9633SOL    HW129798   3.219   2.915   5.155
 9633SOL    HW229799   3.225   2.753   5.174
 9634SOL     OW29800   5.476   4.244   2.749
 9634SOL    HW129801   5.540   4.246   2.672
 9634SOL    HW229802   5.398   4.302   2.728
 9635SOL     OW29803   0.524   5.409   4.659
 9635SOL    HW129804   0.432   5.447   4.657
 9635SOL    HW229805   0.537   5.349   4.580
 9636SOL     OW29806   5.222   3.405   3.979
 9636SOL    HW129807   5.123   3.397   3.978
 9636SOL    HW229808   5.256   3.412   3.885
 9637SOL     OW29809   1.782   3.095   6.723
 9637SOL    HW129810   1.733   3.178   6.748
 9637SOL    HW229811   1.842   3.114   6.645
 9638SOL     OW29812   0.073   4.263   5.282
 9638SOL    HW129813   0.130   4.292   5.204
 9638SOL    HW229814   7.021   4.212   5.248
 9639SOL     OW29815   4.771   2.734   1.587
 9639SOL    HW129816   4.759   2.639   1.556
 9639SOL    HW229817   4.688   2.764   1.634
 9640SOL     OW29818   3.617   0.072   3.089
 9640SOL    HW129819   3.701   0.104   3.134
 9640SOL    HW229820   3.616   6.999   3.086
 9641SOL     OW29821   0.343   3.526   4.466
 9641SOL    HW129822   0.292   3.589   4.526
 9641SOL    HW229823   0.280   3.457   4.430
 9642SOL     OW29824   0.532   3.136   4.792
 9642SOL    HW129825   0.564   3.082   4.870
 9642SOL    HW229826   0.607   3.152   4.729
 9643SOL     OW29827   5.559   4.975   4.046
 9643SOL    HW129828   5.489   4.947   3.981
 9643SOL    HW229829   5.557   5.075   4.056
 9644SOL     OW29830   1.374   5.088   3.470
 9644SOL    HW129831   1.355   5.034   3.553
 9644SOL    HW229832   1.293   5.088   3.412
 9645SOL     OW29833   1.479   4.641   6.641
 9645SOL    HW129834   1.411   4.609   6.707
 9645SOL    HW229835   1.569   4.605   6.664
 9646SOL     OW29836   2.730   5.189   1.302
 9646SOL    HW129837   2.752   5.250   1.226
 9646SOL    HW229838   2.811   5.176   1.359
 9647SOL     OW29839   5.945   6.821   2.956
 9647SOL    HW129840   5.975   6.895   2.897
 9647SOL    HW229841   5.848   6.833   2.978
 9648SOL     OW29842   3.277   1.944   1.206
 9648SOL    HW129843   3.340   1.888   1.259
 9648SOL    HW229844   3.225   2.004   1.267
 9649SOL     OW29845   6.906   6.378   1.308
 9649SOL    HW129846   6.896   6.470   1.270
 9649SOL    HW229847   6.943   6.384   1.401
 9650SOL     OW29848   0.700   5.353   4.882
 9650SOL    HW129849   0.780   5.295   4.864
 9650SOL    HW229850   0.644   5.358   4.800
 9651SOL     OW29851   4.163   1.804   6.881
 9651SOL    HW129852   4.075   1.804   6.833
 9651SOL    HW229853   4.229   1.749   6.830
 9652SOL     OW29854   0.035   3.543   0.465
 9652SOL    HW129855   0.097   3.586   0.531
 9652SOL    HW229856   0.024   3.446   0.488
 9653SOL     OW29857   5.334   4.297   5.444
 9653SOL    HW129858   5.303   4.335   5.357
 9653SOL    HW229859   5.403   4.227   5.427
 9654SOL     OW29860   4.006   3.875   3.792
 9654SOL    HW129861   4.062   3.914   3.866
 9654SOL    HW229862   3.954   3.797   3.827
 9655SOL     OW29863   5.039   0.408   0.862
 9655SOL    HW129864   5.067   0.456   0.945
 9655SOL    HW229865   4.973   0.465   0.812
 9656SOL     OW29866   5.224   4.538   6.246
 9656SOL    HW129867   5.235   4.439   6.244
 9656SOL    HW229868   5.140   4.562   6.295
 9657SOL     OW29869   4.870   4.858   2.931
 9657SOL    HW129870   4.914   4.771   2.954
 9657SOL    HW229871   4.829   4.897   3.013
 9658SOL     OW29872   5.457   0.964   2.147
 9658SOL    HW129873   5.499   1.052   2.171
 9658SOL    HW229874   5.528   0.893   2.146
 9659SOL     OW29875   2.847   3.011   6.969
 9659SOL    HW129876   2.909   2.933   6.962
 9659SOL    HW229877   2.890   3.091   6.927
 9660SOL     OW29878   2.288   0.105   1.581
 9660SOL    HW129879   2.272   0.184   1.522
 9660SOL    HW229880   2.326   0.030   1.527
 9661SOL     OW29881   4.100   3.660   2.003
 9661SOL    HW129882   4.115   3.563   1.987
 9661SOL    HW229883   4.157   3.713   1.939
 9662SOL     OW29884   4.468   7.003   5.715
 9662SOL    HW129885   4.464   7.010   5.814
 9662SOL    HW229886   4.559   6.972   5.687
 9663SOL     OW29887   1.051   5.858   2.508
 9663SOL    HW129888   1.083   5.763   2.511
 9663SOL    HW229889   0.952   5.860   2.520
 9664SOL     OW29890   2.123   4.907   3.191
 9664SOL    HW129891   2.160   4.908   3.098
 9664SOL    HW229892   2.125   5.000   3.229
 9665SOL     OW29893   6.578   4.650   6.470
 9665SOL    HW129894   6.540   4.558   6.467
 9665SOL    HW229895   6.653   4.658   6.405
 9666SOL     OW29896   5.066   3.480   1.112
 9666SOL    HW129897   5.081   3.562   1.058
 9666SOL    HW229898   5.141   3.469   1.177
 9667SOL     OW29899   5.774   6.025   6.677
 9667SOL    HW129900   5.824   6.111   6.679
 9667SOL    HW229901   5.822   5.957   6.732
 9668SOL     OW29902   2.158   0.664   0.266
 9668SOL    HW129903   2.122   0.572   0.256
 9668SOL    HW229904   2.153   0.692   0.362
 9669SOL     OW29905   3.975   0.455   7.013
 9669SOL    HW129906   4.043   0.404   0.038
 9669SOL    HW229907   3.969   0.418   6.920
 9670SOL     OW29908   0.770   1.407   1.578
 9670SOL    HW129909   0.742   1.503   1.574
 9670SOL    HW229910   0.869   1.402   1.589
 9671SOL     OW29911   0.950   6.044   6.438
 9671SOL    HW129912   0.851   6.044   6.429
 9671SOL    HW229913   0.977   6.004   6.525
 9672SOL     OW29914   0.642   3.466   4.570
 9672SOL    HW129915   0.558   3.464   4.516
 9672SOL    HW229916   0.621   3.494   4.664
 9673SOL     OW29917   2.425   3.167   6.439
 9673SOL    HW129918   2.483   3.129   6.368
 9673SOL    HW229919   2.418   3.266   6.427
 9674SOL     OW29920   2.263   0.035   4.287
 9674SOL    HW129921   2.170   7.026   4.271
 9674SOL    HW229922   2.316   6.994   4.338
 9675SOL     OW29923   6.181   4.132   5.945
 9675SOL    HW129924   6.252   4.201   5.936
 9675SOL    HW229925   6.120   4.157   6.021
 9676SOL     OW29926   0.792   3.433   5.743
 9676SOL    HW129927   0.809   3.529   5.721
 9676SOL    HW229928   0.875   3.380   5.724
 9677SOL     OW29929   0.462   4.938   2.483
 9677SOL    HW129930   0.384   4.964   2.540
 9677SOL    HW229931   0.433   4.875   2.411
 9678SOL     OW29932   4.094   3.128   5.587
 9678SOL    HW129933   4.075   3.125   5.489
 9678SOL    HW229934   4.140   3.043   5.614
 9679SOL     OW29935   1.222   1.017   3.652
 9679SOL    HW129936   1.161   0.940   3.633
 9679SOL    HW229937   1.216   1.084   3.577
 9680SOL     OW29938   4.765   0.610   2.373
 9680SOL    HW129939   4.824   0.663   2.313
 9680SOL    HW229940   4.670   0.639   2.361
 9681SOL     OW29941   0.844   3.670   1.150
 9681SOL    HW129942   0.878   3.757   1.113
 9681SOL    HW229943   0.864   3.666   1.248
 9682SOL     OW29944   4.281   6.644   5.365
 9682SOL    HW129945   4.328   6.575   5.309
 9682SOL    HW229946   4.347   6.713   5.394
 9683SOL     OW29947   3.231   6.138   4.300
 9683SOL    HW129948   3.329   6.126   4.282
 9683SOL    HW229949   3.200   6.070   4.366
 9684SOL     OW29950   0.258   2.959   6.175
 9684SOL    HW129951   0.246   2.900   6.255
 9684SOL    HW229952   0.255   3.055   6.204
 9685SOL     OW29953   3.771   4.399   1.726
 9685SOL    HW129954   3.705   4.449   1.670
 9685SOL    HW229955   3.727   4.317   1.764
 9686SOL     OW29956   0.080   1.665   5.700
 9686SOL    HW129957   0.060   1.663   5.797
 9686SOL    HW229958   0.095   1.572   5.666
 9687SOL     OW29959   5.536   1.843   3.894
 9687SOL    HW129960   5.498   1.761   3.851
 9687SOL    HW229961   5.548   1.914   3.825
 9688SOL     OW29962   0.027   5.212   1.516
 9688SOL    HW129963   0.076   5.130   1.485
 9688SOL    HW229964   7.023   5.264   1.437
 9689SOL     OW29965   1.784   5.567   1.419
 9689SOL    HW129966   1.716   5.630   1.458
 9689SOL    HW229967   1.791   5.582   1.321
 9690SOL     OW29968   6.207   4.547   4.935
 9690SOL    HW129969   6.180   4.455   4.962
 9690SOL    HW229970   6.240   4.545   4.841
 9691SOL     OW29971   3.797   3.287   2.184
 9691SOL    HW129972   3.717   3.274   2.126
 9691SOL    HW229973   3.836   3.197   2.208
 9692SOL     OW29974   5.243   4.355   0.845
 9692SOL    HW129975   5.195   4.371   0.759
 9692SOL    HW229976   5.199   4.279   0.894
 9693SOL     OW29977   4.490   2.857   6.665
 9693SOL    HW129978   4.561   2.787   6.663
 9693SOL    HW229979   4.522   2.937   6.715
 9694SOL     OW29980   2.329   6.581   1.145
 9694SOL    HW129981   2.272   6.660   1.122
 9694SOL    HW229982   2.302   6.546   1.235
 9695SOL     OW29983   1.952   2.439   3.668
 9695SOL    HW129984   1.869   2.493   3.684
 9695SOL    HW229985   1.999   2.425   3.755
 9696SOL     OW29986   5.187   2.655   3.508
 9696SOL    HW129987   5.210   2.571   3.558
 9696SOL    HW229988   5.102   2.642   3.458
 9697SOL     OW29989   7.022   6.909   1.422
 9697SOL    HW129990   0.003   6.996   1.373
 9697SOL    HW229991   6.926   6.890   1.440
 9698SOL     OW29992   6.749   3.155   1.994
 9698SOL    HW129993   6.795   3.223   2.052
 9698SOL    HW229994   6.651   3.172   1.996
 9699SOL     OW29995   1.081   6.749   1.987
 9699SOL    HW129996   1.176   6.749   2.020
 9699SOL    HW229997   1.047   6.843   1.984
 9700SOL     OW29998   6.234   0.462   6.505
 9700SOL    HW129999   6.157   0.413   6.466
 9700SOL    HW230000   6.216   0.561   6.504
 9701SOL     OW30001   5.363   3.833   6.919
 9701SOL    HW130002   5.349   3.926   6.952
 9701SOL    HW230003   5.282   3.777   6.939
 9702SOL     OW30004   3.355   3.916   1.784
 9702SOL    HW130005   3.322   3.968   1.864
 9702SOL    HW230006   3.301   3.942   1.704
 9703SOL     OW30007   6.487   5.347   2.894
 9703SOL    HW130008   6.502   5.408   2.816
 9703SOL    HW230009   6.389   5.327   2.901
 9704SOL     OW30010   0.748   4.669   2.012
 9704SOL    HW130011   0.727   4.764   2.033
 9704SOL    HW230012   0.667   4.625   1.973
 9705SOL     OW30013   0.251   3.719   6.203
 9705SOL    HW130014   0.261   3.698   6.300
 9705SOL    HW230015   0.278   3.814   6.187
 9706SOL     OW30016   1.342   6.981   2.324
 9706SOL    HW130017   1.383   6.965   2.234
 9706SOL    HW230018   1.299   0.044   2.326
 9707SOL     OW30019   1.400   5.408   1.972
 9707SOL    HW130020   1.499   5.407   1.987
 9707SOL    HW230021   1.371   5.319   1.937
 9708SOL     OW30022   3.018   1.060   1.957
 9708SOL    HW130023   2.986   1.062   2.052
 9708SOL    HW230024   3.031   0.965   1.928
 9709SOL     OW30025   4.432   1.532   1.795
 9709SOL    HW130026   4.374   1.577   1.864
 9709SOL    HW230027   4.437   1.434   1.815
 9710SOL     OW30028   4.890   4.937   4.238
 9710SOL    HW130029   4.919   4.981   4.322
 9710SOL    HW230030   4.812   4.877   4.257
 9711SOL     OW30031   3.036   1.196   6.563
 9711SOL    HW130032   3.055   1.244   6.477
 9711SOL    HW230033   3.111   1.132   6.583
 9712SOL     OW30034   5.240   6.691   5.105
 9712SOL    HW130035   5.260   6.719   5.011
 9712SOL    HW230036   5.236   6.771   5.164
 9713SOL     OW30037   1.913   0.869   2.877
 9713SOL    HW130038   1.834   0.917   2.838
 9713SOL    HW230039   1.950   0.804   2.810
 9714SOL     OW30040   2.359   2.686   4.049
 9714SOL    HW130041   2.378   2.644   3.961
 9714SOL    HW230042   2.337   2.782   4.036
 9715SOL     OW30043   6.863   2.162   6.012
 9715SOL    HW130044   6.896   2.249   6.050
 9715SOL    HW230045   6.793   2.180   5.943
 9716SOL     OW30046   2.127   6.755   1.079
 9716SOL    HW130047   2.154   6.834   1.024
 9716SOL    HW230048   2.027   6.751   1.085
 9717SOL     OW30049   3.458   2.661   5.988
 9717SOL    HW130050   3.396   2.604   5.933
 9717SOL    HW230051   3.483   2.743   5.936
 9718SOL     OW30052   3.224   2.569   7.002
 9718SOL    HW130053   3.250   2.516   6.922
 9718SOL    HW230054   3.256   2.523   0.058
 9719SOL     OW30055   4.296   0.277   5.749
 9719SOL    HW130056   4.334   0.204   5.806
 9719SOL    HW230057   4.347   0.361   5.765
 9720SOL     OW30058   1.927   2.780   2.533
 9720SOL    HW130059   1.950   2.838   2.455
 9720SOL    HW230060   1.867   2.705   2.503
 9721SOL     OW30061   1.313   2.101   1.429
 9721SOL    HW130062   1.357   2.119   1.517
 9721SOL    HW230063   1.281   2.187   1.390
 9722SOL     OW30064   4.120   2.765   5.317
 9722SOL    HW130065   4.151   2.678   5.279
 9722SOL    HW230066   4.022   2.763   5.332
 9723SOL     OW30067   6.018   0.506   4.288
 9723SOL    HW130068   6.069   0.568   4.228
 9723SOL    HW230069   5.952   0.454   4.233
 9724SOL     OW30070   1.882   5.264   1.219
 9724SOL    HW130071   1.868   5.191   1.152
 9724SOL    HW230072   1.931   5.340   1.176
 9725SOL     OW30073   5.250   5.613   3.591
 9725SOL    HW130074   5.231   5.614   3.689
 9725SOL    HW230075   5.313   5.538   3.569
 9726SOL     OW30076   6.709   6.993   3.452
 9726SOL    HW130077   6.725   6.961   3.546
 9726SOL    HW230078   6.656   6.924   3.402
 9727SOL     OW30079   6.147   2.589   1.514
 9727SOL    HW130080   6.116   2.497   1.538
 9727SOL    HW230081   6.177   2.637   1.596
 9728SOL     OW30082   5.769   1.834   4.901
 9728SOL    HW130083   5.686   1.835   4.957
 9728SOL    HW230084   5.843   1.879   4.951
 9729SOL     OW30085   0.378   3.710   2.672
 9729SOL    HW130086   0.457   3.650   2.664
 9729SOL    HW230087   0.342   3.730   2.581
 9730SOL     OW30088   0.871   5.363   3.471
 9730SOL    HW130089   0.953   5.309   3.489
 9730SOL    HW230090   0.824   5.382   3.557
 9731SOL     OW30091   0.088   2.558   1.791
 9731SOL    HW130092   0.116   2.648   1.759
 9731SOL    HW230093   7.025   2.535   1.754
 9732SOL     OW30094   1.343   2.749   3.141
 9732SOL    HW130095   1.427   2.729   3.089
 9732SOL    HW230096   1.317   2.668   3.194
 9733SOL     OW30097   6.033   5.108   1.323
 9733SOL    HW130098   6.089   5.151   1.394
 9733SOL    HW230099   5.937   5.131   1.340
 9734SOL     OW30100   4.396   4.454   6.875
 9734SOL    HW130101   4.324   4.523   6.873
 9734SOL    HW230102   4.385   4.396   6.956
 9735SOL     OW30103   1.113   1.538   0.155
 9735SOL    HW130104   1.135   1.458   0.099
 9735SOL    HW230105   1.106   1.619   0.097
 9736SOL     OW30106   5.049   2.046   5.307
 9736SOL    HW130107   5.020   2.084   5.220
 9736SOL    HW230108   5.133   1.992   5.294
 9737SOL     OW30109   5.396   2.991   5.183
 9737SOL    HW130110   5.389   2.892   5.197
 9737SOL    HW230111   5.350   3.017   5.098
 9738SOL     OW30112   2.406   6.657   1.816
 9738SOL    HW130113   2.494   6.681   1.775
 9738SOL    HW230114   2.345   6.623   1.744
 9739SOL     OW30115   5.528   6.826   0.179
 9739SOL    HW130116   5.542   6.896   0.249
 9739SOL    HW230117   5.549   6.736   0.219
 9740SOL     OW30118   6.475   0.846   1.092
 9740SOL    HW130119   6.432   0.842   1.002
 9740SOL    HW230120   6.481   0.754   1.131
 9741SOL     OW30121   2.482   2.637   3.565
 9741SOL    HW130122   2.564   2.581   3.577
 9741SOL    HW230123   2.453   2.634   3.470
 9742SOL     OW30124   4.336   1.633   6.759
 9742SOL    HW130125   4.306   1.644   6.664
 9742SOL    HW230126   4.434   1.652   6.765
 9743SOL     OW30127   6.824   3.223   4.681
 9743SOL    HW130128   6.787   3.218   4.773
 9743SOL    HW230129   6.892   3.151   4.668
 9744SOL     OW30130   1.880   2.415   2.456
 9744SOL    HW130131   1.831   2.342   2.407
 9744SOL    HW230132   1.860   2.408   2.554
 9745SOL     OW30133   1.043   6.770   6.350
 9745SOL    HW130134   1.093   6.730   6.273
 9745SOL    HW230135   0.947   6.779   6.327
 9746SOL     OW30136   3.248   6.350   5.971
 9746SOL    HW130137   3.205   6.305   6.049
 9746SOL    HW230138   3.275   6.443   5.997
 9747SOL     OW30139   3.892   1.599   3.381
 9747SOL    HW130140   3.882   1.537   3.303
 9747SOL    HW230141   3.819   1.667   3.380
 9748SOL     OW30142   0.774   2.122   3.071
 9748SOL    HW130143   0.776   2.200   3.134
 9748SOL    HW230144   0.682   2.084   3.068
 9749SOL     OW30145   6.505   0.019   1.092
 9749SOL    HW130146   6.457   6.959   1.103
 9749SOL    HW230147   6.604   0.002   1.092
 9750SOL     OW30148   5.362   2.422   5.257
 9750SOL    HW130149   5.344   2.520   5.250
 9750SOL    HW230150   5.294   2.379   5.317
 9751SOL     OW30151   3.029   6.233   0.880
 9751SOL    HW130152   3.122   6.195   0.880
 9751SOL    HW230153   2.999   6.247   0.786
 9752SOL     OW30154   3.532   3.482   0.672
 9752SOL    HW130155   3.579   3.513   0.590
 9752SOL    HW230156   3.596   3.433   0.731
 9753SOL     OW30157   6.645   5.922   3.411
 9753SOL    HW130158   6.689   6.008   3.436
 9753SOL    HW230159   6.546   5.931   3.422
 9754SOL     OW30160   3.564   1.130   2.518
 9754SOL    HW130161   3.467   1.126   2.543
 9754SOL    HW230162   3.614   1.059   2.568
 9755SOL     OW30163   3.455   3.974   0.904
 9755SOL    HW130164   3.472   4.072   0.912
 9755SOL    HW230165   3.383   3.947   0.967
 9756SOL     OW30166   5.315   0.025   6.575
 9756SOL    HW130167   5.222   7.015   6.580
 9756SOL    HW230168   5.321   0.089   6.498
 9757SOL     OW30169   5.614   3.721   4.638
 9757SOL    HW130170   5.646   3.813   4.613
 9757SOL    HW230171   5.690   3.657   4.630
 9758SOL     OW30172   2.902   0.888   2.426
 9758SOL    HW130173   2.925   0.833   2.345
 9758SOL    HW230174   2.985   0.927   2.464
 9759SOL     OW30175   0.021   2.082   1.236
 9759SOL    HW130176   6.976   2.151   1.246
 9759SOL    HW230177   7.007   1.993   1.216
 9760SOL     OW30178   4.917   0.394   6.349
 9760SOL    HW130179   4.866   0.326   6.297
 9760SOL    HW230180   4.901   0.485   6.311
 9761SOL     OW30181   1.105   1.760   1.594
 9761SOL    HW130182   1.118   1.845   1.645
 9761SOL    HW230183   1.115   1.778   1.496
 9762SOL     OW30184   3.840   1.172   6.436
 9762SOL    HW130185   3.744   1.153   6.414
 9762SOL    HW230186   3.875   1.242   6.374
 9763SOL     OW30187   6.673   2.191   1.159
 9763SOL    HW130188   6.614   2.244   1.098
 9763SOL    HW230189   6.626   2.108   1.188
 9764SOL     OW30190   0.495   2.618   2.696
 9764SOL    HW130191   0.574   2.678   2.701
 9764SOL    HW230192   0.445   2.636   2.611
 9765SOL     OW30193   0.120   2.448   1.489
 9765SOL    HW130194   0.061   2.500   1.426
 9765SOL    HW230195   0.108   2.483   1.582
 9766SOL     OW30196   0.317   2.938   2.940
 9766SOL    HW130197   0.247   2.976   2.881
 9766SOL    HW230198   0.405   2.940   2.892
 9767SOL     OW30199   3.455   1.379   5.062
 9767SOL    HW130200   3.542   1.426   5.047
 9767SOL    HW230201   3.472   1.284   5.089
 9768SOL     OW30202   4.885   1.976   6.902
 9768SOL    HW130203   4.921   2.041   6.969
 9768SOL    HW230204   4.948   1.900   6.892
 9769SOL     OW30205   3.489   1.169   5.237
 9769SOL    HW130206   3.453   1.085   5.198
 9769SOL    HW230207   3.588   1.161   5.248
 9770SOL     OW30208   1.831   3.542   5.310
 9770SOL    HW130209   1.771   3.619   5.290
 9770SOL    HW230210   1.865   3.550   5.404
 9771SOL     OW30211   3.397   0.848   2.298
 9771SOL    HW130212   3.321   0.875   2.358
 9771SOL    HW230213   3.463   0.795   2.351
 9772SOL     OW30214   0.457   0.723   2.092
 9772SOL    HW130215   0.462   0.666   2.010
 9772SOL    HW230216   0.401   0.803   2.074
 9773SOL     OW30217   5.723   6.235   2.160
 9773SOL    HW130218   5.793   6.178   2.203
 9773SOL    HW230219   5.653   6.177   2.119
 9774SOL     OW30220   2.056   5.362   4.490
 9774SOL    HW130221   2.021   5.269   4.495
 9774SOL    HW230222   1.985   5.426   4.521
 9775SOL     OW30223   1.370   1.578   2.768
 9775SOL    HW130224   1.319   1.647   2.818
 9775SOL    HW230225   1.337   1.573   2.673
 9776SOL     OW30226   2.061   5.583   1.438
 9776SOL    HW130227   1.967   5.616   1.451
 9776SOL    HW230228   2.103   5.568   1.527
 9777SOL     OW30229   4.129   2.038   5.082
 9777SOL    HW130230   4.143   2.056   4.984
 9777SOL    HW230231   4.218   2.019   5.125
 9778SOL     OW30232   1.748   3.490   2.984
 9778SOL    HW130233   1.666   3.547   2.991
 9778SOL    HW230234   1.743   3.435   2.900
 9779SOL     OW30235   3.080   0.421   3.315
 9779SOL    HW130236   3.100   0.331   3.353
 9779SOL    HW230237   3.016   0.468   3.376
 9780SOL     OW30238   0.761   1.284   0.749
 9780SOL    HW130239   0.694   1.242   0.687
 9780SOL    HW230240   0.716   1.356   0.802
 9781SOL     OW30241   1.667   1.276   1.827
 9781SOL    HW130242   1.745   1.282   1.889
 9781SOL    HW230243   1.681   1.338   1.750
 9782SOL     OW30244   0.271   2.635   0.421
 9782SOL    HW130245   0.289   2.732   0.403
 9782SOL    HW230246   0.189   2.627   0.477
 9783SOL     OW30247   4.969   1.622   2.563
 9783SOL    HW130248   5.043   1.613   2.629
 9783SOL    HW230249   4.892   1.671   2.606
 9784SOL     OW30250   1.808   1.434   0.212
 9784SOL    HW130251   1.762   1.353   0.248
 9784SOL    HW230252   1.829   1.496   0.287
 9785SOL     OW30253   1.152   3.650   4.982
 9785SOL    HW130254   1.088   3.573   4.973
 9785SOL    HW230255   1.242   3.622   4.951
 9786SOL     OW30256   2.740   4.939   6.567
 9786SOL    HW130257   2.736   4.849   6.522
 9786SOL    HW230258   2.756   4.926   6.665
 9787SOL     OW30259   2.901   3.525   1.277
 9787SOL    HW130260   2.999   3.507   1.268
 9787SOL    HW230261   2.883   3.574   1.362
 9788SOL     OW30262   3.017   6.975   2.880
 9788SOL    HW130263   3.001   6.970   2.979
 9788SOL    HW230264   3.006   6.884   2.840
 9789SOL     OW30265   4.498   1.302   0.911
 9789SOL    HW130266   4.541   1.213   0.926
 9789SOL    HW230267   4.414   1.308   0.965
 9790SOL     OW30268   4.496   5.558   5.144
 9790SOL    HW130269   4.591   5.575   5.172
 9790SOL    HW230270   4.496   5.510   5.056
 9791SOL     OW30271   0.182   0.618   1.445
 9791SOL    HW130272   0.193   0.519   1.456
 9791SOL    HW230273   0.232   0.665   1.518
 9792SOL     OW30274   3.723   4.793   0.866
 9792SOL    HW130275   3.750   4.887   0.847
 9792SOL    HW230276   3.623   4.787   0.865
 9793SOL     OW30277   5.978   0.911   2.188
 9793SOL    HW130278   5.950   0.984   2.250
 9793SOL    HW230279   6.035   0.845   2.238
 9794SOL     OW30280   3.600   5.582   4.618
 9794SOL    HW130281   3.556   5.496   4.593
 9794SOL    HW230282   3.535   5.658   4.605
 9795SOL     OW30283   1.510   3.582   3.465
 9795SOL    HW130284   1.540   3.651   3.399
 9795SOL    HW230285   1.588   3.555   3.523
 9796SOL     OW30286   2.954   3.799   4.148
 9796SOL    HW130287   2.919   3.705   4.156
 9796SOL    HW230288   2.974   3.835   4.239
 9797SOL     OW30289   3.054   5.845   0.244
 9797SOL    HW130290   3.017   5.778   0.180
 9797SOL    HW230291   3.152   5.855   0.228
 9798SOL     OW30292   6.868   4.175   6.727
 9798SOL    HW130293   6.832   4.264   6.753
 9798SOL    HW230294   6.968   4.175   6.734
 9799SOL     OW30295   4.263   6.583   6.739
 9799SOL    HW130296   4.339   6.522   6.719
 9799SOL    HW230297   4.214   6.606   6.655
 9800SOL     OW30298   6.288   4.851   4.864
 9800SOL    HW130299   6.250   4.863   4.772
 9800SOL    HW230300   6.255   4.766   4.903
 9801SOL     OW30301   4.414   6.577   0.911
 9801SOL    HW130302   4.347   6.650   0.908
 9801SOL    HW230303   4.436   6.554   1.006
 9802SOL     OW30304   3.717   3.525   0.211
 9802SOL    HW130305   3.641   3.489   0.156
 9802SOL    HW230306   3.797   3.540   0.152
 9803SOL     OW30307   1.607   3.794   6.443
 9803SOL    HW130308   1.509   3.772   6.443
 9803SOL    HW230309   1.627   3.855   6.520
 9804SOL     OW30310   1.281   4.773   2.834
 9804SOL    HW130311   1.202   4.800   2.890
 9804SOL    HW230312   1.351   4.731   2.893
 9805SOL     OW30313   0.271   5.601   4.651
 9805SOL    HW130314   0.195   5.548   4.614
 9805SOL    HW230315   0.236   5.688   4.686
 9806SOL     OW30316   3.688   1.582   0.041
 9806SOL    HW130317   3.627   1.561   6.992
 9806SOL    HW230318   3.757   1.511   0.049
 9807SOL     OW30319   3.997   3.236   3.356
 9807SOL    HW130320   3.961   3.185   3.278
 9807SOL    HW230321   3.993   3.179   3.438
 9808SOL     OW30322   3.198   5.316   2.240
 9808SOL    HW130323   3.240   5.364   2.317
 9808SOL    HW230324   3.162   5.228   2.271
 9809SOL     OW30325   5.856   2.616   0.916
 9809SOL    HW130326   5.928   2.624   0.986
 9809SOL    HW230327   5.773   2.579   0.958
 9810SOL     OW30328   2.417   3.116   1.377
 9810SOL    HW130329   2.326   3.153   1.394
 9810SOL    HW230330   2.429   3.102   1.278
 9811SOL     OW30331   5.515   3.488   4.376
 9811SOL    HW130332   5.511   3.520   4.281
 9811SOL    HW230333   5.460   3.548   4.434
 9812SOL     OW30334   3.500   5.700   6.353
 9812SOL    HW130335   3.559   5.697   6.434
 9812SOL    HW230336   3.523   5.780   6.298
 9813SOL     OW30337   4.135   0.591   2.354
 9813SOL    HW130338   4.124   0.691   2.352
 9813SOL    HW230339   4.045   0.548   2.346
 9814SOL     OW30340   6.673   1.545   6.208
 9814SOL    HW130341   6.643   1.450   6.217
 9814SOL    HW230342   6.713   1.559   6.118
 9815SOL     OW30343   4.519   2.484   4.678
 9815SOL    HW130344   4.464   2.434   4.745
 9815SOL    HW230345   4.544   2.574   4.715
 9816SOL     OW30346   3.014   1.206   0.028
 9816SOL    HW130347   3.055   1.274   6.994
 9816SOL    HW230348   2.923   1.236   0.056
 9817SOL     OW30349   6.636   0.663   1.379
 9817SOL    HW130350   6.677   0.750   1.408
 9817SOL    HW230351   6.703   0.611   1.327
 9818SOL     OW30352   3.845   2.944   5.396
 9818SOL    HW130353   3.893   3.015   5.344
 9818SOL    HW230354   3.756   2.979   5.425
 9819SOL     OW30355   3.195   0.497   2.012
 9819SOL    HW130356   3.277   0.547   1.983
 9819SOL    HW230357   3.133   0.486   1.935
 9820SOL     OW30358   3.581   2.436   0.310
 9820SOL    HW130359   3.640   2.398   0.239
 9820SOL    HW230360   3.574   2.372   0.386
 9821SOL     OW30361   6.636   5.374   0.034
 9821SOL    HW130362   6.665   5.454   0.088
 9821SOL    HW230363   6.549   5.341   0.069
 9822SOL     OW30364   0.215   0.497   2.527
 9822SOL    HW130365   0.191   0.562   2.598
 9822SOL    HW230366   0.272   0.542   2.458
 9823SOL     OW30367   3.307   6.186   2.045
 9823SOL    HW130368   3.393   6.137   2.031
 9823SOL    HW230369   3.231   6.127   2.019
 9824SOL     OW30370   1.404   4.423   5.824
 9824SOL    HW130371   1.489   4.474   5.814
 9824SOL    HW230372   1.348   4.465   5.895
 9825SOL     OW30373   4.537   5.040   5.303
 9825SOL    HW130374   4.483   5.011   5.224
 9825SOL    HW230375   4.499   4.998   5.386
 9826SOL     OW30376   5.498   6.564   5.197
 9826SOL    HW130377   5.402   6.571   5.169
 9826SOL    HW230378   5.551   6.523   5.123
 9827SOL     OW30379   0.637   4.769   4.499
 9827SOL    HW130380   0.625   4.797   4.404
 9827SOL    HW230381   0.622   4.671   4.507
 9828SOL     OW30382   2.378   2.754   6.872
 9828SOL    HW130383   2.324   2.688   6.820
 9828SOL    HW230384   2.409   2.711   6.957
 9829SOL     OW30385   2.604   4.573   1.164
 9829SOL    HW130386   2.635   4.481   1.186
 9829SOL    HW230387   2.683   4.634   1.153
 9830SOL     OW30388   6.948   1.619   0.668
 9830SOL    HW130389   7.015   1.601   0.739
 9830SOL    HW230390   6.993   1.658   0.588
 9831SOL     OW30391   6.008   6.708   1.306
 9831SOL    HW130392   5.996   6.780   1.374
 9831SOL    HW230393   6.016   6.748   1.215
 9832SOL     OW30394   3.916   4.905   1.411
 9832SOL    HW130395   3.924   4.848   1.493
 9832SOL    HW230396   3.992   4.886   1.349
 9833SOL     OW30397   4.526   4.421   5.961
 9833SOL    HW130398   4.618   4.412   5.923
 9833SOL    HW230399   4.507   4.343   6.021
 9834SOL     OW30400   2.157   2.491   3.875
 9834SOL    HW130401   2.252   2.491   3.844
 9834SOL    HW230402   2.144   2.565   3.942
 9835SOL     OW30403   5.630   1.378   5.101
 9835SOL    HW130404   5.684   1.431   5.167
 9835SOL    HW230405   5.597   1.439   5.029
 9836SOL     OW30406   4.923   4.911   1.783
 9836SOL    HW130407   4.839   4.947   1.822
 9836SOL    HW230408   5.001   4.942   1.837
 9837SOL     OW30409   1.806   6.334   5.552
 9837SOL    HW130410   1.738   6.263   5.569
 9837SOL    HW230411   1.890   6.292   5.518
 9838SOL     OW30412   6.634   5.654   4.946
 9838SOL    HW130413   6.700   5.699   5.006
 9838SOL    HW230414   6.656   5.557   4.938
 9839SOL     OW30415   6.263   2.899   2.972
 9839SOL    HW130416   6.238   2.996   2.975
 9839SOL    HW230417   6.234   2.860   2.885
 9840SOL     OW30418   6.058   0.398   0.478
 9840SOL    HW130419   6.054   0.341   0.396
 9840SOL    HW230420   5.978   0.379   0.535
 9841SOL     OW30421   2.172   3.044   4.184
 9841SOL    HW130422   2.182   3.141   4.162
 9841SOL    HW230423   2.203   3.028   4.277
 9842SOL     OW30424   3.063   3.320   3.386
 9842SOL    HW130425   3.039   3.259   3.310
 9842SOL    HW230426   3.159   3.305   3.412
 9843SOL     OW30427   6.103   4.127   3.469
 9843SOL    HW130428   6.178   4.127   3.535
 9843SOL    HW230429   6.016   4.115   3.518
 9844SOL     OW30430   5.227   0.492   2.674
 9844SOL    HW130431   5.137   0.464   2.707
 9844SOL    HW230432   5.216   0.559   2.601
 9845SOL     OW30433   1.489   1.641   3.473
 9845SOL    HW130434   1.482   1.697   3.391
 9845SOL    HW230435   1.499   1.545   3.447
 9846SOL     OW30436   3.066   3.118   3.179
 9846SOL    HW130437   3.001   3.083   3.111
 9846SOL    HW230438   3.139   3.167   3.131
 9847SOL     OW30439   1.958   4.512   4.816
 9847SOL    HW130440   1.889   4.583   4.804
 9847SOL    HW230441   1.981   4.504   4.913
 9848SOL     OW30442   5.600   3.518   0.532
 9848SOL    HW130443   5.537   3.455   0.577
 9848SOL    HW230444   5.617   3.488   0.439
 9849SOL     OW30445   0.004   6.597   5.523
 9849SOL    HW130446   7.020   6.503   5.556
 9849SOL    HW230447   0.087   6.636   5.562
 9850SOL     OW30448   4.453   7.012   2.864
 9850SOL    HW130449   4.498   0.022   2.783
 9850SOL    HW230450   4.485   0.035   2.945
 9851SOL     OW30451   5.631   3.294   5.248
 9851SOL    HW130452   5.597   3.221   5.308
 9851SOL    HW230453   5.553   3.340   5.206
 9852SOL     OW30454   5.488   1.965   4.125
 9852SOL    HW130455   5.410   1.919   4.166
 9852SOL    HW230456   5.518   1.914   4.044
 9853SOL     OW30457   0.435   4.231   0.969
 9853SOL    HW130458   0.519   4.274   1.002
 9853SOL    HW230459   0.448   4.200   0.875
 9854SOL     OW30460   4.097   6.104   3.979
 9854SOL    HW130461   4.034   6.046   4.029
 9854SOL    HW230462   4.162   6.047   3.929
 9855SOL     OW30463   1.864   3.771   0.697
 9855SOL    HW130464   1.903   3.701   0.756
 9855SOL    HW230465   1.923   3.783   0.617
 9856SOL     OW30466   3.511   2.656   0.472
 9856SOL    HW130467   3.533   2.578   0.413
 9856SOL    HW230468   3.533   2.741   0.425
 9857SOL     OW30469   5.995   4.116   3.042
 9857SOL    HW130470   6.015   4.124   2.944
 9857SOL    HW230471   5.944   4.196   3.072
 9858SOL     OW30472   3.959   1.361   1.506
 9858SOL    HW130473   3.889   1.313   1.453
 9858SOL    HW230474   4.012   1.294   1.558
 9859SOL     OW30475   6.721   0.433   1.209
 9859SOL    HW130476   6.700   0.480   1.124
 9859SOL    HW230477   6.641   0.384   1.241
 9860SOL     OW30478   0.629   0.913   2.209
 9860SOL    HW130479   0.666   0.950   2.124
 9860SOL    HW230480   0.584   0.826   2.191
 9861SOL     OW30481   3.060   6.727   4.779
 9861SOL    HW130482   3.023   6.643   4.817
 9861SOL    HW230483   3.160   6.722   4.780
 9862SOL     OW30484   0.457   2.263   1.127
 9862SOL    HW130485   0.520   2.204   1.177
 9862SOL    HW230486   0.365   2.254   1.167
 9863SOL     OW30487   3.014   0.187   0.487
 9863SOL    HW130488   3.110   0.197   0.461
 9863SOL    HW230489   2.973   0.109   0.440
 9864SOL     OW30490   4.502   6.180   2.869
 9864SOL    HW130491   4.552   6.161   2.784
 9864SOL    HW230492   4.416   6.128   2.869
 9865SOL     OW30493   1.795   2.182   4.259
 9865SOL    HW130494   1.842   2.138   4.336
 9865SOL    HW230495   1.721   2.240   4.294
 9866SOL     OW30496   3.630   4.929   3.502
 9866SOL    HW130497   3.541   4.975   3.502
 9866SOL    HW230498   3.648   4.891   3.593
 9867SOL     OW30499   4.050   0.394   6.419
 9867SOL    HW130500   4.054   0.462   6.492
 9867SOL    HW230501   3.956   0.363   6.407
 9868SOL     OW30502   0.412   5.042   6.260
 9868SOL    HW130503   0.422   5.128   6.309
 9868SOL    HW230504   0.365   5.059   6.173
 9869SOL     OW30505   1.675   3.799   3.349
 9869SOL    HW130506   1.589   3.841   3.323
 9869SOL    HW230507   1.745   3.870   3.361
 9870SOL     OW30508   4.733   4.682   2.267
 9870SOL    HW130509   4.819   4.691   2.316
 9870SOL    HW230510   4.711   4.585   2.256
 9871SOL     OW30511   1.139   1.649   5.467
 9871SOL    HW130512   1.216   1.691   5.515
 9871SOL    HW230513   1.133   1.553   5.493
 9872SOL     OW30514   1.370   4.288   3.391
 9872SOL    HW130515   1.272   4.268   3.396
 9872SOL    HW230516   1.388   4.376   3.436
 9873SOL     OW30517   1.467   2.206   0.180
 9873SOL    HW130518   1.504   2.148   0.252
 9873SOL    HW230519   1.529   2.206   0.101
 9874SOL     OW30520   1.071   3.526   4.218
 9874SOL    HW130521   1.084   3.513   4.316
 9874SOL    HW230522   0.979   3.498   4.192
 9875SOL     OW30523   1.160   1.022   2.737
 9875SOL    HW130524   1.227   0.978   2.797
 9875SOL    HW230525   1.143   0.964   2.658
 9876SOL     OW30526   6.814   5.453   2.061
 9876SOL    HW130527   6.768   5.372   2.096
 9876SOL    HW230528   6.913   5.443   2.074
 9877SOL     OW30529   3.781   6.697   1.498
 9877SOL    HW130530   3.709   6.645   1.453
 9877SOL    HW230531   3.740   6.761   1.564
 9878SOL     OW30532   0.718   0.267   5.249
 9878SOL    HW130533   0.668   0.336   5.197
 9878SOL    HW230534   0.811   0.300   5.268
 9879SOL     OW30535   5.622   6.013   5.532
 9879SOL    HW130536   5.695   6.043   5.593
 9879SOL    HW230537   5.548   6.081   5.533
 9880SOL     OW30538   1.820   1.517   4.102
 9880SOL    HW130539   1.875   1.490   4.024
 9880SOL    HW230540   1.723   1.503   4.081
 9881SOL     OW30541   6.998   1.556   6.218
 9881SOL    HW130542   6.905   1.565   6.183
 9881SOL    HW230543   0.036   1.568   6.144
 9882SOL     OW30544   1.688   1.965   2.791
 9882SOL    HW130545   1.633   2.043   2.760
 9882SOL    HW230546   1.772   1.959   2.737
 9883SOL     OW30547   2.811   1.327   2.074
 9883SOL    HW130548   2.781   1.368   2.160
 9883SOL    HW230549   2.868   1.248   2.093
 9884SOL     OW30550   3.538   0.618   4.030
 9884SOL    HW130551   3.506   0.662   3.946
 9884SOL    HW230552   3.599   0.681   4.079
 9885SOL     OW30553   6.584   4.561   3.683
 9885SOL    HW130554   6.607   4.573   3.780
 9885SOL    HW230555   6.581   4.464   3.661
 9886SOL     OW30556   0.972   3.478   1.786
 9886SOL    HW130557   1.054   3.487   1.842
 9886SOL    HW230558   0.940   3.569   1.759
 9887SOL     OW30559   4.101   6.805   6.320
 9887SOL    HW130560   4.044   6.744   6.374
 9887SOL    HW230561   4.072   6.803   6.224
 9888SOL     OW30562   6.370   5.133   0.345
 9888SOL    HW130563   6.316   5.144   0.429
 9888SOL    HW230564   6.455   5.185   0.353
 9889SOL     OW30565   0.497   5.332   0.457
 9889SOL    HW130566   0.484   5.302   0.552
 9889SOL    HW230567   0.427   5.292   0.399
 9890SOL     OW30568   0.934   3.278   0.441
 9890SOL    HW130569   0.963   3.357   0.494
 9890SOL    HW230570   0.969   3.286   0.347
 9891SOL     OW30571   4.657   1.721   1.809
 9891SOL    HW130572   4.583   1.654   1.799
 9891SOL    HW230573   4.744   1.673   1.823
 9892SOL     OW30574   0.698   6.335   0.121
 9892SOL    HW130575   0.764   6.405   0.144
 9892SOL    HW230576   0.739   6.244   0.133
 9893SOL     OW30577   2.749   1.635   0.999
 9893SOL    HW130578   2.666   1.672   1.043
 9893SOL    HW230579   2.764   1.683   0.913
 9894SOL     OW30580   2.203   1.059   1.621
 9894SOL    HW130581   2.195   0.964   1.650
 9894SOL    HW230582   2.130   1.113   1.664
 9895SOL     OW30583   4.420   3.508   5.729
 9895SOL    HW130584   4.328   3.477   5.707
 9895SOL    HW230585   4.441   3.591   5.676
 9896SOL     OW30586   6.819   6.557   6.247
 9896SOL    HW130587   6.771   6.515   6.170
 9896SOL    HW230588   6.827   6.491   6.322
 9897SOL     OW30589   5.785   4.882   4.260
 9897SOL    HW130590   5.762   4.950   4.330
 9897SOL    HW230591   5.821   4.929   4.179
 9898SOL     OW30592   2.768   6.748   5.706
 9898SOL    HW130593   2.752   6.810   5.783
 9898SOL    HW230594   2.699   6.675   5.709
 9899SOL     OW30595   0.049   5.221   6.951
 9899SOL    HW130596   6.979   5.225   6.926
 9899SOL    HW230597   0.058   5.201   0.021
 9900SOL     OW30598   1.995   3.841   3.572
 9900SOL    HW130599   2.024   3.753   3.535
 9900SOL    HW230600   2.026   3.849   3.667
 9901SOL     OW30601   2.312   2.832   5.518
 9901SOL    HW130602   2.381   2.871   5.457
 9901SOL    HW230603   2.268   2.906   5.570
 9902SOL     OW30604   2.598   4.322   6.930
 9902SOL    HW130605   2.667   4.276   6.986
 9902SOL    HW230606   2.516   4.264   6.925
 9903SOL     OW30607   5.652   0.613   4.105
 9903SOL    HW130608   5.711   0.635   4.028
 9903SOL    HW230609   5.558   0.604   4.074
 9904SOL     OW30610   6.389   2.384   0.581
 9904SOL    HW130611   6.375   2.286   0.595
 9904SOL    HW230612   6.376   2.432   0.667
 9905SOL     OW30613   5.213   0.762   0.202
 9905SOL    HW130614   5.176   0.769   0.294
 9905SOL    HW230615   5.211   0.666   0.173
 9906SOL     OW30616   3.430   2.878   4.919
 9906SOL    HW130617   3.497   2.835   4.980
 9906SOL    HW230618   3.338   2.863   4.956
 9907SOL     OW30619   0.959   6.977   2.055
 9907SOL    HW130620   0.875   6.928   2.079
 9907SOL    HW230621   0.968   0.031   2.113
 9908SOL     OW30622   4.879   3.642   2.481
 9908SOL    HW130623   4.922   3.668   2.567
 9908SOL    HW230624   4.800   3.583   2.499
 9909SOL     OW30625   2.397   0.402   4.898
 9909SOL    HW130626   2.447   0.480   4.861
 9909SOL    HW230627   2.341   0.432   4.975
 9910SOL     OW30628   0.239   4.832   3.680
 9910SOL    HW130629   0.233   4.899   3.607
 9910SOL    HW230630   0.192   4.867   3.761
 9911SOL     OW30631   2.579   5.580   2.814
 9911SOL    HW130632   2.614   5.663   2.858
 9911SOL    HW230633   2.622   5.500   2.855
 9912SOL     OW30634   5.177   0.627   6.286
 9912SOL    HW130635   5.232   0.587   6.360
 9912SOL    HW230636   5.230   0.700   6.241
 9913SOL     OW30637   4.218   2.977   6.637
 9913SOL    HW130638   4.184   2.916   6.565
 9913SOL    HW230639   4.316   2.992   6.624
 9914SOL     OW30640   6.947   3.959   4.482
 9914SOL    HW130641   6.880   3.953   4.557
 9914SOL    HW230642   6.947   4.053   4.447
 9915SOL     OW30643   5.390   1.113   3.552
 9915SOL    HW130644   5.334   1.081   3.629
 9915SOL    HW230645   5.470   1.162   3.587
 9916SOL     OW30646   1.977   2.884   1.975
 9916SOL    HW130647   1.987   2.810   2.042
 9916SOL    HW230648   2.063   2.897   1.926
 9917SOL     OW30649   6.042   4.330   4.615
 9917SOL    HW130650   6.066   4.238   4.586
 9917SOL    HW230651   5.984   4.326   4.697
 9918SOL     OW30652   4.700   2.809   2.536
 9918SOL    HW130653   4.745   2.897   2.520
 9918SOL    HW230654   4.606   2.813   2.500
 9919SOL     OW30655   6.178   6.261   0.699
 9919SOL    HW130656   6.121   6.300   0.772
 9919SOL    HW230657   6.227   6.335   0.653
 9920SOL     OW30658   5.123   1.326   2.980
 9920SOL    HW130659   5.085   1.319   2.887
 9920SOL    HW230660   5.174   1.412   2.988
 9921SOL     OW30661   3.719   4.958   6.521
 9921SOL    HW130662   3.731   4.998   6.430
 9921SOL    HW230663   3.641   4.896   6.520
 9922SOL     OW30664   0.061   5.248   0.581
 9922SOL    HW130665   0.094   5.161   0.544
 9922SOL    HW230666   0.078   5.251   0.679
 9923SOL     OW30667   5.634   4.857   1.360
 9923SOL    HW130668   5.624   4.757   1.361
 9923SOL    HW230669   5.598   4.895   1.444
 9924SOL     OW30670   0.959   3.918   4.798
 9924SOL    HW130671   0.900   3.894   4.876
 9924SOL    HW230672   1.043   3.959   4.832
 9925SOL     OW30673   5.387   2.365   3.236
 9925SOL    HW130674   5.330   2.337   3.159
 9925SOL    HW230675   5.414   2.461   3.225
 9926SOL     OW30676   2.973   5.227   7.012
 9926SOL    HW130677   3.063   5.271   7.009
 9926SOL    HW230678   2.919   5.257   6.934
 9927SOL     OW30679   5.924   0.332   3.586
 9927SOL    HW130680   5.871   0.249   3.604
 9927SOL    HW230681   5.962   0.328   3.493
 9928SOL     OW30682   4.667   5.018   1.874
 9928SOL    HW130683   4.681   4.973   1.962
 9928SOL    HW230684   4.573   5.050   1.867
 9929SOL     OW30685   1.311   4.912   2.259
 9929SOL    HW130686   1.289   4.815   2.249
 9929SOL    HW230687   1.272   4.946   2.345
 9930SOL     OW30688   6.482   0.667   3.554
 9930SOL    HW130689   6.484   0.631   3.461
 9930SOL    HW230690   6.423   0.610   3.611
 9931SOL     OW30691   0.532   4.718   5.901
 9931SOL    HW130692   0.610   4.766   5.941
 9931SOL    HW230693   0.499   4.649   5.966
 9932SOL     OW30694   0.671   6.581   5.180
 9932SOL    HW130695   0.731   6.624   5.114
 9932SOL    HW230696   0.600   6.529   5.132
 9933SOL     OW30697   0.670   6.247   2.130
 9933SOL    HW130698   0.640   6.152   2.133
 9933SOL    HW230699   0.759   6.256   2.175
 9934SOL     OW30700   6.706   1.871   5.910
 9934SOL    HW130701   6.733   1.926   5.989
 9934SOL    HW230702   6.739   1.915   5.826
 9935SOL     OW30703   3.570   0.446   6.612
 9935SOL    HW130704   3.485   0.394   6.601
 9935SOL    HW230705   3.549   0.539   6.641
 9936SOL     OW30706   0.997   4.052   4.046
 9936SOL    HW130707   0.912   4.015   4.007
 9936SOL    HW230708   1.064   3.979   4.058
 9937SOL     OW30709   6.449   2.442   5.729
 9937SOL    HW130710   6.433   2.354   5.685
 9937SOL    HW230711   6.451   2.514   5.660
 9938SOL     OW30712   6.947   6.298   2.631
 9938SOL    HW130713   7.016   6.234   2.666
 9938SOL    HW230714   6.874   6.308   2.698
 9939SOL     OW30715   3.518   3.194   2.518
 9939SOL    HW130716   3.483   3.285   2.498
 9939SOL    HW230717   3.533   3.144   2.433
 9940SOL     OW30718   6.941   1.013   0.463
 9940SOL    HW130719   7.015   1.069   0.427
 9940SOL    HW230720   6.969   0.971   0.549
 9941SOL     OW30721   3.267   5.666   5.356
 9941SOL    HW130722   3.243   5.576   5.319
 9941SOL    HW230723   3.221   5.679   5.443
 9942SOL     OW30724   2.754   5.785   3.838
 9942SOL    HW130725   2.676   5.725   3.855
 9942SOL    HW230726   2.835   5.730   3.817
 9943SOL     OW30727   1.292   6.965   4.709
 9943SOL    HW130728   1.262   7.024   4.784
 9943SOL    HW230729   1.230   6.887   4.701
 9944SOL     OW30730   1.472   4.364   0.208
 9944SOL    HW130731   1.568   4.363   0.179
 9944SOL    HW230732   1.416   4.316   0.141
 9945SOL     OW30733   6.524   5.897   6.831
 9945SOL    HW130734   6.431   5.895   6.796
 9945SOL    HW230735   6.541   5.815   6.886
 9946SOL     OW30736   5.529   1.555   4.921
 9946SOL    HW130737   5.541   1.654   4.916
 9946SOL    HW230738   5.454   1.527   4.861
 9947SOL     OW30739   6.125   4.466   3.505
 9947SOL    HW130740   6.189   4.527   3.552
 9947SOL    HW230741   6.095   4.395   3.568
 9948SOL     OW30742   5.243   3.877   4.355
 9948SOL    HW130743   5.279   3.939   4.285
 9948SOL    HW230744   5.145   3.865   4.341
 9949SOL     OW30745   5.857   4.800   2.221
 9949SOL    HW130746   5.769   4.795   2.174
 9949SOL    HW230747   5.927   4.834   2.158
 9950SOL     OW30748   3.002   5.954   6.341
 9950SOL    HW130749   2.990   5.902   6.256
 9950SOL    HW230750   2.915   5.958   6.390
 9951SOL     OW30751   6.120   2.651   3.153
 9951SOL    HW130752   6.213   2.675   3.126
 9951SOL    HW230753   6.123   2.598   3.238
 9952SOL     OW30754   0.150   5.054   6.550
 9952SOL    HW130755   0.189   5.111   6.623
 9952SOL    HW230756   0.075   5.104   6.506
 9953SOL     OW30757   5.903   2.682   4.134
 9953SOL    HW130758   5.924   2.624   4.055
 9953SOL    HW230759   5.864   2.768   4.103
 9954SOL     OW30760   3.851   0.435   5.375
 9954SOL    HW130761   3.844   0.389   5.463
 9954SOL    HW230762   3.909   0.381   5.314
 9955SOL     OW30763   0.537   4.582   4.252
 9955SOL    HW130764   0.442   4.551   4.261
 9955SOL    HW230765   0.596   4.526   4.310
 9956SOL     OW30766   1.052   6.110   0.233
 9956SOL    HW130767   0.955   6.113   0.210
 9956SOL    HW230768   1.062   6.105   0.333
 9957SOL     OW30769   5.588   5.436   2.114
 9957SOL    HW130770   5.551   5.474   2.029
 9957SOL    HW230771   5.588   5.336   2.109
 9958SOL     OW30772   2.536   4.569   0.756
 9958SOL    HW130773   2.483   4.563   0.841
 9958SOL    HW230774   2.518   4.489   0.699
 9959SOL     OW30775   3.510   3.734   1.288
 9959SOL    HW130776   3.473   3.697   1.373
 9959SOL    HW230777   3.605   3.761   1.302
 9960SOL     OW30778   0.629   1.489   2.169
 9960SOL    HW130779   0.537   1.453   2.185
 9960SOL    HW230780   0.647   1.493   2.071
 9961SOL     OW30781   2.142   3.832   4.713
 9961SOL    HW130782   2.214   3.892   4.749
 9961SOL    HW230783   2.142   3.834   4.613
 9962SOL     OW30784   5.046   6.581   4.338
 9962SOL    HW130785   4.955   6.623   4.327
 9962SOL    HW230786   5.038   6.498   4.392
 9963SOL     OW30787   3.484   0.941   1.012
 9963SOL    HW130788   3.420   0.873   1.048
 9963SOL    HW230789   3.443   0.987   0.933
 9964SOL     OW30790   5.104   6.138   4.749
 9964SOL    HW130791   5.098   6.062   4.684
 9964SOL    HW230792   5.180   6.122   4.812
 9965SOL     OW30793   4.324   6.711   0.435
 9965SOL    HW130794   4.251   6.746   0.493
 9965SOL    HW230795   4.412   6.749   0.466
 9966SOL     OW30796   6.776   0.597   3.622
 9966SOL    HW130797   6.804   0.644   3.538
 9966SOL    HW230798   6.698   0.538   3.602
 9967SOL     OW30799   1.425   5.208   0.656
 9967SOL    HW130800   1.382   5.215   0.566
 9967SOL    HW230801   1.395   5.284   0.713
 9968SOL     OW30802   2.997   3.361   2.967
 9968SOL    HW130803   2.926   3.385   2.901
 9968SOL    HW230804   3.004   3.434   3.035
 9969SOL     OW30805   1.495   3.653   1.224
 9969SOL    HW130806   1.560   3.720   1.190
 9969SOL    HW230807   1.543   3.568   1.245
 9970SOL     OW30808   6.045   4.382   1.728
 9970SOL    HW130809   6.098   4.397   1.811
 9970SOL    HW230810   6.095   4.419   1.649
 9971SOL     OW30811   2.756   6.466   6.879
 9971SOL    HW130812   2.660   6.488   6.858
 9971SOL    HW230813   2.761   6.376   6.921
 9972SOL     OW30814   6.503   5.202   1.519
 9972SOL    HW130815   6.418   5.151   1.505
 9972SOL    HW230816   6.567   5.146   1.572
 9973SOL     OW30817   6.061   0.038   3.278
 9973SOL    HW130818   5.975   0.089   3.278
 9973SOL    HW230819   6.134   0.095   3.315
 9974SOL     OW30820   2.289   0.326   4.436
 9974SOL    HW130821   2.247   0.384   4.366
 9974SOL    HW230822   2.338   0.251   4.391
 9975SOL     OW30823   6.439   4.352   0.639
 9975SOL    HW130824   6.461   4.256   0.622
 9975SOL    HW230825   6.504   4.391   0.705
 9976SOL     OW30826   2.266   6.833   5.191
 9976SOL    HW130827   2.265   6.892   5.271
 9976SOL    HW230828   2.247   6.739   5.220
 9977SOL     OW30829   6.769   4.496   3.909
 9977SOL    HW130830   6.749   4.591   3.934
 9977SOL    HW230831   6.850   4.465   3.960
 9978SOL     OW30832   0.405   2.346   4.957
 9978SOL    HW130833   0.396   2.247   4.966
 9978SOL    HW230834   0.343   2.391   5.022
 9979SOL     OW30835   0.553   3.979   4.892
 9979SOL    HW130836   0.558   3.911   4.819
 9979SOL    HW230837   0.619   4.052   4.873
 9980SOL     OW30838   2.928   6.537   4.937
 9980SOL    HW130839   2.896   6.554   5.030
 9980SOL    HW230840   2.850   6.513   4.879
 9981SOL     OW30841   4.076   2.268   3.989
 9981SOL    HW130842   4.148   2.305   4.048
 9981SOL    HW230843   3.996   2.245   4.045
 9982SOL     OW30844   6.725   6.178   2.833
 9982SOL    HW130845   6.782   6.098   2.850
 9982SOL    HW230846   6.776   6.261   2.852
 9983SOL     OW30847   6.327   1.203   0.854
 9983SOL    HW130848   6.349   1.296   0.883
 9983SOL    HW230849   6.257   1.165   0.915
 9984SOL     OW30850   2.428   1.581   6.543
 9984SOL    HW130851   2.495   1.534   6.485
 9984SOL    HW230852   2.419   1.532   6.630
 9985SOL     OW30853   2.290   1.445   1.817
 9985SOL    HW130854   2.281   1.451   1.916
 9985SOL    HW230855   2.201   1.462   1.774
 9986SOL     OW30856   4.933   4.047   4.865
 9986SOL    HW130857   5.014   4.092   4.901
 9986SOL    HW230858   4.873   4.114   4.823
 9987SOL     OW30859   0.558   4.280   5.933
 9987SOL    HW130860   0.592   4.353   5.873
 9987SOL    HW230861   0.471   4.246   5.897
 9988SOL     OW30862   6.710   0.291   4.394
 9988SOL    HW130863   6.687   0.374   4.343
 9988SOL    HW230864   6.664   0.293   4.482
 9989SOL     OW30865   1.344   3.019   4.434
 9989SOL    HW130866   1.249   3.011   4.463
 9989SOL    HW230867   1.360   3.109   4.394
 9990SOL     OW30868   1.558   5.498   1.677
 9990SOL    HW130869   1.487   5.489   1.746
 9990SOL    HW230870   1.631   5.433   1.695
 9991SOL     OW30871   4.545   1.987   3.198
 9991SOL    HW130872   4.570   1.890   3.195
 9991SOL    HW230873   4.450   1.998   3.168
 9992SOL     OW30874   6.882   5.458   5.965
 9992SOL    HW130875   6.831   5.466   6.051
 9992SOL    HW230876   6.954   5.390   5.975
 9993SOL     OW30877   1.510   0.762   2.144
 9993SOL    HW130878   1.527   0.800   2.053
 9993SOL    HW230879   1.525   0.832   2.213
 9994SOL     OW30880   6.394   5.078   3.231
 9994SOL    HW130881   6.429   5.164   3.267
 9994SOL    HW230882   6.303   5.093   3.192
 9995SOL     OW30883   5.058   1.079   4.802
 9995SOL    HW130884   4.966   1.041   4.800
 9995SOL    HW230885   5.124   1.008   4.775
 9996SOL     OW30886   2.392   3.289   6.689
 9996SOL    HW130887   2.406   3.253   6.597
 9996SOL    HW230888   2.408   3.217   6.756
 9997SOL     OW30889   1.874   0.487   4.216
 9997SOL    HW130890   1.973   0.481   4.228
 9997SOL    HW230891   1.847   0.582   4.200
 9998SOL     OW30892   5.701   6.499   5.019
 9998SOL    HW130893   5.756   6.530   5.097
 9998SOL    HW230894   5.755   6.510   4.935
 9999SOL     OW30895   0.103   1.247   4.688
 9999SOL    HW130896   0.098   1.340   4.723
 9999SOL    HW230897   0.191   1.207   4.711
10000SOL     OW30898   6.662   4.570   6.986
10000SOL    HW130899   6.659   4.650   0.019
10000SOL    HW230900   6.583   4.511   7.006
10001SOL     OW30901   3.829   6.750   3.829
10001SOL    HW130902   3.834   6.662   3.876
10001SOL    HW230903   3.844   6.737   3.732
10002SOL     OW30904   1.859   1.799   1.773
10002SOL    HW130905   1.877   1.896   1.756
10002SOL    HW230906   1.778   1.771   1.722
10003SOL     OW30907   4.923   3.402   3.077
10003SOL    HW130908   4.917   3.501   3.087
10003SOL    HW230909   4.936   3.380   2.980
10004SOL     OW30910   0.188   2.727   3.318
10004SOL    HW130911   0.161   2.737   3.414
10004SOL    HW230912   0.221   2.634   3.302
10005SOL     OW30913   5.162   0.359   4.439
10005SOL    HW130914   5.083   0.341   4.381
10005SOL    HW230915   5.174   0.458   4.448
10006SOL     OW30916   4.747   1.798   4.811
10006SOL    HW130917   4.669   1.744   4.844
10006SOL    HW230918   4.724   1.895   4.816
10007SOL     OW30919   6.020   3.743   4.178
10007SOL    HW130920   5.950   3.672   4.181
10007SOL    HW230921   5.987   3.821   4.125
10008SOL     OW30922   3.415   6.979   3.814
10008SOL    HW130923   3.376   6.910   3.875
10008SOL    HW230924   3.511   6.995   3.838
10009SOL     OW30925   2.276   4.482   1.286
10009SOL    HW130926   2.192   4.482   1.340
10009SOL    HW230927   2.324   4.569   1.298
10010SOL     OW30928   5.627   0.966   6.185
10010SOL    HW130929   5.599   1.051   6.141
10010SOL    HW230930   5.661   0.902   6.117
10011SOL     OW30931   0.079   6.599   3.825
10011SOL    HW130932   0.051   6.565   3.915
10011SOL    HW230933   0.156   6.544   3.792
10012SOL     OW30934   5.780   0.384   4.225
10012SOL    HW130935   5.725   0.453   4.180
10012SOL    HW230936   5.776   0.397   4.324
10013SOL     OW30937   1.573   0.906   1.935
10013SOL    HW130938   1.673   0.906   1.926
10013SOL    HW230939   1.532   0.937   1.850
10014SOL     OW30940   1.461   4.844   5.238
10014SOL    HW130941   1.380   4.903   5.236
10014SOL    HW230942   1.543   4.901   5.230
10015SOL     OW30943   2.380   5.867   6.486
10015SOL    HW130944   2.423   5.800   6.425
10015SOL    HW230945   2.337   5.820   6.562
10016SOL     OW30946   2.481   1.170   5.059
10016SOL    HW130947   2.441   1.240   5.000
10016SOL    HW230948   2.491   1.206   5.152
10017SOL     OW30949   0.169   2.213   4.210
10017SOL    HW130950   0.237   2.140   4.220
10017SOL    HW230951   0.215   2.297   4.183
10018SOL     OW30952   4.972   6.613   5.775
10018SOL    HW130953   4.976   6.521   5.735
10018SOL    HW230954   4.877   6.643   5.779
10019SOL     OW30955   1.563   1.175   2.649
10019SOL    HW130956   1.500   1.099   2.668
10019SOL    HW230957   1.517   1.242   2.591
10020SOL     OW30958   6.974   2.950   0.153
10020SOL    HW130959   0.002   2.993   0.081
10020SOL    HW230960   6.892   3.005   0.170
10021SOL     OW30961   5.053   2.905   1.285
10021SOL    HW130962   5.101   2.977   1.334
10021SOL    HW230963   4.955   2.907   1.308
10022SOL     OW30964   2.129   0.933   6.265
10022SOL    HW130965   2.083   0.894   6.344
10022SOL    HW230966   2.174   0.861   6.213
10023SOL     OW30967   0.324   3.143   0.833
10023SOL    HW130968   0.382   3.166   0.911
10023SOL    HW230969   0.228   3.151   0.860
10024SOL     OW30970   1.208   4.046   3.033
10024SOL    HW130971   1.208   4.134   2.985
10024SOL    HW230972   1.258   3.979   2.978
10025SOL     OW30973   0.568   0.934   0.820
10025SOL    HW130974   0.653   0.968   0.780
10025SOL    HW230975   0.495   1.001   0.804
10026SOL     OW30976   6.766   0.591   4.472
10026SOL    HW130977   6.700   0.589   4.397
10026SOL    HW230978   6.738   0.524   4.541
10027SOL     OW30979   6.072   2.604   6.049
10027SOL    HW130980   6.000   2.590   6.117
10027SOL    HW230981   6.032   2.596   5.957
10028SOL     OW30982   2.054   0.539   1.846
10028SOL    HW130983   2.094   0.461   1.894
10028SOL    HW230984   1.958   0.520   1.824
10029SOL     OW30985   4.086   1.036   4.021
10029SOL    HW130986   4.135   1.122   4.007
10029SOL    HW230987   4.152   0.962   4.036
10030SOL     OW30988   1.290   1.238   2.834
10030SOL    HW130989   1.280   1.186   2.750
10030SOL    HW230990   1.232   1.320   2.829
10031SOL     OW30991   6.464   5.040   3.611
10031SOL    HW130992   6.452   4.941   3.605
10031SOL    HW230993   6.376   5.083   3.634
10032SOL     OW30994   4.046   1.766   5.280
10032SOL    HW130995   4.046   1.671   5.250
10032SOL    HW230996   3.972   1.815   5.234
10033SOL     OW30997   5.267   3.120   3.990
10033SOL    HW130998   5.258   3.219   3.998
10033SOL    HW230999   5.176   3.078   3.985
10034SOL     OW31000   4.041   6.794   5.986
10034SOL    HW131001   4.023   6.759   5.894
10034SOL    HW231002   4.015   6.725   6.054
10035SOL     OW31003   0.433   0.022   3.255
10035SOL    HW131004   0.427   0.092   3.184
10035SOL    HW231005   0.340   7.025   3.285
10036SOL     OW31006   6.585   0.757   0.176
10036SOL    HW131007   6.653   0.763   0.103
10036SOL    HW231008   6.632   0.752   0.265
10037SOL     OW31009   6.673   6.685   1.322
10037SOL    HW131010   6.642   6.616   1.388
10037SOL    HW231011   6.664   6.776   1.363
10038SOL     OW31012   6.306   0.325   1.114
10038SOL    HW131013   6.335   0.261   1.042
10038SOL    HW231014   6.340   0.416   1.092
10039SOL     OW31015   4.155   0.114   3.446
10039SOL    HW131016   4.188   0.135   3.354
10039SOL    HW231017   4.224   0.142   3.513
10040SOL     OW31018   0.505   2.430   0.936
10040SOL    HW131019   0.506   2.351   0.997
10040SOL    HW231020   0.432   2.418   0.867
10041SOL     OW31021   1.194   6.796   0.805
10041SOL    HW131022   1.167   6.766   0.714
10041SOL    HW231023   1.130   6.760   0.872
10042SOL     OW31024   6.177   2.041   3.320
10042SOL    HW131025   6.136   1.983   3.250
10042SOL    HW231026   6.147   2.012   3.411
10043SOL     OW31027   1.269   2.821   5.241
10043SOL    HW131028   1.226   2.752   5.182
10043SOL    HW231029   1.331   2.776   5.305
10044SOL     OW31030   4.826   1.067   6.775
10044SOL    HW131031   4.735   1.107   6.783
10044SOL    HW231032   4.861   1.044   6.866
10045SOL     OW31033   2.617   1.149   0.875
10045SOL    HW131034   2.682   1.114   0.942
10045SOL    HW231035   2.596   1.245   0.896
10046SOL     OW31036   0.334   5.273   1.094
10046SOL    HW131037   0.432   5.253   1.086
10046SOL    HW231038   0.302   5.322   1.014
10047SOL     OW31039   1.680   3.469   0.657
10047SOL    HW131040   1.675   3.533   0.734
10047SOL    HW231041   1.707   3.379   0.691
10048SOL     OW31042   5.823   4.414   1.939
10048SOL    HW131043   5.831   4.512   1.922
10048SOL    HW231044   5.862   4.364   1.862
10049SOL     OW31045   6.397   1.420   5.048
10049SOL    HW131046   6.345   1.433   5.132
10049SOL    HW231047   6.347   1.359   4.987
10050SOL     OW31048   6.882   2.883   5.970
10050SOL    HW131049   6.854   2.792   6.000
10050SOL    HW231050   6.980   2.894   5.983
10051SOL     OW31051   2.132   1.456   4.039
10051SOL    HW131052   2.125   1.461   4.138
10051SOL    HW231053   2.228   1.452   4.012
10052SOL     OW31054   0.837   0.597   3.712
10052SOL    HW131055   0.896   0.521   3.739
10052SOL    HW231056   0.864   0.679   3.762
10053SOL     OW31057   6.015   5.391   2.948
10053SOL    HW131058   5.943   5.324   2.930
10053SOL    HW231059   6.103   5.352   2.922
10054SOL     OW31060   6.179   3.936   4.324
10054SOL    HW131061   6.095   3.890   4.294
10054SOL    HW231062   6.253   3.915   4.260
10055SOL     OW31063   1.811   1.948   6.828
10055SOL    HW131064   1.825   1.884   6.753
10055SOL    HW231065   1.865   1.920   6.907
10056SOL     OW31066   5.506   2.162   4.330
10056SOL    HW131067   5.514   2.088   4.262
10056SOL    HW231068   5.542   2.247   4.292
10057SOL     OW31069   6.082   4.470   5.353
10057SOL    HW131070   6.150   4.469   5.426
10057SOL    HW231071   6.115   4.415   5.276
10058SOL     OW31072   6.625   4.111   4.116
10058SOL    HW131073   6.535   4.068   4.112
10058SOL    HW231074   6.652   4.142   4.025
10059SOL     OW31075   4.880   5.992   6.781
10059SOL    HW131076   4.918   5.980   6.873
10059SOL    HW231077   4.810   5.923   6.765
10060SOL     OW31078   2.972   1.803   2.140
10060SOL    HW131079   3.042   1.874   2.125
10060SOL    HW231080   2.951   1.797   2.238
10061SOL     OW31081   3.722   6.367   2.775
10061SOL    HW131082   3.714   6.397   2.680
10061SOL    HW231083   3.667   6.426   2.834
10062SOL     OW31084   6.695   0.105   4.749
10062SOL    HW131085   6.779   0.158   4.737
10062SOL    HW231086   6.713   0.027   4.809
10063SOL     OW31087   3.305   2.111   4.763
10063SOL    HW131088   3.257   2.176   4.822
10063SOL    HW231089   3.269   2.019   4.779
10064SOL     OW31090   3.227   6.994   2.181
10064SOL    HW131091   3.142   6.980   2.231
10064SOL    HW231092   3.231   0.061   2.146
10065SOL     OW31093   7.026   1.794   2.006
10065SOL    HW131094   6.958   1.724   1.984
10065SOL    HW231095   0.042   1.826   1.922
10066SOL     OW31096   6.221   3.872   3.600
10066SOL    HW131097   6.270   3.947   3.555
10066SOL    HW231098   6.256   3.784   3.566
10067SOL     OW31099   6.365   3.612   5.694
10067SOL    HW131100   6.271   3.599   5.726
10067SOL    HW231101   6.391   3.708   5.708
10068SOL     OW31102   1.805   3.391   2.217
10068SOL    HW131103   1.887   3.408   2.271
10068SOL    HW231104   1.790   3.292   2.210
10069SOL     OW31105   2.981   4.980   1.679
10069SOL    HW131106   2.926   4.900   1.704
10069SOL    HW231107   2.931   5.064   1.702
10070SOL     OW31108   4.961   6.960   0.471
10070SOL    HW131109   5.039   6.985   0.527
10070SOL    HW231110   4.918   0.016   0.434
10071SOL     OW31111   5.573   0.609   5.558
10071SOL    HW131112   5.605   0.576   5.469
10071SOL    HW231113   5.610   0.701   5.574
10072SOL     OW31114   5.714   2.526   2.289
10072SOL    HW131115   5.664   2.455   2.340
10072SOL    HW231116   5.650   2.583   2.239
10073SOL     OW31117   5.591   6.286   5.327
10073SOL    HW131118   5.583   6.344   5.246
10073SOL    HW231119   5.687   6.264   5.343
10074SOL     OW31120   1.845   4.722   1.019
10074SOL    HW131121   1.788   4.792   1.062
10074SOL    HW231122   1.818   4.632   1.053
10075SOL     OW31123   1.512   3.235   2.076
10075SOL    HW131124   1.585   3.254   2.141
10075SOL    HW231125   1.520   3.295   1.997
10076SOL     OW31126   5.637   3.840   3.968
10076SOL    HW131127   5.583   3.897   4.030
10076SOL    HW231128   5.732   3.871   3.968
10077SOL     OW31129   4.169   3.638   6.493
10077SOL    HW131130   4.147   3.715   6.432
10077SOL    HW231131   4.135   3.658   6.585
10078SOL     OW31132   5.847   5.250   4.104
10078SOL    HW131133   5.836   5.299   4.190
10078SOL    HW231134   5.882   5.312   4.034
10079SOL     OW31135   5.171   4.721   2.622
10079SOL    HW131136   5.142   4.628   2.645
10079SOL    HW231137   5.215   4.763   2.701
10080SOL     OW31138   5.387   2.317   5.581
10080SOL    HW131139   5.319   2.338   5.511
10080SOL    HW231140   5.419   2.223   5.571
10081SOL     OW31141   1.914   4.954   6.881
10081SOL    HW131142   1.919   4.854   6.889
10081SOL    HW231143   1.948   4.981   6.791
10082SOL     OW31144   1.327   4.989   1.207
10082SOL    HW131145   1.391   4.990   1.284
10082SOL    HW231146   1.271   5.072   1.210
10083SOL     OW31147   2.811   6.095   2.812
10083SOL    HW131148   2.746   6.028   2.777
10083SOL    HW231149   2.901   6.080   2.770
10084SOL     OW31150   1.497   3.030   4.899
10084SOL    HW131151   1.564   3.061   4.832
10084SOL    HW231152   1.544   2.989   4.977
10085SOL     OW31153   4.399   6.537   1.650
10085SOL    HW131154   4.316   6.589   1.670
10085SOL    HW231155   4.378   6.439   1.648
10086SOL     OW31156   3.624   0.226   2.670
10086SOL    HW131157   3.637   0.279   2.586
10086SOL    HW231158   3.555   0.155   2.655
10087SOL     OW31159   1.939   5.321   5.504
10087SOL    HW131160   1.974   5.412   5.483
10087SOL    HW231161   1.925   5.313   5.603
10088SOL     OW31162   6.879   2.294   1.280
10088SOL    HW131163   6.847   2.381   1.316
10088SOL    HW231164   6.804   2.246   1.235
10089SOL     OW31165   4.059   6.627   2.040
10089SOL    HW131166   3.997   6.604   2.114
10089SOL    HW231167   4.077   6.726   2.041
10090SOL     OW31168   2.059   5.556   2.540
10090SOL    HW131169   1.977   5.517   2.583
10090SOL    HW231170   2.139   5.503   2.566
10091SOL     OW31171   5.186   4.783   3.676
10091SOL    HW131172   5.258   4.778   3.607
10091SOL    HW231173   5.112   4.720   3.652
10092SOL     OW31174   0.460   1.433   2.653
10092SOL    HW131175   0.526   1.499   2.690
10092SOL    HW231176   0.509   1.363   2.601
10093SOL     OW31177   4.624   3.985   6.490
10093SOL    HW131178   4.642   4.074   6.532
10093SOL    HW231179   4.699   3.962   6.427
10094SOL     OW31180   3.270   2.380   0.445
10094SOL    HW131181   3.363   2.373   0.480
10094SOL    HW231182   3.268   2.355   0.349
10095SOL     OW31183   4.664   2.428   5.612
10095SOL    HW131184   4.583   2.485   5.600
10095SOL    HW231185   4.727   2.473   5.675
10096SOL     OW31186   6.767   4.223   2.136
10096SOL    HW131187   6.764   4.188   2.230
10096SOL    HW231188   6.860   4.219   2.102
10097SOL     OW31189   1.124   1.668   1.137
10097SOL    HW131190   1.131   1.569   1.149
10097SOL    HW231191   1.132   1.690   1.040
10098SOL     OW31192   3.896   5.448   6.439
10098SOL    HW131193   3.910   5.506   6.519
10098SOL    HW231194   3.801   5.458   6.407
10099SOL     OW31195   0.274   6.075   3.617
10099SOL    HW131196   0.205   6.093   3.547
10099SOL    HW231197   0.232   6.029   3.694
10100SOL     OW31198   5.014   4.953   3.801
10100SOL    HW131199   5.054   4.889   3.735
10100SOL    HW231200   5.030   4.919   3.893
10101SOL     OW31201   0.110   2.480   0.270
10101SOL    HW131202   0.191   2.506   0.323
10101SOL    HW231203   0.080   2.559   0.216
10102SOL     OW31204   0.141   4.929   2.541
10102SOL    HW131205   0.139   4.846   2.484
10102SOL    HW231206   0.166   4.904   2.634
10103SOL     OW31207   6.818   6.978   6.730
10103SOL    HW131208   6.847   6.970   6.825
10103SOL    HW231209   6.719   6.962   6.723
10104SOL     OW31210   2.795   1.407   4.798
10104SOL    HW131211   2.735   1.453   4.864
10104SOL    HW231212   2.827   1.320   4.836
10105SOL     OW31213   3.214   1.563   4.269
10105SOL    HW131214   3.120   1.534   4.247
10105SOL    HW231215   3.247   1.510   4.348
10106SOL     OW31216   5.830   4.005   1.175
10106SOL    HW131217   5.778   4.037   1.254
10106SOL    HW231218   5.921   3.976   1.204
10107SOL     OW31219   5.616   5.950   6.462
10107SOL    HW131220   5.643   5.999   6.379
10107SOL    HW231221   5.683   5.967   6.534
10108SOL     OW31222   2.392   2.394   4.989
10108SOL    HW131223   2.366   2.470   5.048
10108SOL    HW231224   2.491   2.397   4.974
10109SOL     OW31225   1.163   3.305   1.143
10109SOL    HW131226   1.064   3.317   1.141
10109SOL    HW231227   1.195   3.277   1.052
10110SOL     OW31228   6.342   6.286   2.210
10110SOL    HW131229   6.301   6.378   2.210
10110SOL    HW231230   6.306   6.234   2.288
10111SOL     OW31231   6.752   2.719   1.813
10111SOL    HW131232   6.792   2.713   1.721
10111SOL    HW231233   6.720   2.629   1.841
10112SOL     OW31234   0.079   2.932   4.165
10112SOL    HW131235   0.157   2.911   4.224
10112SOL    HW231236   0.055   3.029   4.174
10113SOL     OW31237   6.978   5.891   5.944
10113SOL    HW131238   6.973   5.900   5.845
10113SOL    HW231239   7.024   5.805   5.968
10114SOL     OW31240   5.188   4.089   1.522
10114SOL    HW131241   5.233   4.098   1.433
10114SOL    HW231242   5.106   4.032   1.512
10115SOL     OW31243   3.478   2.135   6.499
10115SOL    HW131244   3.456   2.041   6.473
10115SOL    HW231245   3.441   2.198   6.430
10116SOL     OW31246   0.283   0.165   6.573
10116SOL    HW131247   0.328   0.081   6.544
10116SOL    HW231248   0.184   0.156   6.560
10117SOL     OW31249   6.894   4.478   1.303
10117SOL    HW131250   6.903   4.389   1.258
10117SOL    HW231251   6.813   4.525   1.267
10118SOL     OW31252   4.407   4.924   3.693
10118SOL    HW131253   4.329   4.977   3.727
10118SOL    HW231254   4.486   4.940   3.752
10119SOL     OW31255   6.140   6.069   6.756
10119SOL    HW131256   6.176   6.116   6.837
10119SOL    HW231257   6.169   5.974   6.758
10120SOL     OW31258   2.669   2.220   3.257
10120SOL    HW131259   2.661   2.230   3.356
10120SOL    HW231260   2.632   2.132   3.230
10121SOL     OW31261   6.274   5.628   1.956
10121SOL    HW131262   6.175   5.639   1.944
10121SOL    HW231263   6.315   5.597   1.870
10122SOL     OW31264   2.001   0.361   3.318
10122SOL    HW131265   2.065   0.436   3.337
10122SOL    HW231266   1.910   0.385   3.352
10123SOL     OW31267   6.455   6.272   6.619
10123SOL    HW131268   6.398   6.191   6.613
10123SOL    HW231269   6.464   6.314   6.528
10124SOL     OW31270   2.078   4.584   2.657
10124SOL    HW131271   2.169   4.557   2.626
10124SOL    HW231272   2.087   4.642   2.739
10125SOL     OW31273   1.852   1.513   4.659
10125SOL    HW131274   1.862   1.609   4.634
10125SOL    HW231275   1.836   1.507   4.758
10126SOL     OW31276   6.599   6.285   4.450
10126SOL    HW131277   6.537   6.338   4.392
10126SOL    HW231278   6.680   6.339   4.470
10127SOL     OW31279   2.462   0.843   4.900
10127SOL    HW131280   2.388   0.908   4.918
10127SOL    HW231281   2.436   0.781   4.826
10128SOL     OW31282   2.891   1.694   0.429
10128SOL    HW131283   2.946   1.683   0.346
10128SOL    HW231284   2.841   1.781   0.424
10129SOL     OW31285   6.710   1.965   4.951
10129SOL    HW131286   6.670   2.050   4.918
10129SOL    HW231287   6.742   1.911   4.872
10130SOL     OW31288   1.669   2.171   3.314
10130SOL    HW131289   1.644   2.266   3.332
10130SOL    HW231290   1.768   2.165   3.297
10131SOL     OW31291   2.151   0.648   5.259
10131SOL    HW131292   2.241   0.672   5.296
10131SOL    HW231293   2.091   0.621   5.334
10132SOL     OW31294   6.287   0.523   2.515
10132SOL    HW131295   6.317   0.542   2.608
10132SOL    HW231296   6.360   0.546   2.451
10133SOL     OW31297   4.468   5.216   1.150
10133SOL    HW131298   4.537   5.143   1.148
10133SOL    HW231299   4.425   5.219   1.240
10134SOL     OW31300   6.833   6.565   3.283
10134SOL    HW131301   6.843   6.473   3.244
10134SOL    HW231302   6.736   6.590   3.284
10135SOL     OW31303   6.179   6.804   3.611
10135SOL    HW131304   6.080   6.795   3.614
10135SOL    HW231305   6.219   6.764   3.694
10136SOL     OW31306   4.941   0.983   3.318
10136SOL    HW131307   5.006   0.908   3.304
10136SOL    HW231308   4.868   0.952   3.379
10137SOL     OW31309   6.690   5.836   3.150
10137SOL    HW131310   6.682   5.846   3.250
10137SOL    HW231311   6.604   5.864   3.108
10138SOL     OW31312   0.224   1.745   2.182
10138SOL    HW131313   0.231   1.843   2.200
10138SOL    HW231314   0.151   1.728   2.117
10139SOL     OW31315   3.265   2.789   0.312
10139SOL    HW131316   3.237   2.701   0.350
10139SOL    HW231317   3.339   2.828   0.368
10140SOL     OW31318   6.203   6.352   4.439
10140SOL    HW131319   6.275   6.379   4.503
10140SOL    HW231320   6.193   6.253   4.439
10141SOL     OW31321   1.151   1.957   4.463
10141SOL    HW131322   1.209   2.035   4.444
10141SOL    HW231323   1.061   1.971   4.422
10142SOL     OW31324   4.126   5.934   1.600
10142SOL    HW131325   4.064   5.864   1.634
10142SOL    HW231326   4.130   5.931   1.500
10143SOL     OW31327   6.052   3.493   6.758
10143SOL    HW131328   5.969   3.451   6.795
10143SOL    HW231329   6.131   3.436   6.780
10144SOL     OW31330   4.062   0.638   1.121
10144SOL    HW131331   4.151   0.629   1.167
10144SOL    HW231332   4.031   0.549   1.090
10145SOL     OW31333   6.479   0.317   5.014
10145SOL    HW131334   6.556   0.368   4.976
10145SOL    HW231335   6.404   0.381   5.035
10146SOL     OW31336   1.660   2.298   5.487
10146SOL    HW131337   1.623   2.251   5.567
10146SOL    HW231338   1.639   2.245   5.404
10147SOL     OW31339   3.575   5.257   0.435
10147SOL    HW131340   3.622   5.275   0.521
10147SOL    HW231341   3.593   5.331   0.370
10148SOL     OW31342   0.787   5.159   6.442
10148SOL    HW131343   0.761   5.197   6.531
10148SOL    HW231344   0.752   5.218   6.369
10149SOL     OW31345   3.244   2.988   3.356
10149SOL    HW131346   3.226   3.038   3.441
10149SOL    HW231347   3.173   3.009   3.289
10150SOL     OW31348   5.282   4.105   1.256
10150SOL    HW131349   5.215   4.149   1.196
10150SOL    HW231350   5.364   4.163   1.263
10151SOL     OW31351   0.142   0.877   0.068
10151SOL    HW131352   0.240   0.894   0.077
10151SOL    HW231353   0.091   0.960   0.091
10152SOL     OW31354   3.524   6.069   3.558
10152SOL    HW131355   3.603   6.008   3.565
10152SOL    HW231356   3.505   6.088   3.462
10153SOL     OW31357   4.942   3.552   1.566
10153SOL    HW131358   4.879   3.624   1.596
10153SOL    HW231359   5.012   3.592   1.506
10154SOL     OW31360   4.557   5.258   5.566
10154SOL    HW131361   4.483   5.323   5.548
10154SOL    HW231362   4.521   5.165   5.556
10155SOL     OW31363   4.454   2.287   4.494
10155SOL    HW131364   4.366   2.248   4.522
10155SOL    HW231365   4.480   2.359   4.559
10156SOL     OW31366   3.376   1.872   6.466
10156SOL    HW131367   3.317   1.853   6.545
10156SOL    HW231368   3.323   1.918   6.395
10157SOL     OW31369   0.851   4.789   0.894
10157SOL    HW131370   0.815   4.704   0.933
10157SOL    HW231371   0.830   4.792   0.796
10158SOL     OW31372   5.759   4.963   6.809
10158SOL    HW131373   5.718   4.974   6.900
10158SOL    HW231374   5.855   4.936   6.819
10159SOL     OW31375   3.719   2.746   1.314
10159SOL    HW131376   3.630   2.772   1.351
10159SOL    HW231377   3.737   2.651   1.335
10160SOL     OW31378   6.918   3.777   2.238
10160SOL    HW131379   6.974   3.714   2.291
10160SOL    HW231380   6.970   3.811   2.160
10161SOL     OW31381   6.038   2.629   0.202
10161SOL    HW131382   6.097   2.655   0.126
10161SOL    HW231383   6.093   2.619   0.285
10162SOL     OW31384   2.347   2.536   2.354
10162SOL    HW131385   2.362   2.545   2.256
10162SOL    HW231386   2.355   2.626   2.397
10163SOL     OW31387   3.560   5.243   5.538
10163SOL    HW131388   3.483   5.254   5.476
10163SOL    HW231389   3.575   5.329   5.588
10164SOL     OW31390   6.940   0.602   4.236
10164SOL    HW131391   6.944   0.695   4.270
10164SOL    HW231392   6.851   0.562   4.258
10165SOL     OW31393   2.009   3.346   3.847
10165SOL    HW131394   2.051   3.436   3.846
10165SOL    HW231395   1.910   3.356   3.836
10166SOL     OW31396   3.218   6.361   2.919
10166SOL    HW131397   3.158   6.314   2.984
10166SOL    HW231398   3.162   6.417   2.857
10167SOL     OW31399   3.801   1.561   6.815
10167SOL    HW131400   3.704   1.583   6.814
10167SOL    HW231401   3.813   1.463   6.831
10168SOL     OW31402   0.894   1.284   6.327
10168SOL    HW131403   0.909   1.376   6.362
10168SOL    HW231404   0.963   1.222   6.365
10169SOL     OW31405   4.402   5.306   2.646
10169SOL    HW131406   4.328   5.262   2.696
10169SOL    HW231407   4.487   5.256   2.661
10170SOL     OW31408   4.716   6.234   0.456
10170SOL    HW131409   4.665   6.279   0.383
10170SOL    HW231410   4.809   6.270   0.459
10171SOL     OW31411   1.534   4.060   3.297
10171SOL    HW131412   1.633   4.054   3.293
10171SOL    HW231413   1.508   4.149   3.335
10172SOL     OW31414   0.898   1.338   3.292
10172SOL    HW131415   0.843   1.398   3.351
10172SOL    HW231416   0.856   1.247   3.291
10173SOL     OW31417   4.438   3.116   5.351
10173SOL    HW131418   4.482   3.125   5.262
10173SOL    HW231419   4.507   3.090   5.419
10174SOL     OW31420   5.024   4.587   1.473
10174SOL    HW131421   5.056   4.495   1.494
10174SOL    HW231422   4.927   4.594   1.493
10175SOL     OW31423   6.724   6.920   3.698
10175SOL    HW131424   6.814   6.902   3.737
10175SOL    HW231425   6.659   6.851   3.729
10176SOL     OW31426   0.330   1.025   5.047
10176SOL    HW131427   0.386   0.942   5.052
10176SOL    HW231428   0.233   0.999   5.051
10177SOL     OW31429   3.335   1.099   4.476
10177SOL    HW131430   3.343   1.130   4.381
10177SOL    HW231431   3.425   1.073   4.510
10178SOL     OW31432   6.570   1.514   2.174
10178SOL    HW131433   6.581   1.612   2.189
10178SOL    HW231434   6.540   1.470   2.258
10179SOL     OW31435   0.251   6.125   0.606
10179SOL    HW131436   0.323   6.194   0.602
10179SOL    HW231437   0.290   6.034   0.591
10180SOL     OW31438   2.876   0.284   6.135
10180SOL    HW131439   2.877   0.366   6.191
10180SOL    HW231440   2.968   0.269   6.098
10181SOL     OW31441   6.678   3.930   2.298
10181SOL    HW131442   6.707   4.019   2.333
10181SOL    HW231443   6.758   3.870   2.291
10182SOL     OW31444   3.533   6.808   6.978
10182SOL    HW131445   3.574   6.763   6.898
10182SOL    HW231446   3.544   6.907   6.970
10183SOL     OW31447   3.862   6.335   6.184
10183SOL    HW131448   3.789   6.289   6.133
10183SOL    HW231449   3.934   6.269   6.204
10184SOL     OW31450   5.176   2.431   4.869
10184SOL    HW131451   5.261   2.401   4.912
10184SOL    HW231452   5.175   2.531   4.865
10185SOL     OW31453   3.070   4.808   2.028
10185SOL    HW131454   2.999   4.739   2.019
10185SOL    HW231455   3.143   4.789   1.962
10186SOL     OW31456   3.426   3.013   1.134
10186SOL    HW131457   3.330   2.999   1.112
10186SOL    HW231458   3.447   2.968   1.221
10187SOL     OW31459   1.933   4.035   5.571
10187SOL    HW131460   1.855   3.998   5.520
10187SOL    HW231461   2.004   3.966   5.578
10188SOL     OW31462   2.167   0.436   6.491
10188SOL    HW131463   2.138   0.387   6.574
10188SOL    HW231464   2.125   0.526   6.490
10189SOL     OW31465   1.850   2.018   5.610
10189SOL    HW131466   1.858   2.031   5.709
10189SOL    HW231467   1.885   2.098   5.562
10190SOL     OW31468   3.905   3.916   0.476
10190SOL    HW131469   3.860   3.907   0.387
10190SOL    HW231470   3.980   3.850   0.481
10191SOL     OW31471   6.036   0.663   0.178
10191SOL    HW131472   6.014   0.719   0.098
10191SOL    HW231473   6.052   0.569   0.149
10192SOL     OW31474   2.601   0.309   4.077
10192SOL    HW131475   2.615   0.274   4.170
10192SOL    HW231476   2.504   0.306   4.055
10193SOL     OW31477   3.835   3.676   3.813
10193SOL    HW131478   3.799   3.641   3.726
10193SOL    HW231479   3.767   3.662   3.885
10194SOL     OW31480   2.967   5.928   3.931
10194SOL    HW131481   2.939   5.832   3.919
10194SOL    HW231482   2.891   5.988   3.906
10195SOL     OW31483   5.109   0.512   3.006
10195SOL    HW131484   5.206   0.506   2.981
10195SOL    HW231485   5.083   0.429   3.057
10196SOL     OW31486   4.691   4.322   4.027
10196SOL    HW131487   4.720   4.237   4.072
10196SOL    HW231488   4.744   4.399   4.061
10197SOL     OW31489   4.767   2.178   2.878
10197SOL    HW131490   4.793   2.260   2.827
10197SOL    HW231491   4.803   2.097   2.832
10198SOL     OW31492   3.051   1.615   1.929
10198SOL    HW131493   3.089   1.628   2.021
10198SOL    HW231494   2.951   1.621   1.934
10199SOL     OW31495   0.908   1.913   6.937
10199SOL    HW131496   0.944   1.932   6.845
10199SOL    HW231497   0.808   1.916   6.934
10200SOL     OW31498   5.909   6.765   3.612
10200SOL    HW131499   5.894   6.842   3.550
10200SOL    HW231500   5.870   6.682   3.572
10201SOL     OW31501   1.482   4.765   2.001
10201SOL    HW131502   1.517   4.802   2.087
10201SOL    HW231503   1.403   4.819   1.971
10202SOL     OW31504   1.242   2.218   3.366
10202SOL    HW131505   1.155   2.267   3.354
10202SOL    HW231506   1.311   2.258   3.305
10203SOL     OW31507   0.285   1.949   1.081
10203SOL    HW131508   0.279   1.918   0.986
10203SOL    HW231509   0.312   2.045   1.083
10204SOL     OW31510   2.288   6.051   3.868
10204SOL    HW131511   2.366   5.989   3.865
10204SOL    HW231512   2.225   6.020   3.940
10205SOL     OW31513   3.431   0.175   1.110
10205SOL    HW131514   3.474   0.257   1.071
10205SOL    HW231515   3.389   0.198   1.197
10206SOL     OW31516   5.768   6.422   0.134
10206SOL    HW131517   5.719   6.449   0.051
10206SOL    HW231518   5.729   6.338   0.170
10207SOL     OW31519   3.762   1.204   2.128
10207SOL    HW131520   3.671   1.193   2.168
10207SOL    HW231521   3.825   1.139   2.169
10208SOL     OW31522   6.731   2.729   6.221
10208SOL    HW131523   6.824   2.696   6.206
10208SOL    HW231524   6.704   2.712   6.316
10209SOL     OW31525   3.452   6.318   0.132
10209SOL    HW131526   3.478   6.255   0.059
10209SOL    HW231527   3.503   6.403   0.123
10210SOL     OW31528   4.790   5.556   6.300
10210SOL    HW131529   4.850   5.587   6.226
10210SOL    HW231530   4.788   5.625   6.373
10211SOL     OW31531   3.433   5.138   5.780
10211SOL    HW131532   3.432   5.152   5.681
10211SOL    HW231533   3.339   5.130   5.813
10212SOL     OW31534   6.486   6.485   5.762
10212SOL    HW131535   6.585   6.499   5.754
10212SOL    HW231536   6.454   6.433   5.683
10213SOL     OW31537   3.749   6.757   4.525
10213SOL    HW131538   3.791   6.697   4.593
10213SOL    HW231539   3.654   6.729   4.509
10214SOL     OW31540   0.397   0.512   0.045
10214SOL    HW131541   0.459   0.578   0.003
10214SOL    HW231542   0.421   0.420   0.016
10215SOL     OW31543   4.213   2.530   0.273
10215SOL    HW131544   4.208   2.451   0.333
10215SOL    HW231545   4.285   2.517   0.205
10216SOL     OW31546   4.942   0.506   2.655
10216SOL    HW131547   4.919   0.430   2.715
10216SOL    HW231548   4.892   0.496   2.569
10217SOL     OW31549   3.801   2.417   5.509
10217SOL    HW131550   3.809   2.511   5.476
10217SOL    HW231551   3.755   2.361   5.440
10218SOL     OW31552   4.084   0.862   6.663
10218SOL    HW131553   4.167   0.916   6.679
10218SOL    HW231554   4.051   0.825   6.750
10219SOL     OW31555   0.769   5.341   0.417
10219SOL    HW131556   0.792   5.257   0.367
10219SOL    HW231557   0.670   5.347   0.427
10220SOL     OW31558   4.198   2.364   6.940
10220SOL    HW131559   4.266   2.390   7.009
10220SOL    HW231560   4.210   2.267   6.917
10221SOL     OW31561   2.130   0.763   4.307
10221SOL    HW131562   2.134   0.823   4.227
10221SOL    HW231563   2.036   0.761   4.342
10222SOL     OW31564   2.220   4.556   5.259
10222SOL    HW131565   2.135   4.514   5.289
10222SOL    HW231566   2.200   4.646   5.218
10223SOL     OW31567   1.020   4.920   6.067
10223SOL    HW131568   0.966   5.000   6.094
10223SOL    HW231569   1.117   4.944   6.067
10224SOL     OW31570   2.471   6.382   5.190
10224SOL    HW131571   2.528   6.300   5.189
10224SOL    HW231572   2.392   6.367   5.250
10225SOL     OW31573   5.153   6.841   4.419
10225SOL    HW131574   5.118   6.750   4.396
10225SOL    HW231575   5.240   6.832   4.467
10226SOL     OW31576   6.775   2.596   5.944
10226SOL    HW131577   6.692   2.581   5.997
10226SOL    HW231578   6.852   2.552   5.990
10227SOL     OW31579   4.902   4.469   5.546
10227SOL    HW131580   4.845   4.387   5.556
10227SOL    HW231581   4.874   4.537   5.614
10228SOL     OW31582   0.549   3.323   1.983
10228SOL    HW131583   0.635   3.279   1.959
10228SOL    HW231584   0.548   3.343   2.081
10229SOL     OW31585   2.968   0.484   1.849
10229SOL    HW131586   2.981   0.400   1.796
10229SOL    HW231587   2.881   0.526   1.825
10230SOL     OW31588   5.722   6.285   3.616
10230SOL    HW131589   5.624   6.303   3.626
10230SOL    HW231590   5.737   6.234   3.531
10231SOL     OW31591   4.667   6.157   4.388
10231SOL    HW131592   4.654   6.122   4.295
10231SOL    HW231593   4.721   6.241   4.383
10232SOL     OW31594   3.900   2.174   3.216
10232SOL    HW131595   3.898   2.197   3.314
10232SOL    HW231596   3.818   2.123   3.192
10233SOL     OW31597   4.894   6.057   5.761
10233SOL    HW131598   4.819   5.994   5.741
10233SOL    HW231599   4.961   6.055   5.686
10234SOL     OW31600   4.113   5.223   1.335
10234SOL    HW131601   4.050   5.220   1.257
10234SOL    HW231602   4.062   5.244   1.418
10235SOL     OW31603   5.326   0.340   6.907
10235SOL    HW131604   5.287   0.432   6.895
10235SOL    HW231605   5.408   0.332   6.851
10236SOL     OW31606   1.706   5.910   1.235
10236SOL    HW131607   1.773   5.975   1.199
10236SOL    HW231608   1.692   5.836   1.169
10237SOL     OW31609   5.915   2.559   2.570
10237SOL    HW131610   5.884   2.477   2.619
10237SOL    HW231611   5.857   2.574   2.491
10238SOL     OW31612   5.003   5.403   6.054
10238SOL    HW131613   5.026   5.484   6.106
10238SOL    HW231614   5.021   5.419   5.957
10239SOL     OW31615   5.432   3.000   4.711
10239SOL    HW131616   5.365   3.063   4.672
10239SOL    HW231617   5.501   3.052   4.762
10240SOL     OW31618   5.035   3.926   3.310
10240SOL    HW131619   5.037   3.874   3.224
10240SOL    HW231620   5.101   4.001   3.304
10241SOL     OW31621   1.041   2.719   2.535
10241SOL    HW131622   1.072   2.809   2.565
10241SOL    HW231623   0.962   2.730   2.474
10242SOL     OW31624   1.342   5.522   6.400
10242SOL    HW131625   1.397   5.596   6.363
10242SOL    HW231626   1.348   5.442   6.340
10243SOL     OW31627   0.496   5.788   3.225
10243SOL    HW131628   0.460   5.703   3.186
10243SOL    HW231629   0.591   5.800   3.197
10244SOL     OW31630   2.217   6.056   6.608
10244SOL    HW131631   2.141   6.085   6.549
10244SOL    HW231632   2.293   6.024   6.551
10245SOL     OW31633   2.627   2.874   1.006
10245SOL    HW131634   2.596   2.909   0.918
10245SOL    HW231635   2.636   2.774   1.001
10246SOL     OW31636   2.980   3.862   4.430
10246SOL    HW131637   3.054   3.924   4.404
10246SOL    HW231638   2.930   3.901   4.507
10247SOL     OW31639   1.103   6.140   6.243
10247SOL    HW131640   1.041   6.126   6.320
10247SOL    HW231641   1.155   6.056   6.225
10248SOL     OW31642   6.195   1.050   3.686
10248SOL    HW131643   6.266   1.088   3.745
10248SOL    HW231644   6.203   0.950   3.685
10249SOL     OW31645   4.870   0.796   6.024
10249SOL    HW131646   4.820   0.743   5.956
10249SOL    HW231647   4.810   0.818   6.101
10250SOL     OW31648   4.339   5.331   0.675
10250SOL    HW131649   4.416   5.394   0.671
10250SOL    HW231650   4.332   5.293   0.767
10251SOL     OW31651   4.027   4.495   1.687
10251SOL    HW131652   4.027   4.524   1.591
10251SOL    HW231653   3.933   4.481   1.718
10252SOL     OW31654   7.013   3.821   1.099
10252SOL    HW131655   0.007   3.814   1.197
10252SOL    HW231656   0.066   3.792   1.047
10253SOL     OW31657   4.023   4.534   0.749
10253SOL    HW131658   3.974   4.446   0.748
10253SOL    HW231659   3.958   4.608   0.731
10254SOL     OW31660   2.420   1.826   4.699
10254SOL    HW131661   2.400   1.771   4.780
10254SOL    HW231662   2.512   1.864   4.706
10255SOL     OW31663   3.154   5.086   3.895
10255SOL    HW131664   3.178   5.041   3.809
10255SOL    HW231665   3.236   5.094   3.952
10256SOL     OW31666   5.002   6.307   0.833
10256SOL    HW131667   4.945   6.377   0.791
10256SOL    HW231668   4.969   6.216   0.806
10257SOL     OW31669   1.711   5.203   5.799
10257SOL    HW131670   1.681   5.145   5.874
10257SOL    HW231671   1.790   5.257   5.827
10258SOL     OW31672   4.383   1.117   2.762
10258SOL    HW131673   4.381   1.041   2.828
10258SOL    HW231674   4.449   1.185   2.792
10259SOL     OW31675   0.049   3.392   4.336
10259SOL    HW131676   0.041   3.363   4.240
10259SOL    HW231677   6.991   3.372   4.384
10260SOL     OW31678   0.187   5.671   2.156
10260SOL    HW131679   0.256   5.667   2.228
10260SOL    HW231680   0.128   5.589   2.162
10261SOL     OW31681   2.200   0.361   2.024
10261SOL    HW131682   2.223   0.289   1.959
10261SOL    HW231683   2.284   0.396   2.066
10262SOL     OW31684   0.851   6.435   3.782
10262SOL    HW131685   0.847   6.470   3.688
10262SOL    HW231686   0.900   6.348   3.783
10263SOL     OW31687   6.918   3.233   5.064
10263SOL    HW131688   6.824   3.214   5.035
10263SOL    HW231689   6.932   3.332   5.069
10264SOL     OW31690   0.554   6.898   0.372
10264SOL    HW131691   0.651   6.901   0.395
10264SOL    HW231692   0.507   6.833   0.431
10265SOL     OW31693   5.090   2.438   3.976
10265SOL    HW131694   5.010   2.499   3.982
10265SOL    HW231695   5.160   2.481   3.920
10266SOL     OW31696   3.472   3.499   6.794
10266SOL    HW131697   3.392   3.538   6.747
10266SOL    HW231698   3.491   3.408   6.758
10267SOL     OW31699   6.535   1.049   6.614
10267SOL    HW131700   6.524   1.121   6.682
10267SOL    HW231701   6.628   1.013   6.618
10268SOL     OW31702   6.692   3.785   0.439
10268SOL    HW131703   6.741   3.753   0.358
10268SOL    HW231704   6.632   3.862   0.413
10269SOL     OW31705   4.193   1.328   6.283
10269SOL    HW131706   4.258   1.260   6.316
10269SOL    HW231707   4.241   1.410   6.254
10270SOL     OW31708   3.424   5.554   2.339
10270SOL    HW131709   3.357   5.573   2.268
10270SOL    HW231710   3.435   5.634   2.397
10271SOL     OW31711   1.914   4.662   1.613
10271SOL    HW131712   2.007   4.686   1.587
10271SOL    HW231713   1.857   4.655   1.531
10272SOL     OW31714   1.771   1.974   4.080
10272SOL    HW131715   1.844   1.910   4.103
10272SOL    HW231716   1.764   2.043   4.152
10273SOL     OW31717   4.127   6.396   3.747
10273SOL    HW131718   4.037   6.371   3.710
10273SOL    HW231719   4.198   6.372   3.682
10274SOL     OW31720   2.801   4.651   6.419
10274SOL    HW131721   2.859   4.573   6.446
10274SOL    HW231722   2.811   4.668   6.321
10275SOL     OW31723   0.858   6.218   1.826
10275SOL    HW131724   0.851   6.119   1.822
10275SOL    HW231725   0.767   6.258   1.840
10276SOL     OW31726   1.075   6.730   0.549
10276SOL    HW131727   0.975   6.723   0.557
10276SOL    HW231728   1.108   6.660   0.486
10277SOL     OW31729   0.302   5.948   2.333
10277SOL    HW131730   0.210   5.957   2.371
10277SOL    HW231731   0.298   5.959   2.234
10278SOL     OW31732   6.453   1.039   5.762
10278SOL    HW131733   6.415   1.032   5.854
10278SOL    HW231734   6.505   0.956   5.741
10279SOL     OW31735   3.492   6.396   4.811
10279SOL    HW131736   3.404   6.404   4.763
10279SOL    HW231737   3.561   6.361   4.747
10280SOL     OW31738   2.585   2.869   0.119
10280SOL    HW131739   2.547   2.789   0.072
10280SOL    HW231740   2.625   2.931   0.051
10281SOL     OW31741   4.718   0.753   4.531
10281SOL    HW131742   4.714   0.829   4.466
10281SOL    HW231743   4.693   0.668   4.485
10282SOL     OW31744   1.334   3.047   4.118
10282SOL    HW131745   1.387   3.015   4.039
10282SOL    HW231746   1.314   2.969   4.178
10283SOL     OW31747   1.481   5.220   6.053
10283SOL    HW131748   1.538   5.141   6.074
10283SOL    HW231749   1.488   5.241   5.955
10284SOL     OW31750   5.248   2.965   6.878
10284SOL    HW131751   5.308   3.036   6.841
10284SOL    HW231752   5.173   3.008   6.928
10285SOL     OW31753   5.242   1.827   1.344
10285SOL    HW131754   5.321   1.885   1.323
10285SOL    HW231755   5.188   1.871   1.416
10286SOL     OW31756   3.959   0.605   4.131
10286SOL    HW131757   3.978   0.507   4.119
10286SOL    HW231758   4.014   0.640   4.208
10287SOL     OW31759   1.877   4.426   1.785
10287SOL    HW131760   1.858   4.516   1.747
10287SOL    HW231761   1.795   4.391   1.830
10288SOL     OW31762   3.854   5.788   4.364
10288SOL    HW131763   3.894   5.866   4.412
10288SOL    HW231764   3.920   5.712   4.362
10289SOL     OW31765   3.195   1.829   1.822
10289SOL    HW131766   3.147   1.910   1.857
10289SOL    HW231767   3.138   1.748   1.837
10290SOL     OW31768   3.380   2.930   3.114
10290SOL    HW131769   3.473   2.902   3.092
10290SOL    HW231770   3.368   2.928   3.213
10291SOL     OW31771   3.541   0.757   4.700
10291SOL    HW131772   3.630   0.744   4.743
10291SOL    HW231773   3.519   0.678   4.643
10292SOL     OW31774   6.807   2.484   4.140
10292SOL    HW131775   6.748   2.504   4.218
10292SOL    HW231776   6.853   2.396   4.155
10293SOL     OW31777   2.418   4.862   3.073
10293SOL    HW131778   2.472   4.779   3.060
10293SOL    HW231779   2.468   4.941   3.037
10294SOL     OW31780   6.211   0.986   3.279
10294SOL    HW131781   6.301   0.971   3.320
10294SOL    HW231782   6.157   0.902   3.287
10295SOL     OW31783   1.766   3.960   4.374
10295SOL    HW131784   1.860   3.994   4.373
10295SOL    HW231785   1.710   4.018   4.434
10296SOL     OW31786   6.334   3.103   1.915
10296SOL    HW131787   6.350   3.096   1.816
10296SOL    HW231788   6.240   3.132   1.931
10297SOL     OW31789   3.300   4.786   5.326
10297SOL    HW131790   3.276   4.841   5.246
10297SOL    HW231791   3.271   4.691   5.311
10298SOL     OW31792   6.215   3.182   2.973
10298SOL    HW131793   6.124   3.197   2.936
10298SOL    HW231794   6.283   3.228   2.915
10299SOL     OW31795   4.405   4.538   2.290
10299SOL    HW131796   4.377   4.566   2.198
10299SOL    HW231797   4.421   4.439   2.292
10300SOL     OW31798   0.781   5.954   1.933
10300SOL    HW131799   0.803   5.859   1.954
10300SOL    HW231800   0.809   6.012   2.010
10301SOL     OW31801   4.375   0.129   1.975
10301SOL    HW131802   4.385   0.148   2.073
10301SOL    HW231803   4.404   0.036   1.956
10302SOL     OW31804   1.562   4.077   3.647
10302SOL    HW131805   1.563   4.169   3.684
10302SOL    HW231806   1.480   4.064   3.591
10303SOL     OW31807   4.455   3.000   1.423
10303SOL    HW131808   4.398   3.068   1.377
10303SOL    HW231809   4.450   2.914   1.373
10304SOL     OW31810   5.819   6.076   3.454
10304SOL    HW131811   5.801   6.005   3.386
10304SOL    HW231812   5.850   6.033   3.539
10305SOL     OW31813   2.138   5.589   1.185
10305SOL    HW131814   2.103   5.508   1.139
10305SOL    HW231815   2.126   5.579   1.284
10306SOL     OW31816   4.279   4.349   0.079
10306SOL    HW131817   4.190   4.388   0.106
10306SOL    HW231818   4.275   4.250   0.084
10307SOL     OW31819   2.261   1.882   5.768
10307SOL    HW131820   2.194   1.886   5.694
10307SOL    HW231821   2.319   1.802   5.755
10308SOL     OW31822   2.651   5.027   4.361
10308SOL    HW131823   2.715   5.016   4.437
10308SOL    HW231824   2.606   4.939   4.343
10309SOL     OW31825   7.017   6.670   3.430
10309SOL    HW131826   6.956   6.606   3.383
10309SOL    HW231827   6.969   6.756   3.448
10310SOL     OW31828   3.268   4.010   4.368
10310SOL    HW131829   3.228   4.044   4.283
10310SOL    HW231830   3.352   3.960   4.347
10311SOL     OW31831   0.603   0.473   0.981
10311SOL    HW131832   0.618   0.464   1.079
10311SOL    HW231833   0.569   0.565   0.961
10312SOL     OW31834   2.409   5.026   0.816
10312SOL    HW131835   2.460   5.105   0.782
10312SOL    HW231836   2.426   4.948   0.756
10313SOL     OW31837   6.730   5.578   4.009
10313SOL    HW131838   6.676   5.644   3.957
10313SOL    HW231839   6.687   5.561   4.098
10314SOL     OW31840   0.062   5.905   5.342
10314SOL    HW131841   0.093   5.834   5.405
10314SOL    HW231842   0.102   5.993   5.368
10315SOL     OW31843   4.558   6.384   5.969
10315SOL    HW131844   4.640   6.384   5.913
10315SOL    HW231845   4.484   6.336   5.920
10316SOL     OW31846   0.637   4.201   3.414
10316SOL    HW131847   0.635   4.134   3.488
10316SOL    HW231848   0.668   4.290   3.449
10317SOL     OW31849   5.073   3.817   6.663
10317SOL    HW131850   5.158   3.859   6.693
10317SOL    HW231851   4.996   3.871   6.696
10318SOL     OW31852   5.610   5.042   2.877
10318SOL    HW131853   5.546   5.030   2.952
10318SOL    HW231854   5.560   5.062   2.793
10319SOL     OW31855   5.067   6.546   3.828
10319SOL    HW131856   5.133   6.622   3.834
10319SOL    HW231857   4.987   6.568   3.883
10320SOL     OW31858   4.092   6.384   1.938
10320SOL    HW131859   4.077   6.472   1.982
10320SOL    HW231860   4.100   6.396   1.839
10321SOL     OW31861   4.753   6.030   4.631
10321SOL    HW131862   4.851   6.007   4.627
10321SOL    HW231863   4.725   6.071   4.544
10322SOL     OW31864   0.056   1.658   0.162
10322SOL    HW131865   0.008   1.585   0.113
10322SOL    HW231866   0.047   1.744   0.112
10323SOL     OW31867   0.974   2.071   5.371
10323SOL    HW131868   1.033   2.103   5.297
10323SOL    HW231869   0.900   2.137   5.385
10324SOL     OW31870   3.429   2.898   4.064
10324SOL    HW131871   3.351   2.875   4.122
10324SOL    HW231872   3.413   2.860   3.972
10325SOL     OW31873   0.728   3.429   3.845
10325SOL    HW131874   0.638   3.445   3.884
10325SOL    HW231875   0.725   3.353   3.781
10326SOL     OW31876   5.927   2.029   1.466
10326SOL    HW131877   5.900   2.011   1.561
10326SOL    HW231878   5.981   1.953   1.432
10327SOL     OW31879   5.885   1.668   3.206
10327SOL    HW131880   5.848   1.673   3.298
10327SOL    HW231881   5.904   1.572   3.183
10328SOL     OW31882   6.409   3.831   2.803
10328SOL    HW131883   6.492   3.811   2.751
10328SOL    HW231884   6.354   3.899   2.754
10329SOL     OW31885   3.488   5.550   3.262
10329SOL    HW131886   3.451   5.637   3.295
10329SOL    HW231887   3.576   5.565   3.217
10330SOL     OW31888   3.102   3.956   0.974
10330SOL    HW131889   3.149   4.035   0.935
10330SOL    HW231890   3.026   3.987   1.032
10331SOL     OW31891   5.039   1.376   4.392
10331SOL    HW131892   4.968   1.327   4.341
10331SOL    HW231893   5.056   1.329   4.479
10332SOL     OW31894   1.133   2.188   6.438
10332SOL    HW131895   1.205   2.176   6.506
10332SOL    HW231896   1.171   2.231   6.356
10333SOL     OW31897   6.791   4.722   5.548
10333SOL    HW131898   6.862   4.656   5.526
10333SOL    HW231899   6.710   4.705   5.492
10334SOL     OW31900   0.339   5.244   5.268
10334SOL    HW131901   0.384   5.255   5.179
10334SOL    HW231902   0.240   5.240   5.256
10335SOL     OW31903   3.437   5.193   3.507
10335SOL    HW131904   3.393   5.283   3.505
10335SOL    HW231905   3.529   5.201   3.469
10336SOL     OW31906   4.913   6.822   2.816
10336SOL    HW131907   4.916   6.900   2.753
10336SOL    HW231908   4.825   6.821   2.863
10337SOL     OW31909   1.318   3.983   6.368
10337SOL    HW131910   1.369   4.059   6.408
10337SOL    HW231911   1.351   3.966   6.275
10338SOL     OW31912   2.573   4.577   2.526
10338SOL    HW131913   2.534   4.622   2.446
10338SOL    HW231914   2.655   4.626   2.555
10339SOL     OW31915   2.880   6.061   0.097
10339SOL    HW131916   2.951   6.031   0.161
10339SOL    HW231917   2.895   6.016   0.008
10340SOL     OW31918   1.669   6.416   0.748
10340SOL    HW131919   1.594   6.418   0.814
10340SOL    HW231920   1.634   6.437   0.657
10341SOL     OW31921   0.765   2.777   1.880
10341SOL    HW131922   0.819   2.715   1.937
10341SOL    HW231923   0.685   2.808   1.932
10342SOL     OW31924   3.030   5.671   4.174
10342SOL    HW131925   3.105   5.726   4.209
10342SOL    HW231926   2.959   5.662   4.244
10343SOL     OW31927   2.474   2.590   4.717
10343SOL    HW131928   2.513   2.563   4.805
10343SOL    HW231929   2.386   2.544   4.704
10344SOL     OW31930   4.458   3.485   1.502
10344SOL    HW131931   4.513   3.568   1.498
10344SOL    HW231932   4.486   3.429   1.580
10345SOL     OW31933   3.690   1.534   6.517
10345SOL    HW131934   3.673   1.631   6.533
10345SOL    HW231935   3.786   1.512   6.535
10346SOL     OW31936   6.343   5.382   0.498
10346SOL    HW131937   6.439   5.354   0.495
10346SOL    HW231938   6.335   5.476   0.466
10347SOL     OW31939   4.194   6.858   2.066
10347SOL    HW131940   4.186   6.943   2.119
10347SOL    HW231941   4.262   6.869   1.994
10348SOL     OW31942   6.840   4.300   5.987
10348SOL    HW131943   6.927   4.344   5.965
10348SOL    HW231944   6.857   4.217   6.040
10349SOL     OW31945   6.325   1.998   0.054
10349SOL    HW131946   6.316   2.051   0.138
10349SOL    HW231947   6.242   1.945   0.039
10350SOL     OW31948   1.877   4.866   4.083
10350SOL    HW131949   1.960   4.921   4.081
10350SOL    HW231950   1.799   4.922   4.112
10351SOL     OW31951   3.639   5.276   4.915
10351SOL    HW131952   3.650   5.214   4.837
10351SOL    HW231953   3.591   5.228   4.989
10352SOL     OW31954   0.223   0.881   0.946
10352SOL    HW131955   0.232   0.958   1.009
10352SOL    HW231956   0.197   0.799   0.997
10353SOL     OW31957   5.912   3.080   3.657
10353SOL    HW131958   5.843   3.020   3.616
10353SOL    HW231959   5.867   3.162   3.693
10354SOL     OW31960   6.660   2.979   1.345
10354SOL    HW131961   6.751   2.948   1.316
10354SOL    HW231962   6.643   3.070   1.308
10355SOL     OW31963   0.583   1.986   0.904
10355SOL    HW131964   0.618   2.033   0.985
10355SOL    HW231965   0.646   1.998   0.828
10356SOL     OW31966   5.782   2.373   6.903
10356SOL    HW131967   5.790   2.276   6.923
10356SOL    HW231968   5.729   2.385   6.818
10357SOL     OW31969   0.791   0.574   6.402
10357SOL    HW131970   0.871   0.514   6.405
10357SOL    HW231971   0.789   0.633   6.483
10358SOL     OW31972   0.886   2.768   3.994
10358SOL    HW131973   0.843   2.801   4.078
10358SOL    HW231974   0.976   2.809   3.983
10359SOL     OW31975   0.839   3.034   2.506
10359SOL    HW131976   0.838   2.983   2.592
10359SOL    HW231977   0.931   3.066   2.487
10360SOL     OW31978   5.779   4.239   1.034
10360SOL    HW131979   5.818   4.160   1.081
10360SOL    HW231980   5.796   4.232   0.936
10361SOL     OW31981   5.692   1.635   2.394
10361SOL    HW131982   5.607   1.616   2.344
10361SOL    HW231983   5.684   1.602   2.488
10362SOL     OW31984   0.485   6.154   1.501
10362SOL    HW131985   0.515   6.240   1.543
10362SOL    HW231986   0.565   6.097   1.481
10363SOL     OW31987   5.610   4.733   5.931
10363SOL    HW131988   5.655   4.655   5.887
10363SOL    HW231989   5.615   4.813   5.870
10364SOL     OW31990   5.619   5.189   1.895
10364SOL    HW131991   5.583   5.282   1.890
10364SOL    HW231992   5.569   5.137   1.964
10365SOL     OW31993   6.066   5.774   6.935
10365SOL    HW131994   6.073   5.678   6.962
10365SOL    HW231995   6.089   5.833   7.013
10366SOL     OW31996   3.101   0.157   3.458
10366SOL    HW131997   3.107   0.061   3.431
10366SOL    HW231998   3.010   0.174   3.497
10367SOL     OW31999   5.869   6.293   1.905
10367SOL    HW132000   5.852   6.254   1.814
10367SOL    HW232001   5.803   6.255   1.970
10368SOL     OW32002   1.116   6.327   1.806
10368SOL    HW132003   1.031   6.275   1.793
10368SOL    HW232004   1.149   6.312   1.900
10369SOL     OW32005   2.483   0.801   5.598
10369SOL    HW132006   2.445   0.830   5.686
10369SOL    HW232007   2.583   0.808   5.601
10370SOL     OW32008   1.405   1.946   5.773
10370SOL    HW132009   1.489   1.933   5.827
10370SOL    HW232010   1.343   2.007   5.822
10371SOL     OW32011   3.823   5.496   3.488
10371SOL    HW132012   3.794   5.400   3.486
10371SOL    HW232013   3.743   5.555   3.497
10372SOL     OW32014   2.078   6.538   0.393
10372SOL    HW132015   2.105   6.454   0.440
10372SOL    HW232016   1.985   6.563   0.420
10373SOL     OW32017   6.580   0.574   6.834
10373SOL    HW132018   6.526   0.635   6.776
10373SOL    HW232019   6.664   0.621   6.862
10374SOL     OW32020   2.665   4.740   3.401
10374SOL    HW132021   2.638   4.706   3.492
10374SOL    HW232022   2.588   4.787   3.359
10375SOL     OW32023   2.800   5.726   6.846
10375SOL    HW132024   2.768   5.657   6.911
10375SOL    HW232025   2.898   5.717   6.832
10376SOL     OW32026   2.350   4.792   3.934
10376SOL    HW132027   2.328   4.694   3.942
10376SOL    HW232028   2.340   4.835   4.023
10377SOL     OW32029   2.539   0.644   3.532
10377SOL    HW132030   2.513   0.571   3.469
10377SOL    HW232031   2.575   0.603   3.616
10378SOL     OW32032   0.503   6.650   5.390
10378SOL    HW132033   0.596   6.652   5.353
10378SOL    HW232034   0.449   6.725   5.350
10379SOL     OW32035   1.216   6.450   3.559
10379SOL    HW132036   1.294   6.441   3.621
10379SOL    HW232037   1.247   6.488   3.472
10380SOL     OW32038   3.128   1.142   3.916
10380SOL    HW132039   3.144   1.188   3.829
10380SOL    HW232040   3.159   1.047   3.910
10381SOL     OW32041   3.851   0.228   2.820
10381SOL    HW132042   3.779   0.225   2.750
10381SOL    HW232043   3.845   0.314   2.870
10382SOL     OW32044   3.963   5.582   1.961
10382SOL    HW132045   3.904   5.502   1.975
10382SOL    HW232046   3.951   5.646   2.037
10383SOL     OW32047   0.484   6.730   0.010
10383SOL    HW132048   0.564   6.738   0.071
10383SOL    HW232049   0.486   6.803   6.970
10384SOL     OW32050   5.190   5.467   1.009
10384SOL    HW132051   5.249   5.386   1.001
10384SOL    HW232052   5.166   5.481   1.105
10385SOL     OW32053   4.004   4.502   0.047
10385SOL    HW132054   4.065   4.577   0.020
10385SOL    HW232055   3.964   4.460   6.992
10386SOL     OW32056   0.162   0.488   2.051
10386SOL    HW132057   0.129   0.457   1.961
10386SOL    HW232058   0.220   0.417   2.091
10387SOL     OW32059   5.209   2.481   1.925
10387SOL    HW132060   5.133   2.494   1.989
10387SOL    HW232061   5.188   2.528   1.839
10388SOL     OW32062   1.477   0.586   4.908
10388SOL    HW132063   1.493   0.488   4.923
10388SOL    HW232064   1.379   0.601   4.894
10389SOL     OW32065   0.112   3.605   0.056
10389SOL    HW132066   0.062   3.667   7.024
10389SOL    HW232067   0.162   3.657   0.125
10390SOL     OW32068   2.312   1.848   1.932
10390SOL    HW132069   2.246   1.828   1.859
10390SOL    HW232070   2.366   1.928   1.907
10391SOL     OW32071   6.114   6.813   3.162
10391SOL    HW132072   6.070   6.793   3.075
10391SOL    HW232073   6.079   6.899   3.198
10392SOL     OW32074   6.597   3.601   4.137
10392SOL    HW132075   6.694   3.624   4.123
10392SOL    HW232076   6.580   3.587   4.234
10393SOL     OW32077   1.998   2.730   2.234
10393SOL    HW132078   1.917   2.682   2.268
10393SOL    HW232079   1.994   2.826   2.262
10394SOL     OW32080   3.165   6.209   3.833
10394SOL    HW132081   3.173   6.255   3.921
10394SOL    HW232082   3.095   6.138   3.838
10395SOL     OW32083   0.739   0.692   1.263
10395SOL    HW132084   0.819   0.742   1.296
10395SOL    HW232085   0.682   0.753   1.208
10396SOL     OW32086   3.351   2.204   5.312
10396SOL    HW132087   3.277   2.258   5.271
10396SOL    HW232088   3.325   2.108   5.312
10397SOL     OW32089   5.093   1.464   3.653
10397SOL    HW132090   5.052   1.522   3.723
10397SOL    HW232091   5.148   1.393   3.696
10398SOL     OW32092   5.300   2.156   2.370
10398SOL    HW132093   5.354   2.240   2.374
10398SOL    HW232094   5.307   2.116   2.279
10399SOL     OW32095   0.520   3.955   2.400
10399SOL    HW132096   0.527   4.016   2.479
10399SOL    HW232097   0.523   4.008   2.316
10400SOL     OW32098   1.961   6.460   0.788
10400SOL    HW132099   1.960   6.557   0.813
10400SOL    HW232100   1.867   6.429   0.773
10401SOL     OW32101   0.149   0.166   5.823
10401SOL    HW132102   0.246   0.187   5.824
10401SOL    HW232103   0.107   0.197   5.908
10402SOL     OW32104   6.454   4.261   5.049
10402SOL    HW132105   6.371   4.299   5.089
10402SOL    HW232106   6.464   4.295   4.955
10403SOL     OW32107   3.152   0.169   1.095
10403SOL    HW132108   3.244   0.180   1.057
10403SOL    HW232109   3.086   0.216   1.037
10404SOL     OW32110   0.382   6.266   5.602
10404SOL    HW132111   0.337   6.289   5.688
10404SOL    HW232112   0.467   6.218   5.621
10405SOL     OW32113   0.214   2.341   6.729
10405SOL    HW132114   0.139   2.276   6.742
10405SOL    HW232115   0.183   2.433   6.752
10406SOL     OW32116   1.696   5.670   1.036
10406SOL    HW132117   1.675   5.576   1.061
10406SOL    HW232118   1.795   5.679   1.022
10407SOL     OW32119   1.964   6.439   5.929
10407SOL    HW132120   1.958   6.341   5.944
10407SOL    HW232121   1.975   6.458   5.831
10408SOL     OW32122   4.879   0.687   0.167
10408SOL    HW132123   4.922   0.689   0.077
10408SOL    HW232124   4.903   0.602   0.214
10409SOL     OW32125   6.079   3.908   0.785
10409SOL    HW132126   6.078   3.824   0.840
10409SOL    HW232127   6.151   3.902   0.716
10410SOL     OW32128   4.481   0.094   0.501
10410SOL    HW132129   4.555   0.142   0.549
10410SOL    HW232130   4.480   0.122   0.405
10411SOL     OW32131   1.973   5.091   4.502
10411SOL    HW132132   1.887   5.109   4.549
10411SOL    HW232133   1.955   5.061   4.409
10412SOL     OW32134   5.133   6.922   1.285
10412SOL    HW132135   5.046   6.906   1.238
10412SOL    HW232136   5.115   6.941   1.382
10413SOL     OW32137   6.076   3.305   2.537
10413SOL    HW132138   5.979   3.315   2.517
10413SOL    HW232139   6.093   3.216   2.580
10414SOL     OW32140   5.055   2.809   4.615
10414SOL    HW132141   5.058   2.709   4.620
10414SOL    HW232142   4.999   2.837   4.537
10415SOL     OW32143   0.858   0.880   6.525
10415SOL    HW132144   0.812   0.838   6.603
10415SOL    HW232145   0.834   0.977   6.520
10416SOL     OW32146   5.410   2.965   3.772
10416SOL    HW132147   5.340   2.980   3.702
10416SOL    HW232148   5.382   3.008   3.857
10417SOL     OW32149   1.759   4.063   2.887
10417SOL    HW132150   1.837   4.034   2.942
10417SOL    HW232151   1.791   4.123   2.813
10418SOL     OW32152   1.615   5.624   5.947
10418SOL    HW132153   1.534   5.596   5.895
10418SOL    HW232154   1.628   5.562   6.024
10419SOL     OW32155   1.091   1.078   0.238
10419SOL    HW132156   1.143   1.025   0.305
10419SOL    HW232157   1.079   1.172   0.272
10420SOL     OW32158   0.153   2.653   2.774
10420SOL    HW132159   0.209   2.698   2.704
10420SOL    HW232160   0.211   2.592   2.828
10421SOL     OW32161   0.449   1.761   3.073
10421SOL    HW132162   0.486   1.738   3.163
10421SOL    HW232163   0.500   1.712   3.003
10422SOL     OW32164   5.322   3.666   6.093
10422SOL    HW132165   5.324   3.575   6.052
10422SOL    HW232166   5.394   3.674   6.162
10423SOL     OW32167   4.819   4.593   2.793
10423SOL    HW132168   4.763   4.511   2.783
10423SOL    HW232169   4.858   4.595   2.885
10424SOL     OW32170   4.848   1.369   6.386
10424SOL    HW132171   4.909   1.399   6.313
10424SOL    HW232172   4.780   1.305   6.349
10425SOL     OW32173   1.790   6.882   1.735
10425SOL    HW132174   1.710   6.893   1.794
10425SOL    HW232175   1.861   6.833   1.785
10426SOL     OW32176   6.051   4.068   0.401
10426SOL    HW132177   6.098   4.039   0.484
10426SOL    HW232178   5.998   3.993   0.363
10427SOL     OW32179   4.840   0.677   1.067
10427SOL    HW132180   4.748   0.675   1.106
10427SOL    HW232181   4.886   0.590   1.088
10428SOL     OW32182   4.332   0.843   3.668
10428SOL    HW132183   4.254   0.904   3.654
10428SOL    HW232184   4.395   0.885   3.734
10429SOL     OW32185   6.000   5.657   1.928
10429SOL    HW132186   5.950   5.613   2.003
10429SOL    HW232187   5.937   5.685   1.856
10430SOL     OW32188   4.302   6.179   3.337
10430SOL    HW132189   4.376   6.196   3.272
10430SOL    HW232190   4.220   6.153   3.288
10431SOL     OW32191   2.391   1.453   5.097
10431SOL    HW132192   2.293   1.459   5.074
10431SOL    HW232193   2.403   1.469   5.195
10432SOL     OW32194   4.736   0.722   5.221
10432SOL    HW132195   4.658   0.718   5.283
10432SOL    HW232196   4.743   0.814   5.183
10433SOL     OW32197   3.005   6.802   0.751
10433SOL    HW132198   3.082   6.858   0.720
10433SOL    HW232199   2.977   6.831   0.842
10434SOL     OW32200   2.680   1.929   4.747
10434SOL    HW132201   2.768   1.931   4.699
10434SOL    HW232202   2.692   1.884   4.836
10435SOL     OW32203   5.484   5.318   6.725
10435SOL    HW132204   5.474   5.412   6.756
10435SOL    HW232205   5.425   5.303   6.645
10436SOL     OW32206   0.967   0.539   2.420
10436SOL    HW132207   0.884   0.533   2.364
10436SOL    HW232208   1.045   0.561   2.362
10437SOL     OW32209   0.290   4.217   5.855
10437SOL    HW132210   0.323   4.255   5.769
10437SOL    HW232211   0.233   4.285   5.902
10438SOL     OW32212   3.640   7.020   5.712
10438SOL    HW132213   3.739   7.027   5.696
10438SOL    HW232214   3.624   7.015   5.811
10439SOL     OW32215   3.739   1.157   5.292
10439SOL    HW132216   3.782   1.241   5.325
10439SOL    HW232217   3.737   1.090   5.366
10440SOL     OW32218   1.608   5.769   0.689
10440SOL    HW132219   1.558   5.807   0.767
10440SOL    HW232220   1.638   5.844   0.630
10441SOL     OW32221   4.157   6.828   0.623
10441SOL    HW132222   4.164   6.908   0.683
10441SOL    HW232223   4.101   6.851   0.543
10442SOL     OW32224   4.548   5.903   5.474
10442SOL    HW132225   4.597   5.869   5.394
10442SOL    HW232226   4.454   5.868   5.474
10443SOL     OW32227   6.292   2.894   4.619
10443SOL    HW132228   6.291   2.914   4.521
10443SOL    HW232229   6.213   2.837   4.642
10444SOL     OW32230   3.263   5.052   4.882
10444SOL    HW132231   3.183   5.003   4.847
10444SOL    HW232232   3.268   5.042   4.981
10445SOL     OW32233   6.431   5.868   2.685
10445SOL    HW132234   6.354   5.931   2.683
10445SOL    HW232235   6.417   5.795   2.619
10446SOL     OW32236   0.871   6.305   6.593
10446SOL    HW132237   0.840   6.262   6.508
10446SOL    HW232238   0.812   6.275   6.668
10447SOL     OW32239   5.646   1.635   0.679
10447SOL    HW132240   5.656   1.539   0.706
10447SOL    HW232241   5.560   1.647   0.631
10448SOL     OW32242   3.451   3.842   2.152
10448SOL    HW132243   3.551   3.842   2.143
10448SOL    HW232244   3.424   3.922   2.206
10449SOL     OW32245   1.599   5.523   4.982
10449SOL    HW132246   1.686   5.552   4.942
10449SOL    HW232247   1.569   5.591   5.049
10450SOL     OW32248   6.847   3.142   0.890
10450SOL    HW132249   6.768   3.145   0.828
10450SOL    HW232250   6.841   3.061   0.948
10451SOL     OW32251   2.340   4.289   2.208
10451SOL    HW132252   2.362   4.351   2.133
10451SOL    HW232253   2.391   4.316   2.290
10452SOL     OW32254   1.481   2.793   5.431
10452SOL    HW132255   1.472   2.867   5.497
10452SOL    HW232256   1.546   2.819   5.360
10453SOL     OW32257   4.892   0.672   1.490
10453SOL    HW132258   4.942   0.599   1.537
10453SOL    HW232259   4.794   0.652   1.492
10454SOL     OW32260   5.121   3.676   1.944
10454SOL    HW132261   5.039   3.726   1.970
10454SOL    HW232262   5.126   3.590   1.996
10455SOL     OW32263   0.622   4.733   2.716
10455SOL    HW132264   0.636   4.636   2.701
10455SOL    HW232265   0.569   4.771   2.640
10456SOL     OW32266   3.548   6.140   1.513
10456SOL    HW132267   3.602   6.154   1.430
10456SOL    HW232268   3.575   6.054   1.556
10457SOL     OW32269   3.881   3.338   3.670
10457SOL    HW132270   3.859   3.258   3.613
10457SOL    HW232271   3.796   3.379   3.703
10458SOL     OW32272   6.920   6.322   1.961
10458SOL    HW132273   6.962   6.268   1.888
10458SOL    HW232274   6.863   6.262   2.019
10459SOL     OW32275   0.012   5.006   2.013
10459SOL    HW132276   6.971   4.938   2.040
10459SOL    HW232277   0.068   4.970   1.939
10460SOL     OW32278   1.627   4.287   1.772
10460SOL    HW132279   1.576   4.368   1.800
10460SOL    HW232280   1.582   4.245   1.694
10461SOL     OW32281   3.097   1.309   6.313
10461SOL    HW132282   3.042   1.250   6.253
10461SOL    HW232283   3.155   1.369   6.257
10462SOL     OW32284   5.325   6.577   1.057
10462SOL    HW132285   5.347   6.661   1.105
10462SOL    HW232286   5.334   6.591   0.958
10463SOL     OW32287   3.165   3.526   1.310
10463SOL    HW132288   3.184   3.554   1.405
10463SOL    HW232289   3.252   3.520   1.260
10464SOL     OW32290   5.615   6.422   1.550
10464SOL    HW132291   5.568   6.510   1.543
10464SOL    HW232292   5.593   6.366   1.470
10465SOL     OW32293   6.869   5.054   4.776
10465SOL    HW132294   6.776   5.088   4.758
10465SOL    HW232295   6.863   4.966   4.822
10466SOL     OW32296   5.461   6.307   5.827
10466SOL    HW132297   5.475   6.269   5.736
10466SOL    HW232298   5.475   6.236   5.896
10467SOL     OW32299   4.836   1.244   3.856
10467SOL    HW132300   4.903   1.282   3.793
10467SOL    HW232301   4.759   1.307   3.864
10468SOL     OW32302   2.936   5.093   3.537
10468SOL    HW132303   2.884   5.126   3.457
10468SOL    HW232304   3.010   5.156   3.557
10469SOL     OW32305   1.098   5.208   6.682
10469SOL    HW132306   1.010   5.251   6.703
10469SOL    HW232307   1.082   5.126   6.626
10470SOL     OW32308   2.706   1.620   4.472
10470SOL    HW132309   2.744   1.610   4.380
10470SOL    HW232310   2.773   1.588   4.539
10471SOL     OW32311   4.243   4.065   0.241
10471SOL    HW132312   4.305   4.092   0.315
10471SOL    HW232313   4.290   4.004   0.179
10472SOL     OW32314   4.183   1.300   3.601
10472SOL    HW132315   4.170   1.393   3.566
10472SOL    HW232316   4.119   1.238   3.555
10473SOL     OW32317   4.519   5.251   6.861
10473SOL    HW132318   4.507   5.241   6.960
10473SOL    HW232319   4.491   5.344   6.833
10474SOL     OW32320   5.239   1.252   3.313
10474SOL    HW132321   5.283   1.238   3.402
10474SOL    HW232322   5.142   1.275   3.327
10475SOL     OW32323   4.699   6.382   1.889
10475SOL    HW132324   4.636   6.457   1.908
10475SOL    HW232325   4.739   6.393   1.799
10476SOL     OW32326   0.447   5.025   6.813
10476SOL    HW132327   0.546   5.036   6.801
10476SOL    HW232328   0.428   4.940   6.860
10477SOL     OW32329   4.682   4.569   5.092
10477SOL    HW132330   4.674   4.661   5.054
10477SOL    HW232331   4.748   4.569   5.167
10478SOL     OW32332   0.310   6.393   2.890
10478SOL    HW132333   0.210   6.396   2.886
10478SOL    HW232334   0.346   6.482   2.861
10479SOL     OW32335   0.859   4.405   1.966
10479SOL    HW132336   0.772   4.367   1.998
10479SOL    HW232337   0.846   4.500   1.939
10480SOL     OW32338   5.358   0.750   1.118
10480SOL    HW132339   5.392   0.713   1.204
10480SOL    HW232340   5.260   0.767   1.125
10481SOL     OW32341   2.696   0.937   4.325
10481SOL    HW132342   2.778   0.936   4.381
10481SOL    HW232343   2.634   1.008   4.358
10482SOL     OW32344   0.699   6.083   6.323
10482SOL    HW132345   0.742   6.042   6.242
10482SOL    HW232346   0.600   6.065   6.321
10483SOL     OW32347   6.427   5.652   0.705
10483SOL    HW132348   6.363   5.717   0.665
10483SOL    HW232349   6.377   5.582   0.755
10484SOL     OW32350   6.592   2.021   1.695
10484SOL    HW132351   6.538   2.062   1.768
10484SOL    HW232352   6.668   1.969   1.734
10485SOL     OW32353   3.132   4.064   4.138
10485SOL    HW132354   3.140   3.966   4.118
10485SOL    HW232355   3.085   4.110   4.063
10486SOL     OW32356   6.329   5.177   5.901
10486SOL    HW132357   6.253   5.126   5.862
10486SOL    HW232358   6.358   5.249   5.838
10487SOL     OW32359   5.453   2.997   2.892
10487SOL    HW132360   5.539   3.018   2.937
10487SOL    HW232361   5.434   3.066   2.822
10488SOL     OW32362   0.352   2.088   5.015
10488SOL    HW132363   0.309   2.009   5.057
10488SOL    HW232364   0.342   2.084   4.916
10489SOL     OW32365   5.886   4.698   3.497
10489SOL    HW132366   5.842   4.632   3.557
10489SOL    HW232367   5.950   4.650   3.436
10490SOL     OW32368   5.507   6.286   6.531
10490SOL    HW132369   5.434   6.218   6.539
10490SOL    HW232370   5.482   6.368   6.584
10491SOL     OW32371   2.129   2.953   5.746
10491SOL    HW132372   2.146   3.051   5.757
10491SOL    HW232373   2.037   2.939   5.712
10492SOL     OW32374   2.726   6.199   0.514
10492SOL    HW132375   2.647   6.221   0.571
10492SOL    HW232376   2.760   6.282   0.470
10493SOL     OW32377   3.811   5.561   0.791
10493SOL    HW132378   3.900   5.606   0.779
10493SOL    HW232379   3.811   5.511   0.878
10494SOL     OW32380   0.246   4.558   4.241
10494SOL    HW132381   0.197   4.641   4.267
10494SOL    HW232382   0.247   4.550   4.142
10495SOL     OW32383   6.897   0.149   0.616
10495SOL    HW132384   6.901   0.237   0.567
10495SOL    HW232385   6.815   0.148   0.674
10496SOL     OW32386   0.625   4.923   6.168
10496SOL    HW132387   0.542   4.964   6.206
10496SOL    HW232388   0.620   4.823   6.175
10497SOL     OW32389   3.280   6.408   1.418
10497SOL    HW132390   3.211   6.387   1.487
10497SOL    HW232391   3.272   6.504   1.392
10498SOL     OW32392   3.809   3.346   6.842
10498SOL    HW132393   3.711   3.334   6.823
10498SOL    HW232394   3.821   3.418   6.910
10499SOL     OW32395   4.349   4.649   2.552
10499SOL    HW132396   4.372   4.619   2.459
10499SOL    HW232397   4.416   4.612   2.616
10500SOL     OW32398   1.531   3.184   4.623
10500SOL    HW132399   1.617   3.163   4.669
10500SOL    HW232400   1.501   3.106   4.569
10501SOL     OW32401   3.842   4.894   3.318
10501SOL    HW132402   3.870   4.977   3.269
10501SOL    HW232403   3.751   4.908   3.357
10502SOL     OW32404   2.902   3.508   2.727
10502SOL    HW132405   2.877   3.458   2.644
10502SOL    HW232406   2.948   3.593   2.702
10503SOL     OW32407   6.692   1.075   0.315
10503SOL    HW132408   6.761   1.023   0.365
10503SOL    HW232409   6.607   1.023   0.311
10504SOL     OW32410   1.412   3.806   5.504
10504SOL    HW132411   1.332   3.865   5.513
10504SOL    HW232412   1.392   3.733   5.439
10505SOL     OW32413   6.316   6.513   0.869
10505SOL    HW132414   6.247   6.501   0.941
10505SOL    HW232415   6.288   6.588   0.808
10506SOL     OW32416   1.256   4.719   5.461
10506SOL    HW132417   1.259   4.688   5.367
10506SOL    HW232418   1.295   4.811   5.468
10507SOL     OW32419   1.360   6.178   5.638
10507SOL    HW132420   1.366   6.254   5.703
10507SOL    HW232421   1.264   6.158   5.618
10508SOL     OW32422   1.774   6.177   0.803
10508SOL    HW132423   1.736   6.269   0.788
10508SOL    HW232424   1.703   6.109   0.788
10509SOL     OW32425   4.917   3.042   2.837
10509SOL    HW132426   4.929   3.139   2.858
10509SOL    HW232427   4.903   2.991   2.922
10510SOL     OW32428   5.538   5.841   3.182
10510SOL    HW132429   5.539   5.767   3.116
10510SOL    HW232430   5.471   5.822   3.254
10511SOL     OW32431   4.021   1.563   1.189
10511SOL    HW132432   4.072   1.563   1.276
10511SOL    HW232433   4.077   1.605   1.118
10512SOL     OW32434   4.134   1.469   5.666
10512SOL    HW132435   4.137   1.444   5.763
10512SOL    HW232436   4.224   1.498   5.636
10513SOL     OW32437   3.322   3.673   0.746
10513SOL    HW132438   3.388   3.600   0.731
10513SOL    HW232439   3.229   3.636   0.739
10514SOL     OW32440   1.419   5.626   1.469
10514SOL    HW132441   1.456   5.581   1.550
10514SOL    HW232442   1.320   5.615   1.467
10515SOL     OW32443   2.088   3.643   4.941
10515SOL    HW132444   2.010   3.589   4.911
10515SOL    HW232445   2.114   3.708   4.869
10516SOL     OW32446   5.561   1.498   1.957
10516SOL    HW132447   5.481   1.517   1.900
10516SOL    HW232448   5.533   1.448   2.039
10517SOL     OW32449   0.853   2.009   1.744
10517SOL    HW132450   0.804   2.045   1.824
10517SOL    HW232451   0.792   1.948   1.692
10518SOL     OW32452   0.599   6.518   2.126
10518SOL    HW132453   0.640   6.427   2.119
10518SOL    HW232454   0.581   6.539   2.222
10519SOL     OW32455   2.878   6.707   1.047
10519SOL    HW132456   2.890   6.613   1.080
10519SOL    HW232457   2.781   6.730   1.047
10520SOL     OW32458   1.907   2.558   6.329
10520SOL    HW132459   1.949   2.525   6.245
10520SOL    HW232460   1.883   2.479   6.387
10521SOL     OW32461   6.432   2.104   3.047
10521SOL    HW132462   6.350   2.061   3.010
10521SOL    HW232463   6.406   2.167   3.121
10522SOL     OW32464   5.253   1.581   3.946
10522SOL    HW132465   5.163   1.613   3.917
10522SOL    HW232466   5.314   1.577   3.866
10523SOL     OW32467   0.695   4.019   1.882
10523SOL    HW132468   0.696   3.947   1.813
10523SOL    HW232469   0.664   4.104   1.841
10524SOL     OW32470   6.473   6.125   4.894
10524SOL    HW132471   6.384   6.096   4.858
10524SOL    HW232472   6.468   6.221   4.921
10525SOL     OW32473   4.481   1.048   3.783
10525SOL    HW132474   4.519   1.083   3.697
10525SOL    HW232475   4.552   1.051   3.854
10526SOL     OW32476   0.848   6.124   5.711
10526SOL    HW132477   0.891   6.087   5.629
10526SOL    HW232478   0.750   6.133   5.696
10527SOL     OW32479   7.003   6.335   5.566
10527SOL    HW132480   6.995   6.262   5.633
10527SOL    HW232481   6.952   6.311   5.484
10528SOL     OW32482   1.876   5.081   5.352
10528SOL    HW132483   1.936   5.011   5.389
10528SOL    HW232484   1.898   5.170   5.393
10529SOL     OW32485   0.177   5.010   0.456
10529SOL    HW132486   0.131   4.922   0.464
10529SOL    HW232487   0.270   5.003   0.494
10530SOL     OW32488   6.738   0.452   0.763
10530SOL    HW132489   6.806   0.526   0.754
10530SOL    HW232490   6.783   0.370   0.800
10531SOL     OW32491   3.338   2.290   6.310
10531SOL    HW132492   3.288   2.234   6.376
10531SOL    HW232493   3.296   2.381   6.305
10532SOL     OW32494   4.692   5.888   5.704
10532SOL    HW132495   4.637   5.880   5.620
10532SOL    HW232496   4.722   5.797   5.732
10533SOL     OW32497   3.975   6.636   3.610
10533SOL    HW132498   4.061   6.644   3.559
10533SOL    HW232499   3.947   6.540   3.612
10534SOL     OW32500   1.191   6.684   3.709
10534SOL    HW132501   1.204   6.670   3.807
10534SOL    HW232502   1.179   6.595   3.664
10535SOL     OW32503   4.051   1.884   2.796
10535SOL    HW132504   3.995   1.854   2.719
10535SOL    HW232505   4.104   1.806   2.830
10536SOL     OW32506   6.128   3.590   4.550
10536SOL    HW132507   6.176   3.570   4.464
10536SOL    HW232508   6.037   3.624   4.529
10537SOL     OW32509   3.925   1.089   3.214
10537SOL    HW132510   3.832   1.065   3.185
10537SOL    HW232511   3.982   1.105   3.134
10538SOL     OW32512   6.166   2.691   3.818
10538SOL    HW132513   6.162   2.739   3.906
10538SOL    HW232514   6.108   2.738   3.752
10539SOL     OW32515   6.615   6.568   2.970
10539SOL    HW132516   6.552   6.493   2.946
10539SOL    HW232517   6.585   6.611   3.055
10540SOL     OW32518   1.714   3.717   6.821
10540SOL    HW132519   1.637   3.655   6.809
10540SOL    HW232520   1.728   3.735   6.918
10541SOL     OW32521   3.420   2.463   5.651
10541SOL    HW132522   3.508   2.496   5.685
10541SOL    HW232523   3.422   2.364   5.642
10542SOL     OW32524   4.357   6.221   2.225
10542SOL    HW132525   4.364   6.259   2.133
10542SOL    HW232526   4.308   6.134   2.221
10543SOL     OW32527   2.075   2.583   4.140
10543SOL    HW132528   2.061   2.487   4.114
10543SOL    HW232529   2.147   2.589   4.209
10544SOL     OW32530   2.899   1.791   2.429
10544SOL    HW132531   2.819   1.747   2.469
10544SOL    HW232532   2.982   1.742   2.456
10545SOL     OW32533   1.660   3.335   1.840
10545SOL    HW132534   1.738   3.272   1.848
10545SOL    HW232535   1.672   3.392   1.759
10546SOL     OW32536   2.663   0.062   5.317
10546SOL    HW132537   2.702   0.133   5.376
10546SOL    HW232538   2.583   0.099   5.269
10547SOL     OW32539   3.553   6.300   5.928
10547SOL    HW132540   3.651   6.286   5.915
10547SOL    HW232541   3.539   6.366   6.002
10548SOL     OW32542   0.745   5.828   3.147
10548SOL    HW132543   0.793   5.871   3.224
10548SOL    HW232544   0.811   5.804   3.076
10549SOL     OW32545   6.570   0.872   2.801
10549SOL    HW132546   6.521   0.957   2.818
10549SOL    HW232547   6.513   0.794   2.826
10550SOL     OW32548   5.500   6.075   3.051
10550SOL    HW132549   5.512   5.989   3.101
10550SOL    HW232550   5.580   6.132   3.064
10551SOL     OW32551   4.398   0.679   4.769
10551SOL    HW132552   4.419   0.747   4.839
10551SOL    HW232553   4.380   0.591   4.812
10552SOL     OW32554   2.578   6.330   3.623
10552SOL    HW132555   2.500   6.270   3.641
10552SOL    HW232556   2.643   6.324   3.698
10553SOL     OW32557   5.389   5.666   1.278
10553SOL    HW132558   5.382   5.667   1.377
10553SOL    HW232559   5.357   5.578   1.243
10554SOL     OW32560   6.243   5.969   1.917
10554SOL    HW132561   6.196   5.881   1.914
10554SOL    HW232562   6.180   6.040   1.949
10555SOL     OW32563   3.523   3.231   1.598
10555SOL    HW132564   3.461   3.174   1.545
10555SOL    HW232565   3.497   3.227   1.695
10556SOL     OW32566   2.697   2.164   1.944
10556SOL    HW132567   2.726   2.073   1.972
10556SOL    HW232568   2.769   2.230   1.965
10557SOL     OW32569   0.897   3.956   3.049
10557SOL    HW132570   0.816   3.988   3.001
10557SOL    HW232571   0.978   4.002   3.013
10558SOL     OW32572   4.202   4.761   4.538
10558SOL    HW132573   4.151   4.832   4.587
10558SOL    HW232574   4.189   4.673   4.584
10559SOL     OW32575   3.455   5.889   1.315
10559SOL    HW132576   3.387   5.858   1.249
10559SOL    HW232577   3.434   5.853   1.406
10560SOL     OW32578   5.692   6.970   3.525
10560SOL    HW132579   5.649   7.023   3.452
10560SOL    HW232580   5.742   0.005   3.586
10561SOL     OW32581   1.101   5.375   6.188
10561SOL    HW132582   1.163   5.339   6.259
10561SOL    HW232583   1.116   5.324   6.103
10562SOL     OW32584   3.796   6.164   2.294
10562SOL    HW132585   3.835   6.133   2.208
10562SOL    HW232586   3.696   6.161   2.289
10563SOL     OW32587   1.748   6.112   2.130
10563SOL    HW132588   1.784   6.019   2.133
10563SOL    HW232589   1.768   6.159   2.216
10564SOL     OW32590   5.435   4.543   3.334
10564SOL    HW132591   5.336   4.539   3.350
10564SOL    HW232592   5.470   4.630   3.367
10565SOL     OW32593   0.362   1.377   4.890
10565SOL    HW132594   0.336   1.453   4.949
10565SOL    HW232595   0.449   1.340   4.921
10566SOL     OW32596   3.939   2.005   1.023
10566SOL    HW132597   3.886   2.008   1.108
10566SOL    HW232598   3.889   1.950   0.955
10567SOL     OW32599   2.240   2.851   6.595
10567SOL    HW132600   2.285   2.764   6.574
10567SOL    HW232601   2.290   2.896   6.669
10568SOL     OW32602   5.243   2.280   5.818
10568SOL    HW132603   5.274   2.323   5.903
10568SOL    HW232604   5.301   2.309   5.743
10569SOL     OW32605   5.334   0.367   1.181
10569SOL    HW132606   5.382   0.293   1.230
10569SOL    HW232607   5.340   0.351   1.083
10570SOL     OW32608   1.304   3.657   3.231
10570SOL    HW132609   1.274   3.696   3.144
10570SOL    HW232610   1.225   3.643   3.291
10571SOL     OW32611   0.149   3.724   5.838
10571SOL    HW132612   0.193   3.639   5.867
10571SOL    HW232613   0.208   3.801   5.861
10572SOL     OW32614   6.147   4.253   0.711
10572SOL    HW132615   6.050   4.251   0.737
10572SOL    HW232616   6.156   4.295   0.620
10573SOL     OW32617   6.836   2.157   3.301
10573SOL    HW132618   6.761   2.220   3.282
10573SOL    HW232619   6.805   2.063   3.289
10574SOL     OW32620   5.582   2.199   2.619
10574SOL    HW132621   5.665   2.238   2.659
10574SOL    HW232622   5.599   2.104   2.592
10575SOL     OW32623   5.507   6.724   2.828
10575SOL    HW132624   5.470   6.758   2.742
10575SOL    HW232625   5.454   6.645   2.859
10576SOL     OW32626   1.587   3.333   5.104
10576SOL    HW132627   1.603   3.376   5.192
10576SOL    HW232628   1.628   3.241   5.104
10577SOL     OW32629   3.654   4.517   0.125
10577SOL    HW132630   3.669   4.459   0.205
10577SOL    HW232631   3.588   4.473   0.065
10578SOL     OW32632   1.154   3.563   2.668
10578SOL    HW132633   1.190   3.475   2.698
10578SOL    HW232634   1.125   3.557   2.573
10579SOL     OW32635   0.044   3.080   6.923
10579SOL    HW132636   0.099   3.164   6.933
10579SOL    HW232637   0.027   3.063   6.826
10580SOL     OW32638   5.527   6.089   6.791
10580SOL    HW132639   5.450   6.092   6.727
10580SOL    HW232640   5.611   6.072   6.741
10581SOL     OW32641   4.640   0.891   3.108
10581SOL    HW132642   4.658   0.894   3.010
10581SOL    HW232643   4.589   0.973   3.135
10582SOL     OW32644   6.613   3.144   6.932
10582SOL    HW132645   6.577   3.174   7.021
10582SOL    HW232646   6.705   3.181   6.919
10583SOL     OW32647   4.473   2.030   5.472
10583SOL    HW132648   4.458   2.000   5.378
10583SOL    HW232649   4.444   2.126   5.481
10584SOL     OW32650   0.404   0.540   3.878
10584SOL    HW132651   0.345   0.561   3.800
10584SOL    HW232652   0.347   0.519   3.958
10585SOL     OW32653   1.570   1.195   5.464
10585SOL    HW132654   1.473   1.210   5.447
10585SOL    HW232655   1.617   1.177   5.378
10586SOL     OW32656   4.400   3.876   5.852
10586SOL    HW132657   4.318   3.829   5.886
10586SOL    HW232658   4.465   3.888   5.927
10587SOL     OW32659   1.997   5.100   4.992
10587SOL    HW132660   1.982   5.012   4.946
10587SOL    HW232661   2.094   5.108   5.016
10588SOL     OW32662   1.393   3.810   4.121
10588SOL    HW132663   1.368   3.903   4.094
10588SOL    HW232664   1.419   3.758   4.040
10589SOL     OW32665   6.235   0.045   3.573
10589SOL    HW132666   6.201   6.978   3.565
10589SOL    HW232667   6.301   0.051   3.647
10590SOL     OW32668   0.935   5.701   2.281
10590SOL    HW132669   1.004   5.774   2.286
10590SOL    HW232670   0.865   5.717   2.351
10591SOL     OW32671   6.757   4.171   2.420
10591SOL    HW132672   6.697   4.202   2.494
10591SOL    HW232673   6.820   4.102   2.456
10592SOL     OW32674   0.050   2.593   4.475
10592SOL    HW132675   0.058   2.494   4.481
10592SOL    HW232676   0.041   2.620   4.379
10593SOL     OW32677   3.474   5.785   3.656
10593SOL    HW132678   3.411   5.840   3.710
10593SOL    HW232679   3.566   5.824   3.662
10594SOL     OW32680   3.387   5.901   3.904
10594SOL    HW132681   3.323   5.905   3.980
10594SOL    HW232682   3.469   5.953   3.927
10595SOL     OW32683   4.853   6.647   0.993
10595SOL    HW132684   4.789   6.617   0.922
10595SOL    HW232685   4.922   6.576   1.008
10596SOL     OW32686   5.382   3.772   0.417
10596SOL    HW132687   5.437   3.731   0.345
10596SOL    HW232688   5.353   3.701   0.482
10597SOL     OW32689   1.667   6.820   5.025
10597SOL    HW132690   1.708   6.730   5.038
10597SOL    HW232691   1.645   6.833   4.928
10598SOL     OW32692   3.369   1.036   0.759
10598SOL    HW132693   3.387   0.962   0.695
10598SOL    HW232694   3.422   1.117   0.733
10599SOL     OW32695   0.695   2.621   0.825
10599SOL    HW132696   0.701   2.556   0.749
10599SOL    HW232697   0.600   2.628   0.855
10600SOL     OW32698   4.266   1.045   1.823
10600SOL    HW132699   4.224   1.033   1.913
10600SOL    HW232700   4.346   0.984   1.816
10601SOL     OW32701   1.849   1.469   4.940
10601SOL    HW132702   1.945   1.486   4.963
10601SOL    HW232703   1.824   1.376   4.966
10602SOL     OW32704   6.592   6.534   1.711
10602SOL    HW132705   6.637   6.541   1.800
10602SOL    HW232706   6.510   6.477   1.720
10603SOL     OW32707   5.968   0.784   3.037
10603SOL    HW132708   5.920   0.744   2.959
10603SOL    HW232709   5.904   0.840   3.090
10604SOL     OW32710   5.289   1.919   5.311
10604SOL    HW132711   5.320   1.830   5.345
10604SOL    HW232712   5.363   1.986   5.319
10605SOL     OW32713   3.892   2.119   1.547
10605SOL    HW132714   3.895   2.160   1.638
10605SOL    HW232715   3.815   2.056   1.542
10606SOL     OW32716   6.361   1.764   0.486
10606SOL    HW132717   6.388   1.693   0.421
10606SOL    HW232718   6.283   1.733   0.539
10607SOL     OW32719   2.768   4.942   1.145
10607SOL    HW132720   2.714   4.976   1.221
10607SOL    HW232721   2.714   4.875   1.093
10608SOL     OW32722   5.590   3.909   2.993
10608SOL    HW132723   5.521   3.878   3.058
10608SOL    HW232724   5.677   3.923   3.040
10609SOL     OW32725   6.059   6.710   6.400
10609SOL    HW132726   6.064   6.808   6.417
10609SOL    HW232727   6.149   6.676   6.375
10610SOL     OW32728   0.583   1.351   2.934
10610SOL    HW132729   0.667   1.403   2.954
10610SOL    HW232730   0.504   1.411   2.946
10611SOL     OW32731   4.390   4.982   5.084
10611SOL    HW132732   4.345   5.070   5.069
10611SOL    HW232733   4.326   4.908   5.064
10612SOL     OW32734   6.041   2.841   3.634
10612SOL    HW132735   6.009   2.935   3.626
10612SOL    HW232736   5.997   2.785   3.564
10613SOL     OW32737   4.922   5.572   5.056
10613SOL    HW132738   4.880   5.557   4.967
10613SOL    HW232739   4.962   5.487   5.090
10614SOL     OW32740   4.003   2.473   6.805
10614SOL    HW132741   3.969   2.559   6.770
10614SOL    HW232742   4.082   2.489   6.865
10615SOL     OW32743   2.796   2.487   5.278
10615SOL    HW132744   2.807   2.528   5.369
10615SOL    HW232745   2.721   2.533   5.230
10616SOL     OW32746   1.441   5.955   0.167
10616SOL    HW132747   1.437   5.863   0.206
10616SOL    HW232748   1.494   6.015   0.228
10617SOL     OW32749   1.357   2.845   0.701
10617SOL    HW132750   1.373   2.943   0.710
10617SOL    HW232751   1.330   2.824   0.607
10618SOL     OW32752   0.561   5.233   4.443
10618SOL    HW132753   0.640   5.176   4.423
10618SOL    HW232754   0.554   5.306   4.374
10619SOL     OW32755   1.232   3.068   0.981
10619SOL    HW132756   1.169   3.075   1.059
10619SOL    HW232757   1.326   3.057   1.014
10620SOL     OW32758   3.557   0.827   5.614
10620SOL    HW132759   3.475   0.883   5.601
10620SOL    HW232760   3.576   0.817   5.711
10621SOL     OW32761   0.745   3.661   3.989
10621SOL    HW132762   0.732   3.615   4.077
10621SOL    HW232763   0.746   3.593   3.915
10622SOL     OW32764   4.098   2.258   6.117
10622SOL    HW132765   4.178   2.202   6.092
10622SOL    HW232766   4.020   2.231   6.060
10623SOL     OW32767   5.522   5.460   5.754
10623SOL    HW132768   5.530   5.559   5.744
10623SOL    HW232769   5.612   5.418   5.748
10624SOL     OW32770   0.233   1.895   6.431
10624SOL    HW132771   0.236   1.968   6.499
10624SOL    HW232772   0.220   1.807   6.477
10625SOL     OW32773   5.974   5.591   0.437
10625SOL    HW132774   5.897   5.569   0.376
10625SOL    HW232775   5.939   5.634   0.520
10626SOL     OW32776   5.863   3.148   2.346
10626SOL    HW132777   5.857   3.178   2.441
10626SOL    HW232778   5.787   3.187   2.293
10627SOL     OW32779   5.793   4.816   5.523
10627SOL    HW132780   5.835   4.771   5.444
10627SOL    HW232781   5.830   4.776   5.607
10628SOL     OW32782   2.613   5.970   0.826
10628SOL    HW132783   2.545   5.953   0.897
10628SOL    HW232784   2.576   5.945   0.736
10629SOL     OW32785   4.548   4.950   4.150
10629SOL    HW132786   4.538   4.934   4.248
10629SOL    HW232787   4.490   4.885   4.100
10630SOL     OW32788   3.949   0.632   1.470
10630SOL    HW132789   4.043   0.619   1.438
10630SOL    HW232790   3.925   0.729   1.465
10631SOL     OW32791   3.700   5.707   1.791
10631SOL    HW132792   3.706   5.660   1.879
10631SOL    HW232793   3.611   5.687   1.749
10632SOL     OW32794   5.699   6.891   4.108
10632SOL    HW132795   5.739   6.850   4.025
10632SOL    HW232796   5.735   6.983   4.119
10633SOL     OW32797   2.428   2.989   0.306
10633SOL    HW132798   2.344   3.040   0.286
10633SOL    HW232799   2.482   2.980   0.222
10634SOL     OW32800   1.285   4.832   0.010
10634SOL    HW132801   1.263   4.856   0.105
10634SOL    HW232802   1.316   4.737   0.006
10635SOL     OW32803   3.292   5.013   6.427
10635SOL    HW132804   3.342   5.092   6.462
10635SOL    HW232805   3.352   4.958   6.368
10636SOL     OW32806   6.265   3.075   0.669
10636SOL    HW132807   6.325   3.135   0.721
10636SOL    HW232808   6.253   2.989   0.719
10637SOL     OW32809   2.992   1.157   6.102
10637SOL    HW132810   2.951   1.221   6.037
10637SOL    HW232811   2.924   1.088   6.127
10638SOL     OW32812   4.998   5.175   0.464
10638SOL    HW132813   5.063   5.104   0.490
10638SOL    HW232814   4.933   5.139   0.398
10639SOL     OW32815   6.109   5.051   0.229
10639SOL    HW132816   6.036   5.038   0.296
10639SOL    HW232817   6.197   5.057   0.278
10640SOL     OW32818   3.920   6.362   4.257
10640SOL    HW132819   3.949   6.394   4.347
10640SOL    HW232820   3.977   6.405   4.186
10641SOL     OW32821   1.186   1.378   3.300
10641SOL    HW132822   1.090   1.385   3.271
10641SOL    HW232823   1.245   1.392   3.221
10642SOL     OW32824   0.167   2.110   6.161
10642SOL    HW132825   0.179   2.135   6.257
10642SOL    HW232826   0.094   2.042   6.153
10643SOL     OW32827   3.083   5.331   5.700
10643SOL    HW132828   3.085   5.274   5.782
10643SOL    HW232829   3.169   5.381   5.691
10644SOL     OW32830   0.135   3.552   2.843
10644SOL    HW132831   0.066   3.505   2.899
10644SOL    HW232832   0.102   3.558   2.749
10645SOL     OW32833   2.259   2.732   3.084
10645SOL    HW132834   2.163   2.718   3.105
10645SOL    HW232835   2.277   2.829   3.068
10646SOL     OW32836   4.896   0.588   3.328
10646SOL    HW132837   4.846   0.577   3.242
10646SOL    HW232838   4.850   0.657   3.385
10647SOL     OW32839   3.941   5.339   4.915
10647SOL    HW132840   3.937   5.406   4.841
10647SOL    HW232841   3.853   5.291   4.920
10648SOL     OW32842   4.774   4.221   5.204
10648SOL    HW132843   4.810   4.308   5.170
10648SOL    HW232844   4.674   4.227   5.212
10649SOL     OW32845   6.476   3.128   3.597
10649SOL    HW132846   6.525   3.156   3.680
10649SOL    HW232847   6.430   3.040   3.613
10650SOL     OW32848   0.350   6.846   2.610
10650SOL    HW132849   0.385   6.908   2.680
10650SOL    HW232850   0.271   6.888   2.564
10651SOL     OW32851   2.328   6.437   5.913
10651SOL    HW132852   2.241   6.486   5.907
10651SOL    HW232853   2.310   6.342   5.938
10652SOL     OW32854   2.247   0.540   0.014
10652SOL    HW132855   2.244   0.636   0.042
10652SOL    HW232856   2.206   0.530   6.951
10653SOL     OW32857   5.421   6.290   4.762
10653SOL    HW132858   5.351   6.360   4.747
10653SOL    HW232859   5.419   6.223   4.688
10654SOL     OW32860   6.828   1.408   3.788
10654SOL    HW132861   6.771   1.451   3.857
10654SOL    HW232862   6.923   1.407   3.820
10655SOL     OW32863   6.877   4.800   0.688
10655SOL    HW132864   6.848   4.867   0.757
10655SOL    HW232865   6.797   4.757   0.647
10656SOL     OW32866   5.941   1.655   5.691
10656SOL    HW132867   5.906   1.586   5.628
10656SOL    HW232868   5.886   1.738   5.684
10657SOL     OW32869   4.701   6.837   5.550
10657SOL    HW132870   4.757   6.916   5.528
10657SOL    HW232871   4.752   6.753   5.530
10658SOL     OW32872   0.539   1.721   5.688
10658SOL    HW132873   0.489   1.671   5.617
10658SOL    HW232874   0.531   1.673   5.775
10659SOL     OW32875   6.695   5.611   0.175
10659SOL    HW132876   6.789   5.637   0.197
10659SOL    HW232877   6.635   5.635   0.252
10660SOL     OW32878   5.864   2.937   6.694
10660SOL    HW132879   5.914   2.851   6.684
10660SOL    HW232880   5.779   2.933   6.641
10661SOL     OW32881   3.628   5.716   5.732
10661SOL    HW132882   3.530   5.722   5.749
10661SOL    HW232883   3.677   5.775   5.797
10662SOL     OW32884   3.436   1.434   0.940
10662SOL    HW132885   3.365   1.505   0.941
10662SOL    HW232886   3.423   1.373   1.019
10663SOL     OW32887   0.200   3.081   3.595
10663SOL    HW132888   0.182   3.112   3.502
10663SOL    HW232889   0.297   3.087   3.615
10664SOL     OW32890   1.195   6.265   4.614
10664SOL    HW132891   1.097   6.260   4.595
10664SOL    HW232892   1.218   6.200   4.687
10665SOL     OW32893   3.204   3.454   0.396
10665SOL    HW132894   3.183   3.476   0.491
10665SOL    HW232895   3.282   3.510   0.365
10666SOL     OW32896   4.113   3.800   1.144
10666SOL    HW132897   4.084   3.890   1.178
10666SOL    HW232898   4.094   3.794   1.046
10667SOL     OW32899   5.602   2.405   4.262
10667SOL    HW132900   5.629   2.468   4.335
10667SOL    HW232901   5.579   2.457   4.180
10668SOL     OW32902   3.391   3.365   6.034
10668SOL    HW132903   3.358   3.457   6.013
10668SOL    HW232904   3.448   3.367   6.116
10669SOL     OW32905   6.295   1.873   1.528
10669SOL    HW132906   6.379   1.822   1.547
10669SOL    HW232907   6.279   1.939   1.601
10670SOL     OW32908   4.593   4.395   3.778
10670SOL    HW132909   4.557   4.488   3.776
10670SOL    HW232910   4.602   4.364   3.873
10671SOL     OW32911   1.766   3.087   4.702
10671SOL    HW132912   1.798   3.078   4.608
10671SOL    HW232913   1.836   3.132   4.757
10672SOL     OW32914   6.307   4.013   1.726
10672SOL    HW132915   6.243   4.000   1.802
10672SOL    HW232916   6.398   3.986   1.755
10673SOL     OW32917   3.047   1.302   1.276
10673SOL    HW132918   2.953   1.299   1.239
10673SOL    HW232919   3.066   1.395   1.308
10674SOL     OW32920   3.810   3.393   4.126
10674SOL    HW132921   3.851   3.365   4.213
10674SOL    HW232922   3.872   3.372   4.051
10675SOL     OW32923   3.461   6.639   5.574
10675SOL    HW132924   3.461   6.665   5.671
10675SOL    HW232925   3.383   6.681   5.528
10676SOL     OW32926   1.697   0.605   5.465
10676SOL    HW132927   1.796   0.623   5.460
10676SOL    HW232928   1.680   0.507   5.456
10677SOL     OW32929   0.503   2.337   0.024
10677SOL    HW132930   0.511   2.432   0.055
10677SOL    HW232931   0.506   2.276   0.103
10678SOL     OW32932   3.814   5.375   2.497
10678SOL    HW132933   3.744   5.311   2.530
10678SOL    HW232934   3.841   5.437   2.571
10679SOL     OW32935   4.748   3.644   0.475
10679SOL    HW132936   4.721   3.599   0.560
10679SOL    HW232937   4.842   3.677   0.484
10680SOL     OW32938   4.223   0.971   5.762
10680SOL    HW132939   4.233   0.872   5.757
10680SOL    HW232940   4.168   0.996   5.843
10681SOL     OW32941   2.498   3.280   5.350
10681SOL    HW132942   2.576   3.334   5.320
10681SOL    HW232943   2.501   3.189   5.308
10682SOL     OW32944   4.719   3.402   6.465
10682SOL    HW132945   4.747   3.465   6.538
10682SOL    HW232946   4.627   3.369   6.484
10683SOL     OW32947   2.623   0.418   3.124
10683SOL    HW132948   2.566   0.349   3.077
10683SOL    HW232949   2.718   0.389   3.122
10684SOL     OW32950   4.755   4.665   1.840
10684SOL    HW132951   4.811   4.712   1.771
10684SOL    HW232952   4.746   4.724   1.920
10685SOL     OW32953   0.953   6.685   2.219
10685SOL    HW132954   1.043   6.676   2.177
10685SOL    HW232955   0.883   6.663   2.151
10686SOL     OW32956   2.604   1.141   6.916
10686SOL    HW132957   2.612   1.167   6.820
10686SOL    HW232958   2.619   1.043   6.926
10687SOL     OW32959   0.927   3.414   3.430
10687SOL    HW132960   0.834   3.449   3.442
10687SOL    HW232961   0.987   3.455   3.499
10688SOL     OW32962   5.232   1.268   3.815
10688SOL    HW132963   5.244   1.241   3.910
10688SOL    HW232964   5.206   1.188   3.761
10689SOL     OW32965   1.177   1.265   2.544
10689SOL    HW132966   1.129   1.337   2.593
10689SOL    HW232967   1.112   1.195   2.515
10690SOL     OW32968   0.932   6.607   4.390
10690SOL    HW132969   1.016   6.643   4.350
10690SOL    HW232970   0.929   6.508   4.377
10691SOL     OW32971   3.178   6.340   1.662
10691SOL    HW132972   3.216   6.339   1.754
10691SOL    HW232973   3.113   6.416   1.654
10692SOL     OW32974   2.790   1.622   4.218
10692SOL    HW132975   2.814   1.719   4.224
10692SOL    HW232976   2.735   1.607   4.136
10693SOL     OW32977   1.282   5.217   0.405
10693SOL    HW132978   1.221   5.294   0.383
10693SOL    HW232979   1.340   5.198   0.326
10694SOL     OW32980   4.498   0.313   5.516
10694SOL    HW132981   4.431   0.306   5.590
10694SOL    HW232982   4.585   0.344   5.553
10695SOL     OW32983   5.095   4.316   1.996
10695SOL    HW132984   5.188   4.354   1.991
10695SOL    HW232985   5.032   4.388   2.024
10696SOL     OW32986   6.284   4.384   4.100
10696SOL    HW132987   6.256   4.452   4.168
10696SOL    HW232988   6.296   4.429   4.011
10697SOL     OW32989   2.943   5.408   5.300
10697SOL    HW132990   2.933   5.312   5.327
10697SOL    HW232991   2.858   5.457   5.317
10698SOL     OW32992   3.409   3.649   0.292
10698SOL    HW132993   3.491   3.616   0.339
10698SOL    HW232994   3.429   3.659   0.194
10699SOL     OW32995   3.644   3.104   0.654
10699SOL    HW132996   3.677   3.196   0.634
10699SOL    HW232997   3.551   3.093   0.620
10700SOL     OW32998   4.824   0.471   1.246
10700SOL    HW132999   4.915   0.429   1.253
10700SOL    HW233000   4.757   0.413   1.292
10701SOL     OW33001   3.228   6.516   6.261
10701SOL    HW133002   3.131   6.536   6.275
10701SOL    HW233003   3.280   6.601   6.266
10702SOL     OW33004   5.835   1.637   1.798
10702SOL    HW133005   5.739   1.657   1.779
10702SOL    HW233006   5.851   1.641   1.897
10703SOL     OW33007   0.549   2.041   5.317
10703SOL    HW133008   0.596   2.004   5.237
10703SOL    HW233009   0.470   2.094   5.289
10704SOL     OW33010   5.440   6.642   2.127
10704SOL    HW133011   5.493   6.592   2.059
10704SOL    HW233012   5.346   6.656   2.094
10705SOL     OW33013   4.556   2.994   0.575
10705SOL    HW133014   4.619   2.917   0.561
10705SOL    HW233015   4.584   3.070   0.516
10706SOL     OW33016   3.632   0.907   1.584
10706SOL    HW133017   3.723   0.911   1.541
10706SOL    HW233018   3.633   0.836   1.655
10707SOL     OW33019   4.874   6.718   3.581
10707SOL    HW133020   4.876   6.746   3.485
10707SOL    HW233021   4.920   6.630   3.590
10708SOL     OW33022   4.213   0.817   2.092
10708SOL    HW133023   4.164   0.757   2.029
10708SOL    HW233024   4.150   0.848   2.163
10709SOL     OW33025   6.203   4.566   3.258
10709SOL    HW133026   6.153   4.529   3.337
10709SOL    HW233027   6.239   4.491   3.204
10710SOL     OW33028   4.534   1.780   3.879
10710SOL    HW133029   4.549   1.866   3.929
10710SOL    HW233030   4.618   1.727   3.879
10711SOL     OW33031   3.393   7.017   2.606
10711SOL    HW133032   3.455   6.943   2.633
10711SOL    HW233033   3.414   0.020   2.513
10712SOL     OW33034   5.350   0.226   3.575
10712SOL    HW133035   5.294   0.157   3.621
10712SOL    HW233036   5.427   0.251   3.635
10713SOL     OW33037   1.730   3.888   1.780
10713SOL    HW133038   1.756   3.908   1.874
10713SOL    HW233039   1.749   3.967   1.722
10714SOL     OW33040   3.136   3.720   4.689
10714SOL    HW133041   3.115   3.668   4.771
10714SOL    HW233042   3.072   3.696   4.616
10715SOL     OW33043   5.715   0.700   1.897
10715SOL    HW133044   5.664   0.614   1.909
10715SOL    HW233045   5.813   0.680   1.891
10716SOL     OW33046   5.128   0.779   3.251
10716SOL    HW133047   5.101   0.684   3.234
10716SOL    HW233048   5.220   0.794   3.214
10717SOL     OW33049   1.922   3.161   6.465
10717SOL    HW133050   1.998   3.101   6.440
10717SOL    HW233051   1.853   3.159   6.392
10718SOL     OW33052   1.967   5.349   5.794
10718SOL    HW133053   1.936   5.442   5.812
10718SOL    HW233054   2.014   5.313   5.874
10719SOL     OW33055   0.446   5.825   4.796
10719SOL    HW133056   0.544   5.837   4.806
10719SOL    HW233057   0.421   5.730   4.816
10720SOL     OW33058   0.314   4.512   3.441
10720SOL    HW133059   0.214   4.505   3.429
10720SOL    HW233060   0.342   4.460   3.521
10721SOL     OW33061   5.127   3.591   5.826
10721SOL    HW133062   5.131   3.492   5.815
10721SOL    HW233063   5.159   3.616   5.917
10722SOL     OW33064   6.811   3.559   5.648
10722SOL    HW133065   6.714   3.558   5.624
10722SOL    HW233066   6.838   3.468   5.681
10723SOL     OW33067   5.722   6.600   0.986
10723SOL    HW133068   5.687   6.582   1.078
10723SOL    HW233069   5.746   6.514   0.942
10724SOL     OW33070   6.972   6.493   6.702
10724SOL    HW133071   7.014   6.477   6.613
10724SOL    HW233072   6.897   6.559   6.692
10725SOL     OW33073   2.033   6.074   5.706
10725SOL    HW133074   2.097   5.998   5.717
10725SOL    HW233075   2.025   6.096   5.608
10726SOL     OW33076   4.610   1.035   4.543
10726SOL    HW133077   4.646   1.110   4.488
10726SOL    HW233078   4.654   1.035   4.633
10727SOL     OW33079   2.132   6.696   6.162
10727SOL    HW133080   2.138   6.725   6.066
10727SOL    HW233081   2.054   6.634   6.173
10728SOL     OW33082   5.007   5.879   0.545
10728SOL    HW133083   5.097   5.905   0.582
10728SOL    HW233084   4.962   5.817   0.609
10729SOL     OW33085   6.667   2.477   1.389
10729SOL    HW133086   6.722   2.542   1.337
10729SOL    HW233087   6.624   2.524   1.466
10730SOL     OW33088   4.607   0.102   2.627
10730SOL    HW133089   4.583   0.193   2.595
10730SOL    HW233090   4.700   0.079   2.597
10731SOL     OW33091   4.654   0.034   1.109
10731SOL    HW133092   4.569   7.009   1.113
10731SOL    HW233093   4.667   0.071   1.017
10732SOL     OW33094   0.658   3.955   6.266
10732SOL    HW133095   0.639   3.918   6.357
10732SOL    HW233096   0.740   4.013   6.271
10733SOL     OW33097   6.302   2.002   0.343
10733SOL    HW133098   6.378   2.063   0.323
10733SOL    HW233099   6.336   1.909   0.358
10734SOL     OW33100   6.729   2.875   2.050
10734SOL    HW133101   6.756   2.828   1.966
10734SOL    HW233102   6.742   2.973   2.039
10735SOL     OW33103   0.206   4.894   3.063
10735SOL    HW133104   0.137   4.824   3.081
10735SOL    HW233105   0.172   4.982   3.094
10736SOL     OW33106   2.390   0.730   4.029
10736SOL    HW133107   2.318   0.798   4.015
10736SOL    HW233108   2.351   0.638   4.020
10737SOL     OW33109   6.984   2.591   1.308
10737SOL    HW133110   6.912   2.612   1.242
10737SOL    HW233111   0.047   2.600   1.264
10738SOL     OW33112   4.499   6.772   3.709
10738SOL    HW133113   4.434   6.772   3.785
10738SOL    HW233114   4.588   6.804   3.742
10739SOL     OW33115   2.761   1.884   1.993
10739SOL    HW133116   2.836   1.850   2.050
10739SOL    HW233117   2.709   1.807   1.956
10740SOL     OW33118   4.459   5.214   3.275
10740SOL    HW133119   4.549   5.257   3.268
10740SOL    HW233120   4.425   5.194   3.183
10741SOL     OW33121   3.804   0.843   2.885
10741SOL    HW133122   3.772   0.871   2.975
10741SOL    HW233123   3.853   0.756   2.893
10742SOL     OW33124   6.822   5.511   0.650
10742SOL    HW133125   6.790   5.605   0.639
10742SOL    HW233126   6.747   5.455   0.686
10743SOL     OW33127   2.515   2.637   5.239
10743SOL    HW133128   2.532   2.725   5.284
10743SOL    HW233129   2.472   2.653   5.150
10744SOL     OW33130   4.860   1.710   0.530
10744SOL    HW133131   4.770   1.697   0.572
10744SOL    HW233132   4.851   1.714   0.431
10745SOL     OW33133   6.651   5.701   6.012
10745SOL    HW133134   6.741   5.680   6.050
10745SOL    HW233135   6.580   5.670   6.075
10746SOL     OW33136   0.736   4.305   6.181
10746SOL    HW133137   0.828   4.287   6.216
10746SOL    HW233138   0.730   4.277   6.085
10747SOL     OW33139   3.169   2.167   4.459
10747SOL    HW133140   3.256   2.132   4.495
10747SOL    HW233141   3.094   2.130   4.514
10748SOL     OW33142   4.792   1.507   2.166
10748SOL    HW133143   4.744   1.472   2.085
10748SOL    HW233144   4.881   1.461   2.175
10749SOL     OW33145   2.622   0.302   6.471
10749SOL    HW133146   2.614   0.392   6.429
10749SOL    HW233147   2.717   0.272   6.470
10750SOL     OW33148   3.833   0.092   6.533
10750SOL    HW133149   3.837   0.150   6.614
10750SOL    HW233150   3.924   0.086   6.492
10751SOL     OW33151   1.731   5.307   3.839
10751SOL    HW133152   1.634   5.283   3.830
10751SOL    HW233153   1.746   5.354   3.926
10752SOL     OW33154   4.926   4.675   3.903
10752SOL    HW133155   4.837   4.696   3.943
10752SOL    HW233156   4.999   4.711   3.962
10753SOL     OW33157   6.827   3.311   4.416
10753SOL    HW133158   6.820   3.289   4.513
10753SOL    HW233159   6.751   3.267   4.367
10754SOL     OW33160   1.619   0.530   2.401
10754SOL    HW133161   1.648   0.522   2.306
10754SOL    HW233162   1.695   0.507   2.462
10755SOL     OW33163   5.868   5.528   2.124
10755SOL    HW133164   5.933   5.474   2.177
10755SOL    HW233165   5.775   5.494   2.141
10756SOL     OW33166   0.640   7.010   4.941
10756SOL    HW133167   0.680   6.997   5.031
10756SOL    HW233168   0.621   0.081   4.927
10757SOL     OW33169   2.740   3.368   1.103
10757SOL    HW133170   2.768   3.338   1.011
10757SOL    HW233171   2.818   3.408   1.150
10758SOL     OW33172   0.588   5.368   4.219
10758SOL    HW133173   0.540   5.438   4.166
10758SOL    HW233174   0.654   5.322   4.160
10759SOL     OW33175   6.993   2.164   6.635
10759SOL    HW133176   6.930   2.113   6.577
10759SOL    HW233177   6.941   2.218   6.701
10760SOL     OW33178   5.543   1.132   4.663
10760SOL    HW133179   5.570   1.169   4.574
10760SOL    HW233180   5.486   1.199   4.711
10761SOL     OW33181   2.730   4.664   5.677
10761SOL    HW133182   2.757   4.661   5.581
10761SOL    HW233183   2.806   4.701   5.732
10762SOL     OW33184   3.372   1.053   4.849
10762SOL    HW133185   3.278   1.087   4.845
10762SOL    HW233186   3.377   0.976   4.912
10763SOL     OW33187   4.193   6.736   3.774
10763SOL    HW133188   4.135   6.669   3.728
10763SOL    HW233189   4.221   6.806   3.708
10764SOL     OW33190   5.035   6.943   4.802
10764SOL    HW133191   5.089   7.000   4.741
10764SOL    HW233192   4.992   7.000   4.872
10765SOL     OW33193   5.656   3.585   0.878
10765SOL    HW133194   5.740   3.569   0.826
10765SOL    HW233195   5.608   3.664   0.840
10766SOL     OW33196   4.071   3.309   1.490
10766SOL    HW133197   4.130   3.390   1.490
10766SOL    HW233198   3.978   3.335   1.463
10767SOL     OW33199   4.516   1.559   2.442
10767SOL    HW133200   4.449   1.620   2.400
10767SOL    HW233201   4.530   1.584   2.538
10768SOL     OW33202   5.815   4.699   0.184
10768SOL    HW133203   5.798   4.603   0.160
10768SOL    HW233204   5.753   4.727   0.257
10769SOL     OW33205   1.813   4.295   5.258
10769SOL    HW133206   1.788   4.244   5.176
10769SOL    HW233207   1.882   4.243   5.310
10770SOL     OW33208   3.724   5.858   3.650
10770SOL    HW133209   3.786   5.821   3.719
10770SOL    HW233210   3.777   5.899   3.576
10771SOL     OW33211   1.923   1.576   3.836
10771SOL    HW133212   1.883   1.667   3.822
10771SOL    HW233213   1.992   1.581   3.909
10772SOL     OW33214   5.526   5.471   3.892
10772SOL    HW133215   5.431   5.503   3.885
10772SOL    HW233216   5.527   5.375   3.919
10773SOL     OW33217   5.726   4.502   3.614
10773SOL    HW133218   5.732   4.417   3.561
10773SOL    HW233219   5.669   4.488   3.694
10774SOL     OW33220   0.798   0.495   2.981
10774SOL    HW133221   0.809   0.484   2.882
10774SOL    HW233222   0.704   0.525   3.001
10775SOL     OW33223   0.379   3.491   1.854
10775SOL    HW133224   0.450   3.450   1.911
10775SOL    HW233225   0.306   3.424   1.840
10776SOL     OW33226   1.603   0.478   6.454
10776SOL    HW133227   1.530   0.410   6.456
10776SOL    HW233228   1.599   0.534   6.537
10777SOL     OW33229   2.407   5.663   0.880
10777SOL    HW133230   2.451   5.664   0.790
10777SOL    HW233231   2.434   5.746   0.930
10778SOL     OW33232   5.964   5.462   2.595
10778SOL    HW133233   5.886   5.478   2.656
10778SOL    HW233234   5.978   5.364   2.584
10779SOL     OW33235   5.265   2.576   3.832
10779SOL    HW133236   5.279   2.653   3.769
10779SOL    HW233237   5.352   2.530   3.850
10780SOL     OW33238   6.523   0.353   2.602
10780SOL    HW133239   6.587   0.401   2.543
10780SOL    HW233240   6.530   0.389   2.695
10781SOL     OW33241   3.560   0.069   4.275
10781SOL    HW133242   3.546   0.072   4.374
10781SOL    HW233243   3.617   7.017   4.252
10782SOL     OW33244   6.093   5.467   4.199
10782SOL    HW133245   6.106   5.378   4.242
10782SOL    HW233246   6.169   5.486   4.137
10783SOL     OW33247   0.092   1.886   3.385
10783SOL    HW133248   0.086   1.974   3.433
10783SOL    HW233249   0.007   1.835   3.401
10784SOL     OW33250   2.922   1.572   4.613
10784SOL    HW133251   2.941   1.582   4.711
10784SOL    HW233252   2.908   1.476   4.591
10785SOL     OW33253   1.025   4.007   6.458
10785SOL    HW133254   1.120   3.990   6.482
10785SOL    HW233255   1.017   4.019   6.359
10786SOL     OW33256   0.751   4.801   3.199
10786SOL    HW133257   0.745   4.711   3.243
10786SOL    HW233258   0.666   4.851   3.214
10787SOL     OW33259   1.538   1.894   6.553
10787SOL    HW133260   1.502   1.920   6.463
10787SOL    HW233261   1.558   1.976   6.606
10788SOL     OW33262   5.823   3.789   6.094
10788SOL    HW133263   5.789   3.841   6.173
10788SOL    HW233264   5.923   3.788   6.096
10789SOL     OW33265   6.043   1.867   0.576
10789SOL    HW133266   5.964   1.864   0.638
10789SOL    HW233267   6.080   1.775   0.564
10790SOL     OW33268   0.076   6.046   2.960
10790SOL    HW133269   0.132   5.963   2.961
10790SOL    HW233270   0.116   6.113   3.022
10791SOL     OW33271   0.413   6.671   2.830
10791SOL    HW133272   0.336   6.699   2.772
10791SOL    HW233273   0.469   6.751   2.851
10792SOL     OW33274   3.920   4.288   5.256
10792SOL    HW133275   3.865   4.268   5.175
10792SOL    HW233276   3.950   4.202   5.297
10793SOL     OW33277   5.838   3.569   4.641
10793SOL    HW133278   5.828   3.516   4.726
10793SOL    HW233279   5.857   3.507   4.565
10794SOL     OW33280   3.279   4.054   3.376
10794SOL    HW133281   3.260   4.135   3.431
10794SOL    HW233282   3.202   3.990   3.382
10795SOL     OW33283   0.052   4.470   3.378
10795SOL    HW133284   7.013   4.499   3.309
10795SOL    HW233285   0.004   4.445   3.462
10796SOL     OW33286   1.182   6.070   5.164
10796SOL    HW133287   1.245   6.060   5.241
10796SOL    HW233288   1.195   6.160   5.122
10797SOL     OW33289   3.650   2.223   0.018
10797SOL    HW133290   3.672   2.174   6.961
10797SOL    HW233291   3.653   2.321   0.001
10798SOL     OW33292   6.841   1.404   1.094
10798SOL    HW133293   6.772   1.349   1.046
10798SOL    HW233294   6.815   1.500   1.091
10799SOL     OW33295   4.144   2.103   1.366
10799SOL    HW133296   4.229   2.154   1.358
10799SOL    HW233297   4.071   2.164   1.398
10800SOL     OW33298   0.887   0.474   1.592
10800SOL    HW133299   0.806   0.470   1.535
10800SOL    HW233300   0.913   0.381   1.620
10801SOL     OW33301   1.462   0.626   1.278
10801SOL    HW133302   1.527   0.643   1.352
10801SOL    HW233303   1.497   0.552   1.220
10802SOL     OW33304   6.545   1.099   3.519
10802SOL    HW133305   6.517   1.185   3.477
10802SOL    HW233306   6.511   1.095   3.613
10803SOL     OW33307   1.736   5.826   6.176
10803SOL    HW133308   1.811   5.858   6.117
10803SOL    HW233309   1.664   5.786   6.119
10804SOL     OW33310   0.204   2.996   4.389
10804SOL    HW133311   0.239   2.916   4.437
10804SOL    HW233312   0.280   3.053   4.357
10805SOL     OW33313   6.440   1.104   6.364
10805SOL    HW133314   6.475   1.090   6.457
10805SOL    HW233315   6.349   1.063   6.356
10806SOL     OW33316   1.810   5.180   0.009
10806SOL    HW133317   1.842   5.272   7.013
10806SOL    HW233318   1.868   5.112   6.990
10807SOL     OW33319   2.664   6.169   5.200
10807SOL    HW133320   2.713   6.185   5.286
10807SOL    HW233321   2.730   6.163   5.125
10808SOL     OW33322   0.854   3.507   6.281
10808SOL    HW133323   0.861   3.434   6.213
10808SOL    HW233324   0.943   3.523   6.323
10809SOL     OW33325   2.007   0.443   4.581
10809SOL    HW133326   2.067   0.458   4.502
10809SOL    HW233327   2.058   0.398   4.654
10810SOL     OW33328   6.737   0.162   4.110
10810SOL    HW133329   6.760   0.166   4.013
10810SOL    HW233330   6.638   0.168   4.121
10811SOL     OW33331   5.361   5.061   4.458
10811SOL    HW133332   5.357   5.025   4.551
10811SOL    HW233333   5.305   5.005   4.397
10812SOL     OW33334   6.019   2.914   0.484
10812SOL    HW133335   5.928   2.878   0.504
10812SOL    HW233336   6.080   2.895   0.561
10813SOL     OW33337   0.284   3.547   5.994
10813SOL    HW133338   0.262   3.600   6.075
10813SOL    HW233339   0.310   3.454   6.021
10814SOL     OW33340   3.359   1.304   1.261
10814SOL    HW133341   3.333   1.236   1.329
10814SOL    HW233342   3.324   1.394   1.289
10815SOL     OW33343   5.600   0.813   4.676
10815SOL    HW133344   5.549   0.899   4.665
10815SOL    HW233345   5.676   0.811   4.611
10816SOL     OW33346   3.884   3.056   4.629
10816SOL    HW133347   3.939   2.974   4.642
10816SOL    HW233348   3.839   3.052   4.540
10817SOL     OW33349   1.733   6.132   3.519
10817SOL    HW133350   1.729   6.138   3.619
10817SOL    HW233351   1.734   6.224   3.480
10818SOL     OW33352   3.867   4.390   6.834
10818SOL    HW133353   3.826   4.301   6.855
10818SOL    HW233354   3.795   4.460   6.832
10819SOL     OW33355   6.198   6.467   5.324
10819SOL    HW133356   6.266   6.511   5.264
10819SOL    HW233357   6.161   6.386   5.278
10820SOL     OW33358   2.685   4.471   5.964
10820SOL    HW133359   2.777   4.494   5.994
10820SOL    HW233360   2.629   4.447   6.044
10821SOL     OW33361   5.023   5.339   2.983
10821SOL    HW133362   5.099   5.399   2.961
10821SOL    HW233363   5.051   5.243   2.971
10822SOL     OW33364   5.401   0.924   1.578
10822SOL    HW133365   5.313   0.944   1.534
10822SOL    HW233366   5.414   0.986   1.656
10823SOL     OW33367   5.752   6.626   1.280
10823SOL    HW133368   5.695   6.700   1.318
10823SOL    HW233369   5.848   6.652   1.284
10824SOL     OW33370   1.024   3.155   3.831
10824SOL    HW133371   1.073   3.093   3.769
10824SOL    HW233372   1.089   3.218   3.873
10825SOL     OW33373   0.584   2.809   0.485
10825SOL    HW133374   0.621   2.749   0.557
10825SOL    HW233375   0.517   2.872   0.525
10826SOL     OW33376   0.385   3.470   2.903
10826SOL    HW133377   0.453   3.538   2.877
10826SOL    HW233378   0.293   3.505   2.883
10827SOL     OW33379   6.858   4.447   4.751
10827SOL    HW133380   6.819   4.503   4.677
10827SOL    HW233381   6.905   4.368   4.712
10828SOL     OW33382   6.419   4.414   5.315
10828SOL    HW133383   6.385   4.327   5.351
10828SOL    HW233384   6.519   4.415   5.320
10829SOL     OW33385   3.703   3.088   5.124
10829SOL    HW133386   3.756   3.079   5.039
10829SOL    HW233387   3.635   3.015   5.127
10830SOL     OW33388   4.369   2.245   3.334
10830SOL    HW133389   4.468   2.250   3.348
10830SOL    HW233390   4.338   2.325   3.282
10831SOL     OW33391   4.173   6.647   4.272
10831SOL    HW133392   4.233   6.701   4.213
10831SOL    HW233393   4.082   6.689   4.274
10832SOL     OW33394   6.685   2.688   0.084
10832SOL    HW133395   6.696   2.775   0.132
10832SOL    HW233396   6.591   2.655   0.096
10833SOL     OW33397   0.758   1.375   7.007
10833SOL    HW133398   0.736   1.418   6.919
10833SOL    HW233399   0.772   1.446   0.049
10834SOL     OW33400   6.118   6.326   1.601
10834SOL    HW133401   6.055   6.387   1.553
10834SOL    HW233402   6.068   6.278   1.673
10835SOL     OW33403   0.296   2.075   5.501
10835SOL    HW133404   0.298   1.986   5.546
10835SOL    HW233405   0.278   2.062   5.403
10836SOL     OW33406   0.062   0.938   3.356
10836SOL    HW133407   0.096   1.030   3.344
10836SOL    HW233408   0.127   0.885   3.410
10837SOL     OW33409   0.624   3.317   3.260
10837SOL    HW133410   0.660   3.242   3.315
10837SOL    HW233411   0.566   3.280   3.187
10838SOL     OW33412   0.579   6.007   2.221
10838SOL    HW133413   0.534   5.949   2.153
10838SOL    HW233414   0.515   6.025   2.296
10839SOL     OW33415   4.716   2.740   0.480
10839SOL    HW133416   4.640   2.729   0.416
10839SOL    HW233417   4.690   2.706   0.570
10840SOL     OW33418   2.595   0.290   1.498
10840SOL    HW133419   2.648   0.206   1.486
10840SOL    HW233420   2.578   0.332   1.408
10841SOL     OW33421   2.090   5.362   4.832
10841SOL    HW133422   2.033   5.414   4.768
10841SOL    HW233423   2.052   5.270   4.844
10842SOL     OW33424   5.301   4.520   1.978
10842SOL    HW133425   5.258   4.595   2.028
10842SOL    HW233426   5.397   4.512   2.007
10843SOL     OW33427   3.004   2.037   1.208
10843SOL    HW133428   2.971   1.963   1.266
10843SOL    HW233429   3.063   1.998   1.137
10844SOL     OW33430   1.317   5.123   5.194
10844SOL    HW133431   1.244   5.187   5.170
10844SOL    HW233432   1.372   5.162   5.268
10845SOL     OW33433   3.552   0.100   4.542
10845SOL    HW133434   3.650   0.081   4.544
10845SOL    HW233435   3.531   0.176   4.603
10846SOL     OW33436   5.560   0.065   6.052
10846SOL    HW133437   5.635   0.030   6.109
10846SOL    HW233438   5.530   7.020   5.990
10847SOL     OW33439   3.415   0.791   6.079
10847SOL    HW133440   3.361   0.872   6.099
10847SOL    HW233441   3.370   0.738   6.007
10848SOL     OW33442   1.824   4.841   1.805
10848SOL    HW133443   1.863   4.780   1.735
10848SOL    HW233444   1.836   4.799   1.895
10849SOL     OW33445   2.601   6.823   3.260
10849SOL    HW133446   2.584   6.730   3.292
10849SOL    HW233447   2.550   6.887   3.318
10850SOL     OW33448   4.523   4.405   0.843
10850SOL    HW133449   4.615   4.389   0.807
10850SOL    HW233450   4.458   4.413   0.767
10851SOL     OW33451   1.402   4.726   0.521
10851SOL    HW133452   1.369   4.638   0.488
10851SOL    HW233453   1.379   4.736   0.618
10852SOL     OW33454   2.488   2.234   2.667
10852SOL    HW133455   2.402   2.258   2.713
10852SOL    HW233456   2.471   2.221   2.569
10853SOL     OW33457   3.306   1.459   6.221
10853SOL    HW133458   3.363   1.443   6.302
10853SOL    HW233459   3.280   1.555   6.217
10854SOL     OW33460   2.870   6.569   5.202
10854SOL    HW133461   2.887   6.663   5.231
10854SOL    HW233462   2.827   6.518   5.277
10855SOL     OW33463   4.018   1.614   0.028
10855SOL    HW133464   3.961   1.627   6.974
10855SOL    HW233465   4.082   1.691   0.036
10856SOL     OW33466   0.597   1.220   0.966
10856SOL    HW133467   0.542   1.208   0.883
10856SOL    HW233468   0.553   1.286   1.026
10857SOL     OW33469   6.307   3.029   2.333
10857SOL    HW133470   6.404   3.004   2.335
10857SOL    HW233471   6.298   3.128   2.347
10858SOL     OW33472   3.151   6.193   2.308
10858SOL    HW133473   3.054   6.213   2.298
10858SOL    HW233474   3.191   6.176   2.218
10859SOL     OW33475   1.488   5.465   3.670
10859SOL    HW133476   1.395   5.430   3.675
10859SOL    HW233477   1.519   5.466   3.575
10860SOL     OW33478   0.157   3.576   3.470
10860SOL    HW133479   0.132   3.555   3.376
10860SOL    HW233480   0.099   3.522   3.532
10861SOL     OW33481   3.529   2.901   5.230
10861SOL    HW133482   3.445   2.852   5.210
10861SOL    HW233483   3.548   2.898   5.328
10862SOL     OW33484   0.861   0.474   5.050
10862SOL    HW133485   0.798   0.396   5.051
10862SOL    HW233486   0.955   0.441   5.046
10863SOL     OW33487   2.160   6.270   4.347
10863SOL    HW133488   2.089   6.224   4.400
10863SOL    HW233489   2.148   6.369   4.355
10864SOL     OW33490   3.619   6.116   2.821
10864SOL    HW133491   3.631   6.212   2.845
10864SOL    HW233492   3.593   6.109   2.724
10865SOL     OW33493   6.325   1.883   5.905
10865SOL    HW133494   6.228   1.858   5.908
10865SOL    HW233495   6.381   1.801   5.917
10866SOL     OW33496   5.131   4.913   0.520
10866SOL    HW133497   5.199   4.930   0.449
10866SOL    HW233498   5.170   4.853   0.590
10867SOL     OW33499   3.118   1.464   0.322
10867SOL    HW133500   3.178   1.410   0.382
10867SOL    HW233501   3.023   1.442   0.343
10868SOL     OW33502   2.901   2.256   3.128
10868SOL    HW133503   2.824   2.272   3.191
10868SOL    HW233504   2.977   2.215   3.178
10869NA      NA33505   6.243   2.569   5.337
10870NA      NA33506   4.463   4.583   5.194
10871NA      NA33507   2.209   3.586   1.736
10872NA      NA33508   4.853   3.735   5.229
10873NA      NA33509   4.404   2.487   5.271
10874NA      NA33510   3.655   4.777   1.685
10875NA      NA33511   6.558   6.085   4.576
10876NA      NA33512   3.741   3.463   4.872
10877NA      NA33513   4.685   6.887   6.538
10878NA      NA33514   2.832   0.422   5.013
10879NA      NA33515   0.624   5.125   2.543
10880NA      NA33516   2.883   0.505   2.651
10881NA      NA33517   3.518   4.157   1.407
10882NA      NA33518   3.618   3.195   2.742
   7.02688   7.02688   7.02688
